<event>
 7    1  0.1978681E-015  0.9000772E+02  0.7816164E-02  0.1186339E+00
        -11   -1    0    0    0    0  0.00000000000E+00  0.00000000000E+00  0.45593999997E+02  0.45594000000E+02  0.51100000000E-03 0. -1.
         11   -1    0    0    0    0 -0.00000000000E+00 -0.00000000000E+00 -0.45593999997E+02  0.45594000000E+02  0.51100000000E-03 0.  1.
    9900012    2    1    2    0    0 -0.10984204366E+00 -0.46564684907E+00  0.10789684865E+01  0.90007718145E+02  0.89999979224E+02 0.  0.
        -12    1    1    2    0    0  0.10984204366E+00  0.46564684907E+00 -0.10789684865E+01  0.11802818551E+01  0.00000000000E+00 0.  1.
         11    1    3    3    0    0 -0.29915299685E+01  0.20316952253E-01 -0.70964991420E+01  0.77012962977E+01  0.51100000000E-03 0. -1.
        -11    1    3    3    0    0 -0.13882069080E+02  0.33768006210E+02 -0.12914895321E+02  0.38727052648E+02  0.51100000000E-03 0.  1.
         12    1    3    3    0    0  0.16763757005E+02 -0.34253970012E+02  0.21090362950E+02  0.43579369200E+02  0.00000000000E+00 0. -1.
</event>
<event>
 7    1  0.1978681E-015  0.9000775E+02  0.7816164E-02  0.1186339E+00
        -11   -1    0    0    0    0  0.00000000000E+00  0.00000000000E+00  0.45593999997E+02  0.45594000000E+02  0.51100000000E-03 0.  1.
         11   -1    0    0    0    0 -0.00000000000E+00 -0.00000000000E+00 -0.45593999997E+02  0.45594000000E+02  0.51100000000E-03 0. -1.
    9900012    2    1    2    0    0  0.92185824921E+00  0.73617323278E+00 -0.34823623945E-01  0.90007751575E+02  0.90000013096E+02 0.  0.
        -12    1    1    2    0    0 -0.92185824921E+00 -0.73617323278E+00  0.34823623945E-01  0.11802484252E+01  0.00000000000E+00 0.  1.
         11    1    3    3    0    0 -0.12142439887E+02 -0.35559127639E+02  0.27171676491E+00  0.37576112560E+02  0.51100000000E-03 0. -1.
        -11    1    3    3    0    0  0.82170458017E+01 -0.51824782767E+01  0.38826872062E+01  0.10461987526E+02  0.51100000000E-03 0.  1.
        -12    1    3    3    0    0  0.48472523344E+01  0.41477779148E+02 -0.41892275950E+01  0.41969651489E+02  0.00000000000E+00 0.  1.
</event>
<event>
 7    1  0.1978681E-015  0.9000776E+02  0.7816164E-02  0.1186339E+00
        -11   -1    0    0    0    0  0.00000000000E+00  0.00000000000E+00  0.45593999997E+02  0.45594000000E+02  0.51100000000E-03 0.  1.
         11   -1    0    0    0    0 -0.00000000000E+00 -0.00000000000E+00 -0.45593999997E+02  0.45594000000E+02  0.51100000000E-03 0. -1.
    9900012    2    1    2    0    0 -0.28795387081E+00 -0.49140321674E+00 -0.10337135236E+01  0.90007763497E+02  0.90000025176E+02 0.  0.
        -12    1    1    2    0    0  0.28795387081E+00  0.49140321674E+00  0.10337135236E+01  0.11802365025E+01  0.00000000000E+00 0.  1.
         11    1    3    3    0    0  0.97177866900E+01 -0.18175029957E+02 -0.26984690825E+02  0.33954979477E+02  0.51100000000E-03 0. -1.
        -11    1    3    3    0    0  0.15183634292E+02  0.17906926579E+01 -0.17365996551E+01  0.15387173526E+02  0.51100000000E-03 0.  1.
        -12    1    3    3    0    0 -0.25189374853E+02  0.15892934082E+02  0.27687576956E+02  0.40665610495E+02  0.00000000000E+00 0.  1.
</event>
<event>
 7    1  0.1978681E-015  0.9000771E+02  0.7816164E-02  0.1186339E+00
        -11   -1    0    0    0    0  0.00000000000E+00  0.00000000000E+00  0.45593999997E+02  0.45594000000E+02  0.51100000000E-03 0.  1.
         11   -1    0    0    0    0 -0.00000000000E+00 -0.00000000000E+00 -0.45593999997E+02  0.45594000000E+02  0.51100000000E-03 0. -1.
    9900012    2    1    2    0    0 -0.69515461851E-01  0.55542200828E+00 -0.10391179670E+01  0.90007706750E+02  0.89999967679E+02 0.  0.
        -12    1    1    2    0    0  0.69515461851E-01 -0.55542200828E+00  0.10391179670E+01  0.11802932501E+01  0.00000000000E+00 0.  1.
         11    1    3    3    0    0  0.26278358200E+02 -0.87158870666E+01 -0.22433183802E+02  0.35633783588E+02  0.51100000000E-03 0. -1.
        -11    1    3    3    0    0  0.82064401525E+01 -0.26284511136E+01 -0.43675820898E+01  0.96607550846E+01  0.51100000000E-03 0.  1.
        -12    1    3    3    0    0 -0.34554313814E+02  0.11899760188E+02  0.25761647925E+02  0.44713168077E+02  0.00000000000E+00 0.  1.
</event>
<event>
 7    1  0.1978681E-015  0.9000774E+02  0.7816164E-02  0.1186339E+00
        -11   -1    0    0    0    0  0.00000000000E+00  0.00000000000E+00  0.45593999997E+02  0.45594000000E+02  0.51100000000E-03 0. -1.
         11   -1    0    0    0    0 -0.00000000000E+00 -0.00000000000E+00 -0.45593999997E+02  0.45594000000E+02  0.51100000000E-03 0.  1.
    9900012    2    1    2    0    0 -0.71515609063E+00  0.87981002460E+00  0.32785853702E+00  0.90007743615E+02  0.90000005031E+02 0.  0.
        -12    1    1    2    0    0  0.71515609063E+00 -0.87981002460E+00 -0.32785853702E+00  0.11802563847E+01  0.00000000000E+00 0.  1.
         11    1    3    3    0    0  0.83245754715E+01 -0.14521595597E+01 -0.21245725636E+00  0.84529558448E+01  0.51100000000E-03 0. -1.
        -11    1    3    3    0    0  0.14129239517E+02  0.36907914349E+02  0.43562205859E+01  0.39759353730E+02  0.51100000000E-03 0.  1.
         12    1    3    3    0    0 -0.23168971079E+02 -0.34575944765E+02 -0.38159047925E+01  0.41795434041E+02  0.00000000000E+00 0. -1.
</event>
<event>
 7    1  0.1978681E-015  0.9000757E+02  0.7816164E-02  0.1186339E+00
        -11   -1    0    0    0    0  0.00000000000E+00  0.00000000000E+00  0.45593999997E+02  0.45594000000E+02  0.51100000000E-03 0. -1.
         11   -1    0    0    0    0 -0.00000000000E+00 -0.00000000000E+00 -0.45593999997E+02  0.45594000000E+02  0.51100000000E-03 0.  1.
    9900012    2    1    2    0    0  0.69366869299E+00 -0.15166288219E+00  0.94298751906E+00  0.90007574930E+02  0.89999834119E+02 0.  0.
        -12    1    1    2    0    0 -0.69366869299E+00  0.15166288219E+00 -0.94298751906E+00  0.11804250703E+01  0.00000000000E+00 0.  1.
         11    1    3    3    0    0 -0.11185202105E+02 -0.42266272877E+01 -0.42123449908E+01  0.12677419885E+02  0.51100000000E-03 0. -1.
        -11    1    3    3    0    0  0.20383246367E+02 -0.33066713285E+02 -0.25426854424E+00  0.38845191629E+02  0.51100000000E-03 0.  1.
         12    1    3    3    0    0 -0.85043755691E+01  0.37141677691E+02  0.54096010541E+01  0.38484963415E+02  0.00000000000E+00 0. -1.
</event>
<event>
 7    1  0.2119874E-015  0.9000767E+02  0.7816164E-02  0.1186339E+00
        -11   -1    0    0    0    0  0.00000000000E+00  0.00000000000E+00  0.45593999997E+02  0.45594000000E+02  0.51100000000E-03 0. -1.
         11   -1    0    0    0    0 -0.00000000000E+00 -0.00000000000E+00 -0.45593999997E+02  0.45594000000E+02  0.51100000000E-03 0.  1.
    9900012    2    1    2    0    0  0.11784218011E+01  0.21649615746E-01  0.63448988887E-01  0.90007672748E+02  0.89999933228E+02 0.  0.
        -12    1    1    2    0    0 -0.11784218011E+01 -0.21649615746E-01 -0.63448988887E-01  0.11803272518E+01  0.00000000000E+00 0.  1.
         11    1    3    3    0    0  0.66086079651E+01 -0.45298132835E+01  0.60948872797E+01  0.10066804798E+02  0.51100000000E-03 0. -1.
        -11    1    3    3    0    0 -0.30088412648E+02  0.16233565635E+02  0.22132703288E+02  0.40727113622E+02  0.51100000000E-03 0.  1.
         12    1    3    3    0    0  0.24658226484E+02 -0.11682102736E+02 -0.28164141579E+02  0.39213754328E+02  0.00000000000E+00 0. -1.
</event>
<event>
 7    1  0.1978681E-015  0.9000770E+02  0.7816164E-02  0.1186339E+00
        -11   -1    0    0    0    0  0.00000000000E+00  0.00000000000E+00  0.45593999997E+02  0.45594000000E+02  0.51100000000E-03 0. -1.
         11   -1    0    0    0    0 -0.00000000000E+00 -0.00000000000E+00 -0.45593999997E+02  0.45594000000E+02  0.51100000000E-03 0.  1.
    9900012    2    1    2    0    0  0.53862937442E+00  0.10264504685E+01 -0.22223889954E+00  0.90007698218E+02  0.89999959035E+02 0.  0.
        -12    1    1    2    0    0 -0.53862937442E+00 -0.10264504685E+01  0.22223889954E+00  0.11803017817E+01  0.00000000000E+00 0.  1.
         11    1    3    3    0    0  0.94037895904E+01 -0.15391772505E+01  0.10553897105E+01  0.95871879595E+01  0.51100000000E-03 0. -1.
        -11    1    3    3    0    0  0.18518273732E+02  0.23087553682E+02 -0.25032831212E+02  0.38763439422E+02  0.51100000000E-03 0.  1.
         12    1    3    3    0    0 -0.27383433948E+02 -0.20521925963E+02  0.23755202602E+02  0.41657070837E+02  0.00000000000E+00 0. -1.
</event>
<event>
 7    1  0.1978681E-015  0.9000761E+02  0.7816164E-02  0.1186339E+00
        -11   -1    0    0    0    0  0.00000000000E+00  0.00000000000E+00  0.45593999997E+02  0.45594000000E+02  0.51100000000E-03 0.  1.
         11   -1    0    0    0    0 -0.00000000000E+00 -0.00000000000E+00 -0.45593999997E+02  0.45594000000E+02  0.51100000000E-03 0. -1.
    9900012    2    1    2    0    0 -0.83012062758E+00 -0.72542930616E+00 -0.42187762361E+00  0.90007606564E+02  0.89999866170E+02 0.  0.
        -12    1    1    2    0    0  0.83012062758E+00  0.72542930616E+00  0.42187762361E+00  0.11803934360E+01  0.00000000000E+00 0.  1.
         11    1    3    3    0    0  0.55070835934E+01 -0.39452840891E+01  0.50952226079E+01  0.84767051343E+01  0.51100000000E-03 0. -1.
        -11    1    3    3    0    0  0.36030607164E+02  0.11307684601E+02  0.16849368548E+01  0.37800891472E+02  0.51100000000E-03 0.  1.
         12    1    3    3    0    0 -0.42367811385E+02 -0.80878298184E+01 -0.72020370863E+01  0.43730009958E+02  0.00000000000E+00 0. -1.
</event>
<event>
 7    1  0.1978681E-015  0.9000775E+02  0.7816164E-02  0.1186339E+00
        -11   -1    0    0    0    0  0.00000000000E+00  0.00000000000E+00  0.45593999997E+02  0.45594000000E+02  0.51100000000E-03 0. -1.
         11   -1    0    0    0    0 -0.00000000000E+00 -0.00000000000E+00 -0.45593999997E+02  0.45594000000E+02  0.51100000000E-03 0.  1.
    9900012    2    1    2    0    0  0.30022853149E+00  0.83783508834E+00  0.77516614765E+00  0.90007751144E+02  0.90000012659E+02 0.  0.
        -12    1    1    2    0    0 -0.30022853149E+00 -0.83783508834E+00 -0.77516614765E+00  0.11802488563E+01  0.00000000000E+00 0.  1.
         11    1    3    3    0    0  0.99985004143E+01 -0.27149302797E+01 -0.31277355682E+01  0.10822365130E+02  0.51100000000E-03 0. -1.
        -11    1    3    3    0    0  0.23924348305E+02  0.17506426342E+02 -0.19887147896E+02  0.35698011945E+02  0.51100000000E-03 0.  1.
         12    1    3    3    0    0 -0.33622620188E+02 -0.13953660974E+02  0.23790049612E+02  0.43487374069E+02  0.00000000000E+00 0. -1.
</event>
<event>
 7    1  0.1978681E-015  0.9000773E+02  0.7816164E-02  0.1186339E+00
        -11   -1    0    0    0    0  0.00000000000E+00  0.00000000000E+00  0.45593999997E+02  0.45594000000E+02  0.51100000000E-03 0. -1.
         11   -1    0    0    0    0 -0.00000000000E+00 -0.00000000000E+00 -0.45593999997E+02  0.45594000000E+02  0.51100000000E-03 0.  1.
    9900012    2    1    2    0    0 -0.63742134851E+00  0.46451842132E+00  0.87804479285E+00  0.90007726304E+02  0.89999987491E+02 0.  0.
        -12    1    1    2    0    0  0.63742134851E+00 -0.46451842132E+00 -0.87804479285E+00  0.11802736960E+01  0.00000000000E+00 0.  1.
         11    1    3    3    0    0  0.32351873802E+02  0.22765463810E+01  0.14880489837E+02  0.35682704213E+02  0.51100000000E-03 0. -1.
        -11    1    3    3    0    0 -0.42601145127E+00  0.95313152387E+01  0.88045407816E+01  0.12982580428E+02  0.51100000000E-03 0.  1.
        -12    1    3    3    0    0 -0.32563283699E+02 -0.11343343198E+02 -0.22806985826E+02  0.41342441663E+02  0.00000000000E+00 0.  1.
</event>
<event>
 7    1  0.1978681E-015  0.9000769E+02  0.7816164E-02  0.1186339E+00
        -11   -1    0    0    0    0  0.00000000000E+00  0.00000000000E+00  0.45593999997E+02  0.45594000000E+02  0.51100000000E-03 0.  1.
         11   -1    0    0    0    0 -0.00000000000E+00 -0.00000000000E+00 -0.45593999997E+02  0.45594000000E+02  0.51100000000E-03 0. -1.
    9900012    2    1    2    0    0  0.22745800257E+00  0.96420573981E+00 -0.64163741173E+00  0.90007691388E+02  0.89999952114E+02 0.  0.
        -12    1    1    2    0    0 -0.22745800257E+00 -0.96420573981E+00  0.64163741173E+00  0.11803086121E+01  0.00000000000E+00 0.  1.
         11    1    3    3    0    0 -0.19430580440E+02  0.97666378820E+01 -0.33384321547E+02  0.39842786011E+02  0.51100000000E-03 0. -1.
        -11    1    3    3    0    0 -0.75165048042E+01  0.17352145346E+01  0.23705810563E+01  0.80702211096E+01  0.51100000000E-03 0.  1.
        -12    1    3    3    0    0  0.27174543246E+02 -0.10537646677E+02  0.30372103079E+02  0.42094684267E+02  0.00000000000E+00 0.  1.
</event>
<event>
 7    1  0.1978681E-015  0.9000770E+02  0.7816164E-02  0.1186339E+00
        -11   -1    0    0    0    0  0.00000000000E+00  0.00000000000E+00  0.45593999997E+02  0.45594000000E+02  0.51100000000E-03 0.  1.
         11   -1    0    0    0    0 -0.00000000000E+00 -0.00000000000E+00 -0.45593999997E+02  0.45594000000E+02  0.51100000000E-03 0. -1.
    9900012    2    1    2    0    0  0.17247514020E+00  0.73622469430E+00  0.90627822707E+00  0.90007697200E+02  0.89999958003E+02 0.  0.
        -12    1    1    2    0    0 -0.17247514020E+00 -0.73622469430E+00 -0.90627822707E+00  0.11803027999E+01  0.00000000000E+00 0.  1.
         11    1    3    3    0    0 -0.52144797923E+01  0.84028518224E+01  0.24672614310E+01  0.10192452967E+02  0.51100000000E-03 0. -1.
        -11    1    3    3    0    0 -0.19706645905E+02  0.82837735000E+01  0.29751170410E+02  0.36634750406E+02  0.51100000000E-03 0.  1.
         12    1    3    3    0    0  0.25093600838E+02 -0.15950400628E+02 -0.31312153614E+02  0.43180493827E+02  0.00000000000E+00 0. -1.
</event>
<event>
 7    1  0.1978681E-015  0.9000777E+02  0.7816164E-02  0.1186339E+00
        -11   -1    0    0    0    0  0.00000000000E+00  0.00000000000E+00  0.45593999997E+02  0.45594000000E+02  0.51100000000E-03 0.  1.
         11   -1    0    0    0    0 -0.00000000000E+00 -0.00000000000E+00 -0.45593999997E+02  0.45594000000E+02  0.51100000000E-03 0. -1.
    9900012    2    1    2    0    0 -0.18378411150E+00 -0.10321701292E+01  0.54203181546E+00  0.90007766860E+02  0.90000028583E+02 0.  0.
        -12    1    1    2    0    0  0.18378411150E+00  0.10321701292E+01 -0.54203181546E+00  0.11802331398E+01  0.00000000000E+00 0.  1.
         11    1    3    3    0    0  0.11887479544E+02  0.23299332789E+02 -0.14822835237E+02  0.30064722234E+02  0.51100000000E-03 0. -1.
        -11    1    3    3    0    0  0.18926434691E+02 -0.70599943382E+00  0.58722781908E+01  0.19829069991E+02  0.51100000000E-03 0.  1.
        -12    1    3    3    0    0 -0.30997698347E+02 -0.23625503484E+02  0.94925888616E+01  0.40113974634E+02  0.00000000000E+00 0.  1.
</event>
<event>
 7    1  0.1978681E-015  0.9000781E+02  0.7816164E-02  0.1186339E+00
        -11   -1    0    0    0    0  0.00000000000E+00  0.00000000000E+00  0.45593999997E+02  0.45594000000E+02  0.51100000000E-03 0. -1.
         11   -1    0    0    0    0 -0.00000000000E+00 -0.00000000000E+00 -0.45593999997E+02  0.45594000000E+02  0.51100000000E-03 0.  1.
    9900012    2    1    2    0    0 -0.12050887443E-02  0.11592583895E+01  0.22130002243E+00  0.90007807149E+02  0.90000069403E+02 0.  0.
        -12    1    1    2    0    0  0.12050887443E-02 -0.11592583895E+01 -0.22130002243E+00  0.11801928511E+01  0.00000000000E+00 0.  1.
         11    1    3    3    0    0  0.10058754263E+02  0.17661834646E+01  0.33417114535E+00  0.10218102170E+02  0.51100000000E-03 0. -1.
        -11    1    3    3    0    0  0.30720424367E+02 -0.10250321598E+02 -0.14500531131E+02  0.35483502780E+02  0.51100000000E-03 0.  1.
         12    1    3    3    0    0 -0.40780383719E+02  0.96433965234E+01  0.14387660008E+02  0.44306202199E+02  0.00000000000E+00 0. -1.
</event>
<event>
 7    1  0.1978681E-015  0.9000681E+02  0.7816164E-02  0.1186341E+00
        -11   -1    0    0    0    0  0.00000000000E+00  0.00000000000E+00  0.45593999997E+02  0.45594000000E+02  0.51100000000E-03 0. -1.
         11   -1    0    0    0    0 -0.00000000000E+00 -0.00000000000E+00 -0.45593999997E+02  0.45594000000E+02  0.51100000000E-03 0.  1.
    9900012    2    1    2    0    0 -0.35396656473E+00  0.11050550360E+01  0.22084424420E+00  0.90006809439E+02  0.89999058518E+02 0.  0.
        -12    1    1    2    0    0  0.35396656473E+00 -0.11050550360E+01 -0.22084424420E+00  0.11811905612E+01  0.00000000000E+00 0.  1.
         11    1    3    3    0    0  0.31676631805E+01  0.85662294396E+00 -0.80347808966E+01  0.86790320434E+01  0.51100000000E-03 0. -1.
        -11    1    3    3    0    0 -0.10013356778E+02  0.24504774109E+02 -0.27151687919E+02  0.37920514569E+02  0.51100000000E-03 0.  1.
         12    1    3    3    0    0  0.64917270325E+01 -0.24256342017E+02  0.35407313060E+02  0.43407262826E+02  0.00000000000E+00 0. -1.
</event>
<event>
 7    1  0.1978681E-015  0.9000775E+02  0.7816164E-02  0.1186339E+00
        -11   -1    0    0    0    0  0.00000000000E+00  0.00000000000E+00  0.45593999997E+02  0.45594000000E+02  0.51100000000E-03 0.  1.
         11   -1    0    0    0    0 -0.00000000000E+00 -0.00000000000E+00 -0.45593999997E+02  0.45594000000E+02  0.51100000000E-03 0. -1.
    9900012    2    1    2    0    0  0.57095990808E+00  0.10329553360E+01  0.17625471664E-03  0.90007749190E+02  0.90000010680E+02 0.  0.
        -12    1    1    2    0    0 -0.57095990808E+00 -0.10329553360E+01 -0.17625471664E-03  0.11802508097E+01  0.00000000000E+00 0.  1.
         11    1    3    3    0    0 -0.36687010324E+02  0.10766552604E+01 -0.48875522646E+01  0.37026802191E+02  0.51100000000E-03 0. -1.
        -11    1    3    3    0    0 -0.53814792841E+01  0.76723919481E+01  0.17674996806E+01  0.95367695197E+01  0.51100000000E-03 0.  1.
        -12    1    3    3    0    0  0.42639449517E+02 -0.77160918725E+01  0.31202288387E+01  0.43444177480E+02  0.00000000000E+00 0.  1.
</event>
<event>
 7    1  0.1978681E-015  0.9000873E+02  0.7816164E-02  0.1186337E+00
        -11   -1    0    0    0    0  0.00000000000E+00  0.00000000000E+00  0.45593999997E+02  0.45594000000E+02  0.51100000000E-03 0.  1.
         11   -1    0    0    0    0 -0.00000000000E+00 -0.00000000000E+00 -0.45593999997E+02  0.45594000000E+02  0.51100000000E-03 0. -1.
    9900012    2    1    2    0    0  0.86804550897E+00  0.66698959092E+00 -0.43851682460E+00  0.90008731106E+02  0.90001005550E+02 0.  0.
        -12    1    1    2    0    0 -0.86804550897E+00 -0.66698959092E+00  0.43851682460E+00  0.11792688945E+01  0.00000000000E+00 0.  1.
         11    1    3    3    0    0  0.76202636907E+01  0.43472749756E+01 -0.36122545787E+00  0.87805297404E+01  0.51100000000E-03 0. -1.
        -11    1    3    3    0    0  0.30297987861E+02 -0.19932707586E+01 -0.22587007429E+02  0.37843283441E+02  0.51100000000E-03 0.  1.
         12    1    3    3    0    0 -0.37050206042E+02 -0.16870146261E+01  0.22509716062E+02  0.43384917925E+02  0.00000000000E+00 0. -1.
</event>
<event>
 7    1  0.1978681E-015  0.9000776E+02  0.7816164E-02  0.1186339E+00
        -11   -1    0    0    0    0  0.00000000000E+00  0.00000000000E+00  0.45593999997E+02  0.45594000000E+02  0.51100000000E-03 0.  1.
         11   -1    0    0    0    0 -0.00000000000E+00 -0.00000000000E+00 -0.45593999997E+02  0.45594000000E+02  0.51100000000E-03 0. -1.
    9900012    2    1    2    0    0 -0.11228820350E+01 -0.35709922864E+00  0.67768718295E-01  0.90007755736E+02  0.90000017312E+02 0.  0.
        -12    1    1    2    0    0  0.11228820350E+01  0.35709922864E+00 -0.67768718295E-01  0.11802442641E+01  0.00000000000E+00 0.  1.
         11    1    3    3    0    0 -0.40211885964E+01 -0.30399447707E+01  0.87585146355E+01  0.10105582656E+02  0.51100000000E-03 0. -1.
        -11    1    3    3    0    0 -0.19350752594E+02  0.33455318705E+02  0.61444762175E+01  0.39133931106E+02  0.51100000000E-03 0.  1.
         12    1    3    3    0    0  0.22249059155E+02 -0.30772473163E+02 -0.14835222135E+02  0.40768241974E+02  0.00000000000E+00 0. -1.
</event>
<event>
 7    1  0.1978681E-015  0.9000737E+02  0.7816164E-02  0.1186340E+00
        -11   -1    0    0    0    0  0.00000000000E+00  0.00000000000E+00  0.45593999997E+02  0.45594000000E+02  0.51100000000E-03 0. -1.
         11   -1    0    0    0    0 -0.00000000000E+00 -0.00000000000E+00 -0.45593999997E+02  0.45594000000E+02  0.51100000000E-03 0.  1.
    9900012    2    1    2    0    0 -0.30971827728E+00 -0.66618314584E-01  0.11373294931E+01  0.90007372291E+02  0.89999628805E+02 0.  0.
        -12    1    1    2    0    0  0.30971827728E+00  0.66618314584E-01 -0.11373294931E+01  0.11806277089E+01  0.00000000000E+00 0.  1.
         11    1    3    3    0    0  0.13330991898E+02 -0.27123120102E+02  0.17848192056E+02  0.35098959372E+02  0.51100000000E-03 0. -1.
        -11    1    3    3    0    0 -0.34843714622E+00 -0.65675630970E-01  0.12726792139E+02  0.12731730445E+02  0.51100000000E-03 0.  1.
        -12    1    3    3    0    0 -0.13292273029E+02  0.27122177418E+02 -0.29437654702E+02  0.42176682474E+02  0.00000000000E+00 0.  1.
</event>
<event>
 7    1  0.1978681E-015  0.9000791E+02  0.7816164E-02  0.1186339E+00
        -11   -1    0    0    0    0  0.00000000000E+00  0.00000000000E+00  0.45593999997E+02  0.45594000000E+02  0.51100000000E-03 0. -1.
         11   -1    0    0    0    0 -0.00000000000E+00 -0.00000000000E+00 -0.45593999997E+02  0.45594000000E+02  0.51100000000E-03 0.  1.
    9900012    2    1    2    0    0 -0.78731322494E+00 -0.66270507227E-01  0.87656419717E+00  0.90007907340E+02  0.90000170917E+02 0.  0.
        -12    1    1    2    0    0  0.78731322494E+00  0.66270507227E-01 -0.87656419717E+00  0.11800926599E+01  0.00000000000E+00 0.  1.
         11    1    3    3    0    0 -0.46397852082E+01 -0.56044690495E+01 -0.66647043169E+01  0.98669125869E+01  0.51100000000E-03 0. -1.
        -11    1    3    3    0    0  0.11955718823E+02 -0.34833463539E+02  0.11975077748E+02  0.38726113697E+02  0.51100000000E-03 0.  1.
         12    1    3    3    0    0 -0.81032468394E+01  0.40371662082E+02 -0.44338092343E+01  0.41414881056E+02  0.00000000000E+00 0. -1.
</event>
<event>
 7    1  0.1978681E-015  0.9000775E+02  0.7816164E-02  0.1186339E+00
        -11   -1    0    0    0    0  0.00000000000E+00  0.00000000000E+00  0.45593999997E+02  0.45594000000E+02  0.51100000000E-03 0. -1.
         11   -1    0    0    0    0 -0.00000000000E+00 -0.00000000000E+00 -0.45593999997E+02  0.45594000000E+02  0.51100000000E-03 0.  1.
    9900012    2    1    2    0    0  0.26124722249E-01  0.25184072610E+00  0.11527709171E+01  0.90007751281E+02  0.90000012797E+02 0.  0.
        -12    1    1    2    0    0 -0.26124722249E-01 -0.25184072610E+00 -0.11527709171E+01  0.11802487194E+01  0.00000000000E+00 0.  1.
         11    1    3    3    0    0  0.39582898241E+01 -0.31007404748E+01 -0.12683205272E+02  0.13643545949E+02  0.51100000000E-03 0. -1.
        -11    1    3    3    0    0 -0.28659633380E+02  0.13303460436E+02 -0.16775906048E+02  0.35774120101E+02  0.51100000000E-03 0.  1.
         12    1    3    3    0    0  0.24727468278E+02 -0.99508792351E+01  0.30611882236E+02  0.40590085231E+02  0.00000000000E+00 0. -1.
</event>
<event>
 7    1  0.2424846E-015  0.9000779E+02  0.7816164E-02  0.1186339E+00
        -11   -1    0    0    0    0  0.00000000000E+00  0.00000000000E+00  0.45593999997E+02  0.45594000000E+02  0.51100000000E-03 0. -1.
         11   -1    0    0    0    0 -0.00000000000E+00 -0.00000000000E+00 -0.45593999997E+02  0.45594000000E+02  0.51100000000E-03 0.  1.
    9900012    2    1    2    0    0  0.33487014911E+00 -0.98673444747E+00  0.55416897455E+00  0.90007794027E+02  0.90000056108E+02 0.  0.
        -12    1    1    2    0    0 -0.33487014911E+00  0.98673444747E+00 -0.55416897455E+00  0.11802059731E+01  0.00000000000E+00 0.  1.
         11    1    3    3    0    0  0.26762317509E+01  0.44804117957E+01  0.76265177907E+01  0.92412163765E+01  0.51100000000E-03 0. -1.
        -11    1    3    3    0    0 -0.31172840991E+01  0.21300720628E+02 -0.35622958280E+02  0.41622509731E+02  0.51100000000E-03 0.  1.
         12    1    3    3    0    0  0.77592249729E+00 -0.26767866871E+02  0.28550609463E+02  0.39144067920E+02  0.00000000000E+00 0. -1.
</event>
<event>
 7    1  0.2742453E-015  0.9000767E+02  0.7816164E-02  0.1186339E+00
        -11   -1    0    0    0    0  0.00000000000E+00  0.00000000000E+00  0.45593999997E+02  0.45594000000E+02  0.51100000000E-03 0. -1.
         11   -1    0    0    0    0 -0.00000000000E+00 -0.00000000000E+00 -0.45593999997E+02  0.45594000000E+02  0.51100000000E-03 0.  1.
    9900012    2    1    2    0    0  0.10260699582E+01  0.43224842584E+00  0.39182135471E+00  0.90007668591E+02  0.89999929017E+02 0.  0.
        -12    1    1    2    0    0 -0.10260699582E+01 -0.43224842584E+00 -0.39182135471E+00  0.11803314089E+01  0.00000000000E+00 0.  1.
         11    1    3    3    0    0 -0.28982487509E+01 -0.11493510380E+01  0.95376053877E+01  0.10034279766E+02  0.51100000000E-03 0. -1.
        -11    1    3    3    0    0  0.10038726457E+01 -0.36867668095E+02 -0.17017533500E+02  0.40618089046E+02  0.51100000000E-03 0.  1.
         12    1    3    3    0    0  0.29204460634E+01  0.38449267559E+02  0.78717494666E+01  0.39355299779E+02  0.00000000000E+00 0. -1.
</event>
<event>
 7    1  0.3985396E-015  0.9000775E+02  0.7816164E-02  0.1186339E+00
        -11   -1    0    0    0    0  0.00000000000E+00  0.00000000000E+00  0.45593999997E+02  0.45594000000E+02  0.51100000000E-03 0.  1.
         11   -1    0    0    0    0 -0.00000000000E+00 -0.00000000000E+00 -0.45593999997E+02  0.45594000000E+02  0.51100000000E-03 0. -1.
    9900012    2    1    2    0    0  0.10283747590E+01  0.16824589760E+00 -0.55419116146E+00  0.90007750378E+02  0.90000011883E+02 0.  0.
        -12    1    1    2    0    0 -0.10283747590E+01 -0.16824589760E+00  0.55419116146E+00  0.11802496221E+01  0.00000000000E+00 0.  1.
         11    1    3    3    0    0 -0.21885858223E+01  0.93838116521E+01 -0.19743502562E+01  0.98358471023E+01  0.51100000000E-03 0. -1.
        -11    1    3    3    0    0  0.21463347527E+01  0.16062722207E+02  0.34740500855E+02  0.38334321403E+02  0.51100000000E-03 0.  1.
         12    1    3    3    0    0  0.10706258287E+01 -0.25278287961E+02 -0.33320341760E+02  0.41837581872E+02  0.00000000000E+00 0. -1.
</event>
<event>
 7    1  0.1978681E-015  0.9000763E+02  0.7816164E-02  0.1186339E+00
        -11   -1    0    0    0    0  0.00000000000E+00  0.00000000000E+00  0.45593999997E+02  0.45594000000E+02  0.51100000000E-03 0.  1.
         11   -1    0    0    0    0 -0.00000000000E+00 -0.00000000000E+00 -0.45593999997E+02  0.45594000000E+02  0.51100000000E-03 0. -1.
    9900012    2    1    2    0    0  0.11482082255E+01  0.23643442297E+00  0.13779399665E+00  0.90007631180E+02  0.89999891112E+02 0.  0.
        -12    1    1    2    0    0 -0.11482082255E+01 -0.23643442297E+00 -0.13779399665E+00  0.11803688199E+01  0.00000000000E+00 0.  1.
         11    1    3    3    0    0 -0.12087423621E+02 -0.21462264080E+01  0.11267046525E+02  0.16663086006E+02  0.51100000000E-03 0. -1.
        -11    1    3    3    0    0  0.64137158979E+01 -0.24386791839E+02  0.19663224423E+02  0.31976456382E+02  0.51100000000E-03 0.  1.
         12    1    3    3    0    0  0.68219159490E+01  0.26769452670E+02 -0.30792476951E+02  0.41368088791E+02  0.00000000000E+00 0. -1.
</event>
<event>
 7    1  0.1978681E-015  0.9000761E+02  0.7816164E-02  0.1186339E+00
        -11   -1    0    0    0    0  0.00000000000E+00  0.00000000000E+00  0.45593999997E+02  0.45594000000E+02  0.51100000000E-03 0.  1.
         11   -1    0    0    0    0 -0.00000000000E+00 -0.00000000000E+00 -0.45593999997E+02  0.45594000000E+02  0.51100000000E-03 0. -1.
    9900012    2    1    2    0    0 -0.40725191459E-01 -0.10181029773E+01 -0.59592763174E+00  0.90007609405E+02  0.89999869049E+02 0.  0.
        -12    1    1    2    0    0  0.40725191459E-01  0.10181029773E+01  0.59592763174E+00  0.11803905946E+01  0.00000000000E+00 0.  1.
         11    1    3    3    0    0  0.34537380109E+02 -0.13193610396E+02  0.23213742290E+01  0.37044443019E+02  0.51100000000E-03 0. -1.
        -11    1    3    3    0    0  0.44271321589E+01 -0.39094130652E+01  0.74591489930E+01  0.95143004803E+01  0.51100000000E-03 0.  1.
        -12    1    3    3    0    0 -0.39005237459E+02  0.16084920483E+02 -0.10376450854E+02  0.43448865906E+02  0.00000000000E+00 0.  1.
</event>
<event>
 7    1  0.1978681E-015  0.9000761E+02  0.7816164E-02  0.1186339E+00
        -11   -1    0    0    0    0  0.00000000000E+00  0.00000000000E+00  0.45593999997E+02  0.45594000000E+02  0.51100000000E-03 0. -1.
         11   -1    0    0    0    0 -0.00000000000E+00 -0.00000000000E+00 -0.45593999997E+02  0.45594000000E+02  0.51100000000E-03 0.  1.
    9900012    2    1    2    0    0  0.66880401560E-01 -0.64318741786E-01  0.11767422402E+01  0.90007605071E+02  0.89999864658E+02 0.  0.
        -12    1    1    2    0    0 -0.66880401560E-01  0.64318741786E-01 -0.11767422402E+01  0.11803949290E+01  0.00000000000E+00 0.  1.
         11    1    3    3    0    0  0.10993856200E+01  0.37580699792E+02 -0.14819312316E+02  0.40411999003E+02  0.51100000000E-03 0. -1.
        -11    1    3    3    0    0  0.82403711761E+01 -0.31826734796E+00  0.47824577780E+01  0.95329383657E+01  0.51100000000E-03 0.  1.
        -12    1    3    3    0    0 -0.92728763946E+01 -0.37326751186E+02  0.11213596778E+02  0.40062667703E+02  0.00000000000E+00 0.  1.
</event>
<event>
 7    1  0.1978681E-015  0.9000772E+02  0.7816164E-02  0.1186339E+00
        -11   -1    0    0    0    0  0.00000000000E+00  0.00000000000E+00  0.45593999997E+02  0.45594000000E+02  0.51100000000E-03 0. -1.
         11   -1    0    0    0    0 -0.00000000000E+00 -0.00000000000E+00 -0.45593999997E+02  0.45594000000E+02  0.51100000000E-03 0.  1.
    9900012    2    1    2    0    0 -0.30665740973E-01 -0.21317020663E+00  0.11604612467E+01  0.90007723664E+02  0.89999984816E+02 0.  0.
        -12    1    1    2    0    0  0.30665740973E-01  0.21317020663E+00 -0.11604612467E+01  0.11802763362E+01  0.00000000000E+00 0.  1.
         11    1    3    3    0    0  0.10941545937E+02 -0.16340350098E+02  0.86682622901E+01  0.21491003704E+02  0.51100000000E-03 0. -1.
        -11    1    3    3    0    0 -0.16931553916E+02 -0.14517848135E+02 -0.24369463054E+02  0.33035074728E+02  0.51100000000E-03 0.  1.
         12    1    3    3    0    0  0.59593422385E+01  0.30645028026E+02  0.16861662011E+02  0.35481645232E+02  0.00000000000E+00 0. -1.
</event>
<event>
 7    1  0.1978681E-015  0.9000774E+02  0.7816164E-02  0.1186339E+00
        -11   -1    0    0    0    0  0.00000000000E+00  0.00000000000E+00  0.45593999997E+02  0.45594000000E+02  0.51100000000E-03 0. -1.
         11   -1    0    0    0    0 -0.00000000000E+00 -0.00000000000E+00 -0.45593999997E+02  0.45594000000E+02  0.51100000000E-03 0.  1.
    9900012    2    1    2    0    0 -0.45671824568E+00 -0.40843348319E+00  0.10087675908E+01  0.90007736674E+02  0.89999997998E+02 0.  0.
        -12    1    1    2    0    0  0.45671824568E+00  0.40843348319E+00 -0.10087675908E+01  0.11802633259E+01  0.00000000000E+00 0.  1.
         11    1    3    3    0    0 -0.30081436684E+02  0.29195094823E+02  0.29904289505E+01  0.42026052161E+02  0.51100000000E-03 0. -1.
        -11    1    3    3    0    0 -0.32338583953E+01 -0.74851586682E+01  0.12130987293E+01  0.82436065649E+01  0.51100000000E-03 0.  1.
        -12    1    3    3    0    0  0.32858576833E+02 -0.22118369638E+02 -0.31947600889E+01  0.39738077948E+02  0.00000000000E+00 0.  1.
</event>
<event>
 7    1  0.1978681E-015  0.9000776E+02  0.7816164E-02  0.1186339E+00
        -11   -1    0    0    0    0  0.00000000000E+00  0.00000000000E+00  0.45593999997E+02  0.45594000000E+02  0.51100000000E-03 0. -1.
         11   -1    0    0    0    0 -0.00000000000E+00 -0.00000000000E+00 -0.45593999997E+02  0.45594000000E+02  0.51100000000E-03 0.  1.
    9900012    2    1    2    0    0 -0.87876279434E+00 -0.38126102067E+00  0.68948587029E+00  0.90007756474E+02  0.90000018060E+02 0.  0.
        -12    1    1    2    0    0  0.87876279434E+00  0.38126102067E+00 -0.68948587029E+00  0.11802435257E+01  0.00000000000E+00 0.  1.
         11    1    3    3    0    0 -0.33193152081E+02  0.19873784939E+01 -0.13611429394E+02  0.35930572341E+02  0.51100000000E-03 0. -1.
        -11    1    3    3    0    0 -0.91110441774E+01 -0.47166514318E+01  0.22272638460E+00  0.10261945919E+02  0.51100000000E-03 0.  1.
        -12    1    3    3    0    0  0.41425433464E+02  0.23480119173E+01  0.14078188879E+02  0.43815238215E+02  0.00000000000E+00 0.  1.
</event>
<event>
 7    1  0.1978681E-015  0.9000776E+02  0.7816164E-02  0.1186339E+00
        -11   -1    0    0    0    0  0.00000000000E+00  0.00000000000E+00  0.45593999997E+02  0.45594000000E+02  0.51100000000E-03 0.  1.
         11   -1    0    0    0    0 -0.00000000000E+00 -0.00000000000E+00 -0.45593999997E+02  0.45594000000E+02  0.51100000000E-03 0. -1.
    9900012    2    1    2    0    0 -0.27958389238E+00 -0.88562421585E+00  0.72832608550E+00  0.90007764307E+02  0.90000025996E+02 0.  0.
        -12    1    1    2    0    0  0.27958389238E+00  0.88562421585E+00 -0.72832608550E+00  0.11802356932E+01  0.00000000000E+00 0.  1.
         11    1    3    3    0    0 -0.76984492665E+00 -0.63305371580E+01 -0.21967748122E+01  0.67449374909E+01  0.51100000000E-03 0. -1.
        -11    1    3    3    0    0  0.70607436992E+01 -0.28494130430E+02  0.27991386326E+02  0.40562140960E+02  0.51100000000E-03 0.  1.
         12    1    3    3    0    0 -0.65704826650E+01  0.33939043372E+02 -0.25066285428E+02  0.42700685856E+02  0.00000000000E+00 0. -1.
</event>
<event>
 7    1  0.1978681E-015  0.9000768E+02  0.7816164E-02  0.1186339E+00
        -11   -1    0    0    0    0  0.00000000000E+00  0.00000000000E+00  0.45593999997E+02  0.45594000000E+02  0.51100000000E-03 0.  1.
         11   -1    0    0    0    0 -0.00000000000E+00 -0.00000000000E+00 -0.45593999997E+02  0.45594000000E+02  0.51100000000E-03 0. -1.
    9900012    2    1    2    0    0 -0.18170219476E+00  0.71058472044E+00 -0.92477076762E+00  0.90007683388E+02  0.89999944008E+02 0.  0.
        -12    1    1    2    0    0  0.18170219476E+00 -0.71058472044E+00  0.92477076762E+00  0.11803166122E+01  0.00000000000E+00 0.  1.
         11    1    3    3    0    0  0.38751412486E+01  0.90980044698E+01 -0.11488013920E+01  0.99554080744E+01  0.51100000000E-03 0. -1.
        -11    1    3    3    0    0  0.29598784540E+02 -0.13461803350E+02 -0.22129417078E+02  0.39332166177E+02  0.51100000000E-03 0.  1.
         12    1    3    3    0    0 -0.33655627984E+02  0.50743836009E+01  0.22353447702E+02  0.40720109136E+02  0.00000000000E+00 0. -1.
</event>
<event>
 7    1  0.1978681E-015  0.9000777E+02  0.7816164E-02  0.1186339E+00
        -11   -1    0    0    0    0  0.00000000000E+00  0.00000000000E+00  0.45593999997E+02  0.45594000000E+02  0.51100000000E-03 0. -1.
         11   -1    0    0    0    0 -0.00000000000E+00 -0.00000000000E+00 -0.45593999997E+02  0.45594000000E+02  0.51100000000E-03 0.  1.
    9900012    2    1    2    0    0  0.96166579620E+00  0.31531596505E+00  0.60722307308E+00  0.90007769039E+02  0.90000030790E+02 0.  0.
        -12    1    1    2    0    0 -0.96166579620E+00 -0.31531596505E+00 -0.60722307308E+00  0.11802309612E+01  0.00000000000E+00 0.  1.
         11    1    3    3    0    0  0.15030060024E+02 -0.24950593553E+02  0.28257335805E+02  0.40582161722E+02  0.51100000000E-03 0. -1.
        -11    1    3    3    0    0  0.45873589583E+01  0.95250635651E+01  0.22686790979E+01  0.10812844364E+02  0.51100000000E-03 0.  1.
        -12    1    3    3    0    0 -0.18655753187E+02  0.15740845953E+02 -0.29918791830E+02  0.38612762953E+02  0.00000000000E+00 0.  1.
</event>
<event>
 7    1  0.1978681E-015  0.9000784E+02  0.7816164E-02  0.1186339E+00
        -11   -1    0    0    0    0  0.00000000000E+00  0.00000000000E+00  0.45593999997E+02  0.45594000000E+02  0.51100000000E-03 0. -1.
         11   -1    0    0    0    0 -0.00000000000E+00 -0.00000000000E+00 -0.45593999997E+02  0.45594000000E+02  0.51100000000E-03 0.  1.
    9900012    2    1    2    0    0  0.92837802618E+00 -0.39148249592E+00 -0.61451436267E+00  0.90007842296E+02  0.90000105014E+02 0.  0.
        -12    1    1    2    0    0 -0.92837802618E+00  0.39148249592E+00  0.61451436267E+00  0.11801577039E+01  0.00000000000E+00 0.  1.
         11    1    3    3    0    0 -0.58059351791E+01  0.71278561585E+01 -0.18251429460E+01  0.93726391029E+01  0.51100000000E-03 0. -1.
        -11    1    3    3    0    0  0.16511179078E+01  0.27332959793E+02 -0.24726301020E+02  0.36894536774E+02  0.51100000000E-03 0.  1.
         12    1    3    3    0    0  0.50831952974E+01 -0.34852298447E+02  0.25936929604E+02  0.43740666419E+02  0.00000000000E+00 0. -1.
</event>
<event>
 7    1  0.1978681E-015  0.9000766E+02  0.7816164E-02  0.1186339E+00
        -11   -1    0    0    0    0  0.00000000000E+00  0.00000000000E+00  0.45593999997E+02  0.45594000000E+02  0.51100000000E-03 0.  1.
         11   -1    0    0    0    0 -0.00000000000E+00 -0.00000000000E+00 -0.45593999997E+02  0.45594000000E+02  0.51100000000E-03 0. -1.
    9900012    2    1    2    0    0 -0.79026057345E+00  0.66765436079E+00 -0.56827734893E+00  0.90007655447E+02  0.89999915698E+02 0.  0.
        -12    1    1    2    0    0  0.79026057345E+00 -0.66765436079E+00  0.56827734893E+00  0.11803445534E+01  0.00000000000E+00 0.  1.
         11    1    3    3    0    0 -0.25421808426E+01 -0.32934508998E+01 -0.35087722082E+02  0.35333521526E+02  0.51100000000E-03 0. -1.
        -11    1    3    3    0    0 -0.10477286984E+02 -0.60133879673E+00 -0.60107801342E+01  0.12093991441E+02  0.51100000000E-03 0.  1.
        -12    1    3    3    0    0  0.12229207253E+02  0.45624440573E+01  0.40530224867E+02  0.42580142480E+02  0.00000000000E+00 0.  1.
</event>
<event>
 7    1  0.1978681E-015  0.9000770E+02  0.7816164E-02  0.1186339E+00
        -11   -1    0    0    0    0  0.00000000000E+00  0.00000000000E+00  0.45593999997E+02  0.45594000000E+02  0.51100000000E-03 0.  1.
         11   -1    0    0    0    0 -0.00000000000E+00 -0.00000000000E+00 -0.45593999997E+02  0.45594000000E+02  0.51100000000E-03 0. -1.
    9900012    2    1    2    0    0 -0.71109527595E+00  0.29658613610E+00 -0.89414530922E+00  0.90007696793E+02  0.89999957590E+02 0.  0.
        -12    1    1    2    0    0  0.71109527595E+00 -0.29658613610E+00  0.89414530922E+00  0.11803032075E+01  0.00000000000E+00 0.  1.
         11    1    3    3    0    0  0.24521906654E+01  0.97954801789E+01 -0.38276910786E+01  0.10798883750E+02  0.51100000000E-03 0. -1.
        -11    1    3    3    0    0  0.15041816112E+02  0.23439770956E+02  0.23393360947E+02  0.36372083128E+02  0.51100000000E-03 0.  1.
         12    1    3    3    0    0 -0.18205102053E+02 -0.32938664998E+02 -0.20459815178E+02  0.42836729914E+02  0.00000000000E+00 0. -1.
</event>
<event>
 7    1  0.1978681E-015  0.9000773E+02  0.7816164E-02  0.1186339E+00
        -11   -1    0    0    0    0  0.00000000000E+00  0.00000000000E+00  0.45593999997E+02  0.45594000000E+02  0.51100000000E-03 0.  1.
         11   -1    0    0    0    0 -0.00000000000E+00 -0.00000000000E+00 -0.45593999997E+02  0.45594000000E+02  0.51100000000E-03 0. -1.
    9900012    2    1    2    0    0  0.36052004527E+00  0.90568255533E-01 -0.11202015492E+01  0.90007733580E+02  0.89999994863E+02 0.  0.
        -12    1    1    2    0    0 -0.36052004527E+00 -0.90568255533E-01  0.11202015492E+01  0.11802664202E+01  0.00000000000E+00 0.  1.
         11    1    3    3    0    0  0.13186374369E+02  0.12816047417E+02 -0.93384784673E+01  0.20623741676E+02  0.51100000000E-03 0. -1.
        -11    1    3    3    0    0  0.39122478602E+01  0.21602953881E+02 -0.13179489882E+02  0.25606488504E+02  0.51100000000E-03 0.  1.
         12    1    3    3    0    0 -0.16738102184E+02 -0.34328433043E+02  0.21397766800E+02  0.43777503399E+02  0.00000000000E+00 0. -1.
</event>
<event>
 7    1  0.2110623E-015  0.9000787E+02  0.7816164E-02  0.1186339E+00
        -11   -1    0    0    0    0  0.00000000000E+00  0.00000000000E+00  0.45593999997E+02  0.45594000000E+02  0.51100000000E-03 0. -1.
         11   -1    0    0    0    0 -0.00000000000E+00 -0.00000000000E+00 -0.45593999997E+02  0.45594000000E+02  0.51100000000E-03 0.  1.
    9900012    2    1    2    0    0 -0.54771543111E+00 -0.39721277318E+00  0.96692414141E+00  0.90007867602E+02  0.90000130655E+02 0.  0.
        -12    1    1    2    0    0  0.54771543111E+00  0.39721277318E+00 -0.96692414141E+00  0.11801323976E+01  0.00000000000E+00 0.  1.
         11    1    3    3    0    0  0.50920334285E+01 -0.22669057480E+00 -0.75666787140E+01  0.91233119028E+01  0.51100000000E-03 0. -1.
        -11    1    3    3    0    0 -0.60994997085E+01 -0.38261461678E+02 -0.76552370486E+01  0.39493619750E+02  0.51100000000E-03 0.  1.
         12    1    3    3    0    0  0.45975084890E+00  0.38090939480E+02  0.16188839904E+02  0.41390935949E+02  0.00000000000E+00 0. -1.
</event>
<event>
 7    1  0.1978681E-015  0.9000785E+02  0.7816164E-02  0.1186339E+00
        -11   -1    0    0    0    0  0.00000000000E+00  0.00000000000E+00  0.45593999997E+02  0.45594000000E+02  0.51100000000E-03 0. -1.
         11   -1    0    0    0    0 -0.00000000000E+00 -0.00000000000E+00 -0.45593999997E+02  0.45594000000E+02  0.51100000000E-03 0.  1.
    9900012    2    1    2    0    0  0.39997197105E+00 -0.96439611270E-01  0.11061034735E+01  0.90007854640E+02  0.90000117521E+02 0.  0.
        -12    1    1    2    0    0 -0.39997197105E+00  0.96439611270E-01 -0.11061034735E+01  0.11801453598E+01  0.00000000000E+00 0.  1.
         11    1    3    3    0    0 -0.76523962767E+01  0.32219111621E+01 -0.16074058378E+02  0.18091855441E+02  0.51100000000E-03 0. -1.
        -11    1    3    3    0    0 -0.91110635347E+00 -0.56217203985E+01 -0.26582375786E+02  0.27185594673E+02  0.51100000000E-03 0.  1.
         12    1    3    3    0    0  0.89634746012E+01  0.23033696252E+01  0.43762537638E+02  0.44730404526E+02  0.00000000000E+00 0. -1.
</event>
<event>
 7    1  0.1978681E-015  0.9000775E+02  0.7816164E-02  0.1186339E+00
        -11   -1    0    0    0    0  0.00000000000E+00  0.00000000000E+00  0.45593999997E+02  0.45594000000E+02  0.51100000000E-03 0. -1.
         11   -1    0    0    0    0 -0.00000000000E+00 -0.00000000000E+00 -0.45593999997E+02  0.45594000000E+02  0.51100000000E-03 0.  1.
    9900012    2    1    2    0    0 -0.17860779534E+00 -0.57605172456E+00  0.10145197659E+01  0.90007751429E+02  0.90000012948E+02 0.  0.
        -12    1    1    2    0    0  0.17860779534E+00  0.57605172456E+00 -0.10145197659E+01  0.11802485710E+01  0.00000000000E+00 0.  1.
         11    1    3    3    0    0  0.17563413806E+01  0.23244845713E+02  0.29164459375E+02  0.37335951551E+02  0.51100000000E-03 0. -1.
        -11    1    3    3    0    0  0.10060693009E+01  0.10036928993E+02 -0.34577853924E+01  0.10663414047E+02  0.51100000000E-03 0.  1.
        -12    1    3    3    0    0 -0.29410184769E+01 -0.33857826431E+02 -0.24692154217E+02  0.42008385832E+02  0.00000000000E+00 0.  1.
</event>
<event>
 7    1  0.1978681E-015  0.9000839E+02  0.7816164E-02  0.1186338E+00
        -11   -1    0    0    0    0  0.00000000000E+00  0.00000000000E+00  0.45593999997E+02  0.45594000000E+02  0.51100000000E-03 0. -1.
         11   -1    0    0    0    0 -0.00000000000E+00 -0.00000000000E+00 -0.45593999997E+02  0.45594000000E+02  0.51100000000E-03 0.  1.
    9900012    2    1    2    0    0 -0.41918872949E+00 -0.92779802619E+00  0.59578184446E+00  0.90008388041E+02  0.90000657960E+02 0.  0.
        -12    1    1    2    0    0  0.41918872949E+00  0.92779802619E+00 -0.59578184446E+00  0.11796119593E+01  0.00000000000E+00 0.  1.
         11    1    3    3    0    0  0.10535754486E+02  0.28791672745E+02  0.13579323159E+02  0.33531486096E+02  0.51100000000E-03 0. -1.
        -11    1    3    3    0    0  0.83578183438E+01  0.53049140998E+01  0.66461824314E+01  0.11923379649E+02  0.51100000000E-03 0.  1.
        -12    1    3    3    0    0 -0.19312761559E+02 -0.35024384871E+02 -0.19629723746E+02  0.44553522296E+02  0.00000000000E+00 0.  1.
</event>
<event>
 7    1  0.1978681E-015  0.9000785E+02  0.7816164E-02  0.1186339E+00
        -11   -1    0    0    0    0  0.00000000000E+00  0.00000000000E+00  0.45593999997E+02  0.45594000000E+02  0.51100000000E-03 0.  1.
         11   -1    0    0    0    0 -0.00000000000E+00 -0.00000000000E+00 -0.45593999997E+02  0.45594000000E+02  0.51100000000E-03 0. -1.
    9900012    2    1    2    0    0 -0.47112116111E+00  0.27457507343E+00 -0.10466197428E+01  0.90007847677E+02  0.90000110466E+02 0.  0.
        -12    1    1    2    0    0  0.47112116111E+00 -0.27457507343E+00  0.10466197428E+01  0.11801523229E+01  0.00000000000E+00 0.  1.
         11    1    3    3    0    0 -0.22077385224E+01 -0.11210168775E+01  0.97279922747E+01  0.10038158306E+02  0.51100000000E-03 0. -1.
        -11    1    3    3    0    0 -0.32632440000E+02 -0.13208107017E+02  0.10823787290E+02  0.36830484695E+02  0.51100000000E-03 0.  1.
         12    1    3    3    0    0  0.34369057361E+02  0.14603698968E+02 -0.21598399307E+02  0.43139204676E+02  0.00000000000E+00 0. -1.
</event>
<event>
 7    1  0.1978681E-015  0.9000773E+02  0.7816164E-02  0.1186339E+00
        -11   -1    0    0    0    0  0.00000000000E+00  0.00000000000E+00  0.45593999997E+02  0.45594000000E+02  0.51100000000E-03 0.  1.
         11   -1    0    0    0    0 -0.00000000000E+00 -0.00000000000E+00 -0.45593999997E+02  0.45594000000E+02  0.51100000000E-03 0. -1.
    9900012    2    1    2    0    0 -0.10941585271E+01  0.16206767810E+00 -0.41179799289E+00  0.90007734605E+02  0.89999995902E+02 0.  0.
        -12    1    1    2    0    0  0.10941585271E+01 -0.16206767810E+00  0.41179799289E+00  0.11802653946E+01  0.00000000000E+00 0.  1.
         11    1    3    3    0    0  0.77355519621E+01 -0.42150887187E+01  0.35205225938E+01  0.94868233175E+01  0.51100000000E-03 0. -1.
        -11    1    3    3    0    0  0.11786589007E+02 -0.34346555816E+02  0.13276153545E+01  0.36336925291E+02  0.51100000000E-03 0.  1.
         12    1    3    3    0    0 -0.20616299496E+02  0.38723712213E+02 -0.52599359411E+01  0.44183985997E+02  0.00000000000E+00 0. -1.
</event>
<event>
 7    1  0.1978681E-015  0.9000759E+02  0.7816164E-02  0.1186339E+00
        -11   -1    0    0    0    0  0.00000000000E+00  0.00000000000E+00  0.45593999997E+02  0.45594000000E+02  0.51100000000E-03 0.  1.
         11   -1    0    0    0    0 -0.00000000000E+00 -0.00000000000E+00 -0.45593999997E+02  0.45594000000E+02  0.51100000000E-03 0. -1.
    9900012    2    1    2    0    0  0.58948316035E+00 -0.64287094991E+00 -0.79535578114E+00  0.90007591480E+02  0.89999850888E+02 0.  0.
        -12    1    1    2    0    0 -0.58948316035E+00  0.64287094991E+00  0.79535578114E+00  0.11804085196E+01  0.00000000000E+00 0.  1.
         11    1    3    3    0    0 -0.10657161434E+02 -0.25097647722E+02  0.24599288931E+02  0.36723181060E+02  0.51100000000E-03 0. -1.
        -11    1    3    3    0    0  0.69532930865E+01 -0.25188357261E+01  0.74970154264E+01  0.10530814723E+02  0.51100000000E-03 0.  1.
        -12    1    3    3    0    0  0.42933515080E+01  0.26973612498E+02 -0.32891660139E+02  0.42753595697E+02  0.00000000000E+00 0.  1.
</event>
<event>
 7    1  0.1978681E-015  0.9000775E+02  0.7816164E-02  0.1186339E+00
        -11   -1    0    0    0    0  0.00000000000E+00  0.00000000000E+00  0.45593999997E+02  0.45594000000E+02  0.51100000000E-03 0.  1.
         11   -1    0    0    0    0 -0.00000000000E+00 -0.00000000000E+00 -0.45593999997E+02  0.45594000000E+02  0.51100000000E-03 0. -1.
    9900012    2    1    2    0    0  0.33580486099E+00 -0.32368406822E+00 -0.10841853995E+01  0.90007748221E+02  0.90000009698E+02 0.  0.
        -12    1    1    2    0    0 -0.33580486099E+00  0.32368406822E+00  0.10841853995E+01  0.11802517787E+01  0.00000000000E+00 0.  1.
         11    1    3    3    0    0  0.30236753754E+02 -0.86660498810E+01 -0.23774581805E+02  0.39428320258E+02  0.51100000000E-03 0. -1.
        -11    1    3    3    0    0 -0.97501713143E+00 -0.10531329329E+02  0.39971363383E+01  0.11306487297E+02  0.51100000000E-03 0.  1.
        -12    1    3    3    0    0 -0.28925931762E+02  0.18873695142E+02  0.18693260067E+02  0.39272940666E+02  0.00000000000E+00 0.  1.
</event>
<event>
 7    1  0.1978681E-015  0.9000769E+02  0.7816164E-02  0.1186339E+00
        -11   -1    0    0    0    0  0.00000000000E+00  0.00000000000E+00  0.45593999997E+02  0.45594000000E+02  0.51100000000E-03 0.  1.
         11   -1    0    0    0    0 -0.00000000000E+00 -0.00000000000E+00 -0.45593999997E+02  0.45594000000E+02  0.51100000000E-03 0. -1.
    9900012    2    1    2    0    0  0.32554517182E+00 -0.50486571462E+00 -0.10160059458E+01  0.90007687698E+02  0.89999948375E+02 0.  0.
        -12    1    1    2    0    0 -0.32554517182E+00  0.50486571462E+00  0.10160059458E+01  0.11803123021E+01  0.00000000000E+00 0.  1.
         11    1    3    3    0    0  0.35003716873E+02  0.71239952309E+01 -0.93442634604E+01  0.36923255041E+02  0.51100000000E-03 0. -1.
        -11    1    3    3    0    0  0.16328403234E+01  0.11341953080E+02  0.17722801149E+01  0.11595130196E+02  0.51100000000E-03 0.  1.
        -12    1    3    3    0    0 -0.36311012024E+02 -0.18970814025E+02  0.65559773997E+01  0.41489302461E+02  0.00000000000E+00 0.  1.
</event>
<event>
 7    1  0.1978681E-015  0.9000770E+02  0.7816164E-02  0.1186339E+00
        -11   -1    0    0    0    0  0.00000000000E+00  0.00000000000E+00  0.45593999997E+02  0.45594000000E+02  0.51100000000E-03 0.  1.
         11   -1    0    0    0    0 -0.00000000000E+00 -0.00000000000E+00 -0.45593999997E+02  0.45594000000E+02  0.51100000000E-03 0. -1.
    9900012    2    1    2    0    0  0.40679476198E+00 -0.14555723325E-01 -0.11078840763E+01  0.90007703014E+02  0.89999963894E+02 0.  0.
        -12    1    1    2    0    0 -0.40679476198E+00  0.14555723325E-01  0.11078840763E+01  0.11802969855E+01  0.00000000000E+00 0.  1.
         11    1    3    3    0    0  0.76739301278E+00 -0.81026863642E+01 -0.38315568381E+01  0.89957349014E+01  0.51100000000E-03 0. -1.
        -11    1    3    3    0    0  0.43651681603E+01 -0.36009357669E+02  0.49336198561E+01  0.36606954775E+02  0.51100000000E-03 0.  1.
         12    1    3    3    0    0 -0.47257664111E+01  0.44097488309E+02 -0.22099470943E+01  0.44405013338E+02  0.00000000000E+00 0. -1.
</event>
<event>
 7    1  0.1978681E-015  0.9000770E+02  0.7816164E-02  0.1186339E+00
        -11   -1    0    0    0    0  0.00000000000E+00  0.00000000000E+00  0.45593999997E+02  0.45594000000E+02  0.51100000000E-03 0.  1.
         11   -1    0    0    0    0 -0.00000000000E+00 -0.00000000000E+00 -0.45593999997E+02  0.45594000000E+02  0.51100000000E-03 0. -1.
    9900012    2    1    2    0    0 -0.10247729654E+01  0.43831100536E+00 -0.38837850232E+00  0.90007697484E+02  0.89999958291E+02 0.  0.
        -12    1    1    2    0    0  0.10247729654E+01 -0.43831100536E+00  0.38837850232E+00  0.11803025159E+01  0.00000000000E+00 0.  1.
         11    1    3    3    0    0 -0.98710603642E+01 -0.15259272163E+02  0.37499000500E+02  0.41670832226E+02  0.51100000000E-03 0. -1.
        -11    1    3    3    0    0 -0.69870071251E+01  0.15216471699E+01 -0.36212467232E+01  0.80154292939E+01  0.51100000000E-03 0.  1.
        -12    1    3    3    0    0  0.15833294524E+02  0.14175935998E+02 -0.34266132279E+02  0.40321435965E+02  0.00000000000E+00 0.  1.
</event>
<event>
 7    1  0.1978681E-015  0.9000769E+02  0.7816164E-02  0.1186339E+00
        -11   -1    0    0    0    0  0.00000000000E+00  0.00000000000E+00  0.45593999997E+02  0.45594000000E+02  0.51100000000E-03 0. -1.
         11   -1    0    0    0    0 -0.00000000000E+00 -0.00000000000E+00 -0.45593999997E+02  0.45594000000E+02  0.51100000000E-03 0.  1.
    9900012    2    1    2    0    0 -0.76267067612E+00 -0.87241573312E+00 -0.22439576508E+00  0.90007691044E+02  0.89999951766E+02 0.  0.
        -12    1    1    2    0    0  0.76267067612E+00  0.87241573312E+00  0.22439576508E+00  0.11803089557E+01  0.00000000000E+00 0.  1.
         11    1    3    3    0    0  0.78659517285E+01 -0.69514403524E+01  0.31299015486E+01  0.10954086157E+02  0.51100000000E-03 0. -1.
        -11    1    3    3    0    0  0.15436739309E+02  0.35923210268E+02  0.60858192125E+01  0.39570281174E+02  0.51100000000E-03 0.  1.
         12    1    3    3    0    0 -0.24065361713E+02 -0.29844185649E+02 -0.94401165263E+01  0.39483323713E+02  0.00000000000E+00 0. -1.
</event>
<event>
 7    1  0.1978681E-015  0.9000773E+02  0.7816164E-02  0.1186339E+00
        -11   -1    0    0    0    0  0.00000000000E+00  0.00000000000E+00  0.45593999997E+02  0.45594000000E+02  0.51100000000E-03 0. -1.
         11   -1    0    0    0    0 -0.00000000000E+00 -0.00000000000E+00 -0.45593999997E+02  0.45594000000E+02  0.51100000000E-03 0.  1.
    9900012    2    1    2    0    0 -0.11650791869E+01  0.79890480599E-01  0.17100933762E+00  0.90007730457E+02  0.89999991699E+02 0.  0.
        -12    1    1    2    0    0  0.11650791869E+01 -0.79890480599E-01 -0.17100933762E+00  0.11802695430E+01  0.00000000000E+00 0.  1.
         11    1    3    3    0    0  0.49679517205E+01 -0.12023068568E+02  0.20061000519E+02  0.23909798497E+02  0.51100000000E-03 0. -1.
        -11    1    3    3    0    0 -0.15784138786E+02 -0.19384201829E+02 -0.21717833845E+02  0.33114205788E+02  0.51100000000E-03 0.  1.
         12    1    3    3    0    0  0.96511078785E+01  0.31487160877E+02  0.18278426634E+01  0.32983726172E+02  0.00000000000E+00 0. -1.
</event>
<event>
 7    1  0.1978681E-015  0.9000787E+02  0.7816164E-02  0.1186339E+00
        -11   -1    0    0    0    0  0.00000000000E+00  0.00000000000E+00  0.45593999997E+02  0.45594000000E+02  0.51100000000E-03 0.  1.
         11   -1    0    0    0    0 -0.00000000000E+00 -0.00000000000E+00 -0.45593999997E+02  0.45594000000E+02  0.51100000000E-03 0. -1.
    9900012    2    1    2    0    0 -0.65476336549E+00 -0.14244426605E+00 -0.97144642285E+00  0.90007867132E+02  0.90000130178E+02 0.  0.
        -12    1    1    2    0    0  0.65476336549E+00  0.14244426605E+00  0.97144642285E+00  0.11801328680E+01  0.00000000000E+00 0.  1.
         11    1    3    3    0    0  0.25260081341E+01  0.72022617141E+01  0.44798454328E+01  0.88499890540E+01  0.51100000000E-03 0. -1.
        -11    1    3    3    0    0  0.75059479026E+00  0.27779442415E+02 -0.27826994606E+02  0.39326866675E+02  0.51100000000E-03 0.  1.
         12    1    3    3    0    0 -0.39313662899E+01 -0.35124148395E+02  0.22375702750E+02  0.41831011403E+02  0.00000000000E+00 0. -1.
</event>
<event>
 7    1  0.1978681E-015  0.9000773E+02  0.7816164E-02  0.1186339E+00
        -11   -1    0    0    0    0  0.00000000000E+00  0.00000000000E+00  0.45593999997E+02  0.45594000000E+02  0.51100000000E-03 0. -1.
         11   -1    0    0    0    0 -0.00000000000E+00 -0.00000000000E+00 -0.45593999997E+02  0.45594000000E+02  0.51100000000E-03 0.  1.
    9900012    2    1    2    0    0 -0.95566980236E+00 -0.69182417799E+00  0.33409417683E-01  0.90007728144E+02  0.89999989356E+02 0.  0.
        -12    1    1    2    0    0  0.95566980236E+00  0.69182417799E+00 -0.33409417683E-01  0.11802718558E+01  0.00000000000E+00 0.  1.
         11    1    3    3    0    0 -0.17862941425E+02  0.22149388715E+02 -0.23673426281E+02  0.37015013291E+02  0.51100000000E-03 0. -1.
        -11    1    3    3    0    0  0.29982982103E+01  0.88282793584E+01 -0.24345983620E+01  0.96361599215E+01  0.51100000000E-03 0.  1.
        -12    1    3    3    0    0  0.13908973412E+02 -0.31669492251E+02  0.26141434060E+02  0.43356554932E+02  0.00000000000E+00 0.  1.
</event>
<event>
 7    1  0.1978681E-015  0.9000740E+02  0.7816164E-02  0.1186340E+00
        -11   -1    0    0    0    0  0.00000000000E+00  0.00000000000E+00  0.45593999997E+02  0.45594000000E+02  0.51100000000E-03 0. -1.
         11   -1    0    0    0    0 -0.00000000000E+00 -0.00000000000E+00 -0.45593999997E+02  0.45594000000E+02  0.51100000000E-03 0.  1.
    9900012    2    1    2    0    0  0.56150163032E+00 -0.89769956061E+00  0.52218431892E+00  0.90007396322E+02  0.89999653153E+02 0.  0.
        -12    1    1    2    0    0 -0.56150163032E+00  0.89769956061E+00 -0.52218431892E+00  0.11806036782E+01  0.00000000000E+00 0.  1.
         11    1    3    3    0    0  0.96525978091E+00  0.59914496130E+00 -0.10314487662E+02  0.10376866441E+02  0.51100000000E-03 0. -1.
        -11    1    3    3    0    0  0.23150934164E+02  0.27319816695E+02 -0.97291425080E+01  0.37107874516E+02  0.51100000000E-03 0.  1.
         12    1    3    3    0    0 -0.23554692314E+02 -0.28816661217E+02  0.20565814489E+02  0.42522655365E+02  0.00000000000E+00 0. -1.
</event>
<event>
 7    1  0.1978681E-015  0.9000775E+02  0.7816164E-02  0.1186339E+00
        -11   -1    0    0    0    0  0.00000000000E+00  0.00000000000E+00  0.45593999997E+02  0.45594000000E+02  0.51100000000E-03 0.  1.
         11   -1    0    0    0    0 -0.00000000000E+00 -0.00000000000E+00 -0.45593999997E+02  0.45594000000E+02  0.51100000000E-03 0. -1.
    9900012    2    1    2    0    0  0.34432644740E+00 -0.72262795497E+00 -0.86732155453E+00  0.90007746407E+02  0.90000007860E+02 0.  0.
        -12    1    1    2    0    0 -0.34432644740E+00  0.72262795497E+00  0.86732155453E+00  0.11802535925E+01  0.00000000000E+00 0.  1.
         11    1    3    3    0    0 -0.95611146496E+01 -0.38247605306E+01 -0.50553564501E+01  0.11471718945E+02  0.51100000000E-03 0. -1.
        -11    1    3    3    0    0 -0.14567481874E+02 -0.25005714827E+02  0.22833831461E+02  0.36863005326E+02  0.51100000000E-03 0.  1.
         12    1    3    3    0    0  0.24472922971E+02  0.28107847403E+02 -0.18645796566E+02  0.41673022136E+02  0.00000000000E+00 0. -1.
</event>
<event>
 7    1  0.1978681E-015  0.9000774E+02  0.7816164E-02  0.1186339E+00
        -11   -1    0    0    0    0  0.00000000000E+00  0.00000000000E+00  0.45593999997E+02  0.45594000000E+02  0.51100000000E-03 0. -1.
         11   -1    0    0    0    0 -0.00000000000E+00 -0.00000000000E+00 -0.45593999997E+02  0.45594000000E+02  0.51100000000E-03 0.  1.
    9900012    2    1    2    0    0  0.99674518171E+00 -0.62254395180E+00  0.10933929393E+00  0.90007738584E+02  0.89999999933E+02 0.  0.
        -12    1    1    2    0    0 -0.99674518171E+00  0.62254395180E+00 -0.10933929393E+00  0.11802614161E+01  0.00000000000E+00 0.  1.
         11    1    3    3    0    0 -0.45462829015E+01  0.36302773828E+02  0.10803444926E+02  0.38148060217E+02  0.51100000000E-03 0. -1.
        -11    1    3    3    0    0  0.80441560504E+01 -0.32099010282E+01  0.91978124700E+01  0.12633751053E+02  0.51100000000E-03 0.  1.
         12    1    3    3    0    0 -0.25011279673E+01 -0.33715416752E+02 -0.19891918102E+02  0.39225927314E+02  0.00000000000E+00 0. -1.
</event>
<event>
 7    1  0.1978681E-015  0.9000783E+02  0.7816164E-02  0.1186339E+00
        -11   -1    0    0    0    0  0.00000000000E+00  0.00000000000E+00  0.45593999997E+02  0.45594000000E+02  0.51100000000E-03 0.  1.
         11   -1    0    0    0    0 -0.00000000000E+00 -0.00000000000E+00 -0.45593999997E+02  0.45594000000E+02  0.51100000000E-03 0. -1.
    9900012    2    1    2    0    0 -0.57009752129E+00 -0.84468903372E+00 -0.59522521713E+00  0.90007828908E+02  0.90000091449E+02 0.  0.
        -12    1    1    2    0    0  0.57009752129E+00  0.84468903372E+00  0.59522521713E+00  0.11801710921E+01  0.00000000000E+00 0.  1.
         11    1    3    3    0    0  0.67380418153E+01  0.20405182301E+02 -0.31456891341E+02  0.38096045534E+02  0.51100000000E-03 0. -1.
        -11    1    3    3    0    0  0.25224058361E+01  0.85777777047E+01  0.17952014279E+01  0.91194051330E+01  0.51100000000E-03 0.  1.
        -12    1    3    3    0    0 -0.98305451727E+01 -0.29827649039E+02  0.29066464696E+02  0.42792378241E+02  0.00000000000E+00 0.  1.
</event>
<event>
 7    1  0.1978681E-015  0.9000755E+02  0.7816164E-02  0.1186339E+00
        -11   -1    0    0    0    0  0.00000000000E+00  0.00000000000E+00  0.45593999997E+02  0.45594000000E+02  0.51100000000E-03 0.  1.
         11   -1    0    0    0    0 -0.00000000000E+00 -0.00000000000E+00 -0.45593999997E+02  0.45594000000E+02  0.51100000000E-03 0. -1.
    9900012    2    1    2    0    0 -0.45426654353E+00  0.37801888624E+00 -0.10218651595E+01  0.90007548910E+02  0.89999807756E+02 0.  0.
        -12    1    1    2    0    0  0.45426654353E+00 -0.37801888624E+00  0.10218651595E+01  0.11804510897E+01  0.00000000000E+00 0.  1.
         11    1    3    3    0    0  0.77717184453E+01  0.31598300848E+02 -0.85665847575E+01  0.33648753301E+02  0.51100000000E-03 0. -1.
        -11    1    3    3    0    0  0.41899152603E+01  0.10162006509E+02 -0.39011444568E+01  0.11663648422E+02  0.51100000000E-03 0.  1.
        -12    1    3    3    0    0 -0.12415900249E+02 -0.41382288471E+02  0.11445864055E+02  0.44695147187E+02  0.00000000000E+00 0.  1.
</event>
<event>
 7    1  0.1978681E-015  0.9000770E+02  0.7816164E-02  0.1186339E+00
        -11   -1    0    0    0    0  0.00000000000E+00  0.00000000000E+00  0.45593999997E+02  0.45594000000E+02  0.51100000000E-03 0. -1.
         11   -1    0    0    0    0 -0.00000000000E+00 -0.00000000000E+00 -0.45593999997E+02  0.45594000000E+02  0.51100000000E-03 0.  1.
    9900012    2    1    2    0    0 -0.55980909765E+00  0.10161690462E+01 -0.21707677794E+00  0.90007700003E+02  0.89999960843E+02 0.  0.
        -12    1    1    2    0    0  0.55980909765E+00 -0.10161690462E+01  0.21707677794E+00  0.11802999974E+01  0.00000000000E+00 0.  1.
         11    1    3    3    0    0 -0.14107361740E+02 -0.18663229569E+02  0.33837463101E+02  0.41137667686E+02  0.51100000000E-03 0. -1.
        -11    1    3    3    0    0 -0.76736777800E+01  0.39159502876E+01 -0.84831853730E+01  0.12090675401E+02  0.51100000000E-03 0.  1.
        -12    1    3    3    0    0  0.21221230423E+02  0.15763448328E+02 -0.25571354506E+02  0.36779356916E+02  0.00000000000E+00 0.  1.
</event>
<event>
 7    1  0.1978681E-015  0.9000780E+02  0.7816164E-02  0.1186339E+00
        -11   -1    0    0    0    0  0.00000000000E+00  0.00000000000E+00  0.45593999997E+02  0.45594000000E+02  0.51100000000E-03 0. -1.
         11   -1    0    0    0    0 -0.00000000000E+00 -0.00000000000E+00 -0.45593999997E+02  0.45594000000E+02  0.51100000000E-03 0.  1.
    9900012    2    1    2    0    0 -0.79643187893E+00 -0.75946274724E+00  0.42635461561E+00  0.90007802703E+02  0.90000064898E+02 0.  0.
        -12    1    1    2    0    0  0.79643187893E+00  0.75946274724E+00 -0.42635461561E+00  0.11801972973E+01  0.00000000000E+00 0.  1.
         11    1    3    3    0    0 -0.31068057666E+01  0.86692794316E+00 -0.10740955377E+02  0.11214808460E+02  0.51100000000E-03 0. -1.
        -11    1    3    3    0    0  0.26971398654E+02 -0.12851730738E+02 -0.21160768050E+02  0.36611493183E+02  0.51100000000E-03 0.  1.
         12    1    3    3    0    0 -0.24661024767E+02  0.11225340048E+02  0.32328078043E+02  0.42181501060E+02  0.00000000000E+00 0. -1.
</event>
<event>
 7    1  0.1978681E-015  0.9000764E+02  0.7816164E-02  0.1186339E+00
        -11   -1    0    0    0    0  0.00000000000E+00  0.00000000000E+00  0.45593999997E+02  0.45594000000E+02  0.51100000000E-03 0. -1.
         11   -1    0    0    0    0 -0.00000000000E+00 -0.00000000000E+00 -0.45593999997E+02  0.45594000000E+02  0.51100000000E-03 0.  1.
    9900012    2    1    2    0    0 -0.31049971091E+00  0.10614096788E+01 -0.41260920386E+00  0.90007641185E+02  0.89999901249E+02 0.  0.
        -12    1    1    2    0    0  0.31049971091E+00 -0.10614096788E+01  0.41260920386E+00  0.11803588148E+01  0.00000000000E+00 0.  1.
         11    1    3    3    0    0 -0.85649168781E+01  0.34866655706E+00  0.26682504079E+01  0.89776906828E+01  0.51100000000E-03 0. -1.
        -11    1    3    3    0    0 -0.24244616806E+02  0.28774181758E+02  0.26100001491E+01  0.37716933610E+02  0.51100000000E-03 0.  1.
         12    1    3    3    0    0  0.32499033973E+02 -0.28061438636E+02 -0.56908597608E+01  0.43313016892E+02  0.00000000000E+00 0. -1.
</event>
<event>
 7    1  0.1978681E-015  0.9000768E+02  0.7816164E-02  0.1186339E+00
        -11   -1    0    0    0    0  0.00000000000E+00  0.00000000000E+00  0.45593999997E+02  0.45594000000E+02  0.51100000000E-03 0. -1.
         11   -1    0    0    0    0 -0.00000000000E+00 -0.00000000000E+00 -0.45593999997E+02  0.45594000000E+02  0.51100000000E-03 0.  1.
    9900012    2    1    2    0    0 -0.11710949886E+00  0.40435257404E+00 -0.11026914227E+01  0.90007684783E+02  0.89999945422E+02 0.  0.
        -12    1    1    2    0    0  0.11710949886E+00 -0.40435257404E+00  0.11026914227E+01  0.11803152175E+01  0.00000000000E+00 0.  1.
         11    1    3    3    0    0  0.71193602786E+01 -0.48536306690E+01 -0.36581935524E+01  0.93608440739E+01  0.51100000000E-03 0. -1.
        -11    1    3    3    0    0  0.36123392007E+02 -0.18363636854E+01 -0.33076327944E+01  0.36320959743E+02  0.51100000000E-03 0.  1.
         12    1    3    3    0    0 -0.43359861784E+02  0.70943469285E+01  0.58631349240E+01  0.44325880966E+02  0.00000000000E+00 0. -1.
</event>
<event>
 7    1  0.1978681E-015  0.9000773E+02  0.7816164E-02  0.1186339E+00
        -11   -1    0    0    0    0  0.00000000000E+00  0.00000000000E+00  0.45593999997E+02  0.45594000000E+02  0.51100000000E-03 0.  1.
         11   -1    0    0    0    0 -0.00000000000E+00 -0.00000000000E+00 -0.45593999997E+02  0.45594000000E+02  0.51100000000E-03 0. -1.
    9900012    2    1    2    0    0 -0.61909873990E+00 -0.90222497632E+00  0.44242605273E+00  0.90007731399E+02  0.89999992654E+02 0.  0.
        -12    1    1    2    0    0  0.61909873990E+00  0.90222497632E+00 -0.44242605273E+00  0.11802686007E+01  0.00000000000E+00 0.  1.
         11    1    3    3    0    0  0.26910413569E+02  0.24618796391E+02  0.97686760376E+01  0.37758211372E+02  0.51100000000E-03 0. -1.
        -11    1    3    3    0    0  0.10403950001E+01 -0.13122250604E+01  0.99791775040E+01  0.10118712383E+02  0.51100000000E-03 0.  1.
        -12    1    3    3    0    0 -0.28569907309E+02 -0.24208796307E+02 -0.19305427489E+02  0.42130807645E+02  0.00000000000E+00 0.  1.
</event>
<event>
 7    1  0.1978681E-015  0.9000760E+02  0.7816164E-02  0.1186339E+00
        -11   -1    0    0    0    0  0.00000000000E+00  0.00000000000E+00  0.45593999997E+02  0.45594000000E+02  0.51100000000E-03 0.  1.
         11   -1    0    0    0    0 -0.00000000000E+00 -0.00000000000E+00 -0.45593999997E+02  0.45594000000E+02  0.51100000000E-03 0. -1.
    9900012    2    1    2    0    0 -0.53972446071E+00 -0.39530260380E+00 -0.97251139922E+00  0.90007599617E+02  0.89999859132E+02 0.  0.
        -12    1    1    2    0    0  0.53972446071E+00  0.39530260380E+00  0.97251139922E+00  0.11804003828E+01  0.00000000000E+00 0.  1.
         11    1    3    3    0    0 -0.74153210127E+01 -0.31857405311E+02 -0.13150679709E+02  0.35253675496E+02  0.51100000000E-03 0. -1.
        -11    1    3    3    0    0  0.11993389075E+02 -0.63627117480E+01 -0.26001743360E+01  0.13823400057E+02  0.51100000000E-03 0.  1.
        -12    1    3    3    0    0 -0.51177925227E+01  0.37824814455E+02  0.14778342646E+02  0.40930524065E+02  0.00000000000E+00 0.  1.
</event>
<event>
 7    1  0.1978681E-015  0.9000772E+02  0.7816164E-02  0.1186339E+00
        -11   -1    0    0    0    0  0.00000000000E+00  0.00000000000E+00  0.45593999997E+02  0.45594000000E+02  0.51100000000E-03 0. -1.
         11   -1    0    0    0    0 -0.00000000000E+00 -0.00000000000E+00 -0.45593999997E+02  0.45594000000E+02  0.51100000000E-03 0.  1.
    9900012    2    1    2    0    0 -0.99395677942E+00  0.28948866124E+00  0.56683812917E+00  0.90007720699E+02  0.89999981812E+02 0.  0.
        -12    1    1    2    0    0  0.99395677942E+00 -0.28948866124E+00 -0.56683812917E+00  0.11802793013E+01  0.00000000000E+00 0.  1.
         11    1    3    3    0    0 -0.19703639637E+01  0.24570345504E+00 -0.10147844771E+02  0.10340283270E+02  0.51100000000E-03 0. -1.
        -11    1    3    3    0    0  0.31952986356E+02  0.61247620424E+01 -0.17836686641E+02  0.37103280687E+02  0.51100000000E-03 0.  1.
         12    1    3    3    0    0 -0.30976579172E+02 -0.60809768362E+01  0.28551369541E+02  0.42564156742E+02  0.00000000000E+00 0. -1.
</event>
<event>
 7    1  0.2092179E-015  0.9000822E+02  0.7816164E-02  0.1186338E+00
        -11   -1    0    0    0    0  0.00000000000E+00  0.00000000000E+00  0.45593999997E+02  0.45594000000E+02  0.51100000000E-03 0.  1.
         11   -1    0    0    0    0 -0.00000000000E+00 -0.00000000000E+00 -0.45593999997E+02  0.45594000000E+02  0.51100000000E-03 0. -1.
    9900012    2    1    2    0    0  0.15944196045E+00  0.11318248546E+01  0.29229004730E+00  0.90008219210E+02  0.90000486902E+02 0.  0.
        -12    1    1    2    0    0 -0.15944196045E+00 -0.11318248546E+01 -0.29229004730E+00  0.11797807898E+01  0.00000000000E+00 0.  1.
         11    1    3    3    0    0 -0.23530885537E+01  0.35359072032E+01  0.87149803497E+01  0.96948722657E+01  0.51100000000E-03 0. -1.
        -11    1    3    3    0    0 -0.10685599233E+02  0.36581261217E+02 -0.89679566730E+01  0.39150925281E+02  0.51100000000E-03 0.  1.
         12    1    3    3    0    0  0.13198129747E+02 -0.38985343566E+02  0.54526637057E+00  0.41162421663E+02  0.00000000000E+00 0. -1.
</event>
<event>
 7    1  0.1978681E-015  0.9000777E+02  0.7816164E-02  0.1186339E+00
        -11   -1    0    0    0    0  0.00000000000E+00  0.00000000000E+00  0.45593999997E+02  0.45594000000E+02  0.51100000000E-03 0.  1.
         11   -1    0    0    0    0 -0.00000000000E+00 -0.00000000000E+00 -0.45593999997E+02  0.45594000000E+02  0.51100000000E-03 0. -1.
    9900012    2    1    2    0    0  0.59417285558E+00 -0.97744022692E+00  0.29072634737E+00  0.90007765876E+02  0.90000027585E+02 0.  0.
        -12    1    1    2    0    0 -0.59417285558E+00  0.97744022692E+00 -0.29072634737E+00  0.11802341245E+01  0.00000000000E+00 0.  1.
         11    1    3    3    0    0 -0.22160416196E+00 -0.10236520256E+02  0.38330807118E+01  0.10932884494E+02  0.51100000000E-03 0. -1.
        -11    1    3    3    0    0  0.30486955832E+02  0.12037878147E+02  0.22288111344E+02  0.39637417849E+02  0.51100000000E-03 0.  1.
         12    1    3    3    0    0 -0.29671178814E+02 -0.27787981177E+01 -0.25830465708E+02  0.39437463533E+02  0.00000000000E+00 0. -1.
</event>
<event>
 7    1  0.1978681E-015  0.9000772E+02  0.7816164E-02  0.1186339E+00
        -11   -1    0    0    0    0  0.00000000000E+00  0.00000000000E+00  0.45593999997E+02  0.45594000000E+02  0.51100000000E-03 0. -1.
         11   -1    0    0    0    0 -0.00000000000E+00 -0.00000000000E+00 -0.45593999997E+02  0.45594000000E+02  0.51100000000E-03 0.  1.
    9900012    2    1    2    0    0 -0.48569259397E+00 -0.35302592712E+00  0.10161429221E+01  0.90007715696E+02  0.89999976743E+02 0.  0.
        -12    1    1    2    0    0  0.48569259397E+00  0.35302592712E+00 -0.10161429221E+01  0.11802843044E+01  0.00000000000E+00 0.  1.
         11    1    3    3    0    0  0.27321286515E+00  0.81872727273E+01  0.94997929592E+01  0.12544008391E+02  0.51100000000E-03 0. -1.
        -11    1    3    3    0    0 -0.38072204865E+02  0.80148075592E-01 -0.91714395056E+01  0.39161390551E+02  0.51100000000E-03 0.  1.
         12    1    3    3    0    0  0.37313299406E+02 -0.86204467300E+01  0.68778946855E+00  0.38302316754E+02  0.00000000000E+00 0. -1.
</event>
<event>
 7    1  0.1978681E-015  0.9000779E+02  0.7816164E-02  0.1186339E+00
        -11   -1    0    0    0    0  0.00000000000E+00  0.00000000000E+00  0.45593999997E+02  0.45594000000E+02  0.51100000000E-03 0.  1.
         11   -1    0    0    0    0 -0.00000000000E+00 -0.00000000000E+00 -0.45593999997E+02  0.45594000000E+02  0.51100000000E-03 0. -1.
    9900012    2    1    2    0    0  0.77972586376E+00 -0.46961233605E+00 -0.75126086521E+00  0.90007787707E+02  0.90000049705E+02 0.  0.
        -12    1    1    2    0    0 -0.77972586376E+00  0.46961233605E+00  0.75126086521E+00  0.11802122929E+01  0.00000000000E+00 0.  1.
         11    1    3    3    0    0  0.10804894819E+01 -0.97791878083E+01  0.10580095009E+01  0.98954209650E+01  0.51100000000E-03 0. -1.
        -11    1    3    3    0    0  0.14933398648E+02 -0.91485443351E+01  0.33298543585E+02  0.37623068240E+02  0.51100000000E-03 0.  1.
         12    1    3    3    0    0 -0.15234162267E+02  0.18458119807E+02 -0.35107813951E+02  0.42489298502E+02  0.00000000000E+00 0. -1.
</event>
<event>
 7    1  0.1978681E-015  0.9000763E+02  0.7816164E-02  0.1186339E+00
        -11   -1    0    0    0    0  0.00000000000E+00  0.00000000000E+00  0.45593999997E+02  0.45594000000E+02  0.51100000000E-03 0. -1.
         11   -1    0    0    0    0 -0.00000000000E+00 -0.00000000000E+00 -0.45593999997E+02  0.45594000000E+02  0.51100000000E-03 0.  1.
    9900012    2    1    2    0    0 -0.18842254295E+00  0.97008106571E+00  0.64553936391E+00  0.90007626585E+02  0.89999886456E+02 0.  0.
        -12    1    1    2    0    0  0.18842254295E+00 -0.97008106571E+00 -0.64553936391E+00  0.11803734151E+01  0.00000000000E+00 0.  1.
         11    1    3    3    0    0  0.48241240686E+01  0.41792768021E+00 -0.87485396295E+01  0.99991890914E+01  0.51100000000E-03 0. -1.
        -11    1    3    3    0    0 -0.14850000494E+02 -0.30725826427E+02 -0.16803979804E+02  0.38039093862E+02  0.51100000000E-03 0.  1.
         12    1    3    3    0    0  0.98374538825E+01  0.31277979813E+02  0.26198058798E+02  0.41969343631E+02  0.00000000000E+00 0. -1.
</event>
<event>
 7    1  0.1978681E-015  0.9000774E+02  0.7816164E-02  0.1186339E+00
        -11   -1    0    0    0    0  0.00000000000E+00  0.00000000000E+00  0.45593999997E+02  0.45594000000E+02  0.51100000000E-03 0.  1.
         11   -1    0    0    0    0 -0.00000000000E+00 -0.00000000000E+00 -0.45593999997E+02  0.45594000000E+02  0.51100000000E-03 0. -1.
    9900012    2    1    2    0    0  0.11760054385E+00  0.86771869957E+00  0.79136296552E+00  0.90007736905E+02  0.89999998232E+02 0.  0.
        -12    1    1    2    0    0 -0.11760054385E+00 -0.86771869957E+00 -0.79136296552E+00  0.11802630947E+01  0.00000000000E+00 0.  1.
         11    1    3    3    0    0  0.70166181017E+01  0.33536815549E+02 -0.19911931571E+02  0.39628726271E+02  0.51100000000E-03 0. -1.
        -11    1    3    3    0    0  0.93186504440E+01 -0.15767986726E+01 -0.38480889378E+00  0.94589438256E+01  0.51100000000E-03 0.  1.
        -12    1    3    3    0    0 -0.16217668002E+02 -0.31092298177E+02  0.21088103430E+02  0.40920066808E+02  0.00000000000E+00 0.  1.
</event>
<event>
 7    1  0.1978681E-015  0.9000769E+02  0.7816164E-02  0.1186339E+00
        -11   -1    0    0    0    0  0.00000000000E+00  0.00000000000E+00  0.45593999997E+02  0.45594000000E+02  0.51100000000E-03 0. -1.
         11   -1    0    0    0    0 -0.00000000000E+00 -0.00000000000E+00 -0.45593999997E+02  0.45594000000E+02  0.51100000000E-03 0.  1.
    9900012    2    1    2    0    0 -0.95559962482E+00 -0.68333699174E+00 -0.11404951921E+00  0.90007691828E+02  0.89999952560E+02 0.  0.
        -12    1    1    2    0    0  0.95559962482E+00  0.68333699174E+00  0.11404951921E+00  0.11803081716E+01  0.00000000000E+00 0.  1.
         11    1    3    3    0    0  0.62693649447E+01 -0.63319950220E+01 -0.40914866925E+01  0.98050681478E+01  0.51100000000E-03 0. -1.
        -11    1    3    3    0    0 -0.29363550504E+02  0.33335150812E+01  0.32562362255E+02  0.43973149272E+02  0.51100000000E-03 0.  1.
         12    1    3    3    0    0  0.22138585934E+02  0.23151429490E+01 -0.28584925081E+02  0.36229474409E+02  0.00000000000E+00 0. -1.
</event>
<event>
 7    1  0.1978681E-015  0.9000782E+02  0.7816164E-02  0.1186339E+00
        -11   -1    0    0    0    0  0.00000000000E+00  0.00000000000E+00  0.45593999997E+02  0.45594000000E+02  0.51100000000E-03 0.  1.
         11   -1    0    0    0    0 -0.00000000000E+00 -0.00000000000E+00 -0.45593999997E+02  0.45594000000E+02  0.51100000000E-03 0. -1.
    9900012    2    1    2    0    0 -0.73886262665E+00 -0.68189897533E+00 -0.61799631783E+00  0.90007820504E+02  0.90000082935E+02 0.  0.
        -12    1    1    2    0    0  0.73886262665E+00  0.68189897533E+00  0.61799631783E+00  0.11801794959E+01  0.00000000000E+00 0.  1.
         11    1    3    3    0    0  0.10972220351E+02  0.22822708887E+02 -0.33792579557E+02  0.42228001300E+02  0.51100000000E-03 0. -1.
        -11    1    3    3    0    0  0.26762119940E+01  0.23946413271E+01  0.84853361907E+01  0.92139757028E+01  0.51100000000E-03 0.  1.
        -12    1    3    3    0    0 -0.14387294972E+02 -0.25899249189E+02  0.24689247049E+02  0.38565843502E+02  0.00000000000E+00 0.  1.
</event>
<event>
 7    1  0.1978681E-015  0.9000772E+02  0.7816164E-02  0.1186339E+00
        -11   -1    0    0    0    0  0.00000000000E+00  0.00000000000E+00  0.45593999997E+02  0.45594000000E+02  0.51100000000E-03 0.  1.
         11   -1    0    0    0    0 -0.00000000000E+00 -0.00000000000E+00 -0.45593999997E+02  0.45594000000E+02  0.51100000000E-03 0. -1.
    9900012    2    1    2    0    0  0.98038119485E+00  0.58523462325E+00 -0.29902412740E+00  0.90007719406E+02  0.89999980502E+02 0.  0.
        -12    1    1    2    0    0 -0.98038119485E+00 -0.58523462325E+00  0.29902412740E+00  0.11802805939E+01  0.00000000000E+00 0.  1.
         11    1    3    3    0    0 -0.30986750948E+02 -0.20827639379E+02 -0.75077443540E+01  0.38083270894E+02  0.51100000000E-03 0. -1.
        -11    1    3    3    0    0  0.39402647228E+00 -0.65724491141E+01  0.71691570208E+01  0.97339178581E+01  0.51100000000E-03 0.  1.
        -12    1    3    3    0    0  0.31573105671E+02  0.27985323117E+02  0.39563205826E-01  0.42190530654E+02  0.00000000000E+00 0.  1.
</event>
<event>
 7    1  0.1978681E-015  0.9000798E+02  0.7816164E-02  0.1186339E+00
        -11   -1    0    0    0    0  0.00000000000E+00  0.00000000000E+00  0.45593999997E+02  0.45594000000E+02  0.51100000000E-03 0.  1.
         11   -1    0    0    0    0 -0.00000000000E+00 -0.00000000000E+00 -0.45593999997E+02  0.45594000000E+02  0.51100000000E-03 0. -1.
    9900012    2    1    2    0    0  0.98289805283E+00  0.61726423332E+00 -0.21296297262E+00  0.90007975872E+02  0.90000240353E+02 0.  0.
        -12    1    1    2    0    0 -0.98289805283E+00 -0.61726423332E+00  0.21296297262E+00  0.11800241284E+01  0.00000000000E+00 0.  1.
         11    1    3    3    0    0 -0.12138523580E+02 -0.11995166532E+02 -0.36400725838E+02  0.40202495154E+02  0.51100000000E-03 0. -1.
        -11    1    3    3    0    0 -0.82983989294E+01  0.30781258364E+01  0.33653202744E+01  0.94690899387E+01  0.51100000000E-03 0.  1.
        -12    1    3    3    0    0  0.21419820563E+02  0.95343049288E+01  0.32822442591E+02  0.40336390779E+02  0.00000000000E+00 0.  1.
</event>
<event>
 7    1  0.1978681E-015  0.9000734E+02  0.7816164E-02  0.1186340E+00
        -11   -1    0    0    0    0  0.00000000000E+00  0.00000000000E+00  0.45593999997E+02  0.45594000000E+02  0.51100000000E-03 0.  1.
         11   -1    0    0    0    0 -0.00000000000E+00 -0.00000000000E+00 -0.45593999997E+02  0.45594000000E+02  0.51100000000E-03 0. -1.
    9900012    2    1    2    0    0 -0.25835532214E+00  0.66645525056E+00 -0.93971141054E+00  0.90007335946E+02  0.89999591979E+02 0.  0.
        -12    1    1    2    0    0  0.25835532214E+00 -0.66645525056E+00  0.93971141054E+00  0.11806640541E+01  0.00000000000E+00 0.  1.
         11    1    3    3    0    0  0.15870080241E+02 -0.28376465969E+02 -0.19883712092E+02  0.38110960032E+02  0.51100000000E-03 0. -1.
        -11    1    3    3    0    0 -0.15786179440E+01 -0.80976861612E+01  0.49653110030E+01  0.96290637861E+01  0.51100000000E-03 0.  1.
        -12    1    3    3    0    0 -0.14549817619E+02  0.37140607381E+02  0.13978689679E+02  0.42267312128E+02  0.00000000000E+00 0.  1.
</event>
<event>
 7    1  0.1978681E-015  0.9000781E+02  0.7816164E-02  0.1186339E+00
        -11   -1    0    0    0    0  0.00000000000E+00  0.00000000000E+00  0.45593999997E+02  0.45594000000E+02  0.51100000000E-03 0.  1.
         11   -1    0    0    0    0 -0.00000000000E+00 -0.00000000000E+00 -0.45593999997E+02  0.45594000000E+02  0.51100000000E-03 0. -1.
    9900012    2    1    2    0    0 -0.48621633087E+00  0.93740424202E+00  0.52698670731E+00  0.90007810175E+02  0.90000072469E+02 0.  0.
        -12    1    1    2    0    0  0.48621633087E+00 -0.93740424202E+00 -0.52698670731E+00  0.11801898250E+01  0.00000000000E+00 0.  1.
         11    1    3    3    0    0  0.30531000878E+02  0.23349659680E+02  0.13573185687E+02  0.40762482650E+02  0.51100000000E-03 0. -1.
        -11    1    3    3    0    0  0.16520774292E+01 -0.60214847657E+01 -0.10986426912E+02  0.12636819820E+02  0.51100000000E-03 0.  1.
        -12    1    3    3    0    0 -0.32669294638E+02 -0.16390770673E+02 -0.20597720679E+01  0.36608507705E+02  0.00000000000E+00 0.  1.
</event>
<event>
 7    1  0.1978681E-015  0.9000778E+02  0.7816164E-02  0.1186339E+00
        -11   -1    0    0    0    0  0.00000000000E+00  0.00000000000E+00  0.45593999997E+02  0.45594000000E+02  0.51100000000E-03 0. -1.
         11   -1    0    0    0    0 -0.00000000000E+00 -0.00000000000E+00 -0.45593999997E+02  0.45594000000E+02  0.51100000000E-03 0.  1.
    9900012    2    1    2    0    0  0.85952891946E+00  0.42967423542E+00  0.68520346706E+00  0.90007782349E+02  0.90000044276E+02 0.  0.
        -12    1    1    2    0    0 -0.85952891946E+00 -0.42967423542E+00 -0.68520346706E+00  0.11802176508E+01  0.00000000000E+00 0.  1.
         11    1    3    3    0    0 -0.44309392317E+01 -0.88550115023E+01  0.36676580494E+02  0.37989682918E+02  0.51100000000E-03 0. -1.
        -11    1    3    3    0    0  0.81996833913E+01 -0.22347745655E+01  0.46416290943E+01  0.96836845253E+01  0.51100000000E-03 0.  1.
        -12    1    3    3    0    0 -0.29092152401E+01  0.11519460303E+02 -0.40633006121E+02  0.42334414906E+02  0.00000000000E+00 0.  1.
</event>
<event>
 7    1  0.1978681E-015  0.9000774E+02  0.7816164E-02  0.1186339E+00
        -11   -1    0    0    0    0  0.00000000000E+00  0.00000000000E+00  0.45593999997E+02  0.45594000000E+02  0.51100000000E-03 0. -1.
         11   -1    0    0    0    0 -0.00000000000E+00 -0.00000000000E+00 -0.45593999997E+02  0.45594000000E+02  0.51100000000E-03 0.  1.
    9900012    2    1    2    0    0 -0.28677443260E+00 -0.11404548496E+01  0.10068745628E+00  0.90007739519E+02  0.90000000881E+02 0.  0.
        -12    1    1    2    0    0  0.28677443260E+00  0.11404548496E+01 -0.10068745628E+00  0.11802604810E+01  0.00000000000E+00 0.  1.
         11    1    3    3    0    0 -0.96969196490E+01  0.11975513085E+02 -0.81070903638E+01  0.17411722452E+02  0.51100000000E-03 0. -1.
        -11    1    3    3    0    0 -0.28687001468E+02 -0.12725025064E+02  0.13439604181E+02  0.34139321565E+02  0.51100000000E-03 0.  1.
         12    1    3    3    0    0  0.38097146685E+02 -0.39094287018E+00 -0.52318263613E+01  0.38456695502E+02  0.00000000000E+00 0. -1.
</event>
<event>
 7    1  0.1978681E-015  0.9000765E+02  0.7816164E-02  0.1186339E+00
        -11   -1    0    0    0    0  0.00000000000E+00  0.00000000000E+00  0.45593999997E+02  0.45594000000E+02  0.51100000000E-03 0. -1.
         11   -1    0    0    0    0 -0.00000000000E+00 -0.00000000000E+00 -0.45593999997E+02  0.45594000000E+02  0.51100000000E-03 0.  1.
    9900012    2    1    2    0    0 -0.46858808907E+00 -0.52085940042E+00  0.94991898906E+00  0.90007654543E+02  0.89999914783E+02 0.  0.
        -12    1    1    2    0    0  0.46858808907E+00  0.52085940042E+00 -0.94991898906E+00  0.11803454571E+01  0.00000000000E+00 0.  1.
         11    1    3    3    0    0  0.21804957175E+02 -0.19223427537E+02  0.23061829566E+02  0.37105852731E+02  0.51100000000E-03 0. -1.
        -11    1    3    3    0    0  0.10830863494E+02  0.34351851842E+01 -0.30558835990E+01  0.11766330189E+02  0.51100000000E-03 0.  1.
        -12    1    3    3    0    0 -0.33104408759E+02  0.15267382953E+02 -0.19056026978E+02  0.41135471623E+02  0.00000000000E+00 0.  1.
</event>
<event>
 7    1  0.1978681E-015  0.9000774E+02  0.7816164E-02  0.1186339E+00
        -11   -1    0    0    0    0  0.00000000000E+00  0.00000000000E+00  0.45593999997E+02  0.45594000000E+02  0.51100000000E-03 0.  1.
         11   -1    0    0    0    0 -0.00000000000E+00 -0.00000000000E+00 -0.45593999997E+02  0.45594000000E+02  0.51100000000E-03 0. -1.
    9900012    2    1    2    0    0 -0.12171081172E+00 -0.25781617573E+00 -0.11453129545E+01  0.90007735425E+02  0.89999996733E+02 0.  0.
        -12    1    1    2    0    0  0.12171081172E+00  0.25781617573E+00  0.11453129545E+01  0.11802645746E+01  0.00000000000E+00 0.  1.
         11    1    3    3    0    0  0.27827813715E+01 -0.62472760858E+01 -0.60645726501E+01  0.91406439785E+01  0.51100000000E-03 0. -1.
        -11    1    3    3    0    0 -0.19506538598E+02  0.35698644161E+02 -0.12602985808E+02  0.42587950110E+02  0.51100000000E-03 0.  1.
         12    1    3    3    0    0  0.16602046415E+02 -0.29709184251E+02  0.17522245504E+02  0.38279141337E+02  0.00000000000E+00 0. -1.
</event>
<event>
 7    1  0.1978681E-015  0.9000766E+02  0.7816164E-02  0.1186339E+00
        -11   -1    0    0    0    0  0.00000000000E+00  0.00000000000E+00  0.45593999997E+02  0.45594000000E+02  0.51100000000E-03 0.  1.
         11   -1    0    0    0    0 -0.00000000000E+00 -0.00000000000E+00 -0.45593999997E+02  0.45594000000E+02  0.51100000000E-03 0. -1.
    9900012    2    1    2    0    0 -0.58161936818E+00 -0.66800670761E+00 -0.78018945390E+00  0.90007656984E+02  0.89999917256E+02 0.  0.
        -12    1    1    2    0    0  0.58161936818E+00  0.66800670761E+00  0.78018945390E+00  0.11803430158E+01  0.00000000000E+00 0.  1.
         11    1    3    3    0    0 -0.81139361939E+01 -0.31693719793E+00 -0.41521680276E+01  0.91201375723E+01  0.51100000000E-03 0. -1.
        -11    1    3    3    0    0 -0.20739614211E+02 -0.30602744341E+02  0.11449705686E+02  0.38700843910E+02  0.51100000000E-03 0.  1.
         12    1    3    3    0    0  0.28271931036E+02  0.30251674831E+02 -0.80777271121E+01  0.42186675502E+02  0.00000000000E+00 0. -1.
</event>
<event>
 7    1  0.1978681E-015  0.9000797E+02  0.7816164E-02  0.1186339E+00
        -11   -1    0    0    0    0  0.00000000000E+00  0.00000000000E+00  0.45593999997E+02  0.45594000000E+02  0.51100000000E-03 0.  1.
         11   -1    0    0    0    0 -0.00000000000E+00 -0.00000000000E+00 -0.45593999997E+02  0.45594000000E+02  0.51100000000E-03 0. -1.
    9900012    2    1    2    0    0 -0.61107122408E+00 -0.71321153942E+00  0.71441329231E+00  0.90007972419E+02  0.90000236854E+02 0.  0.
        -12    1    1    2    0    0  0.61107122408E+00  0.71321153942E+00 -0.71441329231E+00  0.11800275815E+01  0.00000000000E+00 0.  1.
         11    1    3    3    0    0 -0.15560970870E+01 -0.79253679348E+01 -0.36563345895E+01  0.88657587345E+01  0.51100000000E-03 0. -1.
        -11    1    3    3    0    0  0.39684230427E+02 -0.48705286186E+01  0.64986417301E+01  0.40506697449E+02  0.51100000000E-03 0.  1.
         12    1    3    3    0    0 -0.38739204565E+02  0.12082685014E+02 -0.21278938483E+01  0.40635516235E+02  0.00000000000E+00 0. -1.
</event>
<event>
 7    1  0.1978681E-015  0.9000774E+02  0.7816164E-02  0.1186339E+00
        -11   -1    0    0    0    0  0.00000000000E+00  0.00000000000E+00  0.45593999997E+02  0.45594000000E+02  0.51100000000E-03 0.  1.
         11   -1    0    0    0    0 -0.00000000000E+00 -0.00000000000E+00 -0.45593999997E+02  0.45594000000E+02  0.51100000000E-03 0. -1.
    9900012    2    1    2    0    0  0.80968324930E+00  0.81731835435E+00  0.26346698424E+00  0.90007741084E+02  0.90000002467E+02 0.  0.
        -12    1    1    2    0    0 -0.80968324930E+00 -0.81731835435E+00 -0.26346698424E+00  0.11802589158E+01  0.00000000000E+00 0.  1.
         11    1    3    3    0    0 -0.23944195351E+02  0.15058501981E+02 -0.24621490021E+02  0.37500676581E+02  0.51100000000E-03 0. -1.
        -11    1    3    3    0    0 -0.81897283878E+01 -0.67490479718E+01  0.11184581195E+00  0.10612907676E+02  0.51100000000E-03 0.  1.
        -12    1    3    3    0    0  0.32943606988E+02 -0.74921356549E+01  0.24773111193E+02  0.41894156827E+02  0.00000000000E+00 0.  1.
</event>
<event>
 7    1  0.1978681E-015  0.9000775E+02  0.7816164E-02  0.1186339E+00
        -11   -1    0    0    0    0  0.00000000000E+00  0.00000000000E+00  0.45593999997E+02  0.45594000000E+02  0.51100000000E-03 0. -1.
         11   -1    0    0    0    0 -0.00000000000E+00 -0.00000000000E+00 -0.45593999997E+02  0.45594000000E+02  0.51100000000E-03 0.  1.
    9900012    2    1    2    0    0 -0.87888711629E+00  0.78773714471E+00  0.51210613459E-02  0.90007746384E+02  0.90000007836E+02 0.  0.
        -12    1    1    2    0    0  0.87888711629E+00 -0.78773714471E+00 -0.51210613459E-02  0.11802536158E+01  0.00000000000E+00 0.  1.
         11    1    3    3    0    0  0.76590370822E+01  0.12890046873E+01  0.32311197690E+01  0.84120459660E+01  0.51100000000E-03 0. -1.
        -11    1    3    3    0    0  0.33476350304E+02 -0.99425411944E+01 -0.13304192586E+02  0.37370064165E+02  0.51100000000E-03 0.  1.
         12    1    3    3    0    0 -0.42014274503E+02  0.94412736518E+01  0.10078193878E+02  0.44225636253E+02  0.00000000000E+00 0. -1.
</event>
<event>
 7    1  0.1978681E-015  0.9000770E+02  0.7816164E-02  0.1186339E+00
        -11   -1    0    0    0    0  0.00000000000E+00  0.00000000000E+00  0.45593999997E+02  0.45594000000E+02  0.51100000000E-03 0. -1.
         11   -1    0    0    0    0 -0.00000000000E+00 -0.00000000000E+00 -0.45593999997E+02  0.45594000000E+02  0.51100000000E-03 0.  1.
    9900012    2    1    2    0    0  0.35814958567E+00  0.83623283417E+00 -0.75203513096E+00  0.90007697786E+02  0.89999958597E+02 0.  0.
        -12    1    1    2    0    0 -0.35814958567E+00 -0.83623283417E+00  0.75203513096E+00  0.11803022142E+01  0.00000000000E+00 0.  1.
         11    1    3    3    0    0  0.24726853475E+02  0.26451401049E+02  0.77296680442E+01  0.37024879049E+02  0.51100000000E-03 0. -1.
        -11    1    3    3    0    0 -0.44634098213E+01  0.10290322617E+02 -0.25467373613E+01  0.11502114512E+02  0.51100000000E-03 0.  1.
        -12    1    3    3    0    0 -0.19905294068E+02 -0.35905490832E+02 -0.59349658138E+01  0.41480704225E+02  0.00000000000E+00 0.  1.
</event>
<event>
 7    1  0.1978681E-015  0.9000792E+02  0.7816164E-02  0.1186339E+00
        -11   -1    0    0    0    0  0.00000000000E+00  0.00000000000E+00  0.45593999997E+02  0.45594000000E+02  0.51100000000E-03 0. -1.
         11   -1    0    0    0    0 -0.00000000000E+00 -0.00000000000E+00 -0.45593999997E+02  0.45594000000E+02  0.51100000000E-03 0.  1.
    9900012    2    1    2    0    0 -0.20899052348E+00 -0.10931020077E+01 -0.39247926673E+00  0.90007919913E+02  0.90000183655E+02 0.  0.
        -12    1    1    2    0    0  0.20899052348E+00  0.10931020077E+01  0.39247926673E+00  0.11800800875E+01  0.00000000000E+00 0.  1.
         11    1    3    3    0    0  0.44092224147E+01  0.19554521339E+01  0.89350704261E+01  0.10153842580E+02  0.51100000000E-03 0. -1.
        -11    1    3    3    0    0  0.28873906501E+02 -0.76874901613E+01  0.19283093935E+02  0.35561744805E+02  0.51100000000E-03 0.  1.
         12    1    3    3    0    0 -0.33492119439E+02  0.46389360197E+01 -0.28610643628E+02  0.44292332528E+02  0.00000000000E+00 0. -1.
</event>
<event>
 7    1  0.1978681E-015  0.9000773E+02  0.7816164E-02  0.1186339E+00
        -11   -1    0    0    0    0  0.00000000000E+00  0.00000000000E+00  0.45593999997E+02  0.45594000000E+02  0.51100000000E-03 0.  1.
         11   -1    0    0    0    0 -0.00000000000E+00 -0.00000000000E+00 -0.45593999997E+02  0.45594000000E+02  0.51100000000E-03 0. -1.
    9900012    2    1    2    0    0 -0.81722144599E+00 -0.71721355831E+00 -0.45911746391E+00  0.90007730952E+02  0.89999992201E+02 0.  0.
        -12    1    1    2    0    0  0.81722144599E+00  0.71721355831E+00  0.45911746391E+00  0.11802690480E+01  0.00000000000E+00 0.  1.
         11    1    3    3    0    0  0.58172575852E+01 -0.69410377592E+01  0.38894519913E+01  0.98562836831E+01  0.51100000000E-03 0. -1.
        -11    1    3    3    0    0  0.32548795258E+02  0.11470614351E+02 -0.17229728742E+02  0.38572822286E+02  0.51100000000E-03 0.  1.
         12    1    3    3    0    0 -0.39183274289E+02 -0.52467901504E+01  0.12881159286E+02  0.41578624983E+02  0.00000000000E+00 0. -1.
</event>
<event>
 7    1  0.1978681E-015  0.9000774E+02  0.7816164E-02  0.1186339E+00
        -11   -1    0    0    0    0  0.00000000000E+00  0.00000000000E+00  0.45593999997E+02  0.45594000000E+02  0.51100000000E-03 0. -1.
         11   -1    0    0    0    0 -0.00000000000E+00 -0.00000000000E+00 -0.45593999997E+02  0.45594000000E+02  0.51100000000E-03 0.  1.
    9900012    2    1    2    0    0  0.45940899462E+00 -0.10871048790E+01  0.12983493024E-01  0.90007736380E+02  0.89999997700E+02 0.  0.
        -12    1    1    2    0    0 -0.45940899462E+00  0.10871048790E+01 -0.12983493024E-01  0.11802636203E+01  0.00000000000E+00 0.  1.
         11    1    3    3    0    0 -0.75503808355E+01 -0.33953140921E+01  0.17572550002E+02  0.19425007655E+02  0.51100000000E-03 0. -1.
        -11    1    3    3    0    0 -0.47064632863E+01 -0.28168176156E+02 -0.23555723287E+02  0.37019846629E+02  0.51100000000E-03 0.  1.
         12    1    3    3    0    0  0.12716253116E+02  0.30476385369E+02  0.59961567771E+01  0.33562882096E+02  0.00000000000E+00 0. -1.
</event>
<event>
 7    1  0.1978681E-015  0.9000775E+02  0.7816164E-02  0.1186339E+00
        -11   -1    0    0    0    0  0.00000000000E+00  0.00000000000E+00  0.45593999997E+02  0.45594000000E+02  0.51100000000E-03 0. -1.
         11   -1    0    0    0    0 -0.00000000000E+00 -0.00000000000E+00 -0.45593999997E+02  0.45594000000E+02  0.51100000000E-03 0.  1.
    9900012    2    1    2    0    0 -0.87346658252E+00  0.28868923979E+00  0.73939535556E+00  0.90007749671E+02  0.90000011166E+02 0.  0.
        -12    1    1    2    0    0  0.87346658252E+00 -0.28868923979E+00 -0.73939535556E+00  0.11802503293E+01  0.00000000000E+00 0.  1.
         11    1    3    3    0    0  0.10435005421E+02 -0.10368025978E+02  0.48580129801E+01  0.15491468335E+02  0.51100000000E-03 0. -1.
        -11    1    3    3    0    0  0.29928179452E+02  0.81158267655E+01 -0.10442687270E+02  0.32720212211E+02  0.51100000000E-03 0.  1.
         12    1    3    3    0    0 -0.41236651456E+02  0.25408884522E+01  0.63240696458E+01  0.41796069125E+02  0.00000000000E+00 0. -1.
</event>
<event>
 7    1  0.1978681E-015  0.9000753E+02  0.7816164E-02  0.1186339E+00
        -11   -1    0    0    0    0  0.00000000000E+00  0.00000000000E+00  0.45593999997E+02  0.45594000000E+02  0.51100000000E-03 0. -1.
         11   -1    0    0    0    0 -0.00000000000E+00 -0.00000000000E+00 -0.45593999997E+02  0.45594000000E+02  0.51100000000E-03 0.  1.
    9900012    2    1    2    0    0 -0.97546909710E+00  0.43764489564E+00  0.50042816241E+00  0.90007533414E+02  0.89999792055E+02 0.  0.
        -12    1    1    2    0    0  0.97546909710E+00 -0.43764489564E+00 -0.50042816241E+00  0.11804665856E+01  0.00000000000E+00 0.  1.
         11    1    3    3    0    0  0.17423013162E+02  0.28664504901E+02 -0.18799253853E+02  0.38452921535E+02  0.51100000000E-03 0. -1.
        -11    1    3    3    0    0 -0.66499947454E+01  0.76012906005E+01  0.39389782785E+01  0.10840553447E+02  0.51100000000E-03 0.  1.
        -12    1    3    3    0    0 -0.11748487514E+02 -0.35828150606E+02  0.15360703737E+02  0.40714058432E+02  0.00000000000E+00 0.  1.
</event>
<event>
 7    1  0.1978681E-015  0.9000767E+02  0.7816164E-02  0.1186339E+00
        -11   -1    0    0    0    0  0.00000000000E+00  0.00000000000E+00  0.45593999997E+02  0.45594000000E+02  0.51100000000E-03 0.  1.
         11   -1    0    0    0    0 -0.00000000000E+00 -0.00000000000E+00 -0.45593999997E+02  0.45594000000E+02  0.51100000000E-03 0. -1.
    9900012    2    1    2    0    0  0.97660500965E+00 -0.47234637371E+00 -0.46508761198E+00  0.90007671686E+02  0.89999932152E+02 0.  0.
        -12    1    1    2    0    0 -0.97660500965E+00  0.47234637371E+00  0.46508761198E+00  0.11803283138E+01  0.00000000000E+00 0.  1.
         11    1    3    3    0    0 -0.16281367030E+01  0.14689391659E+01  0.67679195035E+01  0.71143057331E+01  0.51100000000E-03 0. -1.
        -11    1    3    3    0    0 -0.35101417186E+02  0.41767577894E+01  0.15327896874E+02  0.38529199536E+02  0.51100000000E-03 0.  1.
         12    1    3    3    0    0  0.37706158898E+02 -0.61180433291E+01 -0.22560903989E+02  0.44364166417E+02  0.00000000000E+00 0. -1.
</event>
<event>
 7    1  0.1978681E-015  0.9000807E+02  0.7816164E-02  0.1186338E+00
        -11   -1    0    0    0    0  0.00000000000E+00  0.00000000000E+00  0.45593999997E+02  0.45594000000E+02  0.51100000000E-03 0.  1.
         11   -1    0    0    0    0 -0.00000000000E+00 -0.00000000000E+00 -0.45593999997E+02  0.45594000000E+02  0.51100000000E-03 0. -1.
    9900012    2    1    2    0    0  0.75080328523E+00  0.25325161026E-01 -0.90988261117E+00  0.90008070636E+02  0.90000336368E+02 0.  0.
        -12    1    1    2    0    0 -0.75080328523E+00 -0.25325161026E-01  0.90988261117E+00  0.11799293636E+01  0.00000000000E+00 0.  1.
         11    1    3    3    0    0  0.28386658087E+02  0.26173905487E+02 -0.35072847020E+01  0.38770823206E+02  0.51100000000E-03 0. -1.
        -11    1    3    3    0    0 -0.28941801478E+00  0.71592603178E+01 -0.30227575488E+01  0.77766210236E+01  0.51100000000E-03 0.  1.
        -12    1    3    3    0    0 -0.27346436787E+02 -0.33307840644E+02  0.56201596396E+01  0.43460626407E+02  0.00000000000E+00 0.  1.
</event>
<event>
 7    1  0.1978681E-015  0.9000775E+02  0.7816164E-02  0.1186339E+00
        -11   -1    0    0    0    0  0.00000000000E+00  0.00000000000E+00  0.45593999997E+02  0.45594000000E+02  0.51100000000E-03 0.  1.
         11   -1    0    0    0    0 -0.00000000000E+00 -0.00000000000E+00 -0.45593999997E+02  0.45594000000E+02  0.51100000000E-03 0. -1.
    9900012    2    1    2    0    0  0.10995110110E+01  0.85162281832E-01 -0.42048866314E+00  0.90007750961E+02  0.90000012474E+02 0.  0.
        -12    1    1    2    0    0 -0.10995110110E+01 -0.85162281832E-01  0.42048866314E+00  0.11802490387E+01  0.00000000000E+00 0.  1.
         11    1    3    3    0    0 -0.10644257941E+02  0.21487562259E+01 -0.29841484665E+01  0.11261550638E+02  0.51100000000E-03 0. -1.
        -11    1    3    3    0    0  0.21279148537E+01 -0.39584724283E+02  0.48919672234E+01  0.39942580810E+02  0.51100000000E-03 0.  1.
         12    1    3    3    0    0  0.96158540982E+01  0.37521130339E+02 -0.23283074200E+01  0.38803619514E+02  0.00000000000E+00 0. -1.
</event>
<event>
 7    1  0.1978681E-015  0.9000774E+02  0.7816164E-02  0.1186339E+00
        -11   -1    0    0    0    0  0.00000000000E+00  0.00000000000E+00  0.45593999997E+02  0.45594000000E+02  0.51100000000E-03 0.  1.
         11   -1    0    0    0    0 -0.00000000000E+00 -0.00000000000E+00 -0.45593999997E+02  0.45594000000E+02  0.51100000000E-03 0. -1.
    9900012    2    1    2    0    0 -0.94722443959E+00 -0.68969746889E+00  0.14175389418E+00  0.90007741171E+02  0.90000002554E+02 0.  0.
        -12    1    1    2    0    0  0.94722443959E+00  0.68969746889E+00 -0.14175389418E+00  0.11802588293E+01  0.00000000000E+00 0.  1.
         11    1    3    3    0    0  0.21832915907E+02 -0.14594611962E+02 -0.29725415004E+02  0.39664583860E+02  0.51100000000E-03 0. -1.
        -11    1    3    3    0    0 -0.73737662160E+01  0.32075819236E+01 -0.58884983822E+01  0.99667157812E+01  0.51100000000E-03 0.  1.
        -12    1    3    3    0    0 -0.15406374131E+02  0.10697332570E+02  0.35755667280E+02  0.40376441530E+02  0.00000000000E+00 0.  1.
</event>
<event>
 7    1  0.1978681E-015  0.9000851E+02  0.7816164E-02  0.1186338E+00
        -11   -1    0    0    0    0  0.00000000000E+00  0.00000000000E+00  0.45593999997E+02  0.45594000000E+02  0.51100000000E-03 0. -1.
         11   -1    0    0    0    0 -0.00000000000E+00 -0.00000000000E+00 -0.45593999997E+02  0.45594000000E+02  0.51100000000E-03 0.  1.
    9900012    2    1    2    0    0 -0.47297096032E+00 -0.51178448696E+00  0.95161757882E+00  0.90008508200E+02  0.90000779705E+02 0.  0.
        -12    1    1    2    0    0  0.47297096032E+00  0.51178448696E+00 -0.95161757882E+00  0.11794918002E+01  0.00000000000E+00 0.  1.
         11    1    3    3    0    0  0.55961215584E+00 -0.28012092120E+01  0.12006056105E+02  0.12341204247E+02  0.51100000000E-03 0. -1.
        -11    1    3    3    0    0 -0.10968112688E+02 -0.24804566993E+02 -0.32045749875E+02  0.41982092909E+02  0.51100000000E-03 0.  1.
         12    1    3    3    0    0  0.99355295717E+01  0.27093991718E+02  0.20991311349E+02  0.35685211044E+02  0.00000000000E+00 0. -1.
</event>
<event>
 7    1  0.1978681E-015  0.9000780E+02  0.7816164E-02  0.1186339E+00
        -11   -1    0    0    0    0  0.00000000000E+00  0.00000000000E+00  0.45593999997E+02  0.45594000000E+02  0.51100000000E-03 0.  1.
         11   -1    0    0    0    0 -0.00000000000E+00 -0.00000000000E+00 -0.45593999997E+02  0.45594000000E+02  0.51100000000E-03 0. -1.
    9900012    2    1    2    0    0 -0.24831819505E+00 -0.62882021559E+00 -0.96736753298E+00  0.90007798012E+02  0.90000060145E+02 0.  0.
        -12    1    1    2    0    0  0.24831819505E+00  0.62882021559E+00  0.96736753298E+00  0.11802019884E+01  0.00000000000E+00 0.  1.
         11    1    3    3    0    0  0.85882503739E+01 -0.17619174695E+01  0.28200451768E+01  0.92095088205E+01  0.51100000000E-03 0. -1.
        -11    1    3    3    0    0  0.18330069866E+02 -0.18681423972E+02  0.25252820052E+02  0.36368832587E+02  0.51100000000E-03 0.  1.
         12    1    3    3    0    0 -0.27166638435E+02  0.19814521226E+02 -0.29040232762E+02  0.44429456604E+02  0.00000000000E+00 0. -1.
</event>
<event>
 7    1  0.1978681E-015  0.9000775E+02  0.7816164E-02  0.1186339E+00
        -11   -1    0    0    0    0  0.00000000000E+00  0.00000000000E+00  0.45593999997E+02  0.45594000000E+02  0.51100000000E-03 0.  1.
         11   -1    0    0    0    0 -0.00000000000E+00 -0.00000000000E+00 -0.45593999997E+02  0.45594000000E+02  0.51100000000E-03 0. -1.
    9900012    2    1    2    0    0  0.50963727621E+00  0.10469665491E+01 -0.19268625421E+00  0.90007747018E+02  0.90000008479E+02 0.  0.
        -12    1    1    2    0    0 -0.50963727621E+00 -0.10469665491E+01  0.19268625421E+00  0.11802529817E+01  0.00000000000E+00 0.  1.
         11    1    3    3    0    0  0.16138779058E+02 -0.70360396473E+00  0.28893683236E+02  0.33102872674E+02  0.51100000000E-03 0. -1.
        -11    1    3    3    0    0  0.40188087605E+01 -0.72111170445E+01  0.95618820336E+01  0.12632522360E+02  0.51100000000E-03 0.  1.
        -12    1    3    3    0    0 -0.19647950543E+02  0.89616875584E+01 -0.38648251524E+02  0.44272351985E+02  0.00000000000E+00 0.  1.
</event>
<event>
 7    1  0.2480898E-015  0.9000783E+02  0.7816164E-02  0.1186339E+00
        -11   -1    0    0    0    0  0.00000000000E+00  0.00000000000E+00  0.45593999997E+02  0.45594000000E+02  0.51100000000E-03 0. -1.
         11   -1    0    0    0    0 -0.00000000000E+00 -0.00000000000E+00 -0.45593999997E+02  0.45594000000E+02  0.51100000000E-03 0.  1.
    9900012    2    1    2    0    0 -0.57712650421E+00  0.87397940551E+00 -0.54394948091E+00  0.90007832198E+02  0.90000094783E+02 0.  0.
        -12    1    1    2    0    0  0.57712650421E+00 -0.87397940551E+00  0.54394948091E+00  0.11801678020E+01  0.00000000000E+00 0.  1.
         11    1    3    3    0    0  0.34008837450E+00 -0.71329355305E+01 -0.58264243149E+01  0.92163794379E+01  0.51100000000E-03 0. -1.
        -11    1    3    3    0    0  0.15840798659E+02 -0.31611356341E+02 -0.70235431997E+01  0.36049118036E+02  0.51100000000E-03 0.  1.
         12    1    3    3    0    0 -0.16758013538E+02  0.39618271277E+02  0.12306018034E+02  0.44742334724E+02  0.00000000000E+00 0. -1.
</event>
<event>
 7    1  0.1978681E-015  0.9000772E+02  0.7816164E-02  0.1186339E+00
        -11   -1    0    0    0    0  0.00000000000E+00  0.00000000000E+00  0.45593999997E+02  0.45594000000E+02  0.51100000000E-03 0.  1.
         11   -1    0    0    0    0 -0.00000000000E+00 -0.00000000000E+00 -0.45593999997E+02  0.45594000000E+02  0.51100000000E-03 0. -1.
    9900012    2    1    2    0    0 -0.23828780324E+00 -0.81689510332E+00 -0.81789750793E+00  0.90007722482E+02  0.89999983618E+02 0.  0.
        -12    1    1    2    0    0  0.23828780324E+00  0.81689510332E+00  0.81789750793E+00  0.11802775184E+01  0.00000000000E+00 0.  1.
         11    1    3    3    0    0 -0.37557658581E+02 -0.77597105939E+01 -0.11254615553E+02  0.39968202338E+02  0.51100000000E-03 0. -1.
        -11    1    3    3    0    0 -0.27682543354E+01 -0.60560747255E+01  0.15337970141E+00  0.66605404240E+01  0.51100000000E-03 0.  1.
        -12    1    3    3    0    0  0.40087625113E+02  0.12998890216E+02  0.10283338343E+02  0.43378979720E+02  0.00000000000E+00 0.  1.
</event>
<event>
 7    1  0.1978681E-015  0.9000744E+02  0.7816164E-02  0.1186340E+00
        -11   -1    0    0    0    0  0.00000000000E+00  0.00000000000E+00  0.45593999997E+02  0.45594000000E+02  0.51100000000E-03 0.  1.
         11   -1    0    0    0    0 -0.00000000000E+00 -0.00000000000E+00 -0.45593999997E+02  0.45594000000E+02  0.51100000000E-03 0. -1.
    9900012    2    1    2    0    0 -0.65180966250E+00  0.80246671725E+00  0.57001996802E+00  0.90007435969E+02  0.89999693323E+02 0.  0.
        -12    1    1    2    0    0  0.65180966250E+00 -0.80246671725E+00 -0.57001996802E+00  0.11805640315E+01  0.00000000000E+00 0.  1.
         11    1    3    3    0    0  0.29956863844E+02 -0.17768922587E+02 -0.11165184299E+02  0.36576080189E+02  0.51100000000E-03 0. -1.
        -11    1    3    3    0    0  0.78733116331E+01 -0.84016758024E+00  0.60342206371E+01  0.99552366418E+01  0.51100000000E-03 0.  1.
        -12    1    3    3    0    0 -0.38481985140E+02  0.19411556885E+02  0.57009836294E+01  0.43476119138E+02  0.00000000000E+00 0.  1.
</event>
<event>
 7    1  0.1978681E-015  0.9000773E+02  0.7816164E-02  0.1186339E+00
        -11   -1    0    0    0    0  0.00000000000E+00  0.00000000000E+00  0.45593999997E+02  0.45594000000E+02  0.51100000000E-03 0. -1.
         11   -1    0    0    0    0 -0.00000000000E+00 -0.00000000000E+00 -0.45593999997E+02  0.45594000000E+02  0.51100000000E-03 0.  1.
    9900012    2    1    2    0    0  0.76094571474E+00 -0.68910173157E+00  0.58234935806E+00  0.90007732932E+02  0.89999994207E+02 0.  0.
        -12    1    1    2    0    0 -0.76094571474E+00  0.68910173157E+00 -0.58234935806E+00  0.11802670681E+01  0.00000000000E+00 0.  1.
         11    1    3    3    0    0  0.36134796865E+02  0.65073928727E+01  0.20011701151E+02  0.41815522115E+02  0.51100000000E-03 0. -1.
        -11    1    3    3    0    0  0.14341540000E+01 -0.55103369102E+01 -0.75938308457E+01  0.94914107347E+01  0.51100000000E-03 0.  1.
        -12    1    3    3    0    0 -0.36808005151E+02 -0.16861576941E+01 -0.11835520947E+02  0.38700800083E+02  0.00000000000E+00 0.  1.
</event>
<event>
 7    1  0.1978681E-015  0.9000777E+02  0.7816164E-02  0.1186339E+00
        -11   -1    0    0    0    0  0.00000000000E+00  0.00000000000E+00  0.45593999997E+02  0.45594000000E+02  0.51100000000E-03 0. -1.
         11   -1    0    0    0    0 -0.00000000000E+00 -0.00000000000E+00 -0.45593999997E+02  0.45594000000E+02  0.51100000000E-03 0.  1.
    9900012    2    1    2    0    0 -0.38626422732E+00 -0.53379059832E+00  0.97919465310E+00  0.90007765013E+02  0.90000026711E+02 0.  0.
        -12    1    1    2    0    0  0.38626422732E+00  0.53379059832E+00 -0.97919465310E+00  0.11802349871E+01  0.00000000000E+00 0.  1.
         11    1    3    3    0    0  0.26902923743E+02 -0.61842249668E+01  0.67893544563E+01  0.28427227768E+02  0.51100000000E-03 0. -1.
        -11    1    3    3    0    0  0.84747654763E+01  0.20108445212E+02  0.29575784953E+01  0.22020864868E+02  0.51100000000E-03 0.  1.
        -12    1    3    3    0    0 -0.35763953447E+02 -0.14458010843E+02 -0.87677382985E+01  0.39559672377E+02  0.00000000000E+00 0.  1.
</event>
<event>
 7    1  0.1978681E-015  0.9000768E+02  0.7816164E-02  0.1186339E+00
        -11   -1    0    0    0    0  0.00000000000E+00  0.00000000000E+00  0.45593999997E+02  0.45594000000E+02  0.51100000000E-03 0. -1.
         11   -1    0    0    0    0 -0.00000000000E+00 -0.00000000000E+00 -0.45593999997E+02  0.45594000000E+02  0.51100000000E-03 0.  1.
    9900012    2    1    2    0    0  0.48466031619E+00 -0.55933351931E+00  0.91945564423E+00  0.90007682971E+02  0.89999943586E+02 0.  0.
        -12    1    1    2    0    0 -0.48466031619E+00  0.55933351931E+00 -0.91945564423E+00  0.11803170293E+01  0.00000000000E+00 0.  1.
         11    1    3    3    0    0 -0.60960975663E+01  0.11184883437E+01 -0.29717214903E+01  0.68734671448E+01  0.51100000000E-03 0. -1.
        -11    1    3    3    0    0 -0.20412661654E+02 -0.14114023115E+02 -0.29421770402E+02  0.38490557000E+02  0.51100000000E-03 0.  1.
         12    1    3    3    0    0  0.26993419536E+02  0.12436201252E+02  0.33312947537E+02  0.44643658826E+02  0.00000000000E+00 0. -1.
</event>
<event>
 7    1  0.1978681E-015  0.9000773E+02  0.7816164E-02  0.1186339E+00
        -11   -1    0    0    0    0  0.00000000000E+00  0.00000000000E+00  0.45593999997E+02  0.45594000000E+02  0.51100000000E-03 0.  1.
         11   -1    0    0    0    0 -0.00000000000E+00 -0.00000000000E+00 -0.45593999997E+02  0.45594000000E+02  0.51100000000E-03 0. -1.
    9900012    2    1    2    0    0 -0.33886763632E+00  0.10202481677E+01 -0.48713867031E+00  0.90007728132E+02  0.89999989343E+02 0.  0.
        -12    1    1    2    0    0  0.33886763632E+00 -0.10202481677E+01  0.48713867031E+00  0.11802718682E+01  0.00000000000E+00 0.  1.
         11    1    3    3    0    0 -0.30909209570E+01  0.40769438135E+01 -0.85495683943E+01  0.99634523741E+01  0.51100000000E-03 0. -1.
        -11    1    3    3    0    0 -0.25923846711E+02 -0.67646195510E+01 -0.24634757077E+02  0.36396114662E+02  0.51100000000E-03 0.  1.
         12    1    3    3    0    0  0.28675900032E+02  0.37079239052E+01  0.32697186801E+02  0.43648161096E+02  0.00000000000E+00 0. -1.
</event>
<event>
 7    1  0.2422146E-015  0.9000774E+02  0.7816164E-02  0.1186339E+00
        -11   -1    0    0    0    0  0.00000000000E+00  0.00000000000E+00  0.45593999997E+02  0.45594000000E+02  0.51100000000E-03 0. -1.
         11   -1    0    0    0    0 -0.00000000000E+00 -0.00000000000E+00 -0.45593999997E+02  0.45594000000E+02  0.51100000000E-03 0.  1.
    9900012    2    1    2    0    0 -0.50280113985E+00  0.98814789686E+00  0.40467771806E+00  0.90007741847E+02  0.90000003239E+02 0.  0.
        -12    1    1    2    0    0  0.50280113985E+00 -0.98814789686E+00 -0.40467771806E+00  0.11802581530E+01  0.00000000000E+00 0.  1.
         11    1    3    3    0    0 -0.24472219412E+01  0.86081032212E+01 -0.24084164733E+01  0.92676214028E+01  0.51100000000E-03 0. -1.
        -11    1    3    3    0    0  0.75032606119E+01  0.26027202079E+02 -0.24902634329E+02  0.36794773605E+02  0.51100000000E-03 0.  1.
         12    1    3    3    0    0 -0.55588398105E+01 -0.33647157403E+02  0.27715728521E+02  0.43945346839E+02  0.00000000000E+00 0. -1.
</event>
<event>
 7    1  0.1978681E-015  0.9000755E+02  0.7816164E-02  0.1186339E+00
        -11   -1    0    0    0    0  0.00000000000E+00  0.00000000000E+00  0.45593999997E+02  0.45594000000E+02  0.51100000000E-03 0.  1.
         11   -1    0    0    0    0 -0.00000000000E+00 -0.00000000000E+00 -0.45593999997E+02  0.45594000000E+02  0.51100000000E-03 0. -1.
    9900012    2    1    2    0    0 -0.41328444342E+00 -0.68193996688E+00 -0.87040670445E+00  0.90007553482E+02  0.89999812388E+02 0.  0.
        -12    1    1    2    0    0  0.41328444342E+00  0.68193996688E+00  0.87040670445E+00  0.11804465175E+01  0.00000000000E+00 0.  1.
         11    1    3    3    0    0 -0.25440540085E+01  0.22241574209E+02 -0.31175057768E+02  0.38380256138E+02  0.51100000000E-03 0. -1.
        -11    1    3    3    0    0  0.41441323928E+01 -0.40534362004E+01 -0.74095247614E+01  0.94077221351E+01  0.51100000000E-03 0.  1.
        -12    1    3    3    0    0 -0.20133628278E+01 -0.18870077975E+02  0.37714175825E+02  0.42219575209E+02  0.00000000000E+00 0.  1.
</event>
<event>
 7    1  0.1978681E-015  0.9000769E+02  0.7816164E-02  0.1186339E+00
        -11   -1    0    0    0    0  0.00000000000E+00  0.00000000000E+00  0.45593999997E+02  0.45594000000E+02  0.51100000000E-03 0. -1.
         11   -1    0    0    0    0 -0.00000000000E+00 -0.00000000000E+00 -0.45593999997E+02  0.45594000000E+02  0.51100000000E-03 0.  1.
    9900012    2    1    2    0    0  0.30271787185E+00  0.91855934085E+00 -0.67656097845E+00  0.90007693205E+02  0.89999953955E+02 0.  0.
        -12    1    1    2    0    0 -0.30271787185E+00 -0.91855934085E+00  0.67656097845E+00  0.11803067949E+01  0.00000000000E+00 0.  1.
         11    1    3    3    0    0 -0.33723046696E+02  0.23386856239E+02  0.44671689609E+01  0.41281285372E+02  0.51100000000E-03 0. -1.
        -11    1    3    3    0    0 -0.23471282720E+01 -0.94418772999E+01 -0.22300634121E+01  0.99815450284E+01  0.51100000000E-03 0.  1.
        -12    1    3    3    0    0  0.36372892840E+02 -0.13026419599E+02 -0.29136665273E+01  0.38744862804E+02  0.00000000000E+00 0.  1.
</event>
<event>
 7    1  0.1978681E-015  0.9000773E+02  0.7816164E-02  0.1186339E+00
        -11   -1    0    0    0    0  0.00000000000E+00  0.00000000000E+00  0.45593999997E+02  0.45594000000E+02  0.51100000000E-03 0.  1.
         11   -1    0    0    0    0 -0.00000000000E+00 -0.00000000000E+00 -0.45593999997E+02  0.45594000000E+02  0.51100000000E-03 0. -1.
    9900012    2    1    2    0    0 -0.11371746897E+01  0.31601262470E+00 -0.38307960482E-02  0.90007726757E+02  0.89999987950E+02 0.  0.
        -12    1    1    2    0    0  0.11371746897E+01 -0.31601262470E+00  0.38307960482E-02  0.11802732433E+01  0.00000000000E+00 0.  1.
         11    1    3    3    0    0  0.18030311360E+02 -0.31012337860E+02  0.22376831990E+00  0.35873490210E+02  0.51100000000E-03 0. -1.
        -11    1    3    3    0    0  0.40765937983E+01  0.25500437690E+01  0.13767064020E+02  0.14582640098E+02  0.51100000000E-03 0.  1.
        -12    1    3    3    0    0 -0.23244079848E+02  0.28778306716E+02 -0.13994663136E+02  0.39551596450E+02  0.00000000000E+00 0.  1.
</event>
<event>
 7    1  0.1978681E-015  0.9000767E+02  0.7816164E-02  0.1186339E+00
        -11   -1    0    0    0    0  0.00000000000E+00  0.00000000000E+00  0.45593999997E+02  0.45594000000E+02  0.51100000000E-03 0. -1.
         11   -1    0    0    0    0 -0.00000000000E+00 -0.00000000000E+00 -0.45593999997E+02  0.45594000000E+02  0.51100000000E-03 0.  1.
    9900012    2    1    2    0    0 -0.11227453912E+01 -0.24035821263E+00 -0.27357001018E+00  0.90007673844E+02  0.89999934339E+02 0.  0.
        -12    1    1    2    0    0  0.11227453912E+01  0.24035821263E+00  0.27357001018E+00  0.11803261559E+01  0.00000000000E+00 0.  1.
         11    1    3    3    0    0 -0.13061362929E+02  0.10905643003E+02  0.60252299088E+01  0.18050918164E+02  0.51100000000E-03 0. -1.
        -11    1    3    3    0    0 -0.11346751982E+02  0.25562339733E+02  0.41475835709E+00  0.27970592019E+02  0.51100000000E-03 0.  1.
         12    1    3    3    0    0  0.23285369519E+02 -0.36708340948E+02 -0.67135582760E+01  0.43986163660E+02  0.00000000000E+00 0. -1.
</event>
<event>
 7    1  0.1978681E-015  0.9000775E+02  0.7816164E-02  0.1186339E+00
        -11   -1    0    0    0    0  0.00000000000E+00  0.00000000000E+00  0.45593999997E+02  0.45594000000E+02  0.51100000000E-03 0.  1.
         11   -1    0    0    0    0 -0.00000000000E+00 -0.00000000000E+00 -0.45593999997E+02  0.45594000000E+02  0.51100000000E-03 0. -1.
    9900012    2    1    2    0    0 -0.22771601661E+00 -0.10971958024E+01 -0.37053408620E+00  0.90007750568E+02  0.90000012075E+02 0.  0.
        -12    1    1    2    0    0  0.22771601661E+00  0.10971958024E+01  0.37053408620E+00  0.11802494322E+01  0.00000000000E+00 0.  1.
         11    1    3    3    0    0 -0.24332348445E+02 -0.13198372951E+02  0.16259792383E+01  0.27729118957E+02  0.51100000000E-03 0. -1.
        -11    1    3    3    0    0 -0.31641562608E+01  0.26266759537E+02 -0.13205743209E+02  0.29569345535E+02  0.51100000000E-03 0.  1.
         12    1    3    3    0    0  0.27268788689E+02 -0.14165582389E+02  0.11209229885E+02  0.32709286076E+02  0.00000000000E+00 0. -1.
</event>
<event>
 7    1  0.1978681E-015  0.9000820E+02  0.7816164E-02  0.1186338E+00
        -11   -1    0    0    0    0  0.00000000000E+00  0.00000000000E+00  0.45593999997E+02  0.45594000000E+02  0.51100000000E-03 0. -1.
         11   -1    0    0    0    0 -0.00000000000E+00 -0.00000000000E+00 -0.45593999997E+02  0.45594000000E+02  0.51100000000E-03 0.  1.
    9900012    2    1    2    0    0  0.92530223294E+00  0.69015054902E+00  0.24381097705E+00  0.90008196713E+02  0.90000464109E+02 0.  0.
        -12    1    1    2    0    0 -0.92530223294E+00 -0.69015054902E+00 -0.24381097705E+00  0.11798032866E+01  0.00000000000E+00 0.  1.
         11    1    3    3    0    0 -0.32578987774E+02  0.17890567910E+02  0.23660409087E+02  0.44059934441E+02  0.51100000000E-03 0. -1.
        -11    1    3    3    0    0  0.86236368802E+01 -0.40966195577E+01 -0.31003829292E+00  0.95522525535E+01  0.51100000000E-03 0.  1.
        -12    1    3    3    0    0  0.24880653127E+02 -0.13103797804E+02 -0.23106559817E+02  0.36396009719E+02  0.00000000000E+00 0.  1.
</event>
<event>
 7    1  0.1978681E-015  0.9000769E+02  0.7816164E-02  0.1186339E+00
        -11   -1    0    0    0    0  0.00000000000E+00  0.00000000000E+00  0.45593999997E+02  0.45594000000E+02  0.51100000000E-03 0. -1.
         11   -1    0    0    0    0 -0.00000000000E+00 -0.00000000000E+00 -0.45593999997E+02  0.45594000000E+02  0.51100000000E-03 0.  1.
    9900012    2    1    2    0    0  0.45371051931E+00 -0.10718904160E+01  0.19576194732E+00  0.90007692820E+02  0.89999953565E+02 0.  0.
        -12    1    1    2    0    0 -0.45371051931E+00  0.10718904160E+01 -0.19576194732E+00  0.11803071801E+01  0.00000000000E+00 0.  1.
         11    1    3    3    0    0 -0.14224723789E+02 -0.58589962870E+01  0.41009950167E+02  0.43800532158E+02  0.51100000000E-03 0. -1.
        -11    1    3    3    0    0  0.85625478980E+01 -0.19355207586E+01 -0.71027704657E+01  0.11292157263E+02  0.51100000000E-03 0.  1.
        -12    1    3    3    0    0  0.61158864102E+01  0.67226266296E+01 -0.33711417754E+02  0.34915003399E+02  0.00000000000E+00 0.  1.
</event>
<event>
 7    1  0.1978681E-015  0.9000775E+02  0.7816164E-02  0.1186339E+00
        -11   -1    0    0    0    0  0.00000000000E+00  0.00000000000E+00  0.45593999997E+02  0.45594000000E+02  0.51100000000E-03 0.  1.
         11   -1    0    0    0    0 -0.00000000000E+00 -0.00000000000E+00 -0.45593999997E+02  0.45594000000E+02  0.51100000000E-03 0. -1.
    9900012    2    1    2    0    0  0.11093788122E-01  0.11626992299E+01  0.20248097381E+00  0.90007749554E+02  0.90000011048E+02 0.  0.
        -12    1    1    2    0    0 -0.11093788122E-01 -0.11626992299E+01 -0.20248097381E+00  0.11802504464E+01  0.00000000000E+00 0.  1.
         11    1    3    3    0    0  0.10582703782E+02 -0.46803963938E+01 -0.35196455604E+01  0.12094942533E+02  0.51100000000E-03 0. -1.
        -11    1    3    3    0    0  0.28703551442E+01  0.94283639779E+01  0.38876231768E+02  0.40106039230E+02  0.51100000000E-03 0.  1.
         12    1    3    3    0    0 -0.13441965138E+02 -0.35852683542E+01 -0.35154105234E+02  0.37806767791E+02  0.00000000000E+00 0. -1.
</event>
<event>
 7    1  0.1978681E-015  0.9000717E+02  0.7816164E-02  0.1186340E+00
        -11   -1    0    0    0    0  0.00000000000E+00  0.00000000000E+00  0.45593999997E+02  0.45594000000E+02  0.51100000000E-03 0.  1.
         11   -1    0    0    0    0 -0.00000000000E+00 -0.00000000000E+00 -0.45593999997E+02  0.45594000000E+02  0.51100000000E-03 0. -1.
    9900012    2    1    2    0    0 -0.71627449157E+00  0.92761336356E-02 -0.93873070556E+00  0.90007173793E+02  0.89999427685E+02 0.  0.
        -12    1    1    2    0    0  0.71627449157E+00 -0.92761336356E-02  0.93873070556E+00  0.11808262072E+01  0.00000000000E+00 0.  1.
         11    1    3    3    0    0 -0.15570909489E+02 -0.92204825962E+01 -0.28874566154E+02  0.34076547543E+02  0.51100000000E-03 0. -1.
        -11    1    3    3    0    0 -0.23926777751E+00 -0.16278294610E+02  0.17373813154E+01  0.16372495795E+02  0.51100000000E-03 0.  1.
        -12    1    3    3    0    0  0.15093902775E+02  0.25508053340E+02  0.26198454133E+02  0.39558130455E+02  0.00000000000E+00 0.  1.
</event>
<event>
 7    1  0.1978681E-015  0.9000784E+02  0.7816164E-02  0.1186339E+00
        -11   -1    0    0    0    0  0.00000000000E+00  0.00000000000E+00  0.45593999997E+02  0.45594000000E+02  0.51100000000E-03 0.  1.
         11   -1    0    0    0    0 -0.00000000000E+00 -0.00000000000E+00 -0.45593999997E+02  0.45594000000E+02  0.51100000000E-03 0. -1.
    9900012    2    1    2    0    0 -0.13062803300E+00  0.11538749671E+01 -0.21046165349E+00  0.90007836778E+02  0.90000099424E+02 0.  0.
        -12    1    1    2    0    0  0.13062803300E+00 -0.11538749671E+01  0.21046165349E+00  0.11801632219E+01  0.00000000000E+00 0.  1.
         11    1    3    3    0    0  0.23674965496E+02 -0.27246480509E+02 -0.21107391493E+02  0.41813833444E+02  0.51100000000E-03 0. -1.
        -11    1    3    3    0    0 -0.72393669217E+01 -0.67181390733E+00  0.11206184889E+02  0.13358081725E+02  0.51100000000E-03 0.  1.
        -12    1    3    3    0    0 -0.16566226607E+02  0.29072169383E+02  0.96907449511E+01  0.34835921609E+02  0.00000000000E+00 0.  1.
</event>
<event>
 7    1  0.1978681E-015  0.9000779E+02  0.7816164E-02  0.1186339E+00
        -11   -1    0    0    0    0  0.00000000000E+00  0.00000000000E+00  0.45593999997E+02  0.45594000000E+02  0.51100000000E-03 0.  1.
         11   -1    0    0    0    0 -0.00000000000E+00 -0.00000000000E+00 -0.45593999997E+02  0.45594000000E+02  0.51100000000E-03 0. -1.
    9900012    2    1    2    0    0 -0.87495258975E+00 -0.19231100677E+00 -0.76835651405E+00  0.90007789303E+02  0.90000051321E+02 0.  0.
        -12    1    1    2    0    0  0.87495258975E+00  0.19231100677E+00  0.76835651405E+00  0.11802106974E+01  0.00000000000E+00 0.  1.
         11    1    3    3    0    0  0.40050734939E+02 -0.28253603603E+01 -0.66749155326E+01  0.40701333245E+02  0.51100000000E-03 0. -1.
        -11    1    3    3    0    0 -0.28022566171E+01  0.10557890260E+00 -0.81319347531E+01  0.86018691075E+01  0.51100000000E-03 0.  1.
        -12    1    3    3    0    0 -0.38123430912E+02  0.25274704509E+01  0.14038493772E+02  0.40704586950E+02  0.00000000000E+00 0.  1.
</event>
<event>
 7    1  0.1978681E-015  0.9000776E+02  0.7816164E-02  0.1186339E+00
        -11   -1    0    0    0    0  0.00000000000E+00  0.00000000000E+00  0.45593999997E+02  0.45594000000E+02  0.51100000000E-03 0. -1.
         11   -1    0    0    0    0 -0.00000000000E+00 -0.00000000000E+00 -0.45593999997E+02  0.45594000000E+02  0.51100000000E-03 0.  1.
    9900012    2    1    2    0    0 -0.60303957703E+00  0.93730603955E+00  0.38829026586E+00  0.90007759061E+02  0.90000020681E+02 0.  0.
        -12    1    1    2    0    0  0.60303957703E+00 -0.93730603955E+00 -0.38829026586E+00  0.11802409389E+01  0.00000000000E+00 0.  1.
         11    1    3    3    0    0  0.40111939082E+01  0.69674335369E+01  0.56072221868E+01  0.98018236861E+01  0.51100000000E-03 0. -1.
        -11    1    3    3    0    0  0.24216472811E+02 -0.15542126547E+02  0.24447781945E+02  0.37758301012E+02  0.51100000000E-03 0.  1.
         12    1    3    3    0    0 -0.28830706296E+02  0.95119990501E+01 -0.29666713866E+02  0.42447634363E+02  0.00000000000E+00 0. -1.
</event>
<event>
 7    1  0.1978681E-015  0.9000762E+02  0.7816164E-02  0.1186339E+00
        -11   -1    0    0    0    0  0.00000000000E+00  0.00000000000E+00  0.45593999997E+02  0.45594000000E+02  0.51100000000E-03 0.  1.
         11   -1    0    0    0    0 -0.00000000000E+00 -0.00000000000E+00 -0.45593999997E+02  0.45594000000E+02  0.51100000000E-03 0. -1.
    9900012    2    1    2    0    0  0.91438877760E+00 -0.74598690338E+00 -0.26137852722E-01  0.90007624431E+02  0.89999884273E+02 0.  0.
        -12    1    1    2    0    0 -0.91438877760E+00  0.74598690338E+00  0.26137852722E-01  0.11803755690E+01  0.00000000000E+00 0.  1.
         11    1    3    3    0    0 -0.18806218872E+02  0.10982103368E+02  0.34845602401E+00  0.21780768685E+02  0.51100000000E-03 0. -1.
        -11    1    3    3    0    0 -0.42263437316E+01 -0.12676206921E+02 -0.28379121326E+02  0.31367542632E+02  0.51100000000E-03 0.  1.
        -12    1    3    3    0    0  0.23946951381E+02  0.94811665004E+00  0.28004527449E+02  0.36859313115E+02  0.00000000000E+00 0.  1.
</event>
<event>
 7    1  0.1978681E-015  0.9000803E+02  0.7816164E-02  0.1186338E+00
        -11   -1    0    0    0    0  0.00000000000E+00  0.00000000000E+00  0.45593999997E+02  0.45594000000E+02  0.51100000000E-03 0.  1.
         11   -1    0    0    0    0 -0.00000000000E+00 -0.00000000000E+00 -0.45593999997E+02  0.45594000000E+02  0.51100000000E-03 0. -1.
    9900012    2    1    2    0    0 -0.12440685201E+00  0.18816087102E+00 -0.11582077230E+01  0.90008031056E+02  0.90000296266E+02 0.  0.
        -12    1    1    2    0    0  0.12440685201E+00 -0.18816087102E+00  0.11582077230E+01  0.11799689436E+01  0.00000000000E+00 0.  1.
         11    1    3    3    0    0  0.51460876635E+01 -0.56983014141E+01  0.72485576778E+01  0.10559093044E+02  0.51100000000E-03 0. -1.
        -11    1    3    3    0    0 -0.40811436192E+02 -0.63829338192E+01 -0.24429688779E+01  0.41379744627E+02  0.51100000000E-03 0.  1.
         12    1    3    3    0    0  0.35540941677E+02  0.12269396104E+02 -0.59637965229E+01  0.38069193385E+02  0.00000000000E+00 0. -1.
</event>
<event>
 7    1  0.1978681E-015  0.9000775E+02  0.7816164E-02  0.1186339E+00
        -11   -1    0    0    0    0  0.00000000000E+00  0.00000000000E+00  0.45593999997E+02  0.45594000000E+02  0.51100000000E-03 0. -1.
         11   -1    0    0    0    0 -0.00000000000E+00 -0.00000000000E+00 -0.45593999997E+02  0.45594000000E+02  0.51100000000E-03 0.  1.
    9900012    2    1    2    0    0  0.24339409187E+00  0.11544294627E+01  0.32259149539E-01  0.90007750568E+02  0.90000012076E+02 0.  0.
        -12    1    1    2    0    0 -0.24339409187E+00 -0.11544294627E+01 -0.32259149539E-01  0.11802494317E+01  0.00000000000E+00 0.  1.
         11    1    3    3    0    0  0.28029704067E+02 -0.25300721239E+02 -0.25450863237E+01  0.37845320318E+02  0.51100000000E-03 0. -1.
        -11    1    3    3    0    0  0.75973752914E+01 -0.69489755562E-01 -0.15304969181E+01  0.77503136209E+01  0.51100000000E-03 0.  1.
        -12    1    3    3    0    0 -0.35383685266E+02  0.26524640457E+02  0.41078423913E+01  0.44412116630E+02  0.00000000000E+00 0.  1.
</event>
<event>
 7    1  0.1978681E-015  0.9000769E+02  0.7816164E-02  0.1186339E+00
        -11   -1    0    0    0    0  0.00000000000E+00  0.00000000000E+00  0.45593999997E+02  0.45594000000E+02  0.51100000000E-03 0.  1.
         11   -1    0    0    0    0 -0.00000000000E+00 -0.00000000000E+00 -0.45593999997E+02  0.45594000000E+02  0.51100000000E-03 0. -1.
    9900012    2    1    2    0    0  0.33753490606E-01  0.47515113171E+00 -0.10799222537E+01  0.90007686495E+02  0.89999947157E+02 0.  0.
        -12    1    1    2    0    0 -0.33753490606E-01 -0.47515113171E+00  0.10799222537E+01  0.11803135050E+01  0.00000000000E+00 0.  1.
         11    1    3    3    0    0  0.60536405398E+01 -0.58276877219E+01  0.39486973081E+01  0.92844342133E+01  0.51100000000E-03 0. -1.
        -11    1    3    3    0    0 -0.14837723970E+01 -0.35855246983E+02  0.71843212402E+01  0.36598016185E+02  0.51100000000E-03 0.  1.
         12    1    3    3    0    0 -0.45361146522E+01  0.42158085837E+02 -0.12212940802E+02  0.44125236097E+02  0.00000000000E+00 0. -1.
</event>
<event>
 7    1  0.1978681E-015  0.9000776E+02  0.7816164E-02  0.1186339E+00
        -11   -1    0    0    0    0  0.00000000000E+00  0.00000000000E+00  0.45593999997E+02  0.45594000000E+02  0.51100000000E-03 0. -1.
         11   -1    0    0    0    0 -0.00000000000E+00 -0.00000000000E+00 -0.45593999997E+02  0.45594000000E+02  0.51100000000E-03 0.  1.
    9900012    2    1    2    0    0 -0.86253069325E+00  0.72847330897E+00 -0.34401028951E+00  0.90007756111E+02  0.90000017691E+02 0.  0.
        -12    1    1    2    0    0  0.86253069325E+00 -0.72847330897E+00  0.34401028951E+00  0.11802438892E+01  0.00000000000E+00 0.  1.
         11    1    3    3    0    0 -0.28816045852E+01  0.17613596190E+02  0.22085966047E+01  0.17983890428E+02  0.51100000000E-03 0. -1.
        -11    1    3    3    0    0 -0.13747045628E+02  0.16080951449E+02 -0.22089961493E+02  0.30586674583E+02  0.51100000000E-03 0.  1.
         12    1    3    3    0    0  0.15766119520E+02 -0.32966074330E+02  0.19537354599E+02  0.41437191099E+02  0.00000000000E+00 0. -1.
</event>
<event>
 7    1  0.1978681E-015  0.9000775E+02  0.7816164E-02  0.1186339E+00
        -11   -1    0    0    0    0  0.00000000000E+00  0.00000000000E+00  0.45593999997E+02  0.45594000000E+02  0.51100000000E-03 0. -1.
         11   -1    0    0    0    0 -0.00000000000E+00 -0.00000000000E+00 -0.45593999997E+02  0.45594000000E+02  0.51100000000E-03 0.  1.
    9900012    2    1    2    0    0 -0.12650974344E+00  0.34673549563E+00  0.11210483290E+01  0.90007754443E+02  0.90000016002E+02 0.  0.
        -12    1    1    2    0    0  0.12650974344E+00 -0.34673549563E+00 -0.11210483290E+01  0.11802455571E+01  0.00000000000E+00 0.  1.
         11    1    3    3    0    0  0.36363022496E+01  0.60528581060E+01  0.76687482814E+01  0.10424465731E+02  0.51100000000E-03 0. -1.
        -11    1    3    3    0    0 -0.28317552654E+02  0.19489581166E+02  0.15873696264E+02  0.37864254855E+02  0.51100000000E-03 0.  1.
         12    1    3    3    0    0  0.24554740661E+02 -0.25195703776E+02 -0.22421396216E+02  0.41719033858E+02  0.00000000000E+00 0. -1.
</event>
<event>
 7    1  0.1978681E-015  0.9000774E+02  0.7816164E-02  0.1186339E+00
        -11   -1    0    0    0    0  0.00000000000E+00  0.00000000000E+00  0.45593999997E+02  0.45594000000E+02  0.51100000000E-03 0.  1.
         11   -1    0    0    0    0 -0.00000000000E+00 -0.00000000000E+00 -0.45593999997E+02  0.45594000000E+02  0.51100000000E-03 0. -1.
    9900012    2    1    2    0    0  0.38459472610E+00 -0.13961571134E+00 -0.11070719441E+01  0.90007739885E+02  0.90000001251E+02 0.  0.
        -12    1    1    2    0    0 -0.38459472610E+00  0.13961571134E+00  0.11070719441E+01  0.11802601152E+01  0.00000000000E+00 0.  1.
         11    1    3    3    0    0 -0.37515311697E+02 -0.89973859336E+01 -0.11464035653E+02  0.40246436849E+02  0.51100000000E-03 0. -1.
        -11    1    3    3    0    0  0.13250505415E+01 -0.40152888197E+01  0.10140297654E+02  0.10986534486E+02  0.51100000000E-03 0.  1.
        -12    1    3    3    0    0  0.36574855882E+02  0.12873059042E+02  0.21666605470E+00  0.38774768549E+02  0.00000000000E+00 0.  1.
</event>
<event>
 7    1  0.1978681E-015  0.9000805E+02  0.7816164E-02  0.1186338E+00
        -11   -1    0    0    0    0  0.00000000000E+00  0.00000000000E+00  0.45593999997E+02  0.45594000000E+02  0.51100000000E-03 0. -1.
         11   -1    0    0    0    0 -0.00000000000E+00 -0.00000000000E+00 -0.45593999997E+02  0.45594000000E+02  0.51100000000E-03 0.  1.
    9900012    2    1    2    0    0  0.39964360238E+00 -0.53542617510E+00  0.97256497159E+00  0.90008051348E+02  0.90000316825E+02 0.  0.
        -12    1    1    2    0    0 -0.39964360238E+00  0.53542617510E+00 -0.97256497159E+00  0.11799486522E+01  0.00000000000E+00 0.  1.
         11    1    3    3    0    0 -0.17455920567E+02  0.31530762536E+02  0.74631537654E+01  0.36804847688E+02  0.51100000000E-03 0. -1.
        -11    1    3    3    0    0  0.33346838078E+01  0.86256348015E+01  0.11790097998E+01  0.93226474886E+01  0.51100000000E-03 0.  1.
        -12    1    3    3    0    0  0.14520880362E+02 -0.40691823513E+02 -0.76695985936E+01  0.43880556171E+02  0.00000000000E+00 0.  1.
</event>
<event>
 7    1  0.1978681E-015  0.9000796E+02  0.7816164E-02  0.1186339E+00
        -11   -1    0    0    0    0  0.00000000000E+00  0.00000000000E+00  0.45593999997E+02  0.45594000000E+02  0.51100000000E-03 0.  1.
         11   -1    0    0    0    0 -0.00000000000E+00 -0.00000000000E+00 -0.45593999997E+02  0.45594000000E+02  0.51100000000E-03 0. -1.
    9900012    2    1    2    0    0  0.79889095217E+00 -0.82054536747E+00  0.28456632823E+00  0.90007957861E+02  0.90000222105E+02 0.  0.
        -12    1    1    2    0    0 -0.79889095217E+00  0.82054536747E+00 -0.28456632823E+00  0.11800421385E+01  0.00000000000E+00 0.  1.
         11    1    3    3    0    0  0.35764536413E+02 -0.27778137546E+01  0.19639315402E+02  0.40896467132E+02  0.51100000000E-03 0. -1.
        -11    1    3    3    0    0  0.16376564206E+01  0.60780563584E+01 -0.87532978051E+01  0.10781693298E+02  0.51100000000E-03 0.  1.
        -12    1    3    3    0    0 -0.36603301882E+02 -0.41207879713E+01 -0.10601451269E+02  0.38329797432E+02  0.00000000000E+00 0.  1.
</event>
<event>
 7    1  0.1978681E-015  0.9000816E+02  0.7816164E-02  0.1186338E+00
        -11   -1    0    0    0    0  0.00000000000E+00  0.00000000000E+00  0.45593999997E+02  0.45594000000E+02  0.51100000000E-03 0.  1.
         11   -1    0    0    0    0 -0.00000000000E+00 -0.00000000000E+00 -0.45593999997E+02  0.45594000000E+02  0.51100000000E-03 0. -1.
    9900012    2    1    2    0    0  0.90380042665E+00  0.31256987419E+00  0.69099505918E+00  0.90008157083E+02  0.90000423955E+02 0.  0.
        -12    1    1    2    0    0 -0.90380042665E+00 -0.31256987419E+00 -0.69099505918E+00  0.11798429172E+01  0.00000000000E+00 0.  1.
         11    1    3    3    0    0  0.38561800633E+01  0.42985243519E+01 -0.89293078028E+01  0.10633906826E+02  0.51100000000E-03 0. -1.
        -11    1    3    3    0    0  0.34398467053E+02 -0.23124668074E+01 -0.11610340450E+02  0.36378593210E+02  0.51100000000E-03 0.  1.
         12    1    3    3    0    0 -0.37350846690E+02 -0.16734876703E+01  0.21230643312E+02  0.42995657047E+02  0.00000000000E+00 0. -1.
</event>
<event>
 7    1  0.1978681E-015  0.9000771E+02  0.7816164E-02  0.1186339E+00
        -11   -1    0    0    0    0  0.00000000000E+00  0.00000000000E+00  0.45593999997E+02  0.45594000000E+02  0.51100000000E-03 0. -1.
         11   -1    0    0    0    0 -0.00000000000E+00 -0.00000000000E+00 -0.45593999997E+02  0.45594000000E+02  0.51100000000E-03 0.  1.
    9900012    2    1    2    0    0 -0.11126812338E+01 -0.39166117478E+00 -0.40378680117E-01  0.90007708323E+02  0.89999969273E+02 0.  0.
        -12    1    1    2    0    0  0.11126812338E+01  0.39166117478E+00  0.40378680117E-01  0.11802916765E+01  0.00000000000E+00 0.  1.
         11    1    3    3    0    0 -0.30457782969E+02  0.70340873921E+01  0.21655472818E+02  0.38027811297E+02  0.51100000000E-03 0. -1.
        -11    1    3    3    0    0 -0.85971833485E+01 -0.18479070745E+01 -0.53376541152E+01  0.10286732902E+02  0.51100000000E-03 0.  1.
        -12    1    3    3    0    0  0.37942285084E+02 -0.55778414924E+01 -0.16358197383E+02  0.41693164124E+02  0.00000000000E+00 0.  1.
</event>
<event>
 7    1  0.1978681E-015  0.9000786E+02  0.7816164E-02  0.1186339E+00
        -11   -1    0    0    0    0  0.00000000000E+00  0.00000000000E+00  0.45593999997E+02  0.45594000000E+02  0.51100000000E-03 0. -1.
         11   -1    0    0    0    0 -0.00000000000E+00 -0.00000000000E+00 -0.45593999997E+02  0.45594000000E+02  0.51100000000E-03 0.  1.
    9900012    2    1    2    0    0 -0.64722887352E+00  0.95546501480E+00 -0.24680596569E+00  0.90007859418E+02  0.90000122362E+02 0.  0.
        -12    1    1    2    0    0  0.64722887352E+00 -0.95546501480E+00  0.24680596569E+00  0.11801405823E+01  0.00000000000E+00 0.  1.
         11    1    3    3    0    0 -0.36330092985E+01 -0.10716229554E+02  0.57829199820E+01  0.12707418943E+02  0.51100000000E-03 0. -1.
        -11    1    3    3    0    0 -0.23943608947E+02 -0.15184904191E+02  0.16786102552E+02  0.32949217955E+02  0.51100000000E-03 0.  1.
        -12    1    3    3    0    0  0.26929389372E+02  0.26856598760E+02 -0.22815828500E+02  0.44351222520E+02  0.00000000000E+00 0.  1.
</event>
<event>
 7    1  0.1978681E-015  0.9000783E+02  0.7816164E-02  0.1186339E+00
        -11   -1    0    0    0    0  0.00000000000E+00  0.00000000000E+00  0.45593999997E+02  0.45594000000E+02  0.51100000000E-03 0.  1.
         11   -1    0    0    0    0 -0.00000000000E+00 -0.00000000000E+00 -0.45593999997E+02  0.45594000000E+02  0.51100000000E-03 0. -1.
    9900012    2    1    2    0    0  0.11536307402E+01 -0.23026666860E+00  0.94401412782E-01  0.90007831262E+02  0.90000093835E+02 0.  0.
        -12    1    1    2    0    0 -0.11536307402E+01  0.23026666860E+00 -0.94401412782E-01  0.11801687380E+01  0.00000000000E+00 0.  1.
         11    1    3    3    0    0  0.29551835110E+02 -0.11259347410E+02 -0.86709828218E+01  0.32791306864E+02  0.51100000000E-03 0. -1.
        -11    1    3    3    0    0  0.68461070644E+01 -0.92219089386E+01 -0.71888039709E+01  0.13549601072E+02  0.51100000000E-03 0.  1.
        -12    1    3    3    0    0 -0.35244311435E+02  0.20250989680E+02  0.15954188205E+02  0.43666923326E+02  0.00000000000E+00 0.  1.
</event>
<event>
 7    1  0.1978681E-015  0.9000768E+02  0.7816164E-02  0.1186339E+00
        -11   -1    0    0    0    0  0.00000000000E+00  0.00000000000E+00  0.45593999997E+02  0.45594000000E+02  0.51100000000E-03 0.  1.
         11   -1    0    0    0    0 -0.00000000000E+00 -0.00000000000E+00 -0.45593999997E+02  0.45594000000E+02  0.51100000000E-03 0. -1.
    9900012    2    1    2    0    0  0.11568496348E+01  0.95614857765E-01  0.21378860495E+00  0.90007682735E+02  0.89999943347E+02 0.  0.
        -12    1    1    2    0    0 -0.11568496348E+01 -0.95614857765E-01 -0.21378860495E+00  0.11803172650E+01  0.00000000000E+00 0.  1.
         11    1    3    3    0    0 -0.85743079326E+01  0.41407664413E+01 -0.21511515944E+01  0.97617701615E+01  0.51100000000E-03 0. -1.
        -11    1    3    3    0    0 -0.33084474207E+02 -0.12551546665E+02  0.78633485294E+01  0.36248531109E+02  0.51100000000E-03 0.  1.
         12    1    3    3    0    0  0.42815631774E+02  0.85063950811E+01 -0.54984083301E+01  0.43997381464E+02  0.00000000000E+00 0. -1.
</event>
<event>
 7    1  0.1978681E-015  0.9000748E+02  0.7816164E-02  0.1186340E+00
        -11   -1    0    0    0    0  0.00000000000E+00  0.00000000000E+00  0.45593999997E+02  0.45594000000E+02  0.51100000000E-03 0.  1.
         11   -1    0    0    0    0 -0.00000000000E+00 -0.00000000000E+00 -0.45593999997E+02  0.45594000000E+02  0.51100000000E-03 0. -1.
    9900012    2    1    2    0    0 -0.11386416370E+01  0.13806342744E+00  0.27939092124E+00  0.90007480803E+02  0.89999738749E+02 0.  0.
        -12    1    1    2    0    0  0.11386416370E+01 -0.13806342744E+00 -0.27939092124E+00  0.11805191970E+01  0.00000000000E+00 0.  1.
         11    1    3    3    0    0 -0.20267282178E+02  0.14567994025E+02 -0.27881300000E+02  0.37421331707E+02  0.51100000000E-03 0. -1.
        -11    1    3    3    0    0 -0.60823417241E+01 -0.67330010306E+01 -0.48929857286E+01  0.10308709586E+02  0.51100000000E-03 0.  1.
        -12    1    3    3    0    0  0.25210982265E+02 -0.76969295669E+01  0.33053676649E+02  0.42277439510E+02  0.00000000000E+00 0.  1.
</event>
<event>
 7    1  0.1978681E-015  0.9000775E+02  0.7816164E-02  0.1186339E+00
        -11   -1    0    0    0    0  0.00000000000E+00  0.00000000000E+00  0.45593999997E+02  0.45594000000E+02  0.51100000000E-03 0.  1.
         11   -1    0    0    0    0 -0.00000000000E+00 -0.00000000000E+00 -0.45593999997E+02  0.45594000000E+02  0.51100000000E-03 0. -1.
    9900012    2    1    2    0    0  0.91916137262E+00 -0.57907512019E+00 -0.46131850679E+00  0.90007745626E+02  0.90000007068E+02 0.  0.
        -12    1    1    2    0    0 -0.91916137262E+00  0.57907512019E+00  0.46131850679E+00  0.11802543745E+01  0.00000000000E+00 0.  1.
         11    1    3    3    0    0 -0.14354485174E+02  0.29090042976E+02 -0.27318740009E+02  0.42409850281E+02  0.51100000000E-03 0. -1.
        -11    1    3    3    0    0 -0.18906204733E+01  0.20246716346E+00  0.82019236186E+01  0.84194411948E+01  0.51100000000E-03 0.  1.
        -12    1    3    3    0    0  0.17164267020E+02 -0.29871585260E+02  0.18655497884E+02  0.39178454149E+02  0.00000000000E+00 0.  1.
</event>
<event>
 7    1  0.1978681E-015  0.9000767E+02  0.7816164E-02  0.1186339E+00
        -11   -1    0    0    0    0  0.00000000000E+00  0.00000000000E+00  0.45593999997E+02  0.45594000000E+02  0.51100000000E-03 0. -1.
         11   -1    0    0    0    0 -0.00000000000E+00 -0.00000000000E+00 -0.45593999997E+02  0.45594000000E+02  0.51100000000E-03 0.  1.
    9900012    2    1    2    0    0 -0.21233447822E+00  0.38954118658E+00  0.10937761031E+01  0.90007671897E+02  0.89999932366E+02 0.  0.
        -12    1    1    2    0    0  0.21233447822E+00 -0.38954118658E+00 -0.10937761031E+01  0.11803281029E+01  0.00000000000E+00 0.  1.
         11    1    3    3    0    0 -0.89720057197E-04 -0.80326994634E+01 -0.13519159128E+01  0.81456698664E+01  0.51100000000E-03 0. -1.
        -11    1    3    3    0    0  0.16213569312E+02 -0.25115138770E+02 -0.22097833289E+02  0.37174779913E+02  0.51100000000E-03 0.  1.
         12    1    3    3    0    0 -0.16425814071E+02  0.33537379420E+02  0.24543525304E+02  0.44687222118E+02  0.00000000000E+00 0. -1.
</event>
<event>
 7    1  0.1978681E-015  0.9000774E+02  0.7816164E-02  0.1186339E+00
        -11   -1    0    0    0    0  0.00000000000E+00  0.00000000000E+00  0.45593999997E+02  0.45594000000E+02  0.51100000000E-03 0.  1.
         11   -1    0    0    0    0 -0.00000000000E+00 -0.00000000000E+00 -0.45593999997E+02  0.45594000000E+02  0.51100000000E-03 0. -1.
    9900012    2    1    2    0    0  0.16803061368E+00  0.47692061492E-02 -0.11682284176E+01  0.90007739576E+02  0.90000000939E+02 0.  0.
        -12    1    1    2    0    0 -0.16803061368E+00 -0.47692061492E-02  0.11682284176E+01  0.11802604238E+01  0.00000000000E+00 0.  1.
         11    1    3    3    0    0 -0.33689560601E+01  0.99702016378E+01 -0.96340712175E+01  0.14267799905E+02  0.51100000000E-03 0. -1.
        -11    1    3    3    0    0 -0.19966095048E+00  0.32559660981E+02  0.44394886610E+01  0.32861534467E+02  0.51100000000E-03 0.  1.
         12    1    3    3    0    0  0.37366476243E+01 -0.42525093413E+02  0.40263541389E+01  0.42878405204E+02  0.00000000000E+00 0. -1.
</event>
<event>
 7    1  0.1978681E-015  0.9000774E+02  0.7816164E-02  0.1186339E+00
        -11   -1    0    0    0    0  0.00000000000E+00  0.00000000000E+00  0.45593999997E+02  0.45594000000E+02  0.51100000000E-03 0. -1.
         11   -1    0    0    0    0 -0.00000000000E+00 -0.00000000000E+00 -0.45593999997E+02  0.45594000000E+02  0.51100000000E-03 0.  1.
    9900012    2    1    2    0    0 -0.71185946843E+00 -0.45508075188E+00  0.82411198217E+00  0.90007744539E+02  0.90000005967E+02 0.  0.
        -12    1    1    2    0    0  0.71185946843E+00  0.45508075188E+00 -0.82411198217E+00  0.11802554608E+01  0.00000000000E+00 0.  1.
         11    1    3    3    0    0  0.86872856978E+01 -0.39811672871E+01  0.17758798288E+01  0.97196900769E+01  0.51100000000E-03 0. -1.
        -11    1    3    3    0    0 -0.42133772973E+01  0.31658657715E+02 -0.26831112564E+02  0.41712489236E+02  0.51100000000E-03 0.  1.
         12    1    3    3    0    0 -0.51857678689E+01 -0.28132571179E+02  0.25879344717E+02  0.38575565227E+02  0.00000000000E+00 0. -1.
</event>
<event>
 7    1  0.1978681E-015  0.9000756E+02  0.7816164E-02  0.1186339E+00
        -11   -1    0    0    0    0  0.00000000000E+00  0.00000000000E+00  0.45593999997E+02  0.45594000000E+02  0.51100000000E-03 0. -1.
         11   -1    0    0    0    0 -0.00000000000E+00 -0.00000000000E+00 -0.45593999997E+02  0.45594000000E+02  0.51100000000E-03 0.  1.
    9900012    2    1    2    0    0 -0.53698432512E+00 -0.97486284696E+00  0.39334408852E+00  0.90007563933E+02  0.89999822977E+02 0.  0.
        -12    1    1    2    0    0  0.53698432512E+00  0.97486284696E+00 -0.39334408852E+00  0.11804360668E+01  0.00000000000E+00 0.  1.
         11    1    3    3    0    0  0.78652993431E+01 -0.31020326503E+02 -0.18931095324E+02  0.37182118828E+02  0.51100000000E-03 0. -1.
        -11    1    3    3    0    0  0.89315537214E+01 -0.43173031972E+01  0.37779457876E+00  0.99274612958E+01  0.51100000000E-03 0.  1.
        -12    1    3    3    0    0 -0.17333837390E+02  0.34362766854E+02  0.18946644833E+02  0.42897983809E+02  0.00000000000E+00 0.  1.
</event>
<event>
 7    1  0.1978681E-015  0.9000768E+02  0.7816164E-02  0.1186339E+00
        -11   -1    0    0    0    0  0.00000000000E+00  0.00000000000E+00  0.45593999997E+02  0.45594000000E+02  0.51100000000E-03 0.  1.
         11   -1    0    0    0    0 -0.00000000000E+00 -0.00000000000E+00 -0.45593999997E+02  0.45594000000E+02  0.51100000000E-03 0. -1.
    9900012    2    1    2    0    0  0.49045398553E+00 -0.55403414490E+00 -0.91960205961E+00  0.90007675090E+02  0.89999935601E+02 0.  0.
        -12    1    1    2    0    0 -0.49045398553E+00  0.55403414490E+00  0.91960205961E+00  0.11803249102E+01  0.00000000000E+00 0.  1.
         11    1    3    3    0    0  0.51061839921E+01  0.63359147908E+01  0.27138429460E+01  0.85779878173E+01  0.51100000000E-03 0. -1.
        -11    1    3    3    0    0  0.16363644008E+01  0.36251358022E+02  0.60131410795E+01  0.36783100913E+02  0.51100000000E-03 0.  1.
         12    1    3    3    0    0 -0.62520944073E+01 -0.43141306957E+02 -0.96465860851E+01  0.44646586360E+02  0.00000000000E+00 0. -1.
</event>
<event>
 7    1  0.1978681E-015  0.9000826E+02  0.7816164E-02  0.1186338E+00
        -11   -1    0    0    0    0  0.00000000000E+00  0.00000000000E+00  0.45593999997E+02  0.45594000000E+02  0.51100000000E-03 0.  1.
         11   -1    0    0    0    0 -0.00000000000E+00 -0.00000000000E+00 -0.45593999997E+02  0.45594000000E+02  0.51100000000E-03 0. -1.
    9900012    2    1    2    0    0 -0.49608044778E-01 -0.30558172458E-01 -0.11783031912E+01  0.90008257159E+02  0.90000525352E+02 0.  0.
        -12    1    1    2    0    0  0.49608044778E-01  0.30558172458E-01  0.11783031912E+01  0.11797428408E+01  0.00000000000E+00 0.  1.
         11    1    3    3    0    0 -0.27110171945E+01 -0.44329548793E+01 -0.37640631245E+02  0.37997602872E+02  0.51100000000E-03 0. -1.
        -11    1    3    3    0    0  0.54840587648E+01  0.38488458625E+01 -0.62732677268E+01  0.91783660442E+01  0.51100000000E-03 0.  1.
        -12    1    3    3    0    0 -0.28226496151E+01  0.55355084438E+00  0.42735595781E+02  0.42832288243E+02  0.00000000000E+00 0.  1.
</event>
<event>
 7    1  0.1978681E-015  0.9000753E+02  0.7816164E-02  0.1186339E+00
        -11   -1    0    0    0    0  0.00000000000E+00  0.00000000000E+00  0.45593999997E+02  0.45594000000E+02  0.51100000000E-03 0.  1.
         11   -1    0    0    0    0 -0.00000000000E+00 -0.00000000000E+00 -0.45593999997E+02  0.45594000000E+02  0.51100000000E-03 0. -1.
    9900012    2    1    2    0    0  0.78252367139E+00  0.86917265684E+00 -0.16030439622E+00  0.90007533184E+02  0.89999791822E+02 0.  0.
        -12    1    1    2    0    0 -0.78252367139E+00 -0.86917265684E+00  0.16030439622E+00  0.11804668158E+01  0.00000000000E+00 0.  1.
         11    1    3    3    0    0 -0.32657381921E+02 -0.42596886753E+01  0.13658118449E+02  0.35653804024E+02  0.51100000000E-03 0. -1.
        -11    1    3    3    0    0 -0.31402165428E+01 -0.61859370316E+01  0.77544155295E+01  0.10404697850E+02  0.51100000000E-03 0.  1.
        -12    1    3    3    0    0  0.36580122136E+02  0.11314798364E+02 -0.21572838375E+02  0.43949031309E+02  0.00000000000E+00 0.  1.
</event>
<event>
 7    1  0.1978681E-015  0.9000770E+02  0.7816164E-02  0.1186339E+00
        -11   -1    0    0    0    0  0.00000000000E+00  0.00000000000E+00  0.45593999997E+02  0.45594000000E+02  0.51100000000E-03 0.  1.
         11   -1    0    0    0    0 -0.00000000000E+00 -0.00000000000E+00 -0.45593999997E+02  0.45594000000E+02  0.51100000000E-03 0. -1.
    9900012    2    1    2    0    0  0.47878305782E+00  0.18756543587E+00 -0.10623994091E+01  0.90007700668E+02  0.89999961517E+02 0.  0.
        -12    1    1    2    0    0 -0.47878305782E+00 -0.18756543587E+00  0.10623994091E+01  0.11802993322E+01  0.00000000000E+00 0.  1.
         11    1    3    3    0    0 -0.15903729203E+02 -0.32324367836E+02 -0.23188307589E+02  0.42842630261E+02  0.51100000000E-03 0. -1.
        -11    1    3    3    0    0 -0.37450007966E+01  0.70669973080E+01  0.93319138780E+01  0.12290325415E+02  0.51100000000E-03 0.  1.
        -12    1    3    3    0    0  0.20127513058E+02  0.25444935964E+02  0.12793994302E+02  0.34874744992E+02  0.00000000000E+00 0.  1.
</event>
<event>
 7    1  0.1978681E-015  0.9000793E+02  0.7816164E-02  0.1186339E+00
        -11   -1    0    0    0    0  0.00000000000E+00  0.00000000000E+00  0.45593999997E+02  0.45594000000E+02  0.51100000000E-03 0.  1.
         11   -1    0    0    0    0 -0.00000000000E+00 -0.00000000000E+00 -0.45593999997E+02  0.45594000000E+02  0.51100000000E-03 0. -1.
    9900012    2    1    2    0    0  0.39681885909E+00 -0.40223536769E+00 -0.10360066841E+01  0.90007928668E+02  0.90000192527E+02 0.  0.
        -12    1    1    2    0    0 -0.39681885909E+00  0.40223536769E+00  0.10360066841E+01  0.11800713315E+01  0.00000000000E+00 0.  1.
         11    1    3    3    0    0 -0.68812844057E+01  0.39011452508E+01  0.49572514392E+01  0.93351674561E+01  0.51100000000E-03 0. -1.
        -11    1    3    3    0    0 -0.25764438990E+02 -0.99128640972E+01  0.23327558698E+02  0.36142027975E+02  0.51100000000E-03 0.  1.
         12    1    3    3    0    0  0.33042542255E+02  0.56094834787E+01 -0.29320816821E+02  0.44530733237E+02  0.00000000000E+00 0. -1.
</event>
<event>
 7    1  0.1978681E-015  0.9000756E+02  0.7816164E-02  0.1186339E+00
        -11   -1    0    0    0    0  0.00000000000E+00  0.00000000000E+00  0.45593999997E+02  0.45594000000E+02  0.51100000000E-03 0.  1.
         11   -1    0    0    0    0 -0.00000000000E+00 -0.00000000000E+00 -0.45593999997E+02  0.45594000000E+02  0.51100000000E-03 0. -1.
    9900012    2    1    2    0    0  0.66702817729E+00 -0.76847202907E+00 -0.59830575792E+00  0.90007557020E+02  0.89999815973E+02 0.  0.
        -12    1    1    2    0    0 -0.66702817729E+00  0.76847202907E+00  0.59830575792E+00  0.11804429799E+01  0.00000000000E+00 0.  1.
         11    1    3    3    0    0  0.42073043329E+01  0.72161448454E+01  0.67899491101E+01  0.10764644228E+02  0.51100000000E-03 0. -1.
        -11    1    3    3    0    0 -0.23828185398E+01  0.69498671935E+01  0.34230761203E+02  0.35010334060E+02  0.51100000000E-03 0.  1.
         12    1    3    3    0    0 -0.11574576159E+01 -0.14934484068E+02 -0.41619016071E+02  0.44232578732E+02  0.00000000000E+00 0. -1.
</event>
<event>
 7    1  0.1978681E-015  0.9000699E+02  0.7816164E-02  0.1186341E+00
        -11   -1    0    0    0    0  0.00000000000E+00  0.00000000000E+00  0.45593999997E+02  0.45594000000E+02  0.51100000000E-03 0.  1.
         11   -1    0    0    0    0 -0.00000000000E+00 -0.00000000000E+00 -0.45593999997E+02  0.45594000000E+02  0.51100000000E-03 0. -1.
    9900012    2    1    2    0    0  0.87549280937E+00 -0.55899026257E+00 -0.56199127448E+00  0.90006986890E+02  0.89999238314E+02 0.  0.
        -12    1    1    2    0    0 -0.87549280937E+00  0.55899026257E+00  0.56199127448E+00  0.11810131098E+01  0.00000000000E+00 0.  1.
         11    1    3    3    0    0 -0.35163340970E+02 -0.18453353612E+02  0.68782817339E+01  0.40302575198E+02  0.51100000000E-03 0. -1.
        -11    1    3    3    0    0  0.25186704717E+01  0.22572646010E+01  0.87103979893E+01  0.93439808335E+01  0.51100000000E-03 0.  1.
        -12    1    3    3    0    0  0.33520163308E+02  0.15637098749E+02 -0.16150670998E+02  0.40360430859E+02  0.00000000000E+00 0.  1.
</event>
<event>
 7    1  0.1978681E-015  0.9000758E+02  0.7816164E-02  0.1186339E+00
        -11   -1    0    0    0    0  0.00000000000E+00  0.00000000000E+00  0.45593999997E+02  0.45594000000E+02  0.51100000000E-03 0.  1.
         11   -1    0    0    0    0 -0.00000000000E+00 -0.00000000000E+00 -0.45593999997E+02  0.45594000000E+02  0.51100000000E-03 0. -1.
    9900012    2    1    2    0    0 -0.16503367097E+00  0.99445253334E+00 -0.61418854747E+00  0.90007576548E+02  0.89999835759E+02 0.  0.
        -12    1    1    2    0    0  0.16503367097E+00 -0.99445253334E+00  0.61418854747E+00  0.11804234518E+01  0.00000000000E+00 0.  1.
         11    1    3    3    0    0 -0.29342786199E+02  0.81551164173E+01  0.39936523452E+01  0.30715700953E+02  0.51100000000E-03 0. -1.
        -11    1    3    3    0    0  0.10127084360E+01 -0.97275529975E+01  0.19703409582E+02  0.21997163797E+02  0.51100000000E-03 0.  1.
         12    1    3    3    0    0  0.28165044092E+02  0.25668891135E+01 -0.24311250475E+02  0.37294711798E+02  0.00000000000E+00 0. -1.
</event>
<event>
 7    1  0.1978681E-015  0.9000774E+02  0.7816164E-02  0.1186339E+00
        -11   -1    0    0    0    0  0.00000000000E+00  0.00000000000E+00  0.45593999997E+02  0.45594000000E+02  0.51100000000E-03 0. -1.
         11   -1    0    0    0    0 -0.00000000000E+00 -0.00000000000E+00 -0.45593999997E+02  0.45594000000E+02  0.51100000000E-03 0.  1.
    9900012    2    1    2    0    0 -0.66285216088E+00 -0.53667276991E+00  0.81585587868E+00  0.90007740934E+02  0.90000002314E+02 0.  0.
        -12    1    1    2    0    0  0.66285216088E+00  0.53667276991E+00 -0.81585587868E+00  0.11802590664E+01  0.00000000000E+00 0.  1.
         11    1    3    3    0    0 -0.85133961363E+01 -0.65498329391E+01  0.24882215147E+01  0.11025854700E+02  0.51100000000E-03 0. -1.
        -11    1    3    3    0    0 -0.13056826179E+02 -0.25456987536E+02 -0.21988727714E+02  0.36083833929E+02  0.51100000000E-03 0.  1.
         12    1    3    3    0    0  0.20907370155E+02  0.31470147705E+02  0.20316362078E+02  0.42898052304E+02  0.00000000000E+00 0. -1.
</event>
<event>
 7    1  0.1978681E-015  0.9000757E+02  0.7816164E-02  0.1186339E+00
        -11   -1    0    0    0    0  0.00000000000E+00  0.00000000000E+00  0.45593999997E+02  0.45594000000E+02  0.51100000000E-03 0.  1.
         11   -1    0    0    0    0 -0.00000000000E+00 -0.00000000000E+00 -0.45593999997E+02  0.45594000000E+02  0.51100000000E-03 0. -1.
    9900012    2    1    2    0    0 -0.39498632787E+00  0.10958398066E+01  0.19112283412E+00  0.90007573374E+02  0.89999832543E+02 0.  0.
        -12    1    1    2    0    0  0.39498632787E+00 -0.10958398066E+01 -0.19112283412E+00  0.11804266257E+01  0.00000000000E+00 0.  1.
         11    1    3    3    0    0  0.32996374850E+02  0.68125699426E+01 -0.13587895190E+02  0.36329089700E+02  0.51100000000E-03 0. -1.
        -11    1    3    3    0    0  0.54800310681E+01  0.63318188476E+01 -0.39858844951E+01  0.92741547268E+01  0.51100000000E-03 0.  1.
        -12    1    3    3    0    0 -0.38871392246E+02 -0.12048548984E+02  0.17764902519E+02  0.44404328948E+02  0.00000000000E+00 0.  1.
</event>
<event>
 7    1  0.1978681E-015  0.9000791E+02  0.7816164E-02  0.1186339E+00
        -11   -1    0    0    0    0  0.00000000000E+00  0.00000000000E+00  0.45593999997E+02  0.45594000000E+02  0.51100000000E-03 0.  1.
         11   -1    0    0    0    0 -0.00000000000E+00 -0.00000000000E+00 -0.45593999997E+02  0.45594000000E+02  0.51100000000E-03 0. -1.
    9900012    2    1    2    0    0 -0.70548575145E+00  0.73687072477E+00  0.59323513617E+00  0.90007908250E+02  0.90000171839E+02 0.  0.
        -12    1    1    2    0    0  0.70548575145E+00 -0.73687072477E+00 -0.59323513617E+00  0.11800917495E+01  0.00000000000E+00 0.  1.
         11    1    3    3    0    0  0.78768011399E+01 -0.42267797328E+01  0.32160725370E+01  0.95001466268E+01  0.51100000000E-03 0. -1.
        -11    1    3    3    0    0 -0.11804693633E+02  0.35697542132E+01  0.37888224398E+02  0.39844842643E+02  0.51100000000E-03 0.  1.
         12    1    3    3    0    0  0.32224067418E+01  0.13938962444E+01 -0.40511061799E+02  0.40662918981E+02  0.00000000000E+00 0. -1.
</event>
<event>
 7    1  0.1978681E-015  0.9000775E+02  0.7816164E-02  0.1186339E+00
        -11   -1    0    0    0    0  0.00000000000E+00  0.00000000000E+00  0.45593999997E+02  0.45594000000E+02  0.51100000000E-03 0. -1.
         11   -1    0    0    0    0 -0.00000000000E+00 -0.00000000000E+00 -0.45593999997E+02  0.45594000000E+02  0.51100000000E-03 0.  1.
    9900012    2    1    2    0    0  0.63458537449E+00 -0.24748073524E+00  0.96386692237E+00  0.90007752248E+02  0.90000013778E+02 0.  0.
        -12    1    1    2    0    0 -0.63458537449E+00  0.24748073524E+00 -0.96386692237E+00  0.11802477519E+01  0.00000000000E+00 0.  1.
         11    1    3    3    0    0 -0.72169698328E+01 -0.11320702825E+02 -0.16510811158E+01  0.13526604716E+02  0.51100000000E-03 0. -1.
        -11    1    3    3    0    0  0.37059418691E+02 -0.19545280335E+01 -0.14931810232E+02  0.40002245570E+02  0.51100000000E-03 0.  1.
         12    1    3    3    0    0 -0.29207863484E+02  0.13027750124E+02  0.17546758270E+02  0.36478901962E+02  0.00000000000E+00 0. -1.
</event>
<event>
 7    1  0.1978681E-015  0.9000771E+02  0.7816164E-02  0.1186339E+00
        -11   -1    0    0    0    0  0.00000000000E+00  0.00000000000E+00  0.45593999997E+02  0.45594000000E+02  0.51100000000E-03 0. -1.
         11   -1    0    0    0    0 -0.00000000000E+00 -0.00000000000E+00 -0.45593999997E+02  0.45594000000E+02  0.51100000000E-03 0.  1.
    9900012    2    1    2    0    0  0.22766432638E+00 -0.93086491293E+00 -0.68901496026E+00  0.90007710990E+02  0.89999971975E+02 0.  0.
        -12    1    1    2    0    0 -0.22766432638E+00  0.93086491293E+00  0.68901496026E+00  0.11802890100E+01  0.00000000000E+00 0.  1.
         11    1    3    3    0    0  0.17877572904E+02  0.34634327476E+02 -0.57988823439E+00  0.38980514662E+02  0.51100000000E-03 0. -1.
        -11    1    3    3    0    0  0.26914623188E+01 -0.48001065120E+00  0.90469884718E+01  0.94510518096E+01  0.51100000000E-03 0.  1.
        -12    1    3    3    0    0 -0.20341370896E+02 -0.35085181738E+02 -0.91561151976E+01  0.41576144519E+02  0.00000000000E+00 0.  1.
</event>
<event>
 7    1  0.1978681E-015  0.9000748E+02  0.7816164E-02  0.1186340E+00
        -11   -1    0    0    0    0  0.00000000000E+00  0.00000000000E+00  0.45593999997E+02  0.45594000000E+02  0.51100000000E-03 0. -1.
         11   -1    0    0    0    0 -0.00000000000E+00 -0.00000000000E+00 -0.45593999997E+02  0.45594000000E+02  0.51100000000E-03 0.  1.
    9900012    2    1    2    0    0 -0.90823417095E+00 -0.73381639632E+00 -0.17391538997E+00  0.90007482158E+02  0.89999740122E+02 0.  0.
        -12    1    1    2    0    0  0.90823417095E+00  0.73381639632E+00  0.17391538997E+00  0.11805178422E+01  0.00000000000E+00 0.  1.
         11    1    3    3    0    0 -0.47922880793E+01  0.40738052913E+01  0.42253279895E+02  0.42718866754E+02  0.51100000000E-03 0. -1.
        -11    1    3    3    0    0  0.68584113916E+00  0.67662946531E+01 -0.64988149350E+01  0.94067910161E+01  0.51100000000E-03 0.  1.
        -12    1    3    3    0    0  0.31982127692E+01 -0.11573916341E+02 -0.35928380350E+02  0.37881824388E+02  0.00000000000E+00 0.  1.
</event>
<event>
 7    1  0.1978681E-015  0.9000785E+02  0.7816164E-02  0.1186339E+00
        -11   -1    0    0    0    0  0.00000000000E+00  0.00000000000E+00  0.45593999997E+02  0.45594000000E+02  0.51100000000E-03 0. -1.
         11   -1    0    0    0    0 -0.00000000000E+00 -0.00000000000E+00 -0.45593999997E+02  0.45594000000E+02  0.51100000000E-03 0.  1.
    9900012    2    1    2    0    0  0.25031738361E+00  0.11369886931E+01  0.19328298877E+00  0.90007847300E+02  0.90000110085E+02 0.  0.
        -12    1    1    2    0    0 -0.25031738361E+00 -0.11369886931E+01 -0.19328298877E+00  0.11801526996E+01  0.00000000000E+00 0.  1.
         11    1    3    3    0    0  0.29051321299E+02 -0.29629354876E+02 -0.45507239098E+01  0.41744305336E+02  0.51100000000E-03 0. -1.
        -11    1    3    3    0    0 -0.36908265176E+01  0.56918824280E+01 -0.80631322532E+01  0.10537259034E+02  0.51100000000E-03 0.  1.
        -12    1    3    3    0    0 -0.25110177398E+02  0.25074461142E+02  0.12807139152E+02  0.37726282930E+02  0.00000000000E+00 0.  1.
</event>
<event>
 7    1  0.2191482E-015  0.9000793E+02  0.7816164E-02  0.1186339E+00
        -11   -1    0    0    0    0  0.00000000000E+00  0.00000000000E+00  0.45593999997E+02  0.45594000000E+02  0.51100000000E-03 0.  1.
         11   -1    0    0    0    0 -0.00000000000E+00 -0.00000000000E+00 -0.45593999997E+02  0.45594000000E+02  0.51100000000E-03 0. -1.
    9900012    2    1    2    0    0  0.22068830876E+00  0.11561677487E+01  0.84422691256E-01  0.90007934585E+02  0.90000198521E+02 0.  0.
        -12    1    1    2    0    0 -0.22068830876E+00 -0.11561677487E+01 -0.84422691256E-01  0.11800654149E+01  0.00000000000E+00 0.  1.
         11    1    3    3    0    0 -0.20830645103E+01  0.94389236554E+01  0.20058658273E+01  0.98719772844E+01  0.51100000000E-03 0. -1.
        -11    1    3    3    0    0 -0.98255509939E+01  0.23660242435E+02  0.25633494427E+02  0.36241199776E+02  0.51100000000E-03 0.  1.
         12    1    3    3    0    0  0.12129303813E+02 -0.31942998342E+02 -0.27554937563E+02  0.43894757525E+02  0.00000000000E+00 0. -1.
</event>
<event>
 7    1  0.1978681E-015  0.9000784E+02  0.7816164E-02  0.1186339E+00
        -11   -1    0    0    0    0  0.00000000000E+00  0.00000000000E+00  0.45593999997E+02  0.45594000000E+02  0.51100000000E-03 0. -1.
         11   -1    0    0    0    0 -0.00000000000E+00 -0.00000000000E+00 -0.45593999997E+02  0.45594000000E+02  0.51100000000E-03 0.  1.
    9900012    2    1    2    0    0  0.60768863399E+00 -0.10299839584E+00 -0.10064236662E+01  0.90007837833E+02  0.90000100492E+02 0.  0.
        -12    1    1    2    0    0 -0.60768863399E+00  0.10299839584E+00  0.10064236662E+01  0.11801621674E+01  0.00000000000E+00 0.  1.
         11    1    3    3    0    0  0.26631691088E+01  0.35202124943E+01  0.89111585148E+01  0.99445015986E+01  0.51100000000E-03 0. -1.
        -11    1    3    3    0    0 -0.42610601031E+01  0.24625861477E+02 -0.34465958372E+02  0.42573371647E+02  0.51100000000E-03 0.  1.
         12    1    3    3    0    0  0.22055796282E+01 -0.28249072367E+02  0.24548376191E+02  0.37489964587E+02  0.00000000000E+00 0. -1.
</event>
<event>
 7    1  0.1978681E-015  0.9000780E+02  0.7816164E-02  0.1186339E+00
        -11   -1    0    0    0    0  0.00000000000E+00  0.00000000000E+00  0.45593999997E+02  0.45594000000E+02  0.51100000000E-03 0.  1.
         11   -1    0    0    0    0 -0.00000000000E+00 -0.00000000000E+00 -0.45593999997E+02  0.45594000000E+02  0.51100000000E-03 0. -1.
    9900012    2    1    2    0    0  0.15756371307E+00 -0.11408581275E+01  0.25786376145E+00  0.90007797767E+02  0.90000059898E+02 0.  0.
        -12    1    1    2    0    0 -0.15756371307E+00  0.11408581275E+01 -0.25786376145E+00  0.11802022327E+01  0.00000000000E+00 0.  1.
         11    1    3    3    0    0  0.32515369445E+01  0.13257425619E+01  0.14435972839E+02  0.14856897318E+02  0.51100000000E-03 0. -1.
        -11    1    3    3    0    0  0.13736349061E+02 -0.12894664799E+02  0.24970310807E+02  0.31280602422E+02  0.51100000000E-03 0.  1.
         12    1    3    3    0    0 -0.16830322293E+02  0.10428064110E+02 -0.39148419885E+02  0.43870298028E+02  0.00000000000E+00 0. -1.
</event>
<event>
 7    1  0.1978681E-015  0.9000771E+02  0.7816164E-02  0.1186339E+00
        -11   -1    0    0    0    0  0.00000000000E+00  0.00000000000E+00  0.45593999997E+02  0.45594000000E+02  0.51100000000E-03 0. -1.
         11   -1    0    0    0    0 -0.00000000000E+00 -0.00000000000E+00 -0.45593999997E+02  0.45594000000E+02  0.51100000000E-03 0.  1.
    9900012    2    1    2    0    0 -0.91730988642E-03 -0.11171651767E+00  0.11749952791E+01  0.90007705406E+02  0.89999966318E+02 0.  0.
        -12    1    1    2    0    0  0.91730988642E-03  0.11171651767E+00 -0.11749952791E+01  0.11802945936E+01  0.00000000000E+00 0.  1.
         11    1    3    3    0    0 -0.72262962872E-01  0.68653541978E+00 -0.92261503757E+01  0.92519405442E+01  0.51100000000E-03 0. -1.
        -11    1    3    3    0    0  0.60237254908E+01  0.14987536996E+02 -0.31602179188E+02  0.35490974397E+02  0.51100000000E-03 0.  1.
         12    1    3    3    0    0 -0.59523798378E+01 -0.15785788933E+02  0.42003324843E+02  0.45264790465E+02  0.00000000000E+00 0. -1.
</event>
<event>
 7    1  0.1978681E-015  0.9000778E+02  0.7816164E-02  0.1186339E+00
        -11   -1    0    0    0    0  0.00000000000E+00  0.00000000000E+00  0.45593999997E+02  0.45594000000E+02  0.51100000000E-03 0. -1.
         11   -1    0    0    0    0 -0.00000000000E+00 -0.00000000000E+00 -0.45593999997E+02  0.45594000000E+02  0.51100000000E-03 0.  1.
    9900012    2    1    2    0    0 -0.90350023770E+00 -0.73199441957E+00 -0.20194801687E+00  0.90007783278E+02  0.90000045217E+02 0.  0.
        -12    1    1    2    0    0  0.90350023770E+00  0.73199441957E+00  0.20194801687E+00  0.11802167222E+01  0.00000000000E+00 0.  1.
         11    1    3    3    0    0 -0.14567196667E+02 -0.77174030063E+00  0.35567208524E+02  0.38442491130E+02  0.51100000000E-03 0. -1.
        -11    1    3    3    0    0  0.29777361527E+01  0.61948658804E+01  0.53032892896E+01  0.86814833652E+01  0.51100000000E-03 0.  1.
        -12    1    3    3    0    0  0.10685960276E+02 -0.61551199993E+01 -0.41072445830E+02  0.42883808783E+02  0.00000000000E+00 0.  1.
</event>
<event>
 7    1  0.1978681E-015  0.9000774E+02  0.7816164E-02  0.1186339E+00
        -11   -1    0    0    0    0  0.00000000000E+00  0.00000000000E+00  0.45593999997E+02  0.45594000000E+02  0.51100000000E-03 0.  1.
         11   -1    0    0    0    0 -0.00000000000E+00 -0.00000000000E+00 -0.45593999997E+02  0.45594000000E+02  0.51100000000E-03 0. -1.
    9900012    2    1    2    0    0 -0.34533996741E+00  0.76199874045E+00 -0.83253122923E+00  0.90007741545E+02  0.90000002933E+02 0.  0.
        -12    1    1    2    0    0  0.34533996741E+00 -0.76199874045E+00  0.83253122923E+00  0.11802584552E+01  0.00000000000E+00 0.  1.
         11    1    3    3    0    0  0.40595847247E+01  0.51656620451E+01  0.34637378036E+01  0.74270971674E+01  0.51100000000E-03 0. -1.
        -11    1    3    3    0    0  0.57178208586E+01 -0.21388374281E+02  0.33366341290E+02  0.40043336038E+02  0.51100000000E-03 0.  1.
         12    1    3    3    0    0 -0.10122745551E+02  0.16984710977E+02 -0.37662610322E+02  0.42537308339E+02  0.00000000000E+00 0. -1.
</event>
<event>
 7    1  0.1978681E-015  0.9000782E+02  0.7816164E-02  0.1186339E+00
        -11   -1    0    0    0    0  0.00000000000E+00  0.00000000000E+00  0.45593999997E+02  0.45594000000E+02  0.51100000000E-03 0.  1.
         11   -1    0    0    0    0 -0.00000000000E+00 -0.00000000000E+00 -0.45593999997E+02  0.45594000000E+02  0.51100000000E-03 0. -1.
    9900012    2    1    2    0    0  0.43815095116E+00  0.20779650148E+00 -0.10759519841E+01  0.90007818525E+02  0.90000080929E+02 0.  0.
        -12    1    1    2    0    0 -0.43815095116E+00 -0.20779650148E+00  0.10759519841E+01  0.11801814751E+01  0.00000000000E+00 0.  1.
         11    1    3    3    0    0  0.89680746262E+01 -0.25881266749E+01  0.10141931281E+02  0.13783451402E+02  0.51100000000E-03 0. -1.
        -11    1    3    3    0    0  0.32234696275E+01 -0.34338665136E+02  0.33209864675E+01  0.34649150511E+02  0.51100000000E-03 0.  1.
         12    1    3    3    0    0 -0.11753393303E+02  0.37134588312E+02 -0.14538869732E+02  0.41575216612E+02  0.00000000000E+00 0. -1.
</event>
<event>
 7    1  0.1978681E-015  0.9000775E+02  0.7816164E-02  0.1186339E+00
        -11   -1    0    0    0    0  0.00000000000E+00  0.00000000000E+00  0.45593999997E+02  0.45594000000E+02  0.51100000000E-03 0. -1.
         11   -1    0    0    0    0 -0.00000000000E+00 -0.00000000000E+00 -0.45593999997E+02  0.45594000000E+02  0.51100000000E-03 0.  1.
    9900012    2    1    2    0    0 -0.30838021027E-01 -0.10103926690E+01  0.60922388460E+00  0.90007746607E+02  0.90000008063E+02 0.  0.
        -12    1    1    2    0    0  0.30838021027E-01  0.10103926690E+01 -0.60922388460E+00  0.11802533926E+01  0.00000000000E+00 0.  1.
         11    1    3    3    0    0  0.85705963362E+01 -0.25647011888E+01  0.13386919925E+02  0.16101007393E+02  0.51100000000E-03 0. -1.
        -11    1    3    3    0    0  0.17584143206E+02 -0.23736593259E+02  0.97353100046E+01  0.31103122238E+02  0.51100000000E-03 0.  1.
         12    1    3    3    0    0 -0.26185577563E+02  0.25290901779E+02 -0.22513006045E+02  0.42803616976E+02  0.00000000000E+00 0. -1.
</event>
<event>
 7    1  0.2610093E-015  0.9000779E+02  0.7816164E-02  0.1186339E+00
        -11   -1    0    0    0    0  0.00000000000E+00  0.00000000000E+00  0.45593999997E+02  0.45594000000E+02  0.51100000000E-03 0.  1.
         11   -1    0    0    0    0 -0.00000000000E+00 -0.00000000000E+00 -0.45593999997E+02  0.45594000000E+02  0.51100000000E-03 0. -1.
    9900012    2    1    2    0    0  0.37393556157E+00  0.84498788613E+00 -0.73420547644E+00  0.90007792385E+02  0.90000054445E+02 0.  0.
        -12    1    1    2    0    0 -0.37393556157E+00 -0.84498788613E+00  0.73420547644E+00  0.11802076146E+01  0.00000000000E+00 0.  1.
         11    1    3    3    0    0 -0.53299511669E+00  0.20575361858E+01  0.96716530447E+01  0.99024447400E+01  0.51100000000E-03 0. -1.
        -11    1    3    3    0    0  0.31796008888E+02 -0.84483435743E+01  0.18017446637E+02  0.37509853025E+02  0.51100000000E-03 0.  1.
         12    1    3    3    0    0 -0.30889078210E+02  0.72357952746E+01 -0.28423305158E+02  0.42595494621E+02  0.00000000000E+00 0. -1.
</event>
<event>
 7    1  0.1978681E-015  0.9000704E+02  0.7816164E-02  0.1186340E+00
        -11   -1    0    0    0    0  0.00000000000E+00  0.00000000000E+00  0.45593999997E+02  0.45594000000E+02  0.51100000000E-03 0. -1.
         11   -1    0    0    0    0 -0.00000000000E+00 -0.00000000000E+00 -0.45593999997E+02  0.45594000000E+02  0.51100000000E-03 0.  1.
    9900012    2    1    2    0    0  0.77514831323E+00  0.65137214824E+00 -0.60789577548E+00  0.90007035201E+02  0.89999287263E+02 0.  0.
        -12    1    1    2    0    0 -0.77514831323E+00 -0.65137214824E+00  0.60789577548E+00  0.11809647992E+01  0.00000000000E+00 0.  1.
         11    1    3    3    0    0 -0.21596945855E+02  0.33575172360E+02  0.78544941339E+01  0.40686771163E+02  0.51100000000E-03 0. -1.
        -11    1    3    3    0    0  0.60410697749E+00  0.40397636478E+00 -0.94727496440E+01  0.95005856779E+01  0.51100000000E-03 0.  1.
        -12    1    3    3    0    0  0.21767987191E+02 -0.33327776577E+02  0.10103597347E+01  0.39819678360E+02  0.00000000000E+00 0.  1.
</event>
<event>
 7    1  0.1978681E-015  0.9000781E+02  0.7816164E-02  0.1186339E+00
        -11   -1    0    0    0    0  0.00000000000E+00  0.00000000000E+00  0.45593999997E+02  0.45594000000E+02  0.51100000000E-03 0.  1.
         11   -1    0    0    0    0 -0.00000000000E+00 -0.00000000000E+00 -0.45593999997E+02  0.45594000000E+02  0.51100000000E-03 0. -1.
    9900012    2    1    2    0    0  0.57649786434E+00  0.11817358221E+00 -0.10230023897E+01  0.90007809900E+02  0.90000072190E+02 0.  0.
        -12    1    1    2    0    0 -0.57649786434E+00 -0.11817358221E+00  0.10230023897E+01  0.11801901002E+01  0.00000000000E+00 0.  1.
         11    1    3    3    0    0  0.35378791664E+02 -0.80455005672E+01  0.19745562625E+01  0.36335765462E+02  0.51100000000E-03 0. -1.
        -11    1    3    3    0    0 -0.22246196116E+01 -0.40938958046E+01  0.14130400579E+02  0.14878747799E+02  0.51100000000E-03 0.  1.
        -12    1    3    3    0    0 -0.32577674188E+02  0.12257569954E+02 -0.17127959231E+02  0.38793296639E+02  0.00000000000E+00 0.  1.
</event>
<event>
 7    1  0.1978681E-015  0.9000773E+02  0.7816164E-02  0.1186339E+00
        -11   -1    0    0    0    0  0.00000000000E+00  0.00000000000E+00  0.45593999997E+02  0.45594000000E+02  0.51100000000E-03 0. -1.
         11   -1    0    0    0    0 -0.00000000000E+00 -0.00000000000E+00 -0.45593999997E+02  0.45594000000E+02  0.51100000000E-03 0.  1.
    9900012    2    1    2    0    0 -0.71323737573E+00 -0.91862528495E+00 -0.20114549743E+00  0.90007729065E+02  0.89999990289E+02 0.  0.
        -12    1    1    2    0    0  0.71323737573E+00  0.91862528495E+00  0.20114549743E+00  0.11802709348E+01  0.00000000000E+00 0.  1.
         11    1    3    3    0    0  0.38997501324E+02  0.11319269203E+02 -0.16869124950E+02  0.43971562874E+02  0.51100000000E-03 0. -1.
        -11    1    3    3    0    0 -0.11368652810E+02  0.53397849082E+00  0.74827892026E+01  0.13620702414E+02  0.51100000000E-03 0.  1.
        -12    1    3    3    0    0 -0.28342085890E+02 -0.12771872978E+02  0.91851902498E+01  0.32415463777E+02  0.00000000000E+00 0.  1.
</event>
<event>
 7    1  0.1978681E-015  0.9000771E+02  0.7816164E-02  0.1186339E+00
        -11   -1    0    0    0    0  0.00000000000E+00  0.00000000000E+00  0.45593999997E+02  0.45594000000E+02  0.51100000000E-03 0. -1.
         11   -1    0    0    0    0 -0.00000000000E+00 -0.00000000000E+00 -0.45593999997E+02  0.45594000000E+02  0.51100000000E-03 0.  1.
    9900012    2    1    2    0    0 -0.48883087291E+00 -0.15611208827E-01  0.10741903661E+01  0.90007710089E+02  0.89999971062E+02 0.  0.
        -12    1    1    2    0    0  0.48883087291E+00  0.15611208827E-01 -0.10741903661E+01  0.11802899113E+01  0.00000000000E+00 0.  1.
         11    1    3    3    0    0  0.61259213067E+01 -0.32294248615E+02  0.16725075430E+02  0.36880530824E+02  0.51100000000E-03 0. -1.
        -11    1    3    3    0    0  0.73191473516E+01 -0.48577476594E+01  0.30185953160E+01  0.92886784970E+01  0.51100000000E-03 0.  1.
        -12    1    3    3    0    0 -0.13933899531E+02  0.37136385066E+02 -0.18669480380E+02  0.43838500768E+02  0.00000000000E+00 0.  1.
</event>
<event>
 7    1  0.1978681E-015  0.9000780E+02  0.7816164E-02  0.1186339E+00
        -11   -1    0    0    0    0  0.00000000000E+00  0.00000000000E+00  0.45593999997E+02  0.45594000000E+02  0.51100000000E-03 0.  1.
         11   -1    0    0    0    0 -0.00000000000E+00 -0.00000000000E+00 -0.45593999997E+02  0.45594000000E+02  0.51100000000E-03 0. -1.
    9900012    2    1    2    0    0 -0.15664003898E+00 -0.10925160154E+01 -0.41801694425E+00  0.90007802766E+02  0.90000064962E+02 0.  0.
        -12    1    1    2    0    0  0.15664003898E+00  0.10925160154E+01  0.41801694425E+00  0.11801972341E+01  0.00000000000E+00 0.  1.
         11    1    3    3    0    0 -0.27932670315E+02 -0.11633419298E+02  0.21353764542E+02  0.37034494405E+02  0.51100000000E-03 0. -1.
        -11    1    3    3    0    0 -0.63605865708E+01  0.27574262664E+01  0.52908615676E+01  0.87208759610E+01  0.51100000000E-03 0.  1.
        -12    1    3    3    0    0  0.34136616846E+02  0.77834770166E+01 -0.27062643054E+02  0.44252432399E+02  0.00000000000E+00 0.  1.
</event>
<event>
 7    1  0.1978681E-015  0.9000783E+02  0.7816164E-02  0.1186339E+00
        -11   -1    0    0    0    0  0.00000000000E+00  0.00000000000E+00  0.45593999997E+02  0.45594000000E+02  0.51100000000E-03 0. -1.
         11   -1    0    0    0    0 -0.00000000000E+00 -0.00000000000E+00 -0.45593999997E+02  0.45594000000E+02  0.51100000000E-03 0.  1.
    9900012    2    1    2    0    0 -0.83768749241E+00 -0.78178027955E+00 -0.28268568932E+00  0.90007825462E+02  0.90000087958E+02 0.  0.
        -12    1    1    2    0    0  0.83768749241E+00  0.78178027955E+00  0.28268568932E+00  0.11801745377E+01  0.00000000000E+00 0.  1.
         11    1    3    3    0    0 -0.65802443475E+01 -0.98257511179E+00 -0.63210789522E+01  0.91772059421E+01  0.51100000000E-03 0. -1.
        -11    1    3    3    0    0 -0.18203907038E+02  0.30097199252E+02 -0.13689783316E+02  0.37744321451E+02  0.51100000000E-03 0.  1.
         12    1    3    3    0    0  0.23946463893E+02 -0.29896404420E+02  0.19728176579E+02  0.43086298070E+02  0.00000000000E+00 0. -1.
</event>
<event>
 7    1  0.1978681E-015  0.9000769E+02  0.7816164E-02  0.1186339E+00
        -11   -1    0    0    0    0  0.00000000000E+00  0.00000000000E+00  0.45593999997E+02  0.45594000000E+02  0.51100000000E-03 0.  1.
         11   -1    0    0    0    0 -0.00000000000E+00 -0.00000000000E+00 -0.45593999997E+02  0.45594000000E+02  0.51100000000E-03 0. -1.
    9900012    2    1    2    0    0 -0.91070454345E+00 -0.63455925099E+00 -0.40134330727E+00  0.90007692981E+02  0.89999953728E+02 0.  0.
        -12    1    1    2    0    0  0.91070454345E+00  0.63455925099E+00  0.40134330727E+00  0.11803070189E+01  0.00000000000E+00 0.  1.
         11    1    3    3    0    0  0.52024028863E+01 -0.35593786790E+02 -0.49007335754E+01  0.36304267569E+02  0.51100000000E-03 0. -1.
        -11    1    3    3    0    0 -0.39191989229E+01 -0.87709893896E+01 -0.58166029501E+00  0.96243807089E+01  0.51100000000E-03 0.  1.
        -12    1    3    3    0    0 -0.21939085069E+01  0.43730216929E+02  0.50810505631E+01  0.44079044704E+02  0.00000000000E+00 0.  1.
</event>
<event>
 7    1  0.1978681E-015  0.9000774E+02  0.7816164E-02  0.1186339E+00
        -11   -1    0    0    0    0  0.00000000000E+00  0.00000000000E+00  0.45593999997E+02  0.45594000000E+02  0.51100000000E-03 0.  1.
         11   -1    0    0    0    0 -0.00000000000E+00 -0.00000000000E+00 -0.45593999997E+02  0.45594000000E+02  0.51100000000E-03 0. -1.
    9900012    2    1    2    0    0 -0.50320352445E+00  0.67483207093E+00 -0.82728166853E+00  0.90007742795E+02  0.90000004200E+02 0.  0.
        -12    1    1    2    0    0  0.50320352445E+00 -0.67483207093E+00  0.82728166853E+00  0.11802572050E+01  0.00000000000E+00 0.  1.
         11    1    3    3    0    0 -0.31465039848E+02 -0.22938518536E+02  0.76178975282E+01  0.39676904217E+02  0.51100000000E-03 0. -1.
        -11    1    3    3    0    0 -0.44724165364E+01  0.35300186868E+01 -0.77194540928E+01  0.95944522176E+01  0.51100000000E-03 0.  1.
        -12    1    3    3    0    0  0.35434252860E+02  0.20083331920E+02 -0.72572510394E+00  0.40736386360E+02  0.00000000000E+00 0.  1.
</event>
<event>
 7    1  0.1978681E-015  0.9000767E+02  0.7816164E-02  0.1186339E+00
        -11   -1    0    0    0    0  0.00000000000E+00  0.00000000000E+00  0.45593999997E+02  0.45594000000E+02  0.51100000000E-03 0.  1.
         11   -1    0    0    0    0 -0.00000000000E+00 -0.00000000000E+00 -0.45593999997E+02  0.45594000000E+02  0.51100000000E-03 0. -1.
    9900012    2    1    2    0    0 -0.82438620827E+00 -0.32935182514E+00 -0.77787771244E+00  0.90007669970E+02  0.89999930413E+02 0.  0.
        -12    1    1    2    0    0  0.82438620827E+00  0.32935182514E+00  0.77787771244E+00  0.11803300304E+01  0.00000000000E+00 0.  1.
         11    1    3    3    0    0 -0.37203564386E+02 -0.38642715224E+01 -0.37840570775E+01  0.37594639055E+02  0.51100000000E-03 0. -1.
        -11    1    3    3    0    0 -0.22635243317E+01 -0.64570619518E+01 -0.84641850372E+01  0.10883915658E+02  0.51100000000E-03 0.  1.
        -12    1    3    3    0    0  0.38642702509E+02  0.99919816490E+01  0.11470364402E+02  0.41529115257E+02  0.00000000000E+00 0.  1.
</event>
<event>
 7    1  0.1978681E-015  0.9000779E+02  0.7816164E-02  0.1186339E+00
        -11   -1    0    0    0    0  0.00000000000E+00  0.00000000000E+00  0.45593999997E+02  0.45594000000E+02  0.51100000000E-03 0. -1.
         11   -1    0    0    0    0 -0.00000000000E+00 -0.00000000000E+00 -0.45593999997E+02  0.45594000000E+02  0.51100000000E-03 0.  1.
    9900012    2    1    2    0    0 -0.11097151418E+01  0.25349051655E+00  0.31170809098E+00  0.90007793632E+02  0.90000055708E+02 0.  0.
        -12    1    1    2    0    0  0.11097151418E+01 -0.25349051655E+00 -0.31170809098E+00  0.11802063684E+01  0.00000000000E+00 0.  1.
         11    1    3    3    0    0  0.79674340407E+01 -0.15769583603E+01 -0.56807787041E+01  0.99115109751E+01  0.51100000000E-03 0. -1.
        -11    1    3    3    0    0  0.24015452134E+01  0.90373540619E+01 -0.35361954897E+02  0.36577438979E+02  0.51100000000E-03 0.  1.
         12    1    3    3    0    0 -0.11478694396E+02 -0.72069051850E+01  0.41354441692E+02  0.43518843678E+02  0.00000000000E+00 0. -1.
</event>
<event>
 7    1  0.1978681E-015  0.9000768E+02  0.7816164E-02  0.1186339E+00
        -11   -1    0    0    0    0  0.00000000000E+00  0.00000000000E+00  0.45593999997E+02  0.45594000000E+02  0.51100000000E-03 0.  1.
         11   -1    0    0    0    0 -0.00000000000E+00 -0.00000000000E+00 -0.45593999997E+02  0.45594000000E+02  0.51100000000E-03 0. -1.
    9900012    2    1    2    0    0 -0.51102021484E+00  0.10502945264E+01 -0.16996261054E+00  0.90007683288E+02  0.89999943907E+02 0.  0.
        -12    1    1    2    0    0  0.51102021484E+00 -0.10502945264E+01  0.16996261054E+00  0.11803167122E+01  0.00000000000E+00 0.  1.
         11    1    3    3    0    0  0.26280335925E+02 -0.18950252407E+01 -0.32367703527E+02  0.41736260121E+02  0.51100000000E-03 0. -1.
        -11    1    3    3    0    0  0.68924223050E-01 -0.72334617243E+01  0.68438756974E+01  0.99582304597E+01  0.51100000000E-03 0.  1.
        -12    1    3    3    0    0 -0.26860280363E+02  0.10178781491E+02  0.25353865219E+02  0.38313192707E+02  0.00000000000E+00 0.  1.
</event>
<event>
 7    1  0.1978681E-015  0.9000753E+02  0.7816164E-02  0.1186339E+00
        -11   -1    0    0    0    0  0.00000000000E+00  0.00000000000E+00  0.45593999997E+02  0.45594000000E+02  0.51100000000E-03 0.  1.
         11   -1    0    0    0    0 -0.00000000000E+00 -0.00000000000E+00 -0.45593999997E+02  0.45594000000E+02  0.51100000000E-03 0. -1.
    9900012    2    1    2    0    0  0.27609942936E+00 -0.62610282777E+00 -0.96191540149E+00  0.90007526838E+02  0.89999785392E+02 0.  0.
        -12    1    1    2    0    0 -0.27609942936E+00  0.62610282777E+00  0.96191540149E+00  0.11804731617E+01  0.00000000000E+00 0.  1.
         11    1    3    3    0    0  0.42254886661E+01 -0.90254628957E+01 -0.37671741866E+02  0.38967600265E+02  0.51100000000E-03 0. -1.
        -11    1    3    3    0    0  0.74737021306E+01  0.23744700128E+01 -0.36605686832E+01  0.86541374338E+01  0.51100000000E-03 0.  1.
        -12    1    3    3    0    0 -0.11423091367E+02  0.60248900552E+01  0.40370395148E+02  0.42385789139E+02  0.00000000000E+00 0.  1.
</event>
<event>
 7    1  0.1978681E-015  0.9000774E+02  0.7816164E-02  0.1186339E+00
        -11   -1    0    0    0    0  0.00000000000E+00  0.00000000000E+00  0.45593999997E+02  0.45594000000E+02  0.51100000000E-03 0. -1.
         11   -1    0    0    0    0 -0.00000000000E+00 -0.00000000000E+00 -0.45593999997E+02  0.45594000000E+02  0.51100000000E-03 0.  1.
    9900012    2    1    2    0    0  0.31115003084E+00  0.31635275460E+00  0.10936776166E+01  0.90007735565E+02  0.89999996875E+02 0.  0.
        -12    1    1    2    0    0 -0.31115003084E+00 -0.31635275460E+00 -0.10936776166E+01  0.11802644348E+01  0.00000000000E+00 0.  1.
         11    1    3    3    0    0 -0.22685939797E+02  0.28925787621E+02 -0.20720179475E+01  0.36819102550E+02  0.51100000000E-03 0. -1.
        -11    1    3    3    0    0 -0.91845565954E+00  0.78707433759E+01 -0.41717769246E+01  0.89552155227E+01  0.51100000000E-03 0.  1.
        -12    1    3    3    0    0  0.23915545487E+02 -0.36480178242E+02  0.73374724887E+01  0.44233417492E+02  0.00000000000E+00 0.  1.
</event>
<event>
 7    1  0.1978681E-015  0.9000759E+02  0.7816164E-02  0.1186339E+00
        -11   -1    0    0    0    0  0.00000000000E+00  0.00000000000E+00  0.45593999997E+02  0.45594000000E+02  0.51100000000E-03 0. -1.
         11   -1    0    0    0    0 -0.00000000000E+00 -0.00000000000E+00 -0.45593999997E+02  0.45594000000E+02  0.51100000000E-03 0.  1.
    9900012    2    1    2    0    0  0.55416005298E+00 -0.48674643227E+00 -0.92160924667E+00  0.90007585218E+02  0.89999844543E+02 0.  0.
        -12    1    1    2    0    0 -0.55416005298E+00  0.48674643227E+00  0.92160924667E+00  0.11804147818E+01  0.00000000000E+00 0.  1.
         11    1    3    3    0    0 -0.39258777058E+01  0.40370737830E+01  0.62533328688E+01  0.84151442483E+01  0.51100000000E-03 0. -1.
        -11    1    3    3    0    0 -0.29042219164E+02 -0.15588349332E+02 -0.25634623135E+02  0.41756209507E+02  0.51100000000E-03 0.  1.
         12    1    3    3    0    0  0.33522256923E+02  0.11064529117E+02  0.18459681019E+02  0.39836231463E+02  0.00000000000E+00 0. -1.
</event>
<event>
 7    1  0.1978681E-015  0.9000778E+02  0.7816164E-02  0.1186339E+00
        -11   -1    0    0    0    0  0.00000000000E+00  0.00000000000E+00  0.45593999997E+02  0.45594000000E+02  0.51100000000E-03 0. -1.
         11   -1    0    0    0    0 -0.00000000000E+00 -0.00000000000E+00 -0.45593999997E+02  0.45594000000E+02  0.51100000000E-03 0.  1.
    9900012    2    1    2    0    0  0.71558682745E+00 -0.53125075562E+00  0.77370560419E+00  0.90007782971E+02  0.90000044906E+02 0.  0.
        -12    1    1    2    0    0 -0.71558682745E+00  0.53125075562E+00 -0.77370560419E+00  0.11802170287E+01  0.00000000000E+00 0.  1.
         11    1    3    3    0    0  0.94802303798E+01  0.81855053109E+01  0.44495151931E+01  0.13291931800E+02  0.51100000000E-03 0. -1.
        -11    1    3    3    0    0  0.24323591165E+02 -0.21027882201E+02  0.16409217076E+02  0.36098079205E+02  0.51100000000E-03 0.  1.
         12    1    3    3    0    0 -0.33088234717E+02  0.12311126135E+02 -0.20085026665E+02  0.40617771966E+02  0.00000000000E+00 0. -1.
</event>
<event>
 7    1  0.1978681E-015  0.9000766E+02  0.7816164E-02  0.1186339E+00
        -11   -1    0    0    0    0  0.00000000000E+00  0.00000000000E+00  0.45593999997E+02  0.45594000000E+02  0.51100000000E-03 0.  1.
         11   -1    0    0    0    0 -0.00000000000E+00 -0.00000000000E+00 -0.45593999997E+02  0.45594000000E+02  0.51100000000E-03 0. -1.
    9900012    2    1    2    0    0 -0.18982069889E-01 -0.10118512167E+01  0.60745833033E+00  0.90007657327E+02  0.89999917603E+02 0.  0.
        -12    1    1    2    0    0  0.18982069889E-01  0.10118512167E+01 -0.60745833033E+00  0.11803426735E+01  0.00000000000E+00 0.  1.
         11    1    3    3    0    0  0.65093363676E+01  0.47925450490E+01  0.50041096239E+01  0.95068954650E+01  0.51100000000E-03 0. -1.
        -11    1    3    3    0    0 -0.36146102750E+02  0.17046987733E+02 -0.13167823167E+02  0.42077691263E+02  0.51100000000E-03 0.  1.
         12    1    3    3    0    0  0.29617784312E+02 -0.22851383999E+02  0.87711718738E+01  0.38423070599E+02  0.00000000000E+00 0. -1.
</event>
<event>
 7    1  0.1978681E-015  0.9000773E+02  0.7816164E-02  0.1186339E+00
        -11   -1    0    0    0    0  0.00000000000E+00  0.00000000000E+00  0.45593999997E+02  0.45594000000E+02  0.51100000000E-03 0. -1.
         11   -1    0    0    0    0 -0.00000000000E+00 -0.00000000000E+00 -0.45593999997E+02  0.45594000000E+02  0.51100000000E-03 0.  1.
    9900012    2    1    2    0    0  0.48561299177E+00  0.25550150508E+00  0.10449535099E+01  0.90007733575E+02  0.89999994858E+02 0.  0.
        -12    1    1    2    0    0 -0.48561299177E+00 -0.25550150508E+00 -0.10449535099E+01  0.11802664253E+01  0.00000000000E+00 0.  1.
         11    1    3    3    0    0 -0.17166196377E+02 -0.17252211974E+02  0.25265793422E+02  0.35081012436E+02  0.51100000000E-03 0. -1.
        -11    1    3    3    0    0  0.78774269926E+01 -0.14104411819E+02 -0.91637129706E+01  0.18573150634E+02  0.51100000000E-03 0.  1.
        -12    1    3    3    0    0  0.97743823758E+01  0.31612125298E+02 -0.15057126942E+02  0.36353570505E+02  0.00000000000E+00 0.  1.
</event>
<event>
 7    1  0.1978681E-015  0.9000757E+02  0.7816164E-02  0.1186339E+00
        -11   -1    0    0    0    0  0.00000000000E+00  0.00000000000E+00  0.45593999997E+02  0.45594000000E+02  0.51100000000E-03 0.  1.
         11   -1    0    0    0    0 -0.00000000000E+00 -0.00000000000E+00 -0.45593999997E+02  0.45594000000E+02  0.51100000000E-03 0. -1.
    9900012    2    1    2    0    0 -0.52968911693E+00  0.32651334784E+00 -0.10031140639E+01  0.90007568150E+02  0.89999827250E+02 0.  0.
        -12    1    1    2    0    0  0.52968911693E+00 -0.32651334784E+00  0.10031140639E+01  0.11804318499E+01  0.00000000000E+00 0.  1.
         11    1    3    3    0    0  0.10130106980E+02  0.21835386628E+02 -0.25730738874E+02  0.35234558318E+02  0.51100000000E-03 0. -1.
        -11    1    3    3    0    0 -0.13859760473E+02 -0.11186565530E+02 -0.85700037628E+01  0.19765555228E+02  0.51100000000E-03 0.  1.
        -12    1    3    3    0    0  0.31999643764E+01 -0.10322307750E+02  0.33297628572E+02  0.35007454604E+02  0.00000000000E+00 0.  1.
</event>
<event>
 7    1  0.1978681E-015  0.9000773E+02  0.7816164E-02  0.1186339E+00
        -11   -1    0    0    0    0  0.00000000000E+00  0.00000000000E+00  0.45593999997E+02  0.45594000000E+02  0.51100000000E-03 0.  1.
         11   -1    0    0    0    0 -0.00000000000E+00 -0.00000000000E+00 -0.45593999997E+02  0.45594000000E+02  0.51100000000E-03 0. -1.
    9900012    2    1    2    0    0 -0.12778878564E+00 -0.91350699006E+00 -0.73635347015E+00  0.90007728240E+02  0.89999989453E+02 0.  0.
        -12    1    1    2    0    0  0.12778878564E+00  0.91350699006E+00  0.73635347015E+00  0.11802717601E+01  0.00000000000E+00 0.  1.
         11    1    3    3    0    0  0.23102501526E+02  0.28730601556E+02  0.59785927971E+01  0.37348582498E+02  0.51100000000E-03 0. -1.
        -11    1    3    3    0    0 -0.20183023626E+01  0.75894076462E+01 -0.58602752091E+01  0.97987488300E+01  0.51100000000E-03 0.  1.
        -12    1    3    3    0    0 -0.21211987949E+02 -0.37233516193E+02 -0.85467105817E+00  0.42860396912E+02  0.00000000000E+00 0.  1.
</event>
<event>
 7    1  0.1978681E-015  0.9000770E+02  0.7816164E-02  0.1186339E+00
        -11   -1    0    0    0    0  0.00000000000E+00  0.00000000000E+00  0.45593999997E+02  0.45594000000E+02  0.51100000000E-03 0. -1.
         11   -1    0    0    0    0 -0.00000000000E+00 -0.00000000000E+00 -0.45593999997E+02  0.45594000000E+02  0.51100000000E-03 0.  1.
    9900012    2    1    2    0    0 -0.88231988145E+00  0.37529350139E+00  0.68830869728E+00  0.90007702390E+02  0.89999963262E+02 0.  0.
        -12    1    1    2    0    0  0.88231988145E+00 -0.37529350139E+00 -0.68830869728E+00  0.11802976100E+01  0.00000000000E+00 0.  1.
         11    1    3    3    0    0 -0.68337149972E+01  0.54386161866E+01 -0.27059188479E+01  0.91433147031E+01  0.51100000000E-03 0. -1.
        -11    1    3    3    0    0 -0.29670208222E+02 -0.16637817351E+02 -0.17203360262E+02  0.38119467818E+02  0.51100000000E-03 0.  1.
         12    1    3    3    0    0  0.35621603338E+02  0.11574494666E+02  0.20597587807E+02  0.42744919869E+02  0.00000000000E+00 0. -1.
</event>
<event>
 7    1  0.1978681E-015  0.9000773E+02  0.7816164E-02  0.1186339E+00
        -11   -1    0    0    0    0  0.00000000000E+00  0.00000000000E+00  0.45593999997E+02  0.45594000000E+02  0.51100000000E-03 0. -1.
         11   -1    0    0    0    0 -0.00000000000E+00 -0.00000000000E+00 -0.45593999997E+02  0.45594000000E+02  0.51100000000E-03 0.  1.
    9900012    2    1    2    0    0 -0.54243081734E+00  0.66184370965E-01  0.10461524871E+01  0.90007726053E+02  0.89999987237E+02 0.  0.
        -12    1    1    2    0    0  0.54243081734E+00 -0.66184370965E-01 -0.10461524871E+01  0.11802739465E+01  0.00000000000E+00 0.  1.
         11    1    3    3    0    0  0.19700538798E+02 -0.19821683529E+02  0.26193474248E+02  0.38302851856E+02  0.51100000000E-03 0. -1.
        -11    1    3    3    0    0 -0.70259591486E+01 -0.59348344127E+01  0.44890989977E+01  0.10234176642E+02  0.51100000000E-03 0.  1.
        -12    1    3    3    0    0 -0.13217010467E+02  0.25822702313E+02 -0.29636420758E+02  0.41470697556E+02  0.00000000000E+00 0.  1.
</event>
<event>
 7    1  0.1978681E-015  0.9000782E+02  0.7816164E-02  0.1186339E+00
        -11   -1    0    0    0    0  0.00000000000E+00  0.00000000000E+00  0.45593999997E+02  0.45594000000E+02  0.51100000000E-03 0.  1.
         11   -1    0    0    0    0 -0.00000000000E+00 -0.00000000000E+00 -0.45593999997E+02  0.45594000000E+02  0.51100000000E-03 0. -1.
    9900012    2    1    2    0    0 -0.89530464571E+00 -0.41032036217E+00 -0.65030729486E+00  0.90007816630E+02  0.90000079010E+02 0.  0.
        -12    1    1    2    0    0  0.89530464571E+00  0.41032036217E+00  0.65030729486E+00  0.11801833696E+01  0.00000000000E+00 0.  1.
         11    1    3    3    0    0  0.18648702435E+02 -0.20607537921E+02  0.17669106446E+02  0.32933904180E+02  0.51100000000E-03 0. -1.
        -11    1    3    3    0    0 -0.28763818566E+01  0.27725073251E+02  0.40644184491E+01  0.28168648475E+02  0.51100000000E-03 0.  1.
        -12    1    3    3    0    0 -0.16667625224E+02 -0.75278556917E+01 -0.22383832190E+02  0.28905263975E+02  0.00000000000E+00 0.  1.
</event>
<event>
 7    1  0.1978681E-015  0.9000807E+02  0.7816164E-02  0.1186338E+00
        -11   -1    0    0    0    0  0.00000000000E+00  0.00000000000E+00  0.45593999997E+02  0.45594000000E+02  0.51100000000E-03 0.  1.
         11   -1    0    0    0    0 -0.00000000000E+00 -0.00000000000E+00 -0.45593999997E+02  0.45594000000E+02  0.51100000000E-03 0. -1.
    9900012    2    1    2    0    0 -0.50533940500E+00 -0.94546265404E+00 -0.49291177599E+00  0.90008072221E+02  0.90000337974E+02 0.  0.
        -12    1    1    2    0    0  0.50533940500E+00  0.94546265404E+00  0.49291177599E+00  0.11799277789E+01  0.00000000000E+00 0.  1.
         11    1    3    3    0    0  0.16305638889E+02 -0.24806169715E+01 -0.36505233192E+02  0.40058199795E+02  0.51100000000E-03 0. -1.
        -11    1    3    3    0    0  0.58158666520E+01  0.66090668857E+01  0.24181722448E+01  0.91297112375E+01  0.51100000000E-03 0.  1.
        -12    1    3    3    0    0 -0.22626844946E+02 -0.50739125683E+01  0.33594149171E+02  0.40820161189E+02  0.00000000000E+00 0.  1.
</event>
<event>
 7    1  0.1978681E-015  0.9000762E+02  0.7816164E-02  0.1186339E+00
        -11   -1    0    0    0    0  0.00000000000E+00  0.00000000000E+00  0.45593999997E+02  0.45594000000E+02  0.51100000000E-03 0.  1.
         11   -1    0    0    0    0 -0.00000000000E+00 -0.00000000000E+00 -0.45593999997E+02  0.45594000000E+02  0.51100000000E-03 0. -1.
    9900012    2    1    2    0    0 -0.17285271723E+00  0.80926849374E+00 -0.84172586396E+00  0.90007620406E+02  0.89999880195E+02 0.  0.
        -12    1    1    2    0    0  0.17285271723E+00 -0.80926849374E+00  0.84172586396E+00  0.11803795944E+01  0.00000000000E+00 0.  1.
         11    1    3    3    0    0 -0.82165465738E+01 -0.56104018039E+01  0.89130042166E+00  0.99891272242E+01  0.51100000000E-03 0. -1.
        -11    1    3    3    0    0 -0.32705278384E+02  0.12610220800E+02 -0.12842962437E+02  0.37330879808E+02  0.51100000000E-03 0.  1.
         12    1    3    3    0    0  0.40748972241E+02 -0.61905505025E+01  0.11109936152E+02  0.42687613373E+02  0.00000000000E+00 0. -1.
</event>
<event>
 7    1  0.1978681E-015  0.9000771E+02  0.7816164E-02  0.1186339E+00
        -11   -1    0    0    0    0  0.00000000000E+00  0.00000000000E+00  0.45593999997E+02  0.45594000000E+02  0.51100000000E-03 0. -1.
         11   -1    0    0    0    0 -0.00000000000E+00 -0.00000000000E+00 -0.45593999997E+02  0.45594000000E+02  0.51100000000E-03 0.  1.
    9900012    2    1    2    0    0  0.60410119485E+00 -0.13183238677E+00  0.10053670302E+01  0.90007711519E+02  0.89999972512E+02 0.  0.
        -12    1    1    2    0    0 -0.60410119485E+00  0.13183238677E+00 -0.10053670302E+01  0.11802884805E+01  0.00000000000E+00 0.  1.
         11    1    3    3    0    0 -0.16471612636E+01 -0.30364670032E+02  0.28802470299E+02  0.41884467550E+02  0.51100000000E-03 0. -1.
        -11    1    3    3    0    0  0.95350960185E+01  0.10388114540E+02 -0.12043917897E+01  0.14152086052E+02  0.51100000000E-03 0.  1.
        -12    1    3    3    0    0 -0.72838335600E+01  0.19844723105E+02 -0.26592711479E+02  0.33971157918E+02  0.00000000000E+00 0.  1.
</event>
<event>
 7    1  0.1978681E-015  0.9000782E+02  0.7816164E-02  0.1186339E+00
        -11   -1    0    0    0    0  0.00000000000E+00  0.00000000000E+00  0.45593999997E+02  0.45594000000E+02  0.51100000000E-03 0.  1.
         11   -1    0    0    0    0 -0.00000000000E+00 -0.00000000000E+00 -0.45593999997E+02  0.45594000000E+02  0.51100000000E-03 0. -1.
    9900012    2    1    2    0    0 -0.21445921035E+00 -0.11162722664E+01 -0.31743291473E+00  0.90007821971E+02  0.90000084421E+02 0.  0.
        -12    1    1    2    0    0  0.21445921035E+00  0.11162722664E+01  0.31743291473E+00  0.11801780293E+01  0.00000000000E+00 0.  1.
         11    1    3    3    0    0 -0.31221524363E+02 -0.91261764736E+01 -0.21605683563E+02  0.39049663802E+02  0.51100000000E-03 0. -1.
        -11    1    3    3    0    0  0.21707507472E+01  0.32817401513E+01 -0.84158016099E+01  0.92901934440E+01  0.51100000000E-03 0.  1.
        -12    1    3    3    0    0  0.28836314405E+02  0.47281640559E+01  0.29704052258E+02  0.41667964725E+02  0.00000000000E+00 0.  1.
</event>
<event>
 7    1  0.1978681E-015  0.9000774E+02  0.7816164E-02  0.1186339E+00
        -11   -1    0    0    0    0  0.00000000000E+00  0.00000000000E+00  0.45593999997E+02  0.45594000000E+02  0.51100000000E-03 0.  1.
         11   -1    0    0    0    0 -0.00000000000E+00 -0.00000000000E+00 -0.45593999997E+02  0.45594000000E+02  0.51100000000E-03 0. -1.
    9900012    2    1    2    0    0  0.29560295728E+00 -0.98011653372E-01 -0.11384263377E+01  0.90007744977E+02  0.90000006411E+02 0.  0.
        -12    1    1    2    0    0 -0.29560295728E+00  0.98011653372E-01  0.11384263377E+01  0.11802550228E+01  0.00000000000E+00 0.  1.
         11    1    3    3    0    0 -0.79664329941E+01 -0.32637482275E+02  0.24245758957E+02  0.41430980335E+02  0.51100000000E-03 0. -1.
        -11    1    3    3    0    0 -0.34315084686E+01  0.24751963318E+00 -0.10674501761E+02  0.11215235372E+02  0.51100000000E-03 0.  1.
        -12    1    3    3    0    0  0.11693544420E+02  0.32291950988E+02 -0.14709683533E+02  0.37361529270E+02  0.00000000000E+00 0.  1.
</event>
<event>
 7    1  0.1978681E-015  0.9000784E+02  0.7816164E-02  0.1186339E+00
        -11   -1    0    0    0    0  0.00000000000E+00  0.00000000000E+00  0.45593999997E+02  0.45594000000E+02  0.51100000000E-03 0.  1.
         11   -1    0    0    0    0 -0.00000000000E+00 -0.00000000000E+00 -0.45593999997E+02  0.45594000000E+02  0.51100000000E-03 0. -1.
    9900012    2    1    2    0    0  0.72804586353E+00  0.30268050094E+00 -0.87812497261E+00  0.90007843344E+02  0.90000106076E+02 0.  0.
        -12    1    1    2    0    0 -0.72804586353E+00 -0.30268050094E+00  0.87812497261E+00  0.11801566559E+01  0.00000000000E+00 0.  1.
         11    1    3    3    0    0 -0.22507324205E+02 -0.20550364975E+02 -0.25501591956E+02  0.39739505987E+02  0.51100000000E-03 0. -1.
        -11    1    3    3    0    0 -0.35017840425E+01 -0.52328209414E+01  0.51987094082E+01  0.81652609424E+01  0.51100000000E-03 0.  1.
        -12    1    3    3    0    0  0.26737154111E+02  0.26085866418E+02  0.19424757575E+02  0.42103076415E+02  0.00000000000E+00 0.  1.
</event>
<event>
 7    1  0.1978681E-015  0.9000778E+02  0.7816164E-02  0.1186339E+00
        -11   -1    0    0    0    0  0.00000000000E+00  0.00000000000E+00  0.45593999997E+02  0.45594000000E+02  0.51100000000E-03 0. -1.
         11   -1    0    0    0    0 -0.00000000000E+00 -0.00000000000E+00 -0.45593999997E+02  0.45594000000E+02  0.51100000000E-03 0.  1.
    9900012    2    1    2    0    0  0.22810988730E+00 -0.39111127310E+00  0.10899146818E+01  0.90007781307E+02  0.90000043221E+02 0.  0.
        -12    1    1    2    0    0 -0.22810988730E+00  0.39111127310E+00 -0.10899146818E+01  0.11802186925E+01  0.00000000000E+00 0.  1.
         11    1    3    3    0    0 -0.21785800123E+02 -0.39943243148E+01  0.29465938057E+02  0.36862138022E+02  0.51100000000E-03 0. -1.
        -11    1    3    3    0    0  0.36238965190E+01  0.96231848860E+01  0.72650963131E+01  0.12590470127E+02  0.51100000000E-03 0.  1.
        -12    1    3    3    0    0  0.18390013492E+02 -0.60199718444E+01 -0.35641119688E+02  0.40555173158E+02  0.00000000000E+00 0.  1.
</event>
<event>
 7    1  0.1978681E-015  0.9000783E+02  0.7816164E-02  0.1186339E+00
        -11   -1    0    0    0    0  0.00000000000E+00  0.00000000000E+00  0.45593999997E+02  0.45594000000E+02  0.51100000000E-03 0.  1.
         11   -1    0    0    0    0 -0.00000000000E+00 -0.00000000000E+00 -0.45593999997E+02  0.45594000000E+02  0.51100000000E-03 0. -1.
    9900012    2    1    2    0    0  0.11494764639E+00  0.11637279179E+01  0.15911736242E+00  0.90007833078E+02  0.90000095675E+02 0.  0.
        -12    1    1    2    0    0 -0.11494764639E+00 -0.11637279179E+01 -0.15911736242E+00  0.11801669218E+01  0.00000000000E+00 0.  1.
         11    1    3    3    0    0 -0.12681128281E+02 -0.11585412966E+01 -0.40256434565E+02  0.42222431912E+02  0.51100000000E-03 0. -1.
        -11    1    3    3    0    0  0.82302816184E+01  0.78689351569E+01  0.64876748949E+01  0.13105250926E+02  0.51100000000E-03 0.  1.
        -12    1    3    3    0    0  0.45657943095E+01 -0.55466659424E+01  0.33927877033E+02  0.34680150240E+02  0.00000000000E+00 0.  1.
</event>
<event>
 7    1  0.1978681E-015  0.9000774E+02  0.7816164E-02  0.1186339E+00
        -11   -1    0    0    0    0  0.00000000000E+00  0.00000000000E+00  0.45593999997E+02  0.45594000000E+02  0.51100000000E-03 0.  1.
         11   -1    0    0    0    0 -0.00000000000E+00 -0.00000000000E+00 -0.45593999997E+02  0.45594000000E+02  0.51100000000E-03 0. -1.
    9900012    2    1    2    0    0  0.48520909002E+00  0.75236548108E+00  0.76910989839E+00  0.90007740828E+02  0.90000002207E+02 0.  0.
        -12    1    1    2    0    0 -0.48520909002E+00 -0.75236548108E+00 -0.76910989839E+00  0.11802591724E+01  0.00000000000E+00 0.  1.
         11    1    3    3    0    0  0.30758214673E+02 -0.38125683767E+01  0.12444507578E+02  0.33398640940E+02  0.51100000000E-03 0.  1.
        -11    1    3    3    0    0  0.35623190075E+01 -0.77102134499E+01 -0.18149318886E+02  0.20038345352E+02  0.51100000000E-03 0. -1.
        -12    1    3    3    0    0 -0.33835324591E+02  0.12275147308E+02  0.64739212057E+01  0.36570754536E+02  0.00000000000E+00 0.  1.
</event>
<event>
 7    1  0.1978681E-015  0.9000771E+02  0.7816164E-02  0.1186339E+00
        -11   -1    0    0    0    0  0.00000000000E+00  0.00000000000E+00  0.45593999997E+02  0.45594000000E+02  0.51100000000E-03 0. -1.
         11   -1    0    0    0    0 -0.00000000000E+00 -0.00000000000E+00 -0.45593999997E+02  0.45594000000E+02  0.51100000000E-03 0.  1.
    9900012    2    1    2    0    0  0.55911435859E+00 -0.96405611090E+00  0.38868901042E+00  0.90007706732E+02  0.89999967661E+02 0.  0.
        -12    1    1    2    0    0 -0.55911435859E+00  0.96405611090E+00 -0.38868901042E+00  0.11802932677E+01  0.00000000000E+00 0.  1.
         11    1    3    3    0    0  0.18624410828E+02 -0.14079986585E+02  0.28640169207E+02  0.36950967422E+02  0.51100000000E-03 0. -1.
        -11    1    3    3    0    0  0.39011337220E+01  0.82679085949E+01 -0.29143758213E+02  0.30543997772E+02  0.51100000000E-03 0.  1.
        -12    1    3    3    0    0 -0.21966430192E+02  0.48480218793E+01  0.89227801703E+00  0.22512741538E+02  0.00000000000E+00 0.  1.
</event>
<event>
 7    1  0.1978681E-015  0.9000783E+02  0.7816164E-02  0.1186339E+00
        -11   -1    0    0    0    0  0.00000000000E+00  0.00000000000E+00  0.45593999997E+02  0.45594000000E+02  0.51100000000E-03 0.  1.
         11   -1    0    0    0    0 -0.00000000000E+00 -0.00000000000E+00 -0.45593999997E+02  0.45594000000E+02  0.51100000000E-03 0. -1.
    9900012    2    1    2    0    0  0.41897006303E+00 -0.13898442527E+00 -0.10945110077E+01  0.90007827585E+02  0.90000090109E+02 0.  0.
        -12    1    1    2    0    0 -0.41897006303E+00  0.13898442527E+00  0.10945110077E+01  0.11801724155E+01  0.00000000000E+00 0.  1.
         11    1    3    3    0    0  0.10438583736E+02 -0.59752987923E+01  0.10798760395E+01  0.12076189738E+02  0.51100000000E-03 0. -1.
        -11    1    3    3    0    0  0.79341910089E+00 -0.28082104800E+02  0.21328985469E+02  0.35272648685E+02  0.51100000000E-03 0.  1.
         12    1    3    3    0    0 -0.10813032774E+02  0.33918419167E+02 -0.23503372517E+02  0.42658989161E+02  0.00000000000E+00 0. -1.
</event>
<event>
 7    1  0.1978681E-015  0.9000746E+02  0.7816164E-02  0.1186340E+00
        -11   -1    0    0    0    0  0.00000000000E+00  0.00000000000E+00  0.45593999997E+02  0.45594000000E+02  0.51100000000E-03 0.  1.
         11   -1    0    0    0    0 -0.00000000000E+00 -0.00000000000E+00 -0.45593999997E+02  0.45594000000E+02  0.51100000000E-03 0. -1.
    9900012    2    1    2    0    0  0.10886969735E+01 -0.41117075102E-01 -0.45466390537E+00  0.90007461572E+02  0.89999719264E+02 0.  0.
        -12    1    1    2    0    0 -0.10886969735E+01  0.41117075102E-01  0.45466390537E+00  0.11805384283E+01  0.00000000000E+00 0.  1.
         11    1    3    3    0    0 -0.80881647742E+01 -0.27827738206E+02 -0.22424104387E+02  0.36642078010E+02  0.51100000000E-03 0. -1.
        -11    1    3    3    0    0 -0.88216695625E+01 -0.48264021979E+01 -0.12379298668E+00  0.10056407759E+02  0.51100000000E-03 0.  1.
        -12    1    3    3    0    0  0.17998531310E+02  0.32613023329E+02  0.22093233468E+02  0.43308975803E+02  0.00000000000E+00 0.  1.
</event>
<event>
 7    1  0.1978681E-015  0.9000731E+02  0.7816164E-02  0.1186340E+00
        -11   -1    0    0    0    0  0.00000000000E+00  0.00000000000E+00  0.45593999997E+02  0.45594000000E+02  0.51100000000E-03 0.  1.
         11   -1    0    0    0    0 -0.00000000000E+00 -0.00000000000E+00 -0.45593999997E+02  0.45594000000E+02  0.51100000000E-03 0. -1.
    9900012    2    1    2    0    0  0.48131990791E+00 -0.90673221643E+00  0.58327090721E+00  0.90007306510E+02  0.89999562155E+02 0.  0.
        -12    1    1    2    0    0 -0.48131990791E+00  0.90673221643E+00 -0.58327090721E+00  0.11806934900E+01  0.00000000000E+00 0.  1.
         11    1    3    3    0    0 -0.31123749561E+02 -0.13265041454E+02  0.66074087645E+01  0.34471828532E+02  0.51100000000E-03 0. -1.
        -11    1    3    3    0    0 -0.38319612030E+01 -0.84074636606E+01  0.79101790731E+01  0.12163071368E+02  0.51100000000E-03 0.  1.
        -12    1    3    3    0    0  0.35437030671E+02  0.20765772898E+02 -0.13934316930E+02  0.43372406611E+02  0.00000000000E+00 0.  1.
</event>
<event>
 7    1  0.1978681E-015  0.9000774E+02  0.7816164E-02  0.1186339E+00
        -11   -1    0    0    0    0  0.00000000000E+00  0.00000000000E+00  0.45593999997E+02  0.45594000000E+02  0.51100000000E-03 0. -1.
         11   -1    0    0    0    0 -0.00000000000E+00 -0.00000000000E+00 -0.45593999997E+02  0.45594000000E+02  0.51100000000E-03 0.  1.
    9900012    2    1    2    0    0 -0.26956344885E+00 -0.74581440109E+00  0.87412745353E+00  0.90007744782E+02  0.90000006213E+02 0.  0.
        -12    1    1    2    0    0  0.26956344885E+00  0.74581440109E+00 -0.87412745353E+00  0.11802552177E+01  0.00000000000E+00 0.  1.
         11    1    3    3    0    0 -0.82506060153E+00  0.56506797651E+01  0.33019662506E+01  0.65965057557E+01  0.51100000000E-03 0. -1.
        -11    1    3    3    0    0  0.80465979157E+01  0.37650678228E+02 -0.39694754497E+01  0.38705013172E+02  0.51100000000E-03 0.  1.
         12    1    3    3    0    0 -0.74911007630E+01 -0.44047172394E+02  0.15416366527E+01  0.44706225854E+02  0.00000000000E+00 0. -1.
</event>
<event>
 7    1  0.1978681E-015  0.9000791E+02  0.7816164E-02  0.1186339E+00
        -11   -1    0    0    0    0  0.00000000000E+00  0.00000000000E+00  0.45593999997E+02  0.45594000000E+02  0.51100000000E-03 0.  1.
         11   -1    0    0    0    0 -0.00000000000E+00 -0.00000000000E+00 -0.45593999997E+02  0.45594000000E+02  0.51100000000E-03 0. -1.
    9900012    2    1    2    0    0  0.72912694896E+00  0.92673629692E+00  0.46405627972E-01  0.90007906888E+02  0.90000170458E+02 0.  0.
        -12    1    1    2    0    0 -0.72912694896E+00 -0.92673629692E+00 -0.46405627972E-01  0.11800931124E+01  0.00000000000E+00 0.  1.
         11    1    3    3    0    0 -0.55809728818E+00 -0.66559791127E+01 -0.35681473760E+02  0.36301254806E+02  0.51100000000E-03 0. -1.
        -11    1    3    3    0    0  0.16465528268E+01  0.45327771187E+01 -0.82852116654E+01  0.95865498080E+01  0.51100000000E-03 0.  1.
        -12    1    3    3    0    0 -0.35932858970E+00  0.30499382909E+01  0.44013091053E+02  0.44120102274E+02  0.00000000000E+00 0.  1.
</event>
<event>
 7    1  0.1978681E-015  0.9000773E+02  0.7816164E-02  0.1186339E+00
        -11   -1    0    0    0    0  0.00000000000E+00  0.00000000000E+00  0.45593999997E+02  0.45594000000E+02  0.51100000000E-03 0. -1.
         11   -1    0    0    0    0 -0.00000000000E+00 -0.00000000000E+00 -0.45593999997E+02  0.45594000000E+02  0.51100000000E-03 0.  1.
    9900012    2    1    2    0    0 -0.21585746828E+00  0.11558843470E+01  0.10183111619E+00  0.90007731960E+02  0.89999993222E+02 0.  0.
        -12    1    1    2    0    0  0.21585746828E+00 -0.11558843470E+01 -0.10183111619E+00  0.11802680401E+01  0.00000000000E+00 0.  1.
         11    1    3    3    0    0 -0.34794329132E+02  0.14466336373E+02  0.96054217952E+01  0.38886814679E+02  0.51100000000E-03 0. -1.
        -11    1    3    3    0    0 -0.24347795368E+01 -0.64506497007E+01  0.71724158899E+01  0.99489990910E+01  0.51100000000E-03 0.  1.
        -12    1    3    3    0    0  0.37013251200E+02 -0.68598023251E+01 -0.16676006569E+02  0.41171918190E+02  0.00000000000E+00 0.  1.
</event>
<event>
 7    1  0.1978681E-015  0.9000773E+02  0.7816164E-02  0.1186339E+00
        -11   -1    0    0    0    0  0.00000000000E+00  0.00000000000E+00  0.45593999997E+02  0.45594000000E+02  0.51100000000E-03 0. -1.
         11   -1    0    0    0    0 -0.00000000000E+00 -0.00000000000E+00 -0.45593999997E+02  0.45594000000E+02  0.51100000000E-03 0.  1.
    9900012    2    1    2    0    0 -0.21198292101E+00 -0.11592296765E+01  0.65459423044E-01  0.90007730905E+02  0.89999992152E+02 0.  0.
        -12    1    1    2    0    0  0.21198292101E+00  0.11592296765E+01 -0.65459423044E-01  0.11802690955E+01  0.00000000000E+00 0.  1.
         11    1    3    3    0    0  0.13232804796E+02  0.31854345506E+02  0.97433737762E+01  0.35843266916E+02  0.51100000000E-03 0. -1.
        -11    1    3    3    0    0 -0.45466178476E+01  0.90778048022E+01 -0.44056602301E+00  0.10162301539E+02  0.51100000000E-03 0.  1.
        -12    1    3    3    0    0 -0.88981698696E+01 -0.42091379985E+02 -0.92373483301E+01  0.44002162450E+02  0.00000000000E+00 0.  1.
</event>
<event>
 7    1  0.1978681E-015  0.9000774E+02  0.7816164E-02  0.1186339E+00
        -11   -1    0    0    0    0  0.00000000000E+00  0.00000000000E+00  0.45593999997E+02  0.45594000000E+02  0.51100000000E-03 0.  1.
         11   -1    0    0    0    0 -0.00000000000E+00 -0.00000000000E+00 -0.45593999997E+02  0.45594000000E+02  0.51100000000E-03 0. -1.
    9900012    2    1    2    0    0  0.38148240403E+00  0.66913277363E+00 -0.89428571272E+00  0.90007739677E+02  0.90000001041E+02 0.  0.
        -12    1    1    2    0    0 -0.38148240403E+00 -0.66913277363E+00  0.89428571272E+00  0.11802603227E+01  0.00000000000E+00 0.  1.
         11    1    3    3    0    0 -0.13701331735E+02  0.36102879274E+02 -0.14432865668E+02  0.41224410182E+02  0.51100000000E-03 0. -1.
        -11    1    3    3    0    0 -0.73650953656E+01 -0.29839501399E+01  0.28762278765E+01  0.84511108880E+01  0.51100000000E-03 0.  1.
        -12    1    3    3    0    0  0.21447909505E+02 -0.32449796360E+02  0.10662352079E+02  0.40332218608E+02  0.00000000000E+00 0.  1.
</event>
<event>
 7    1  0.1978681E-015  0.9000758E+02  0.7816164E-02  0.1186339E+00
        -11   -1    0    0    0    0  0.00000000000E+00  0.00000000000E+00  0.45593999997E+02  0.45594000000E+02  0.51100000000E-03 0.  1.
         11   -1    0    0    0    0 -0.00000000000E+00 -0.00000000000E+00 -0.45593999997E+02  0.45594000000E+02  0.51100000000E-03 0. -1.
    9900012    2    1    2    0    0 -0.10695323896E+01 -0.26678139928E+00  0.42227441980E+00  0.90007581628E+02  0.89999840905E+02 0.  0.
        -12    1    1    2    0    0  0.10695323896E+01  0.26678139928E+00 -0.42227441980E+00  0.11804183721E+01  0.00000000000E+00 0.  1.
         11    1    3    3    0    0  0.88065937474E+01  0.32521613312E+01  0.64407898078E+01  0.11384920745E+02  0.51100000000E-03 0. -1.
        -11    1    3    3    0    0  0.24142523668E+02 -0.11383923251E+02  0.21413266133E+02  0.34219630687E+02  0.51100000000E-03 0.  1.
         12    1    3    3    0    0 -0.34018649805E+02  0.78649805206E+01 -0.27431781521E+02  0.44403030196E+02  0.00000000000E+00 0. -1.
</event>
<event>
 7    1  0.1978681E-015  0.9000770E+02  0.7816164E-02  0.1186339E+00
        -11   -1    0    0    0    0  0.00000000000E+00  0.00000000000E+00  0.45593999997E+02  0.45594000000E+02  0.51100000000E-03 0. -1.
         11   -1    0    0    0    0 -0.00000000000E+00 -0.00000000000E+00 -0.45593999997E+02  0.45594000000E+02  0.51100000000E-03 0.  1.
    9900012    2    1    2    0    0 -0.79742711537E+00  0.21730233044E+00 -0.84261490837E+00  0.90007699110E+02  0.89999959938E+02 0.  0.
        -12    1    1    2    0    0  0.79742711537E+00 -0.21730233044E+00  0.84261490837E+00  0.11803008900E+01  0.00000000000E+00 0.  1.
         11    1    3    3    0    0  0.16587543585E+01  0.22642257226E+01 -0.95006334689E+01  0.99065746207E+01  0.51100000000E-03 0. -1.
        -11    1    3    3    0    0  0.10404701542E+02  0.27934709825E+02 -0.20636109417E+02  0.36255411173E+02  0.51100000000E-03 0.  1.
         12    1    3    3    0    0 -0.12860883016E+02 -0.29981633217E+02  0.29294127977E+02  0.43845713317E+02  0.00000000000E+00 0. -1.
</event>
<event>
 7    1  0.1978681E-015  0.9000777E+02  0.7816164E-02  0.1186339E+00
        -11   -1    0    0    0    0  0.00000000000E+00  0.00000000000E+00  0.45593999997E+02  0.45594000000E+02  0.51100000000E-03 0. -1.
         11   -1    0    0    0    0 -0.00000000000E+00 -0.00000000000E+00 -0.45593999997E+02  0.45594000000E+02  0.51100000000E-03 0.  1.
    9900012    2    1    2    0    0 -0.74346531673E+00 -0.44486548906E-01  0.91553941842E+00  0.90007774531E+02  0.90000036355E+02 0.  0.
        -12    1    1    2    0    0  0.74346531673E+00  0.44486548906E-01 -0.91553941842E+00  0.11802254687E+01  0.00000000000E+00 0.  1.
         11    1    3    3    0    0  0.58539540014E+01 -0.36271661631E+01 -0.29416266523E+01  0.74885432127E+01  0.51100000000E-03 0. -1.
        -11    1    3    3    0    0  0.31390081261E+02 -0.16703000270E+02  0.14103829896E+02  0.38252391267E+02  0.51100000000E-03 0.  1.
         12    1    3    3    0    0 -0.37987500580E+02  0.20285679884E+02 -0.10246663826E+02  0.44266840052E+02  0.00000000000E+00 0. -1.
</event>
<event>
 7    1  0.1978681E-015  0.9000775E+02  0.7816164E-02  0.1186339E+00
        -11   -1    0    0    0    0  0.00000000000E+00  0.00000000000E+00  0.45593999997E+02  0.45594000000E+02  0.51100000000E-03 0.  1.
         11   -1    0    0    0    0 -0.00000000000E+00 -0.00000000000E+00 -0.45593999997E+02  0.45594000000E+02  0.51100000000E-03 0. -1.
    9900012    2    1    2    0    0  0.43174287429E+00 -0.35156394398E+00 -0.10406701794E+01  0.90007748527E+02  0.90000010008E+02 0.  0.
        -12    1    1    2    0    0 -0.43174287429E+00  0.35156394398E+00  0.10406701794E+01  0.11802514726E+01  0.00000000000E+00 0.  1.
         11    1    3    3    0    0 -0.89904123878E+01 -0.20123002845E+01 -0.14493455378E+01  0.93261712447E+01  0.51100000000E-03 0. -1.
        -11    1    3    3    0    0  0.17659732781E+02 -0.69965684865E+01  0.37324330739E+02  0.41879873423E+02  0.51100000000E-03 0.  1.
         12    1    3    3    0    0 -0.82375775189E+01  0.86573048271E+01 -0.36915655381E+02  0.38801703860E+02  0.00000000000E+00 0. -1.
</event>
<event>
 7    1  0.1978681E-015  0.9000766E+02  0.7816164E-02  0.1186339E+00
        -11   -1    0    0    0    0  0.00000000000E+00  0.00000000000E+00  0.45593999997E+02  0.45594000000E+02  0.51100000000E-03 0. -1.
         11   -1    0    0    0    0 -0.00000000000E+00 -0.00000000000E+00 -0.45593999997E+02  0.45594000000E+02  0.51100000000E-03 0.  1.
    9900012    2    1    2    0    0  0.67652723446E+00 -0.78549372963E+00  0.56436073169E+00  0.90007664228E+02  0.89999924596E+02 0.  0.
        -12    1    1    2    0    0 -0.67652723446E+00  0.78549372963E+00 -0.56436073169E+00  0.11803357716E+01  0.00000000000E+00 0.  1.
         11    1    3    3    0    0 -0.29783457933E+02 -0.25136803228E+01  0.13375732144E+02  0.32745735079E+02  0.51100000000E-03 0. -1.
        -11    1    3    3    0    0 -0.11828619885E+02  0.44512964663E+01  0.10355078406E+01  0.12680795139E+02  0.51100000000E-03 0.  1.
        -12    1    3    3    0    0  0.42288605052E+02 -0.27231098731E+01 -0.13846879253E+02  0.44581134011E+02  0.00000000000E+00 0.  1.
</event>
<event>
 7    1  0.1978681E-015  0.9000662E+02  0.7816164E-02  0.1186341E+00
        -11   -1    0    0    0    0  0.00000000000E+00  0.00000000000E+00  0.45593999997E+02  0.45594000000E+02  0.51100000000E-03 0.  1.
         11   -1    0    0    0    0 -0.00000000000E+00 -0.00000000000E+00 -0.45593999997E+02  0.45594000000E+02  0.51100000000E-03 0. -1.
    9900012    2    1    2    0    0  0.24399252364E-01 -0.11267129957E+01  0.35436587282E+00  0.90006622554E+02  0.89998869165E+02 0.  0.
        -12    1    1    2    0    0 -0.24399252364E-01  0.11267129957E+01 -0.35436587282E+00  0.11813774461E+01  0.00000000000E+00 0.  1.
         11    1    3    3    0    0 -0.16927909622E+02  0.16234009526E+02 -0.18959763475E+02  0.30159075264E+02  0.51100000000E-03 0. -1.
        -11    1    3    3    0    0 -0.12641797884E+01  0.17348477754E+02  0.47627929715E+01  0.18034745024E+02  0.51100000000E-03 0.  1.
         12    1    3    3    0    0  0.18216488663E+02 -0.34709200277E+02  0.14551336376E+02  0.41812802266E+02  0.00000000000E+00 0. -1.
</event>
<event>
 7    1  0.1978681E-015  0.9000778E+02  0.7816164E-02  0.1186339E+00
        -11   -1    0    0    0    0  0.00000000000E+00  0.00000000000E+00  0.45593999997E+02  0.45594000000E+02  0.51100000000E-03 0.  1.
         11   -1    0    0    0    0 -0.00000000000E+00 -0.00000000000E+00 -0.45593999997E+02  0.45594000000E+02  0.51100000000E-03 0. -1.
    9900012    2    1    2    0    0  0.80123172732E+00 -0.24870641543E+00 -0.83011542018E+00  0.90007780202E+02  0.90000042100E+02 0.  0.
        -12    1    1    2    0    0 -0.80123172732E+00  0.24870641543E+00  0.83011542018E+00  0.11802197985E+01  0.00000000000E+00 0.  1.
         11    1    3    3    0    0 -0.14062589932E+02 -0.24785891642E+02 -0.28916103683E+02  0.40598496432E+02  0.51100000000E-03 0. -1.
        -11    1    3    3    0    0 -0.45458011631E+01 -0.10000076951E+01 -0.23299452195E+01  0.52050906420E+01  0.51100000000E-03 0.  1.
        -12    1    3    3    0    0  0.19409622822E+02  0.25537192922E+02  0.30415933483E+02  0.44204193127E+02  0.00000000000E+00 0.  1.
</event>
<event>
 7    1  0.1978681E-015  0.9000745E+02  0.7816164E-02  0.1186340E+00
        -11   -1    0    0    0    0  0.00000000000E+00  0.00000000000E+00  0.45593999997E+02  0.45594000000E+02  0.51100000000E-03 0. -1.
         11   -1    0    0    0    0 -0.00000000000E+00 -0.00000000000E+00 -0.45593999997E+02  0.45594000000E+02  0.51100000000E-03 0.  1.
    9900012    2    1    2    0    0  0.69977702157E+00 -0.11665319981E+00  0.94361379838E+00  0.90007448074E+02  0.89999705588E+02 0.  0.
        -12    1    1    2    0    0 -0.69977702157E+00  0.11665319981E+00 -0.94361379838E+00  0.11805519258E+01  0.00000000000E+00 0.  1.
         11    1    3    3    0    0  0.88928752504E+01 -0.54946501650E+01 -0.27758621733E+01  0.10815721045E+02  0.51100000000E-03 0. -1.
        -11    1    3    3    0    0  0.67982398368E+01 -0.18567551583E+01 -0.35706775542E+02  0.36395568747E+02  0.51100000000E-03 0.  1.
         12    1    3    3    0    0 -0.14991338066E+02  0.72347521235E+01  0.39426251513E+02  0.42796158282E+02  0.00000000000E+00 0. -1.
</event>
<event>
 7    1  0.1978681E-015  0.9000779E+02  0.7816164E-02  0.1186339E+00
        -11   -1    0    0    0    0  0.00000000000E+00  0.00000000000E+00  0.45593999997E+02  0.45594000000E+02  0.51100000000E-03 0. -1.
         11   -1    0    0    0    0 -0.00000000000E+00 -0.00000000000E+00 -0.45593999997E+02  0.45594000000E+02  0.51100000000E-03 0.  1.
    9900012    2    1    2    0    0 -0.53790875725E+00  0.71398848088E+00 -0.77056552209E+00  0.90007789593E+02  0.90000051615E+02 0.  0.
        -12    1    1    2    0    0  0.53790875725E+00 -0.71398848088E+00  0.77056552209E+00  0.11802104074E+01  0.00000000000E+00 0.  1.
         11    1    3    3    0    0  0.31191652108E+02 -0.20363535625E+01  0.23790389810E+02  0.39281656592E+02  0.51100000000E-03 0. -1.
        -11    1    3    3    0    0 -0.14856300418E+01  0.65469088314E+01  0.49179233731E+01  0.83219638567E+01  0.51100000000E-03 0.  1.
        -12    1    3    3    0    0 -0.30243930823E+02 -0.37965667880E+01 -0.29478878705E+02  0.42404169144E+02  0.00000000000E+00 0.  1.
</event>
<event>
 7    1  0.1978681E-015  0.9000771E+02  0.7816164E-02  0.1186339E+00
        -11   -1    0    0    0    0  0.00000000000E+00  0.00000000000E+00  0.45593999997E+02  0.45594000000E+02  0.51100000000E-03 0. -1.
         11   -1    0    0    0    0 -0.00000000000E+00 -0.00000000000E+00 -0.45593999997E+02  0.45594000000E+02  0.51100000000E-03 0.  1.
    9900012    2    1    2    0    0 -0.55961940874E+00  0.81934107794E+00 -0.63921653051E+00  0.90007707046E+02  0.89999967979E+02 0.  0.
        -12    1    1    2    0    0  0.55961940874E+00 -0.81934107794E+00  0.63921653051E+00  0.11802929541E+01  0.00000000000E+00 0.  1.
         11    1    3    3    0    0 -0.76455400813E+01  0.62892367446E+00  0.32701135969E+01  0.83392728293E+01  0.51100000000E-03 0. -1.
        -11    1    3    3    0    0 -0.23801723373E+02 -0.26577072857E+02  0.12244214335E+02  0.37719804110E+02  0.51100000000E-03 0.  1.
         12    1    3    3    0    0  0.30887644045E+02  0.26767490261E+02 -0.16153544463E+02  0.43948630106E+02  0.00000000000E+00 0. -1.
</event>
<event>
 7    1  0.1978681E-015  0.9000766E+02  0.7816164E-02  0.1186339E+00
        -11   -1    0    0    0    0  0.00000000000E+00  0.00000000000E+00  0.45593999997E+02  0.45594000000E+02  0.51100000000E-03 0.  1.
         11   -1    0    0    0    0 -0.00000000000E+00 -0.00000000000E+00 -0.45593999997E+02  0.45594000000E+02  0.51100000000E-03 0. -1.
    9900012    2    1    2    0    0 -0.23892791544E+00  0.19904290916E-01 -0.11557308602E+01  0.90007662527E+02  0.89999922872E+02 0.  0.
        -12    1    1    2    0    0  0.23892791544E+00 -0.19904290916E-01  0.11557308602E+01  0.11803374732E+01  0.00000000000E+00 0.  1.
         11    1    3    3    0    0  0.12472949454E+01 -0.46298443777E+01  0.88136887308E+01  0.10033559336E+02  0.51100000000E-03 0. -1.
        -11    1    3    3    0    0  0.87153252743E+01  0.19774888860E+02  0.29455499736E+02  0.36532582567E+02  0.51100000000E-03 0.  1.
         12    1    3    3    0    0 -0.10201548135E+02 -0.15125140191E+02 -0.39424919327E+02  0.43441520624E+02  0.00000000000E+00 0. -1.
</event>
<event>
 7    1  0.1978681E-015  0.9000791E+02  0.7816164E-02  0.1186339E+00
        -11   -1    0    0    0    0  0.00000000000E+00  0.00000000000E+00  0.45593999997E+02  0.45594000000E+02  0.51100000000E-03 0.  1.
         11   -1    0    0    0    0 -0.00000000000E+00 -0.00000000000E+00 -0.45593999997E+02  0.45594000000E+02  0.51100000000E-03 0. -1.
    9900012    2    1    2    0    0 -0.44039686825E+00  0.99613211646E+00  0.45430350717E+00  0.90007906668E+02  0.90000170236E+02 0.  0.
        -12    1    1    2    0    0  0.44039686825E+00 -0.99613211646E+00 -0.45430350717E+00  0.11800933318E+01  0.00000000000E+00 0.  1.
         11    1    3    3    0    0  0.87850244504E+01  0.43422274344E+01 -0.31362643235E+01  0.10289205404E+02  0.51100000000E-03 0. -1.
        -11    1    3    3    0    0 -0.31018859653E+02  0.15848238434E+02 -0.21842932863E+02  0.41115082779E+02  0.51100000000E-03 0.  1.
         12    1    3    3    0    0  0.21793438334E+02 -0.19194333752E+02  0.25433500694E+02  0.38603618485E+02  0.00000000000E+00 0. -1.
</event>
<event>
 7    1  0.1978681E-015  0.9000783E+02  0.7816164E-02  0.1186339E+00
        -11   -1    0    0    0    0  0.00000000000E+00  0.00000000000E+00  0.45593999997E+02  0.45594000000E+02  0.51100000000E-03 0.  1.
         11   -1    0    0    0    0 -0.00000000000E+00 -0.00000000000E+00 -0.45593999997E+02  0.45594000000E+02  0.51100000000E-03 0. -1.
    9900012    2    1    2    0    0  0.45928342195E+00 -0.10342841294E+01  0.33482402494E+00  0.90007833889E+02  0.90000096496E+02 0.  0.
        -12    1    1    2    0    0 -0.45928342195E+00  0.10342841294E+01 -0.33482402494E+00  0.11801661111E+01  0.00000000000E+00 0.  1.
         11    1    3    3    0    0  0.26329195099E+00 -0.19888189376E+02 -0.29418802439E+02  0.35511622556E+02  0.51100000000E-03 0. -1.
        -11    1    3    3    0    0 -0.59226148503E+01 -0.19284155278E+01 -0.84976660438E+01  0.10535961350E+02  0.51100000000E-03 0.  1.
        -12    1    3    3    0    0  0.61186063213E+01  0.20782320774E+02  0.38251292508E+02  0.43960249984E+02  0.00000000000E+00 0.  1.
</event>
<event>
 7    1  0.1978681E-015  0.9000864E+02  0.7816164E-02  0.1186337E+00
        -11   -1    0    0    0    0  0.00000000000E+00  0.00000000000E+00  0.45593999997E+02  0.45594000000E+02  0.51100000000E-03 0.  1.
         11   -1    0    0    0    0 -0.00000000000E+00 -0.00000000000E+00 -0.45593999997E+02  0.45594000000E+02  0.51100000000E-03 0. -1.
    9900012    2    1    2    0    0 -0.32680439925E-03  0.41949496880E+00 -0.11022288122E+01  0.90008642340E+02  0.90000915614E+02 0.  0.
        -12    1    1    2    0    0  0.32680439925E-03 -0.41949496880E+00  0.11022288122E+01  0.11793576599E+01  0.00000000000E+00 0.  1.
         11    1    3    3    0    0 -0.96454587683E+01 -0.10911310376E+01  0.22243111768E+01  0.99585642672E+01  0.51100000000E-03 0. -1.
        -11    1    3    3    0    0  0.14933260994E+02 -0.41641179217E+01  0.36404973182E+02  0.39568475262E+02  0.51100000000E-03 0.  1.
         12    1    3    3    0    0 -0.52881290297E+01  0.56747439281E+01 -0.39731513171E+02  0.40481602811E+02  0.00000000000E+00 0. -1.
</event>
<event>
 7    1  0.1978681E-015  0.9000773E+02  0.7816164E-02  0.1186339E+00
        -11   -1    0    0    0    0  0.00000000000E+00  0.00000000000E+00  0.45593999997E+02  0.45594000000E+02  0.51100000000E-03 0.  1.
         11   -1    0    0    0    0 -0.00000000000E+00 -0.00000000000E+00 -0.45593999997E+02  0.45594000000E+02  0.51100000000E-03 0. -1.
    9900012    2    1    2    0    0  0.77680765193E+00 -0.50409015540E+00 -0.73177984053E+00  0.90007729375E+02  0.89999990603E+02 0.  0.
        -12    1    1    2    0    0 -0.77680765193E+00  0.50409015540E+00  0.73177984053E+00  0.11802706248E+01  0.00000000000E+00 0.  1.
         11    1    3    3    0    0  0.88867882969E+01 -0.65292213437E+01 -0.18711868278E+01  0.11185127536E+02  0.51100000000E-03 0. -1.
        -11    1    3    3    0    0 -0.29208808934E+02 -0.17138345896E+02 -0.21547343663E+02  0.40139325338E+02  0.51100000000E-03 0.  1.
         12    1    3    3    0    0  0.21098828289E+02  0.23163477084E+02  0.22686750650E+02  0.38683276501E+02  0.00000000000E+00 0. -1.
</event>
<event>
 7    1  0.1978681E-015  0.9000772E+02  0.7816164E-02  0.1186339E+00
        -11   -1    0    0    0    0  0.00000000000E+00  0.00000000000E+00  0.45593999997E+02  0.45594000000E+02  0.51100000000E-03 0. -1.
         11   -1    0    0    0    0 -0.00000000000E+00 -0.00000000000E+00 -0.45593999997E+02  0.45594000000E+02  0.51100000000E-03 0.  1.
    9900012    2    1    2    0    0  0.11234386663E+00  0.10287794818E+01  0.56749069275E+00  0.90007722892E+02  0.89999984034E+02 0.  0.
        -12    1    1    2    0    0 -0.11234386663E+00 -0.10287794818E+01 -0.56749069275E+00  0.11802771085E+01  0.00000000000E+00 0.  1.
         11    1    3    3    0    0  0.10612761955E+02 -0.21214556402E+02  0.29768569178E+02  0.38063838887E+02  0.51100000000E-03 0. -1.
        -11    1    3    3    0    0  0.45545346888E+00 -0.90356886065E+01 -0.25065552624E+01  0.93879670856E+01  0.51100000000E-03 0.  1.
        -12    1    3    3    0    0 -0.10955871557E+02  0.31279024491E+02 -0.26694523223E+02  0.42555916918E+02  0.00000000000E+00 0.  1.
</event>
<event>
 7    1  0.1978681E-015  0.9000768E+02  0.7816164E-02  0.1186339E+00
        -11   -1    0    0    0    0  0.00000000000E+00  0.00000000000E+00  0.45593999997E+02  0.45594000000E+02  0.51100000000E-03 0.  1.
         11   -1    0    0    0    0 -0.00000000000E+00 -0.00000000000E+00 -0.45593999997E+02  0.45594000000E+02  0.51100000000E-03 0. -1.
    9900012    2    1    2    0    0  0.18278939170E+00 -0.69277881883E+00  0.93797988530E+00  0.90007677706E+02  0.89999938251E+02 0.  0.
        -12    1    1    2    0    0 -0.18278939170E+00  0.69277881883E+00 -0.93797988530E+00  0.11803222944E+01  0.00000000000E+00 0.  1.
         11    1    3    3    0    0 -0.23517016364E+02 -0.13658388568E+02 -0.29361265307E+02  0.40021063674E+02  0.51100000000E-03 0. -1.
        -11    1    3    3    0    0 -0.88123858694E+00  0.67396683102E+01 -0.35694578180E+01  0.76772872653E+01  0.51100000000E-03 0.  1.
        -12    1    3    3    0    0  0.24581044343E+02  0.62259414394E+01  0.33868703010E+02  0.42309326766E+02  0.00000000000E+00 0.  1.
</event>
<event>
 7    1  0.1978681E-015  0.9000771E+02  0.7816164E-02  0.1186339E+00
        -11   -1    0    0    0    0  0.00000000000E+00  0.00000000000E+00  0.45593999997E+02  0.45594000000E+02  0.51100000000E-03 0. -1.
         11   -1    0    0    0    0 -0.00000000000E+00 -0.00000000000E+00 -0.45593999997E+02  0.45594000000E+02  0.51100000000E-03 0.  1.
    9900012    2    1    2    0    0 -0.87979254714E+00 -0.48052238768E+00  0.62300999635E+00  0.90007712685E+02  0.89999973692E+02 0.  0.
        -12    1    1    2    0    0  0.87979254714E+00  0.48052238768E+00 -0.62300999635E+00  0.11802873153E+01  0.00000000000E+00 0.  1.
         11    1    3    3    0    0 -0.87734760368E+01  0.18157989108E+01 -0.21894471583E+01  0.92230519121E+01  0.51100000000E-03 0. -1.
        -11    1    3    3    0    0 -0.34838052710E+02 -0.61277335804E+01 -0.85721394273E+01  0.36396711529E+02  0.51100000000E-03 0.  1.
         12    1    3    3    0    0  0.42731736200E+02  0.38314122819E+01  0.11384596582E+02  0.44387949244E+02  0.00000000000E+00 0. -1.
</event>
<event>
 7    1  0.1978681E-015  0.9000782E+02  0.7816164E-02  0.1186339E+00
        -11   -1    0    0    0    0  0.00000000000E+00  0.00000000000E+00  0.45593999997E+02  0.45594000000E+02  0.51100000000E-03 0.  1.
         11   -1    0    0    0    0 -0.00000000000E+00 -0.00000000000E+00 -0.45593999997E+02  0.45594000000E+02  0.51100000000E-03 0. -1.
    9900012    2    1    2    0    0  0.18801915716E+00 -0.46388041646E+00 -0.10687753382E+01  0.90007823332E+02  0.90000085800E+02 0.  0.
        -12    1    1    2    0    0 -0.18801915716E+00  0.46388041646E+00  0.10687753382E+01  0.11801766681E+01  0.00000000000E+00 0.  1.
         11    1    3    3    0    0  0.71448836116E+01 -0.83114243767E+00  0.77022637486E+01  0.10538739331E+02  0.51100000000E-03 0. -1.
        -11    1    3    3    0    0  0.34135932209E+02 -0.11008534325E+02  0.33757175171E+00  0.35868700154E+02  0.51100000000E-03 0.  1.
         12    1    3    3    0    0 -0.41092796664E+02  0.11375796346E+02 -0.91086108386E+01  0.43600383847E+02  0.00000000000E+00 0. -1.
</event>
<event>
 7    1  0.1978681E-015  0.9000769E+02  0.7816164E-02  0.1186339E+00
        -11   -1    0    0    0    0  0.00000000000E+00  0.00000000000E+00  0.45593999997E+02  0.45594000000E+02  0.51100000000E-03 0.  1.
         11   -1    0    0    0    0 -0.00000000000E+00 -0.00000000000E+00 -0.45593999997E+02  0.45594000000E+02  0.51100000000E-03 0. -1.
    9900012    2    1    2    0    0 -0.10026534635E+01  0.31715373370E+00  0.53595039686E+00  0.90007685090E+02  0.89999945733E+02 0.  0.
        -12    1    1    2    0    0  0.10026534635E+01 -0.31715373370E+00 -0.53595039686E+00  0.11803149099E+01  0.00000000000E+00 0.  1.
         11    1    3    3    0    0 -0.13590724587E+02  0.75112019102E+01 -0.25680906383E+02  0.30010579832E+02  0.51100000000E-03 0. -1.
        -11    1    3    3    0    0  0.83921831010E+01  0.18202410194E+02 -0.38568767566E+01  0.20411564679E+02  0.51100000000E-03 0.  1.
        -12    1    3    3    0    0  0.41958880228E+01 -0.25396458371E+02  0.30073733537E+02  0.39585540579E+02  0.00000000000E+00 0.  1.
</event>
<event>
 7    1  0.1978681E-015  0.9000667E+02  0.7816164E-02  0.1186341E+00
        -11   -1    0    0    0    0  0.00000000000E+00  0.00000000000E+00  0.45593999997E+02  0.45594000000E+02  0.51100000000E-03 0. -1.
         11   -1    0    0    0    0 -0.00000000000E+00 -0.00000000000E+00 -0.45593999997E+02  0.45594000000E+02  0.51100000000E-03 0.  1.
    9900012    2    1    2    0    0  0.91021737601E+00 -0.74386891011E+00 -0.11710005630E+00  0.90006666410E+02  0.89998913600E+02 0.  0.
        -12    1    1    2    0    0 -0.91021737601E+00  0.74386891011E+00  0.11710005630E+00  0.11813335897E+01  0.00000000000E+00 0.  1.
         11    1    3    3    0    0  0.91328511421E+01  0.11038381871E+01 -0.38181904788E+00  0.92072370869E+01  0.51100000000E-03 0. -1.
        -11    1    3    3    0    0 -0.70160980653E+01 -0.37730217539E+02 -0.15754570832E+02  0.41484954502E+02  0.51100000000E-03 0.  1.
         12    1    3    3    0    0 -0.12065357008E+01  0.35882510442E+02  0.16019289824E+02  0.39314474822E+02  0.00000000000E+00 0. -1.
</event>
<event>
 7    1  0.1978681E-015  0.9000767E+02  0.7816164E-02  0.1186339E+00
        -11   -1    0    0    0    0  0.00000000000E+00  0.00000000000E+00  0.45593999997E+02  0.45594000000E+02  0.51100000000E-03 0. -1.
         11   -1    0    0    0    0 -0.00000000000E+00 -0.00000000000E+00 -0.45593999997E+02  0.45594000000E+02  0.51100000000E-03 0.  1.
    9900012    2    1    2    0    0 -0.91374839920E+00 -0.22401551713E+00  0.71278924873E+00  0.90007666317E+02  0.89999926713E+02 0.  0.
        -12    1    1    2    0    0  0.91374839920E+00  0.22401551713E+00 -0.71278924873E+00  0.11803336825E+01  0.00000000000E+00 0.  1.
         11    1    3    3    0    0  0.17804044821E+02  0.54467735639E+01  0.21255697749E+02  0.28256964474E+02  0.51100000000E-03 0. -1.
        -11    1    3    3    0    0  0.13472004945E+02 -0.11682989128E+02  0.68049390288E+01  0.19086496474E+02  0.51100000000E-03 0.  1.
        -12    1    3    3    0    0 -0.32189798165E+02  0.60122000469E+01 -0.27347847529E+02  0.42664205369E+02  0.00000000000E+00 0.  1.
</event>
<event>
 7    1  0.1978681E-015  0.9000766E+02  0.7816164E-02  0.1186339E+00
        -11   -1    0    0    0    0  0.00000000000E+00  0.00000000000E+00  0.45593999997E+02  0.45594000000E+02  0.51100000000E-03 0.  1.
         11   -1    0    0    0    0 -0.00000000000E+00 -0.00000000000E+00 -0.45593999997E+02  0.45594000000E+02  0.51100000000E-03 0. -1.
    9900012    2    1    2    0    0 -0.81292445998E+00 -0.85042448246E+00  0.95615016684E-01  0.90007656741E+02  0.89999917010E+02 0.  0.
        -12    1    1    2    0    0  0.81292445998E+00  0.85042448246E+00 -0.95615016684E-01  0.11803432591E+01  0.00000000000E+00 0.  1.
         11    1    3    3    0    0  0.42591331009E+02 -0.58769549154E+00  0.10023639480E+02  0.43758887232E+02  0.51100000000E-03 0. -1.
        -11    1    3    3    0    0 -0.91406269550E+01  0.46644878427E+01 -0.92142270660E-01  0.10262407048E+02  0.51100000000E-03 0.  1.
        -12    1    3    3    0    0 -0.34263628514E+02 -0.49272168336E+01 -0.98358821928E+01  0.35986362461E+02  0.00000000000E+00 0.  1.
</event>
<event>
 7    1  0.1978681E-015  0.9000777E+02  0.7816164E-02  0.1186339E+00
        -11   -1    0    0    0    0  0.00000000000E+00  0.00000000000E+00  0.45593999997E+02  0.45594000000E+02  0.51100000000E-03 0. -1.
         11   -1    0    0    0    0 -0.00000000000E+00 -0.00000000000E+00 -0.45593999997E+02  0.45594000000E+02  0.51100000000E-03 0.  1.
    9900012    2    1    2    0    0  0.10974735437E+01  0.40202368011E+00  0.16395872954E+00  0.90007765412E+02  0.90000027115E+02 0.  0.
        -12    1    1    2    0    0 -0.10974735437E+01 -0.40202368011E+00 -0.16395872954E+00  0.11802345883E+01  0.00000000000E+00 0.  1.
         11    1    3    3    0    0 -0.10834095833E+02  0.18154525145E+01 -0.33980503850E+01  0.11498706320E+02  0.51100000000E-03 0. -1.
        -11    1    3    3    0    0 -0.15735130996E+02 -0.29664418671E+02 -0.12498540963E+02  0.35829954075E+02  0.51100000000E-03 0.  1.
         12    1    3    3    0    0  0.27666700373E+02  0.28250989837E+02  0.16060550078E+02  0.42679105017E+02  0.00000000000E+00 0. -1.
</event>
<event>
 7    1  0.1978681E-015  0.9000783E+02  0.7816164E-02  0.1186339E+00
        -11   -1    0    0    0    0  0.00000000000E+00  0.00000000000E+00  0.45593999997E+02  0.45594000000E+02  0.51100000000E-03 0. -1.
         11   -1    0    0    0    0 -0.00000000000E+00 -0.00000000000E+00 -0.45593999997E+02  0.45594000000E+02  0.51100000000E-03 0.  1.
    9900012    2    1    2    0    0 -0.48217888873E+00  0.66490486746E+00  0.84746746691E+00  0.90007832185E+02  0.90000094770E+02 0.  0.
        -12    1    1    2    0    0  0.48217888873E+00 -0.66490486746E+00 -0.84746746691E+00  0.11801678147E+01  0.00000000000E+00 0.  1.
         11    1    3    3    0    0  0.90161332655E+01 -0.60498667147E+01 -0.58034295699E+01  0.12311431329E+02  0.51100000000E-03 0. -1.
        -11    1    3    3    0    0  0.11505967648E+02  0.35771580457E+02 -0.88992165704E+01  0.38615920496E+02  0.51100000000E-03 0.  1.
         12    1    3    3    0    0 -0.21004279802E+02 -0.29056808875E+02  0.15550113607E+02  0.39080480361E+02  0.00000000000E+00 0. -1.
</event>
<event>
 7    1  0.1978681E-015  0.9000771E+02  0.7816164E-02  0.1186339E+00
        -11   -1    0    0    0    0  0.00000000000E+00  0.00000000000E+00  0.45593999997E+02  0.45594000000E+02  0.51100000000E-03 0.  1.
         11   -1    0    0    0    0 -0.00000000000E+00 -0.00000000000E+00 -0.45593999997E+02  0.45594000000E+02  0.51100000000E-03 0. -1.
    9900012    2    1    2    0    0 -0.15071067149E+00  0.12605273197E+00 -0.11638197407E+01  0.90007712159E+02  0.89999973160E+02 0.  0.
        -12    1    1    2    0    0  0.15071067149E+00 -0.12605273197E+00  0.11638197407E+01  0.11802878405E+01  0.00000000000E+00 0.  1.
         11    1    3    3    0    0  0.70047816242E+00 -0.18480957029E+01 -0.10998462260E+02  0.11174627498E+02  0.51100000000E-03 0. -1.
        -11    1    3    3    0    0  0.66652461300E+01 -0.35224855391E+02  0.17845610410E+02  0.40045995486E+02  0.51100000000E-03 0.  1.
         12    1    3    3    0    0 -0.75164349639E+01  0.37199003825E+02 -0.80109678909E+01  0.38787089176E+02  0.00000000000E+00 0. -1.
</event>
<event>
 7    1  0.1978681E-015  0.9000768E+02  0.7816164E-02  0.1186339E+00
        -11   -1    0    0    0    0  0.00000000000E+00  0.00000000000E+00  0.45593999997E+02  0.45594000000E+02  0.51100000000E-03 0.  1.
         11   -1    0    0    0    0 -0.00000000000E+00 -0.00000000000E+00 -0.45593999997E+02  0.45594000000E+02  0.51100000000E-03 0. -1.
    9900012    2    1    2    0    0  0.10353275170E+01  0.45342765472E+00 -0.34007311127E+00  0.90007682489E+02  0.89999943098E+02 0.  0.
        -12    1    1    2    0    0 -0.10353275170E+01 -0.45342765472E+00  0.34007311127E+00  0.11803175109E+01  0.00000000000E+00 0.  1.
         11    1    3    3    0    0  0.70354091415E+01  0.57672467440E+01  0.38238317667E+01  0.98681207145E+01  0.51100000000E-03 0. -1.
        -11    1    3    3    0    0 -0.31984586821E+02  0.73695121936E+01  0.23306922980E+02  0.40255883585E+02  0.51100000000E-03 0.  1.
         12    1    3    3    0    0  0.25984505197E+02 -0.12683331283E+02 -0.27470827858E+02  0.39883678190E+02  0.00000000000E+00 0. -1.
</event>
<event>
 7    1  0.1978681E-015  0.9000771E+02  0.7816164E-02  0.1186339E+00
        -11   -1    0    0    0    0  0.00000000000E+00  0.00000000000E+00  0.45593999997E+02  0.45594000000E+02  0.51100000000E-03 0. -1.
         11   -1    0    0    0    0 -0.00000000000E+00 -0.00000000000E+00 -0.45593999997E+02  0.45594000000E+02  0.51100000000E-03 0.  1.
    9900012    2    1    2    0    0  0.99209834950E+00  0.63423479238E+00 -0.81131553784E-01  0.90007705445E+02  0.89999966357E+02 0.  0.
        -12    1    1    2    0    0 -0.99209834950E+00 -0.63423479238E+00  0.81131553784E-01  0.11802945547E+01  0.00000000000E+00 0.  1.
         11    1    3    3    0    0  0.70635730977E+00  0.88100590987E+01 -0.61657208890E+01  0.10776464927E+02  0.51100000000E-03 0. -1.
        -11    1    3    3    0    0 -0.15415157980E+01 -0.27259192439E+02 -0.28638413784E+02  0.39567645719E+02  0.51100000000E-03 0.  1.
         12    1    3    3    0    0  0.18272568377E+01  0.19083368133E+02  0.34723003119E+02  0.39663594800E+02  0.00000000000E+00 0. -1.
</event>
<event>
 7    1  0.1978681E-015  0.9000772E+02  0.7816164E-02  0.1186339E+00
        -11   -1    0    0    0    0  0.00000000000E+00  0.00000000000E+00  0.45593999997E+02  0.45594000000E+02  0.51100000000E-03 0.  1.
         11   -1    0    0    0    0 -0.00000000000E+00 -0.00000000000E+00 -0.45593999997E+02  0.45594000000E+02  0.51100000000E-03 0. -1.
    9900012    2    1    2    0    0 -0.37126338384E+00  0.46748340727E+00 -0.10181753036E+01  0.90007721141E+02  0.89999982260E+02 0.  0.
        -12    1    1    2    0    0  0.37126338384E+00 -0.46748340727E+00  0.10181753036E+01  0.11802788590E+01  0.00000000000E+00 0.  1.
         11    1    3    3    0    0  0.24170696806E+02 -0.57201155507E+01  0.30111741008E+02  0.39034078096E+02  0.51100000000E-03 0. -1.
        -11    1    3    3    0    0 -0.73970673924E+01  0.46031267397E+00  0.60925620082E+01  0.95941547752E+01  0.51100000000E-03 0.  1.
        -12    1    3    3    0    0 -0.17144892798E+02  0.57272862840E+01 -0.37222478320E+02  0.41379488270E+02  0.00000000000E+00 0.  1.
</event>
<event>
 7    1  0.1978681E-015  0.9000773E+02  0.7816164E-02  0.1186339E+00
        -11   -1    0    0    0    0  0.00000000000E+00  0.00000000000E+00  0.45593999997E+02  0.45594000000E+02  0.51100000000E-03 0.  1.
         11   -1    0    0    0    0 -0.00000000000E+00 -0.00000000000E+00 -0.45593999997E+02  0.45594000000E+02  0.51100000000E-03 0. -1.
    9900012    2    1    2    0    0  0.54580560213E+00  0.63764750486E+00 -0.82978147645E+00  0.90007730796E+02  0.89999992042E+02 0.  0.
        -12    1    1    2    0    0 -0.54580560213E+00 -0.63764750486E+00  0.82978147645E+00  0.11802692042E+01  0.00000000000E+00 0.  1.
         11    1    3    3    0    0  0.22035272530E+02  0.24590150537E+02 -0.18583257668E+02  0.37888866501E+02  0.51100000000E-03 0. -1.
        -11    1    3    3    0    0 -0.40450427632E+01  0.67613028982E+01 -0.56954799437E+01  0.97219380726E+01  0.51100000000E-03 0.  1.
        -12    1    3    3    0    0 -0.17444424165E+02 -0.30713805931E+02  0.23448956136E+02  0.42396926222E+02  0.00000000000E+00 0.  1.
</event>
<event>
 7    1  0.1978681E-015  0.9000774E+02  0.7816164E-02  0.1186339E+00
        -11   -1    0    0    0    0  0.00000000000E+00  0.00000000000E+00  0.45593999997E+02  0.45594000000E+02  0.51100000000E-03 0.  1.
         11   -1    0    0    0    0 -0.00000000000E+00 -0.00000000000E+00 -0.45593999997E+02  0.45594000000E+02  0.51100000000E-03 0. -1.
    9900012    2    1    2    0    0  0.62289665548E+00  0.10010416369E+01  0.54167005878E-01  0.90007737882E+02  0.89999999222E+02 0.  0.
        -12    1    1    2    0    0 -0.62289665548E+00 -0.10010416369E+01 -0.54167005878E-01  0.11802621178E+01  0.00000000000E+00 0.  1.
         11    1    3    3    0    0  0.22527167105E+02  0.29991630015E+02 -0.27699523441E+01  0.37611750358E+02  0.51100000000E-03 0. -1.
        -11    1    3    3    0    0  0.18022734306E+01  0.14977421727E+01  0.12389047198E+02  0.12608723642E+02  0.51100000000E-03 0.  1.
        -12    1    3    3    0    0 -0.23706543880E+02 -0.30488330551E+02 -0.95649278482E+01  0.39787263883E+02  0.00000000000E+00 0.  1.
</event>
<event>
 7    1  0.1978681E-015  0.9000774E+02  0.7816164E-02  0.1186339E+00
        -11   -1    0    0    0    0  0.00000000000E+00  0.00000000000E+00  0.45593999997E+02  0.45594000000E+02  0.51100000000E-03 0.  1.
         11   -1    0    0    0    0 -0.00000000000E+00 -0.00000000000E+00 -0.45593999997E+02  0.45594000000E+02  0.51100000000E-03 0. -1.
    9900012    2    1    2    0    0  0.50866647607E+00 -0.83597930332E+00 -0.65984827085E+00  0.90007744638E+02  0.90000006067E+02 0.  0.
        -12    1    1    2    0    0 -0.50866647607E+00  0.83597930332E+00  0.65984827085E+00  0.11802553622E+01  0.00000000000E+00 0.  1.
         11    1    3    3    0    0 -0.25834775238E+02  0.26303059241E+02  0.23753044487E+01  0.36944940229E+02  0.51100000000E-03 0. -1.
        -11    1    3    3    0    0 -0.80210843148E+01 -0.13543619057E+01  0.47218150374E+01  0.94057231123E+01  0.51100000000E-03 0.  1.
        -12    1    3    3    0    0  0.34364526029E+02 -0.25784676639E+02 -0.77569677570E+01  0.43657081296E+02  0.00000000000E+00 0.  1.
</event>
<event>
 7    1  0.1978681E-015  0.9000778E+02  0.7816164E-02  0.1186339E+00
        -11   -1    0    0    0    0  0.00000000000E+00  0.00000000000E+00  0.45593999997E+02  0.45594000000E+02  0.51100000000E-03 0. -1.
         11   -1    0    0    0    0 -0.00000000000E+00 -0.00000000000E+00 -0.45593999997E+02  0.45594000000E+02  0.51100000000E-03 0.  1.
    9900012    2    1    2    0    0  0.69952853216E+00 -0.94844770506E+00 -0.63529738216E-01  0.90007775765E+02  0.90000037605E+02 0.  0.
        -12    1    1    2    0    0 -0.69952853216E+00  0.94844770506E+00  0.63529738216E-01  0.11802242347E+01  0.00000000000E+00 0.  1.
         11    1    3    3    0    0 -0.74824271145E+01  0.28263832555E+01  0.17663208502E+00  0.80003973018E+01  0.51100000000E-03 0. -1.
        -11    1    3    3    0    0 -0.30712430781E+02 -0.19439452646E+02 -0.12308138173E+02  0.38374939599E+02  0.51100000000E-03 0.  1.
         12    1    3    3    0    0  0.38894386428E+02  0.15664621685E+02  0.12067976350E+02  0.43632438865E+02  0.00000000000E+00 0. -1.
</event>
<event>
 7    1  0.1978681E-015  0.9000646E+02  0.7816164E-02  0.1186342E+00
        -11   -1    0    0    0    0  0.00000000000E+00  0.00000000000E+00  0.45593999997E+02  0.45594000000E+02  0.51100000000E-03 0.  1.
         11   -1    0    0    0    0 -0.00000000000E+00 -0.00000000000E+00 -0.45593999997E+02  0.45594000000E+02  0.51100000000E-03 0. -1.
    9900012    2    1    2    0    0  0.47524162339E+00 -0.10811296455E+01 -0.36648200053E-01  0.90006459056E+02  0.89998703507E+02 0.  0.
        -12    1    1    2    0    0 -0.47524162339E+00  0.10811296455E+01  0.36648200053E-01  0.11815409436E+01  0.00000000000E+00 0.  1.
         11    1    3    3    0    0  0.43003991550E+01 -0.56197396922E+01  0.69379109902E+01  0.99100714563E+01  0.51100000000E-03 0. -1.
        -11    1    3    3    0    0 -0.37932540054E+02  0.18554730329E+01  0.13404468495E+02  0.40274063006E+02  0.51100000000E-03 0.  1.
         12    1    3    3    0    0  0.34107382522E+02  0.26831370138E+01 -0.20379027685E+02  0.39822324595E+02  0.00000000000E+00 0. -1.
</event>
<event>
 7    1  0.1978681E-015  0.9000769E+02  0.7816164E-02  0.1186339E+00
        -11   -1    0    0    0    0  0.00000000000E+00  0.00000000000E+00  0.45593999997E+02  0.45594000000E+02  0.51100000000E-03 0. -1.
         11   -1    0    0    0    0 -0.00000000000E+00 -0.00000000000E+00 -0.45593999997E+02  0.45594000000E+02  0.51100000000E-03 0.  1.
    9900012    2    1    2    0    0  0.25026855241E+00 -0.11534735735E+01 -0.22645790192E-02  0.90007686160E+02  0.89999946817E+02 0.  0.
        -12    1    1    2    0    0 -0.25026855241E+00  0.11534735735E+01  0.22645790192E-02  0.11803138403E+01  0.00000000000E+00 0.  1.
         11    1    3    3    0    0 -0.83515133221E+01  0.32109570128E+02  0.18299649433E+02  0.37889964874E+02  0.51100000000E-03 0. -1.
        -11    1    3    3    0    0 -0.64823120644E+01  0.45849710044E+01 -0.43406276987E+01  0.90489434682E+01  0.51100000000E-03 0.  1.
        -12    1    3    3    0    0  0.15084093939E+02 -0.37848014706E+02 -0.13961286313E+02  0.43068777817E+02  0.00000000000E+00 0.  1.
</event>
<event>
 7    1  0.1978681E-015  0.9000779E+02  0.7816164E-02  0.1186339E+00
        -11   -1    0    0    0    0  0.00000000000E+00  0.00000000000E+00  0.45593999997E+02  0.45594000000E+02  0.51100000000E-03 0. -1.
         11   -1    0    0    0    0 -0.00000000000E+00 -0.00000000000E+00 -0.45593999997E+02  0.45594000000E+02  0.51100000000E-03 0.  1.
    9900012    2    1    2    0    0 -0.11757689117E+01  0.77640279722E-01 -0.66602432576E-01  0.90007789667E+02  0.90000051690E+02 0.  0.
        -12    1    1    2    0    0  0.11757689117E+01 -0.77640279722E-01  0.66602432576E-01  0.11802103332E+01  0.00000000000E+00 0.  1.
         11    1    3    3    0    0 -0.83829112359E+01  0.28400533813E+01 -0.67389793114E+01  0.11124430162E+02  0.51100000000E-03 0. -1.
        -11    1    3    3    0    0 -0.19207991160E+02  0.18283301164E+02 -0.22096234130E+02  0.34517670675E+02  0.51100000000E-03 0.  1.
         12    1    3    3    0    0  0.26415133484E+02 -0.21045714266E+02  0.28768611009E+02  0.44365688830E+02  0.00000000000E+00 0. -1.
</event>
<event>
 7    1  0.1978681E-015  0.9000776E+02  0.7816164E-02  0.1186339E+00
        -11   -1    0    0    0    0  0.00000000000E+00  0.00000000000E+00  0.45593999997E+02  0.45594000000E+02  0.51100000000E-03 0. -1.
         11   -1    0    0    0    0 -0.00000000000E+00 -0.00000000000E+00 -0.45593999997E+02  0.45594000000E+02  0.51100000000E-03 0.  1.
    9900012    2    1    2    0    0  0.81939041154E-01 -0.72536274465E+00  0.92741317838E+00  0.90007762600E+02  0.90000024266E+02 0.  0.
        -12    1    1    2    0    0 -0.81939041154E-01  0.72536274465E+00 -0.92741317838E+00  0.11802374004E+01  0.00000000000E+00 0.  1.
         11    1    3    3    0    0  0.15675131193E+02 -0.29314186218E+02  0.19416641939E+02  0.38497236732E+02  0.51100000000E-03 0. -1.
        -11    1    3    3    0    0  0.86393703917E+01  0.26740066385E+01  0.35807534399E+01  0.97268097404E+01  0.51100000000E-03 0.  1.
        -12    1    3    3    0    0 -0.24232562544E+02  0.25914816835E+02 -0.22069982201E+02  0.41783716127E+02  0.00000000000E+00 0.  1.
</event>
<event>
 7    1  0.1978681E-015  0.9000775E+02  0.7816164E-02  0.1186339E+00
        -11   -1    0    0    0    0  0.00000000000E+00  0.00000000000E+00  0.45593999997E+02  0.45594000000E+02  0.51100000000E-03 0. -1.
         11   -1    0    0    0    0 -0.00000000000E+00 -0.00000000000E+00 -0.45593999997E+02  0.45594000000E+02  0.51100000000E-03 0.  1.
    9900012    2    1    2    0    0  0.47771506487E+00  0.10407004728E+01 -0.28585150815E+00  0.90007754160E+02  0.90000015715E+02 0.  0.
        -12    1    1    2    0    0 -0.47771506487E+00 -0.10407004728E+01  0.28585150815E+00  0.11802458396E+01  0.00000000000E+00 0.  1.
         11    1    3    3    0    0  0.65144126907E+00  0.97020172702E+01  0.12621336056E+01  0.98054319812E+01  0.51100000000E-03 0. -1.
        -11    1    3    3    0    0 -0.15540030959E+02 -0.19585063633E+02  0.32667249669E+02  0.41136558934E+02  0.51100000000E-03 0.  1.
         12    1    3    3    0    0  0.15366304755E+02  0.10923746835E+02 -0.34215234783E+02  0.39065763246E+02  0.00000000000E+00 0. -1.
</event>
<event>
 7    1  0.1978681E-015  0.9000773E+02  0.7816164E-02  0.1186339E+00
        -11   -1    0    0    0    0  0.00000000000E+00  0.00000000000E+00  0.45593999997E+02  0.45594000000E+02  0.51100000000E-03 0.  1.
         11   -1    0    0    0    0 -0.00000000000E+00 -0.00000000000E+00 -0.45593999997E+02  0.45594000000E+02  0.51100000000E-03 0. -1.
    9900012    2    1    2    0    0  0.11152705946E+01  0.37385829777E+00 -0.97107918320E-01  0.90007733728E+02  0.89999995013E+02 0.  0.
        -12    1    1    2    0    0 -0.11152705946E+01 -0.37385829777E+00  0.97107918320E-01  0.11802662724E+01  0.00000000000E+00 0.  1.
         11    1    3    3    0    0  0.40700695715E+01 -0.20797889848E+02 -0.35714793652E+02  0.41529076251E+02  0.51100000000E-03 0. -1.
        -11    1    3    3    0    0 -0.58887825831E+01  0.77694642124E+01 -0.58197589564E+00  0.97663212451E+01  0.51100000000E-03 0.  1.
        -12    1    3    3    0    0  0.29339836062E+01  0.13402283933E+02  0.36199661629E+02  0.38712336231E+02  0.00000000000E+00 0.  1.
</event>
<event>
 7    1  0.1978681E-015  0.9000784E+02  0.7816164E-02  0.1186339E+00
        -11   -1    0    0    0    0  0.00000000000E+00  0.00000000000E+00  0.45593999997E+02  0.45594000000E+02  0.51100000000E-03 0.  1.
         11   -1    0    0    0    0 -0.00000000000E+00 -0.00000000000E+00 -0.45593999997E+02  0.45594000000E+02  0.51100000000E-03 0. -1.
    9900012    2    1    2    0    0  0.99845138304E-01 -0.81544184859E+00 -0.84726672577E+00  0.90007840958E+02  0.90000103658E+02 0.  0.
        -12    1    1    2    0    0 -0.99845138304E-01  0.81544184859E+00  0.84726672577E+00  0.11801590421E+01  0.00000000000E+00 0.  1.
         11    1    3    3    0    0 -0.27010887428E+02 -0.46648131203E+01  0.24170001401E+02  0.36545006350E+02  0.51100000000E-03 0. -1.
        -11    1    3    3    0    0 -0.26239953782E+01  0.97116019481E+00  0.82733210772E+01  0.87336330227E+01  0.51100000000E-03 0.  1.
        -12    1    3    3    0    0  0.29734727945E+02  0.28782110769E+01 -0.33290589204E+02  0.44729201586E+02  0.00000000000E+00 0.  1.
</event>
<event>
 7    1  0.1978681E-015  0.9000773E+02  0.7816164E-02  0.1186339E+00
        -11   -1    0    0    0    0  0.00000000000E+00  0.00000000000E+00  0.45593999997E+02  0.45594000000E+02  0.51100000000E-03 0. -1.
         11   -1    0    0    0    0 -0.00000000000E+00 -0.00000000000E+00 -0.45593999997E+02  0.45594000000E+02  0.51100000000E-03 0.  1.
    9900012    2    1    2    0    0 -0.14063854104E+00  0.11682820440E+01 -0.91533724563E-01  0.90007728609E+02  0.89999989827E+02 0.  0.
        -12    1    1    2    0    0  0.14063854104E+00 -0.11682820440E+01  0.91533724563E-01  0.11802713909E+01  0.00000000000E+00 0.  1.
         11    1    3    3    0    0  0.35118401362E+02  0.51782131425E+01  0.10070870472E+02  0.36899030311E+02  0.51100000000E-03 0. -1.
        -11    1    3    3    0    0  0.77274539107E+01 -0.10091221907E+01 -0.59644530821E+01  0.98135912064E+01  0.51100000000E-03 0.  1.
        -12    1    3    3    0    0 -0.42986493814E+02 -0.30008089078E+01 -0.41979511141E+01  0.43295107092E+02  0.00000000000E+00 0.  1.
</event>
<event>
 7    1  0.1978681E-015  0.9000773E+02  0.7816164E-02  0.1186339E+00
        -11   -1    0    0    0    0  0.00000000000E+00  0.00000000000E+00  0.45593999997E+02  0.45594000000E+02  0.51100000000E-03 0. -1.
         11   -1    0    0    0    0 -0.00000000000E+00 -0.00000000000E+00 -0.45593999997E+02  0.45594000000E+02  0.51100000000E-03 0.  1.
    9900012    2    1    2    0    0  0.31716008843E-02 -0.47779717270E+00  0.10792290741E+01  0.90007730712E+02  0.89999991958E+02 0.  0.
        -12    1    1    2    0    0 -0.31716008843E-02  0.47779717270E+00 -0.10792290741E+01  0.11802692877E+01  0.00000000000E+00 0.  1.
         11    1    3    3    0    0 -0.24530008283E+01 -0.88762399351E+01 -0.52407672737E+01  0.10595777004E+02  0.51100000000E-03 0. -1.
        -11    1    3    3    0    0  0.12045938032E+02 -0.28575762135E+02 -0.16284958155E+02  0.35026827819E+02  0.51100000000E-03 0.  1.
         12    1    3    3    0    0 -0.95897656024E+01  0.36974204898E+02  0.22604954503E+02  0.44385125889E+02  0.00000000000E+00 0. -1.
</event>
<event>
 7    1  0.1978681E-015  0.9000750E+02  0.7816164E-02  0.1186340E+00
        -11   -1    0    0    0    0  0.00000000000E+00  0.00000000000E+00  0.45593999997E+02  0.45594000000E+02  0.51100000000E-03 0. -1.
         11   -1    0    0    0    0 -0.00000000000E+00 -0.00000000000E+00 -0.45593999997E+02  0.45594000000E+02  0.51100000000E-03 0.  1.
    9900012    2    1    2    0    0  0.86414981512E+00 -0.22226443913E+00  0.77293429253E+00  0.90007498495E+02  0.89999756674E+02 0.  0.
        -12    1    1    2    0    0 -0.86414981512E+00  0.22226443913E+00 -0.77293429253E+00  0.11805015055E+01  0.00000000000E+00 0.  1.
         11    1    3    3    0    0  0.51426112870E+01 -0.15165163558E+02 -0.56157984190E+01  0.16969555938E+02  0.51100000000E-03 0. -1.
        -11    1    3    3    0    0 -0.30068666449E+02 -0.12297669518E+02  0.12919987877E+02  0.34961170812E+02  0.51100000000E-03 0.  1.
         12    1    3    3    0    0  0.25790204977E+02  0.27240568637E+02 -0.65312551657E+01  0.38076771744E+02  0.00000000000E+00 0. -1.
</event>
<event>
 7    1  0.1978681E-015  0.9000769E+02  0.7816164E-02  0.1186339E+00
        -11   -1    0    0    0    0  0.00000000000E+00  0.00000000000E+00  0.45593999997E+02  0.45594000000E+02  0.51100000000E-03 0. -1.
         11   -1    0    0    0    0 -0.00000000000E+00 -0.00000000000E+00 -0.45593999997E+02  0.45594000000E+02  0.51100000000E-03 0.  1.
    9900012    2    1    2    0    0  0.10397431974E+01 -0.27593678432E+00 -0.48572143710E+00  0.90007689727E+02  0.89999950432E+02 0.  0.
        -12    1    1    2    0    0 -0.10397431974E+01  0.27593678432E+00  0.48572143710E+00  0.11803102728E+01  0.00000000000E+00 0.  1.
         11    1    3    3    0    0  0.27165808664E+02 -0.21302632915E+02 -0.24936979437E+02  0.42586808676E+02  0.51100000000E-03 0. -1.
        -11    1    3    3    0    0 -0.72769694514E+01 -0.46427818925E+01  0.35828137796E+01  0.93459222626E+01  0.51100000000E-03 0.  1.
        -12    1    3    3    0    0 -0.18849096015E+02  0.25669478024E+02  0.20868444220E+02  0.38074958789E+02  0.00000000000E+00 0.  1.
</event>
<event>
 7    1  0.1978681E-015  0.9000778E+02  0.7816164E-02  0.1186339E+00
        -11   -1    0    0    0    0  0.00000000000E+00  0.00000000000E+00  0.45593999997E+02  0.45594000000E+02  0.51100000000E-03 0.  1.
         11   -1    0    0    0    0 -0.00000000000E+00 -0.00000000000E+00 -0.45593999997E+02  0.45594000000E+02  0.51100000000E-03 0. -1.
    9900012    2    1    2    0    0 -0.82136039899E+00  0.38994446133E+00 -0.75248013784E+00  0.90007781399E+02  0.90000043314E+02 0.  0.
        -12    1    1    2    0    0  0.82136039899E+00 -0.38994446133E+00  0.75248013784E+00  0.11802186008E+01  0.00000000000E+00 0.  1.
         11    1    3    3    0    0 -0.16406749978E-03 -0.44420634724E+01  0.10020302017E+02  0.10960765516E+02  0.51100000000E-03 0. -1.
        -11    1    3    3    0    0  0.21829119819E+02 -0.19679219497E+02  0.18437959662E+02  0.34694963739E+02  0.51100000000E-03 0.  1.
         12    1    3    3    0    0 -0.22650316150E+02  0.24511227431E+02 -0.29210741817E+02  0.44352052144E+02  0.00000000000E+00 0. -1.
</event>
<event>
 7    1  0.2298380E-015  0.9000785E+02  0.7816164E-02  0.1186339E+00
        -11   -1    0    0    0    0  0.00000000000E+00  0.00000000000E+00  0.45593999997E+02  0.45594000000E+02  0.51100000000E-03 0. -1.
         11   -1    0    0    0    0 -0.00000000000E+00 -0.00000000000E+00 -0.45593999997E+02  0.45594000000E+02  0.51100000000E-03 0.  1.
    9900012    2    1    2    0    0 -0.34102032249E+00 -0.88863552169E-01  0.11263052369E+01  0.90007849553E+02  0.90000112367E+02 0.  0.
        -12    1    1    2    0    0  0.34102032249E+00  0.88863552169E-01 -0.11263052369E+01  0.11801504472E+01  0.00000000000E+00 0.  1.
         11    1    3    3    0    0 -0.73865809922E+01 -0.48867041807E+01 -0.46176620487E+01  0.99882060232E+01  0.51100000000E-03 0. -1.
        -11    1    3    3    0    0  0.20774548540E+02  0.74789593427E+01 -0.32503923210E+02  0.39294041841E+02  0.51100000000E-03 0.  1.
         12    1    3    3    0    0 -0.13728987870E+02 -0.26811187141E+01  0.38247890496E+02  0.40725601689E+02  0.00000000000E+00 0. -1.
</event>
<event>
 7    1  0.1978681E-015  0.9000769E+02  0.7816164E-02  0.1186339E+00
        -11   -1    0    0    0    0  0.00000000000E+00  0.00000000000E+00  0.45593999997E+02  0.45594000000E+02  0.51100000000E-03 0.  1.
         11   -1    0    0    0    0 -0.00000000000E+00 -0.00000000000E+00 -0.45593999997E+02  0.45594000000E+02  0.51100000000E-03 0. -1.
    9900012    2    1    2    0    0  0.84892139605E+00  0.27643033760E+00  0.77203649221E+00  0.90007694271E+02  0.89999955036E+02 0.  0.
        -12    1    1    2    0    0 -0.84892139605E+00 -0.27643033760E+00 -0.77203649221E+00  0.11803057288E+01  0.00000000000E+00 0.  1.
         11    1    3    3    0    0  0.74721602552E+01  0.38167012058E+02 -0.43586039859E+01  0.39135040786E+02  0.51100000000E-03 0. -1.
        -11    1    3    3    0    0  0.34332694140E+01  0.39784108769E+01 -0.43025569228E+01  0.67916925953E+01  0.51100000000E-03 0.  1.
        -12    1    3    3    0    0 -0.10056508273E+02 -0.41868992598E+02  0.94331974009E+01  0.44080960890E+02  0.00000000000E+00 0.  1.
</event>
<event>
 7    1  0.1978681E-015  0.9000775E+02  0.7816164E-02  0.1186339E+00
        -11   -1    0    0    0    0  0.00000000000E+00  0.00000000000E+00  0.45593999997E+02  0.45594000000E+02  0.51100000000E-03 0.  1.
         11   -1    0    0    0    0 -0.00000000000E+00 -0.00000000000E+00 -0.45593999997E+02  0.45594000000E+02  0.51100000000E-03 0. -1.
    9900012    2    1    2    0    0  0.10991954925E+01  0.56442732311E-01 -0.42612021774E+00  0.90007747928E+02  0.90000009401E+02 0.  0.
        -12    1    1    2    0    0 -0.10991954925E+01 -0.56442732311E-01  0.42612021774E+00  0.11802520717E+01  0.00000000000E+00 0.  1.
         11    1    3    3    0    0  0.43438482483E+00 -0.72646557712E+01  0.14328270856E+01  0.74173382940E+01  0.51100000000E-03 0. -1.
        -11    1    3    3    0    0  0.76549976017E+01  0.12881868527E+02  0.38469345209E+02  0.41284767725E+02  0.51100000000E-03 0.  1.
         12    1    3    3    0    0 -0.69901869341E+01 -0.55607700236E+01 -0.40328292512E+02  0.41305641910E+02  0.00000000000E+00 0. -1.
</event>
<event>
 7    1  0.1978681E-015  0.9000828E+02  0.7816164E-02  0.1186338E+00
        -11   -1    0    0    0    0  0.00000000000E+00  0.00000000000E+00  0.45593999997E+02  0.45594000000E+02  0.51100000000E-03 0. -1.
         11   -1    0    0    0    0 -0.00000000000E+00 -0.00000000000E+00 -0.45593999997E+02  0.45594000000E+02  0.51100000000E-03 0.  1.
    9900012    2    1    2    0    0  0.55008213740E-01 -0.11769247817E+01 -0.59747318049E-01  0.90008276478E+02  0.90000544926E+02 0.  0.
        -12    1    1    2    0    0 -0.55008213740E-01  0.11769247817E+01  0.59747318049E-01  0.11797235216E+01  0.00000000000E+00 0.  1.
         11    1    3    3    0    0  0.62176317945E-01 -0.61426877030E+01  0.74886243780E+01  0.96858646205E+01  0.51100000000E-03 0. -1.
        -11    1    3    3    0    0 -0.29123648276E+02 -0.18274930504E+02 -0.21488469148E+02  0.40545212793E+02  0.51100000000E-03 0.  1.
         12    1    3    3    0    0  0.29116480172E+02  0.23240693425E+02  0.13940097452E+02  0.39777199065E+02  0.00000000000E+00 0. -1.
</event>
<event>
 7    1  0.1978681E-015  0.9000799E+02  0.7816164E-02  0.1186339E+00
        -11   -1    0    0    0    0  0.00000000000E+00  0.00000000000E+00  0.45593999997E+02  0.45594000000E+02  0.51100000000E-03 0. -1.
         11   -1    0    0    0    0 -0.00000000000E+00 -0.00000000000E+00 -0.45593999997E+02  0.45594000000E+02  0.51100000000E-03 0.  1.
    9900012    2    1    2    0    0  0.11554035706E+01 -0.10298640280E+00 -0.21644570740E+00  0.90007994765E+02  0.90000259496E+02 0.  0.
        -12    1    1    2    0    0 -0.11554035706E+01  0.10298640280E+00  0.21644570740E+00  0.11800052349E+01  0.00000000000E+00 0.  1.
         11    1    3    3    0    0  0.45760990716E+01  0.39132621718E+01 -0.90783477993E+01  0.10893608335E+02  0.51100000000E-03 0. -1.
        -11    1    3    3    0    0 -0.38703727414E+02  0.34342836865E+01 -0.74033388539E+01  0.39554800550E+02  0.51100000000E-03 0.  1.
         12    1    3    3    0    0  0.35283031913E+02 -0.74505322612E+01  0.16265240946E+02  0.39559585879E+02  0.00000000000E+00 0. -1.
</event>
<event>
 7    1  0.1978681E-015  0.9000770E+02  0.7816164E-02  0.1186339E+00
        -11   -1    0    0    0    0  0.00000000000E+00  0.00000000000E+00  0.45593999997E+02  0.45594000000E+02  0.51100000000E-03 0.  1.
         11   -1    0    0    0    0 -0.00000000000E+00 -0.00000000000E+00 -0.45593999997E+02  0.45594000000E+02  0.51100000000E-03 0. -1.
    9900012    2    1    2    0    0 -0.25052207117E+00  0.93919248706E+00 -0.66953191372E+00  0.90007696302E+02  0.89999957093E+02 0.  0.
        -12    1    1    2    0    0  0.25052207117E+00 -0.93919248706E+00  0.66953191372E+00  0.11803036979E+01  0.00000000000E+00 0.  1.
         11    1    3    3    0    0  0.36931853919E+02  0.11146702921E+02  0.16028434652E+02  0.41774651854E+02  0.51100000000E-03 0. -1.
        -11    1    3    3    0    0 -0.25870847962E+01 -0.79950777522E+01  0.22870228455E+01  0.87088891234E+01  0.51100000000E-03 0.  1.
        -12    1    3    3    0    0 -0.34595291194E+02 -0.22124326815E+01 -0.18984989412E+02  0.39524155324E+02  0.00000000000E+00 0.  1.
</event>
<event>
 7    1  0.1978681E-015  0.9000763E+02  0.7816164E-02  0.1186339E+00
        -11   -1    0    0    0    0  0.00000000000E+00  0.00000000000E+00  0.45593999997E+02  0.45594000000E+02  0.51100000000E-03 0.  1.
         11   -1    0    0    0    0 -0.00000000000E+00 -0.00000000000E+00 -0.45593999997E+02  0.45594000000E+02  0.51100000000E-03 0. -1.
    9900012    2    1    2    0    0 -0.11480702686E+01 -0.26426273620E+00  0.73227181220E-01  0.90007634652E+02  0.89999894629E+02 0.  0.
        -12    1    1    2    0    0  0.11480702686E+01  0.26426273620E+00 -0.73227181220E-01  0.11803653483E+01  0.00000000000E+00 0.  1.
         11    1    3    3    0    0 -0.22215053899E+02 -0.68683078885E+01 -0.35592006116E+02  0.42514387830E+02  0.51100000000E-03 0. -1.
        -11    1    3    3    0    0  0.64443471687E+01  0.68308852268E+01  0.49544041027E+00  0.94040451335E+01  0.51100000000E-03 0.  1.
        -12    1    3    3    0    0  0.14622636462E+02 -0.22684007450E+00  0.35169792887E+02  0.38089201688E+02  0.00000000000E+00 0.  1.
</event>
<event>
 7    1  0.1978681E-015  0.9000767E+02  0.7816164E-02  0.1186339E+00
        -11   -1    0    0    0    0  0.00000000000E+00  0.00000000000E+00  0.45593999997E+02  0.45594000000E+02  0.51100000000E-03 0.  1.
         11   -1    0    0    0    0 -0.00000000000E+00 -0.00000000000E+00 -0.45593999997E+02  0.45594000000E+02  0.51100000000E-03 0. -1.
    9900012    2    1    2    0    0 -0.11324521888E+01 -0.31096406030E+00  0.11846180792E+00  0.90007669620E+02  0.89999930059E+02 0.  0.
        -12    1    1    2    0    0  0.11324521888E+01  0.31096406030E+00 -0.11846180792E+00  0.11803303803E+01  0.00000000000E+00 0.  1.
         11    1    3    3    0    0 -0.16523307684E+01  0.96296850093E+01  0.53373276984E+01  0.11133197994E+02  0.51100000000E-03 0. -1.
        -11    1    3    3    0    0 -0.38287685906E+02 -0.13078038136E+01 -0.75623886570E+01  0.39049288922E+02  0.51100000000E-03 0.  1.
         12    1    3    3    0    0  0.38807564485E+02 -0.86328452560E+01  0.23435227666E+01  0.39825182704E+02  0.00000000000E+00 0. -1.
</event>
<event>
 7    1  0.1978681E-015  0.9000825E+02  0.7816164E-02  0.1186338E+00
        -11   -1    0    0    0    0  0.00000000000E+00  0.00000000000E+00  0.45593999997E+02  0.45594000000E+02  0.51100000000E-03 0. -1.
         11   -1    0    0    0    0 -0.00000000000E+00 -0.00000000000E+00 -0.45593999997E+02  0.45594000000E+02  0.51100000000E-03 0.  1.
    9900012    2    1    2    0    0  0.62082117130E+00  0.30321119636E+00  0.95627673985E+00  0.90008245297E+02  0.90000513333E+02 0.  0.
        -12    1    1    2    0    0 -0.62082117130E+00 -0.30321119636E+00 -0.95627673985E+00  0.11797547031E+01  0.00000000000E+00 0.  1.
         11    1    3    3    0    0  0.76489136948E+01 -0.99646905562E+00  0.66322357508E+01  0.10172776544E+02  0.51100000000E-03 0. -1.
        -11    1    3    3    0    0 -0.45406096570E+00 -0.16106464608E+02 -0.38705721351E+02  0.41925615548E+02  0.51100000000E-03 0.  1.
         12    1    3    3    0    0 -0.65740315578E+01  0.17406144860E+02  0.33029762340E+02  0.37909853205E+02  0.00000000000E+00 0. -1.
</event>
<event>
 7    1  0.1978681E-015  0.9000772E+02  0.7816164E-02  0.1186339E+00
        -11   -1    0    0    0    0  0.00000000000E+00  0.00000000000E+00  0.45593999997E+02  0.45594000000E+02  0.51100000000E-03 0.  1.
         11   -1    0    0    0    0 -0.00000000000E+00 -0.00000000000E+00 -0.45593999997E+02  0.45594000000E+02  0.51100000000E-03 0. -1.
    9900012    2    1    2    0    0 -0.61285240161E+00 -0.97936332193E+00 -0.24149872146E+00  0.90007719434E+02  0.89999980530E+02 0.  0.
        -12    1    1    2    0    0  0.61285240161E+00  0.97936332193E+00  0.24149872146E+00  0.11802805662E+01  0.00000000000E+00 0.  1.
         11    1    3    3    0    0 -0.39396176104E+02 -0.11549203613E+02 -0.13132212840E+01  0.41075142680E+02  0.51100000000E-03 0. -1.
        -11    1    3    3    0    0 -0.17725152364E+00  0.84409277675E+01 -0.44191824719E+01  0.95294204262E+01  0.51100000000E-03 0.  1.
        -12    1    3    3    0    0  0.38960575226E+02  0.21289125237E+01  0.54909050345E+01  0.39403156328E+02  0.00000000000E+00 0.  1.
</event>
<event>
 7    1  0.1978681E-015  0.9000776E+02  0.7816164E-02  0.1186339E+00
        -11   -1    0    0    0    0  0.00000000000E+00  0.00000000000E+00  0.45593999997E+02  0.45594000000E+02  0.51100000000E-03 0. -1.
         11   -1    0    0    0    0 -0.00000000000E+00 -0.00000000000E+00 -0.45593999997E+02  0.45594000000E+02  0.51100000000E-03 0.  1.
    9900012    2    1    2    0    0 -0.79172325335E+00  0.87094464759E+00 -0.87170899151E-01  0.90007758900E+02  0.90000020517E+02 0.  0.
        -12    1    1    2    0    0  0.79172325335E+00 -0.87094464759E+00  0.87170899151E-01  0.11802411003E+01  0.00000000000E+00 0.  1.
         11    1    3    3    0    0  0.11499603980E+02  0.15358588690E+02 -0.11000905936E+02  0.22116669503E+02  0.51100000000E-03 0. -1.
        -11    1    3    3    0    0  0.73538626406E+01  0.45488498377E+01 -0.22852904689E+02  0.24434127436E+02  0.51100000000E-03 0.  1.
         12    1    3    3    0    0 -0.19645189874E+02 -0.19036493880E+02  0.33766639726E+02  0.43456961960E+02  0.00000000000E+00 0. -1.
</event>
<event>
 7    1  0.1978681E-015  0.9000766E+02  0.7816164E-02  0.1186339E+00
        -11   -1    0    0    0    0  0.00000000000E+00  0.00000000000E+00  0.45593999997E+02  0.45594000000E+02  0.51100000000E-03 0.  1.
         11   -1    0    0    0    0 -0.00000000000E+00 -0.00000000000E+00 -0.45593999997E+02  0.45594000000E+02  0.51100000000E-03 0. -1.
    9900012    2    1    2    0    0  0.77868877423E+00 -0.47741284024E+00 -0.74761777166E+00  0.90007656169E+02  0.89999916430E+02 0.  0.
        -12    1    1    2    0    0 -0.77868877423E+00  0.47741284024E+00  0.74761777166E+00  0.11803438311E+01  0.00000000000E+00 0.  1.
         11    1    3    3    0    0 -0.21946891320E+02 -0.29466418479E+02 -0.51367531704E+01  0.37098815210E+02  0.51100000000E-03 0. -1.
        -11    1    3    3    0    0 -0.51316694211E+01 -0.28114860017E+01  0.86230521956E+01  0.10420917139E+02  0.51100000000E-03 0.  1.
        -12    1    3    3    0    0  0.27857249515E+02  0.31800491641E+02 -0.42339167969E+01  0.42487923820E+02  0.00000000000E+00 0.  1.
</event>
<event>
 7    1  0.1978681E-015  0.9000774E+02  0.7816164E-02  0.1186339E+00
        -11   -1    0    0    0    0  0.00000000000E+00  0.00000000000E+00  0.45593999997E+02  0.45594000000E+02  0.51100000000E-03 0. -1.
         11   -1    0    0    0    0 -0.00000000000E+00 -0.00000000000E+00 -0.45593999997E+02  0.45594000000E+02  0.51100000000E-03 0.  1.
    9900012    2    1    2    0    0  0.26111298689E+00  0.72440434983E+00  0.89446710386E+00  0.90007740260E+02  0.90000001631E+02 0.  0.
        -12    1    1    2    0    0 -0.26111298689E+00 -0.72440434983E+00 -0.89446710386E+00  0.11802597400E+01  0.00000000000E+00 0.  1.
         11    1    3    3    0    0  0.16274785128E+02  0.35578137969E+02 -0.90729680111E+01  0.40162062710E+02  0.51100000000E-03 0. -1.
        -11    1    3    3    0    0  0.54346008725E+01 -0.48925020626E+01 -0.62197428841E+01  0.95998262944E+01  0.51100000000E-03 0.  1.
        -12    1    3    3    0    0 -0.21448273014E+02 -0.29961231557E+02  0.16187177999E+02  0.40245851255E+02  0.00000000000E+00 0.  1.
</event>
<event>
 7    1  0.1978681E-015  0.9000779E+02  0.7816164E-02  0.1186339E+00
        -11   -1    0    0    0    0  0.00000000000E+00  0.00000000000E+00  0.45593999997E+02  0.45594000000E+02  0.51100000000E-03 0.  1.
         11   -1    0    0    0    0 -0.00000000000E+00 -0.00000000000E+00 -0.45593999997E+02  0.45594000000E+02  0.51100000000E-03 0. -1.
    9900012    2    1    2    0    0 -0.11021006679E+01 -0.19725757525E+00  0.37332129631E+00  0.90007785942E+02  0.90000047916E+02 0.  0.
        -12    1    1    2    0    0  0.11021006679E+01  0.19725757525E+00 -0.37332129631E+00  0.11802140584E+01  0.00000000000E+00 0.  1.
         11    1    3    3    0    0  0.47490704735E+01 -0.43090081386E+00  0.66597482552E+01  0.81909457914E+01  0.51100000000E-03 0. -1.
        -11    1    3    3    0    0  0.35346699789E+02 -0.53666799284E+01 -0.15923869002E+02  0.39137706163E+02  0.51100000000E-03 0.  1.
         12    1    3    3    0    0 -0.41197870930E+02  0.56003231670E+01  0.96374420435E+01  0.42679133987E+02  0.00000000000E+00 0. -1.
</event>
<event>
 7    1  0.1978681E-015  0.9000776E+02  0.7816164E-02  0.1186339E+00
        -11   -1    0    0    0    0  0.00000000000E+00  0.00000000000E+00  0.45593999997E+02  0.45594000000E+02  0.51100000000E-03 0. -1.
         11   -1    0    0    0    0 -0.00000000000E+00 -0.00000000000E+00 -0.45593999997E+02  0.45594000000E+02  0.51100000000E-03 0.  1.
    9900012    2    1    2    0    0  0.77028074062E+00  0.39520382295E+00  0.80215704432E+00  0.90007756633E+02  0.90000018221E+02 0.  0.
        -12    1    1    2    0    0 -0.77028074062E+00 -0.39520382295E+00 -0.80215704432E+00  0.11802433668E+01  0.00000000000E+00 0.  1.
         11    1    3    3    0    0  0.11278145005E+02 -0.22330601928E+01 -0.10821558116E+02  0.15788895873E+02  0.51100000000E-03 0. -1.
        -11    1    3    3    0    0  0.15474814843E+02 -0.21619494410E+02  0.24758544963E+02  0.36329849737E+02  0.51100000000E-03 0.  1.
         12    1    3    3    0    0 -0.25982679108E+02  0.24247758426E+02 -0.13134829803E+02  0.37889011023E+02  0.00000000000E+00 0. -1.
</event>
<event>
 7    1  0.1978681E-015  0.9000773E+02  0.7816164E-02  0.1186339E+00
        -11   -1    0    0    0    0  0.00000000000E+00  0.00000000000E+00  0.45593999997E+02  0.45594000000E+02  0.51100000000E-03 0.  1.
         11   -1    0    0    0    0 -0.00000000000E+00 -0.00000000000E+00 -0.45593999997E+02  0.45594000000E+02  0.51100000000E-03 0. -1.
    9900012    2    1    2    0    0  0.17454932801E-01 -0.92579282827E+00 -0.73188185924E+00  0.90007725417E+02  0.89999986592E+02 0.  0.
        -12    1    1    2    0    0 -0.17454932801E-01  0.92579282827E+00  0.73188185924E+00  0.11802745831E+01  0.00000000000E+00 0.  1.
         11    1    3    3    0    0 -0.59237545350E+01  0.12758940527E+02  0.93368990279E+01  0.16883693757E+02  0.51100000000E-03 0. -1.
        -11    1    3    3    0    0 -0.17121035662E+02 -0.14221578035E+02  0.23516654232E+02  0.32379255249E+02  0.51100000000E-03 0.  1.
         12    1    3    3    0    0  0.23062245130E+02  0.53684467984E+00 -0.33585435119E+02  0.40744776411E+02  0.00000000000E+00 0. -1.
</event>
<event>
 7    1  0.1978681E-015  0.9000772E+02  0.7816164E-02  0.1186339E+00
        -11   -1    0    0    0    0  0.00000000000E+00  0.00000000000E+00  0.45593999997E+02  0.45594000000E+02  0.51100000000E-03 0. -1.
         11   -1    0    0    0    0 -0.00000000000E+00 -0.00000000000E+00 -0.45593999997E+02  0.45594000000E+02  0.51100000000E-03 0.  1.
    9900012    2    1    2    0    0 -0.11678802113E+01 -0.66047567458E-01 -0.15734217421E+00  0.90007719089E+02  0.89999980181E+02 0.  0.
        -12    1    1    2    0    0  0.11678802113E+01  0.66047567458E-01  0.15734217421E+00  0.11802809110E+01  0.00000000000E+00 0.  1.
         11    1    3    3    0    0  0.46992518949E+01  0.18565557377E+02 -0.30428214817E+02  0.35953291175E+02  0.51100000000E-03 0. -1.
        -11    1    3    3    0    0  0.28003553901E+01  0.47319615582E+01 -0.71965932836E+01  0.90567326145E+01  0.51100000000E-03 0.  1.
        -12    1    3    3    0    0 -0.86674874963E+01 -0.23363566503E+02  0.37467465927E+02  0.44997695299E+02  0.00000000000E+00 0.  1.
</event>
<event>
 7    1  0.1978681E-015  0.9000776E+02  0.7816164E-02  0.1186339E+00
        -11   -1    0    0    0    0  0.00000000000E+00  0.00000000000E+00  0.45593999997E+02  0.45594000000E+02  0.51100000000E-03 0. -1.
         11   -1    0    0    0    0 -0.00000000000E+00 -0.00000000000E+00 -0.45593999997E+02  0.45594000000E+02  0.51100000000E-03 0.  1.
    9900012    2    1    2    0    0  0.45284292698E+00 -0.81931435537E+00  0.71876249295E+00  0.90007761782E+02  0.90000023438E+02 0.  0.
        -12    1    1    2    0    0 -0.45284292698E+00  0.81931435537E+00 -0.71876249295E+00  0.11802382178E+01  0.00000000000E+00 0.  1.
         11    1    3    3    0    0  0.79104274890E+01  0.78409691930E+01  0.10613533554E+01  0.11188482120E+02  0.51100000000E-03 0. -1.
        -11    1    3    3    0    0  0.21362097082E+02 -0.22215007521E+02  0.23730130314E+02  0.38896848663E+02  0.51100000000E-03 0.  1.
         12    1    3    3    0    0 -0.28819681644E+02  0.13554723972E+02 -0.24072721177E+02  0.39922430999E+02  0.00000000000E+00 0. -1.
</event>
<event>
 7    1  0.1978681E-015  0.9000769E+02  0.7816164E-02  0.1186339E+00
        -11   -1    0    0    0    0  0.00000000000E+00  0.00000000000E+00  0.45593999997E+02  0.45594000000E+02  0.51100000000E-03 0.  1.
         11   -1    0    0    0    0 -0.00000000000E+00 -0.00000000000E+00 -0.45593999997E+02  0.45594000000E+02  0.51100000000E-03 0. -1.
    9900012    2    1    2    0    0  0.61890795216E+00  0.76828196722E+00 -0.64794808099E+00  0.90007686080E+02  0.89999946736E+02 0.  0.
        -12    1    1    2    0    0 -0.61890795216E+00 -0.76828196722E+00  0.64794808099E+00  0.11803139201E+01  0.00000000000E+00 0.  1.
         11    1    3    3    0    0  0.41085316785E+01  0.25157480369E+01  0.88430687184E+01  0.10070197881E+02  0.51100000000E-03 0. -1.
        -11    1    3    3    0    0  0.37587956188E+02 -0.56452018066E+01 -0.25427272888E+01  0.38094464377E+02  0.51100000000E-03 0.  1.
         12    1    3    3    0    0 -0.41077579914E+02  0.38977357370E+01 -0.69482895106E+01  0.41843023822E+02  0.00000000000E+00 0. -1.
</event>
<event>
 7    1  0.1978681E-015  0.9000775E+02  0.7816164E-02  0.1186339E+00
        -11   -1    0    0    0    0  0.00000000000E+00  0.00000000000E+00  0.45593999997E+02  0.45594000000E+02  0.51100000000E-03 0.  1.
         11   -1    0    0    0    0 -0.00000000000E+00 -0.00000000000E+00 -0.45593999997E+02  0.45594000000E+02  0.51100000000E-03 0. -1.
    9900012    2    1    2    0    0 -0.63263238764E+00  0.89606042620E+00  0.43571736381E+00  0.90007746787E+02  0.90000008245E+02 0.  0.
        -12    1    1    2    0    0  0.63263238764E+00 -0.89606042620E+00 -0.43571736381E+00  0.11802532128E+01  0.00000000000E+00 0.  1.
         11    1    3    3    0    0 -0.19488152105E+02  0.25598654747E+02  0.19077436479E+02  0.37403579778E+02  0.51100000000E-03 0. -1.
        -11    1    3    3    0    0  0.28843458917E+01  0.54682985011E+01  0.74182529656E+01  0.96567187514E+01  0.51100000000E-03 0.  1.
        -12    1    3    3    0    0  0.15971173826E+02 -0.30170892822E+02 -0.26059972081E+02  0.42947448258E+02  0.00000000000E+00 0.  1.
</event>
<event>
 7    1  0.1978681E-015  0.9000778E+02  0.7816164E-02  0.1186339E+00
        -11   -1    0    0    0    0  0.00000000000E+00  0.00000000000E+00  0.45593999997E+02  0.45594000000E+02  0.51100000000E-03 0.  1.
         11   -1    0    0    0    0 -0.00000000000E+00 -0.00000000000E+00 -0.45593999997E+02  0.45594000000E+02  0.51100000000E-03 0. -1.
    9900012    2    1    2    0    0 -0.91477767716E+00 -0.26607697465E+00 -0.69664494952E+00  0.90007775724E+02  0.90000037564E+02 0.  0.
        -12    1    1    2    0    0  0.91477767716E+00  0.26607697465E+00  0.69664494952E+00  0.11802242756E+01  0.00000000000E+00 0.  1.
         11    1    3    3    0    0 -0.56178167321E+01  0.16955406601E+02 -0.30888020660E+02  0.35680744084E+02  0.51100000000E-03 0. -1.
        -11    1    3    3    0    0  0.62600972783E+01  0.55960668140E+01 -0.68213724765E+01  0.10818313383E+02  0.51100000000E-03 0.  1.
        -12    1    3    3    0    0 -0.15570582234E+01 -0.22817550390E+02  0.37012748187E+02  0.43508718258E+02  0.00000000000E+00 0.  1.
</event>
<event>
 7    1  0.1978681E-015  0.9000699E+02  0.7816164E-02  0.1186341E+00
        -11   -1    0    0    0    0  0.00000000000E+00  0.00000000000E+00  0.45593999997E+02  0.45594000000E+02  0.51100000000E-03 0.  1.
         11   -1    0    0    0    0 -0.00000000000E+00 -0.00000000000E+00 -0.45593999997E+02  0.45594000000E+02  0.51100000000E-03 0. -1.
    9900012    2    1    2    0    0  0.10350802774E+01  0.56518233620E+00 -0.62854027493E-01  0.90006994969E+02  0.89999246500E+02 0.  0.
        -12    1    1    2    0    0 -0.10350802774E+01 -0.56518233620E+00  0.62854027493E-01  0.11810050307E+01  0.00000000000E+00 0.  1.
         11    1    3    3    0    0 -0.52790586463E+01 -0.67142781771E+01  0.91371498074E+00  0.85898118116E+01  0.51100000000E-03 0. -1.
        -11    1    3    3    0    0 -0.11462599752E+02  0.82993356126E+01  0.36923598880E+02  0.39542664544E+02  0.51100000000E-03 0.  1.
         12    1    3    3    0    0  0.17776738676E+02 -0.10198750993E+01 -0.37900167888E+02  0.41874518614E+02  0.00000000000E+00 0. -1.
</event>
<event>
 7    1  0.1978681E-015  0.9000779E+02  0.7816164E-02  0.1186339E+00
        -11   -1    0    0    0    0  0.00000000000E+00  0.00000000000E+00  0.45593999997E+02  0.45594000000E+02  0.51100000000E-03 0. -1.
         11   -1    0    0    0    0 -0.00000000000E+00 -0.00000000000E+00 -0.45593999997E+02  0.45594000000E+02  0.51100000000E-03 0.  1.
    9900012    2    1    2    0    0  0.53439492660E+00  0.56636443690E+00  0.88687268816E+00  0.90007792485E+02  0.90000054546E+02 0.  0.
        -12    1    1    2    0    0 -0.53439492660E+00 -0.56636443690E+00 -0.88687268816E+00  0.11802075148E+01  0.00000000000E+00 0.  1.
         11    1    3    3    0    0  0.10341090372E+01 -0.10507816575E+01 -0.87577286262E+01  0.88809534705E+01  0.51100000000E-03 0. -1.
        -11    1    3    3    0    0 -0.22712969125E+02  0.99824855635E+01 -0.27505278359E+02  0.37041454107E+02  0.51100000000E-03 0.  1.
         12    1    3    3    0    0  0.22213255014E+02 -0.83653394691E+01  0.37149879673E+02  0.44085384908E+02  0.00000000000E+00 0. -1.
</event>
<event>
 7    1  0.1978681E-015  0.9000790E+02  0.7816164E-02  0.1186339E+00
        -11   -1    0    0    0    0  0.00000000000E+00  0.00000000000E+00  0.45593999997E+02  0.45594000000E+02  0.51100000000E-03 0. -1.
         11   -1    0    0    0    0 -0.00000000000E+00 -0.00000000000E+00 -0.45593999997E+02  0.45594000000E+02  0.51100000000E-03 0.  1.
    9900012    2    1    2    0    0  0.34669325048E+00 -0.12356306181E-02  0.11280212612E+01  0.90007902673E+02  0.90000166188E+02 0.  0.
        -12    1    1    2    0    0 -0.34669325048E+00  0.12356306181E-02 -0.11280212612E+01  0.11800973275E+01  0.00000000000E+00 0.  1.
         11    1    3    3    0    0 -0.11272682015E+02  0.23891261739E+02 -0.19609583370E+02  0.32899870934E+02  0.51100000000E-03 0.  1.
        -11    1    3    3    0    0  0.11187945946E+02  0.10155693557E+02 -0.32510299870E+01  0.15455660528E+02  0.51100000000E-03 0. -1.
         12    1    3    3    0    0  0.43142931909E+00 -0.34048190926E+02  0.23988634618E+02  0.41652371210E+02  0.00000000000E+00 0. -1.
</event>
<event>
 7    1  0.1978681E-015  0.9000776E+02  0.7816164E-02  0.1186339E+00
        -11   -1    0    0    0    0  0.00000000000E+00  0.00000000000E+00  0.45593999997E+02  0.45594000000E+02  0.51100000000E-03 0.  1.
         11   -1    0    0    0    0 -0.00000000000E+00 -0.00000000000E+00 -0.45593999997E+02  0.45594000000E+02  0.51100000000E-03 0. -1.
    9900012    2    1    2    0    0 -0.10420539405E+01  0.45610019423E+00  0.31472791287E+00  0.90007763811E+02  0.90000025494E+02 0.  0.
        -12    1    1    2    0    0  0.10420539405E+01 -0.45610019423E+00 -0.31472791287E+00  0.11802361887E+01  0.00000000000E+00 0.  1.
         11    1    3    3    0    0  0.91826232424E+01  0.78908824179E+01  0.53436566035E+01  0.13234094646E+02  0.51100000000E-03 0. -1.
        -11    1    3    3    0    0  0.25192018389E+01  0.73488788202E+01  0.33067755852E+02  0.33968056688E+02  0.51100000000E-03 0.  1.
         12    1    3    3    0    0 -0.12743879022E+02 -0.14783661044E+02 -0.38096684543E+02  0.42805612477E+02  0.00000000000E+00 0. -1.
</event>
<event>
 7    1  0.1978681E-015  0.9000775E+02  0.7816164E-02  0.1186339E+00
        -11   -1    0    0    0    0  0.00000000000E+00  0.00000000000E+00  0.45593999997E+02  0.45594000000E+02  0.51100000000E-03 0. -1.
         11   -1    0    0    0    0 -0.00000000000E+00 -0.00000000000E+00 -0.45593999997E+02  0.45594000000E+02  0.51100000000E-03 0.  1.
    9900012    2    1    2    0    0  0.10779755283E+01 -0.20212812478E+00  0.43602023636E+00  0.90007745508E+02  0.90000006949E+02 0.  0.
        -12    1    1    2    0    0 -0.10779755283E+01  0.20212812478E+00 -0.43602023636E+00  0.11802544916E+01  0.00000000000E+00 0.  1.
         11    1    3    3    0    0  0.67899839014E+01  0.16306590088E+02 -0.12919398317E+02  0.21884232105E+02  0.51100000000E-03 0. -1.
        -11    1    3    3    0    0 -0.17598590199E+01 -0.22682407791E+02 -0.22219714522E+02  0.31801013202E+02  0.51100000000E-03 0.  1.
         12    1    3    3    0    0 -0.39521493533E+01  0.61736895782E+01  0.35575133076E+02  0.36322500201E+02  0.00000000000E+00 0. -1.
</event>
<event>
 7    1  0.1978681E-015  0.9000756E+02  0.7816164E-02  0.1186339E+00
        -11   -1    0    0    0    0  0.00000000000E+00  0.00000000000E+00  0.45593999997E+02  0.45594000000E+02  0.51100000000E-03 0. -1.
         11   -1    0    0    0    0 -0.00000000000E+00 -0.00000000000E+00 -0.45593999997E+02  0.45594000000E+02  0.51100000000E-03 0.  1.
    9900012    2    1    2    0    0 -0.59299836368E-01 -0.79133772825E+00  0.87390121127E+00  0.90007561438E+02  0.89999820449E+02 0.  0.
        -12    1    1    2    0    0  0.59299836368E-01  0.79133772825E+00 -0.87390121127E+00  0.11804385616E+01  0.00000000000E+00 0.  1.
         11    1    3    3    0    0  0.72373038953E+01  0.64243242845E+01  0.44050815758E+01  0.10632744431E+02  0.51100000000E-03 0. -1.
        -11    1    3    3    0    0  0.18943730540E+02  0.21077297501E+02 -0.22679365920E+02  0.36296983835E+02  0.51100000000E-03 0.  1.
         12    1    3    3    0    0 -0.26240334272E+02 -0.28292959514E+02  0.19148185555E+02  0.43077833172E+02  0.00000000000E+00 0. -1.
</event>
<event>
 7    1  0.1978681E-015  0.9000776E+02  0.7816164E-02  0.1186339E+00
        -11   -1    0    0    0    0  0.00000000000E+00  0.00000000000E+00  0.45593999997E+02  0.45594000000E+02  0.51100000000E-03 0. -1.
         11   -1    0    0    0    0 -0.00000000000E+00 -0.00000000000E+00 -0.45593999997E+02  0.45594000000E+02  0.51100000000E-03 0.  1.
    9900012    2    1    2    0    0 -0.15510049896E+00 -0.87713481480E+00  0.77430791269E+00  0.90007756639E+02  0.90000018226E+02 0.  0.
        -12    1    1    2    0    0  0.15510049896E+00  0.87713481480E+00 -0.77430791269E+00  0.11802433612E+01  0.00000000000E+00 0.  1.
         11    1    3    3    0    0  0.40524596041E+01 -0.11645065128E+02 -0.10537429321E+02  0.16219352257E+02  0.51100000000E-03 0. -1.
        -11    1    3    3    0    0 -0.52215949544E+01 -0.62075027764E+01 -0.28959349996E+02  0.30073943822E+02  0.51100000000E-03 0.  1.
         12    1    3    3    0    0  0.10140348513E+01  0.16975433090E+02  0.40271087230E+02  0.43714460559E+02  0.00000000000E+00 0. -1.
</event>
<event>
 7    1  0.1978681E-015  0.9000774E+02  0.7816164E-02  0.1186339E+00
        -11   -1    0    0    0    0  0.00000000000E+00  0.00000000000E+00  0.45593999997E+02  0.45594000000E+02  0.51100000000E-03 0.  1.
         11   -1    0    0    0    0 -0.00000000000E+00 -0.00000000000E+00 -0.45593999997E+02  0.45594000000E+02  0.51100000000E-03 0. -1.
    9900012    2    1    2    0    0  0.56654245987E-01  0.45995773997E+00 -0.10854712037E+01  0.90007737927E+02  0.89999999268E+02 0.  0.
        -12    1    1    2    0    0 -0.56654245987E-01 -0.45995773997E+00  0.10854712037E+01  0.11802620726E+01  0.00000000000E+00 0.  1.
         11    1    3    3    0    0 -0.20615547659E+02  0.16228127273E+02 -0.27308259204E+02  0.37869432807E+02  0.51100000000E-03 0. -1.
        -11    1    3    3    0    0 -0.98490844130E+01 -0.13702379204E+01  0.11819955389E+02  0.15446467602E+02  0.51100000000E-03 0.  1.
        -12    1    3    3    0    0  0.30521286318E+02 -0.14397931613E+02  0.14402832611E+02  0.36691837518E+02  0.00000000000E+00 0.  1.
</event>
<event>
 7    1  0.1978681E-015  0.9000773E+02  0.7816164E-02  0.1186339E+00
        -11   -1    0    0    0    0  0.00000000000E+00  0.00000000000E+00  0.45593999997E+02  0.45594000000E+02  0.51100000000E-03 0.  1.
         11   -1    0    0    0    0 -0.00000000000E+00 -0.00000000000E+00 -0.45593999997E+02  0.45594000000E+02  0.51100000000E-03 0. -1.
    9900012    2    1    2    0    0 -0.80320971275E-01  0.11771142378E+01 -0.31480032617E-01  0.90007728684E+02  0.89999989902E+02 0.  0.
        -12    1    1    2    0    0  0.80320971275E-01 -0.11771142378E+01  0.31480032617E-01  0.11802713162E+01  0.00000000000E+00 0.  1.
         11    1    3    3    0    0  0.17617096431E+02 -0.24322783654E+02 -0.56528453302E+01  0.30560015575E+02  0.51100000000E-03 0. -1.
        -11    1    3    3    0    0  0.19277082009E+01 -0.33979483594E+01 -0.17255026508E+02  0.17691750960E+02  0.51100000000E-03 0.  1.
        -12    1    3    3    0    0 -0.19625125604E+02  0.28897846252E+02  0.22876391806E+02  0.41755962149E+02  0.00000000000E+00 0.  1.
</event>
<event>
 7    1  0.1978681E-015  0.9000770E+02  0.7816164E-02  0.1186339E+00
        -11   -1    0    0    0    0  0.00000000000E+00  0.00000000000E+00  0.45593999997E+02  0.45594000000E+02  0.51100000000E-03 0. -1.
         11   -1    0    0    0    0 -0.00000000000E+00 -0.00000000000E+00 -0.45593999997E+02  0.45594000000E+02  0.51100000000E-03 0.  1.
    9900012    2    1    2    0    0 -0.73854983965E+00  0.15990421270E+00  0.90668586535E+00  0.90007701529E+02  0.89999962389E+02 0.  0.
        -12    1    1    2    0    0  0.73854983965E+00 -0.15990421270E+00 -0.90668586535E+00  0.11802984713E+01  0.00000000000E+00 0.  1.
         11    1    3    3    0    0 -0.31824500076E+02  0.15961928131E+02  0.10389980447E+02  0.37088187455E+02  0.51100000000E-03 0. -1.
        -11    1    3    3    0    0 -0.69415621278E+01  0.50360249747E+01 -0.29406066862E+01  0.90660906825E+01  0.51100000000E-03 0.  1.
        -12    1    3    3    0    0  0.38027512364E+02 -0.20838048893E+02 -0.65426878956E+01  0.43853423391E+02  0.00000000000E+00 0.  1.
</event>
<event>
 7    1  0.1978681E-015  0.9000775E+02  0.7816164E-02  0.1186339E+00
        -11   -1    0    0    0    0  0.00000000000E+00  0.00000000000E+00  0.45593999997E+02  0.45594000000E+02  0.51100000000E-03 0.  1.
         11   -1    0    0    0    0 -0.00000000000E+00 -0.00000000000E+00 -0.45593999997E+02  0.45594000000E+02  0.51100000000E-03 0. -1.
    9900012    2    1    2    0    0 -0.10873936886E+01  0.45522823048E+00 -0.57647238339E-01  0.90007753848E+02  0.90000015398E+02 0.  0.
        -12    1    1    2    0    0  0.10873936886E+01 -0.45522823048E+00  0.57647238339E-01  0.11802461523E+01  0.00000000000E+00 0.  1.
         11    1    3    3    0    0 -0.24941815457E+01  0.64222115727E+01  0.81645468508E+01  0.10682956922E+02  0.51100000000E-03 0. -1.
        -11    1    3    3    0    0 -0.10031615858E+02  0.25842263498E+00  0.33838021458E+02  0.35294642588E+02  0.51100000000E-03 0.  1.
         12    1    3    3    0    0  0.11438403715E+02 -0.62254059772E+01 -0.42060215547E+02  0.44030154337E+02  0.00000000000E+00 0. -1.
</event>
<event>
 7    1  0.1978681E-015  0.9000767E+02  0.7816164E-02  0.1186339E+00
        -11   -1    0    0    0    0  0.00000000000E+00  0.00000000000E+00  0.45593999997E+02  0.45594000000E+02  0.51100000000E-03 0.  1.
         11   -1    0    0    0    0 -0.00000000000E+00 -0.00000000000E+00 -0.45593999997E+02  0.45594000000E+02  0.51100000000E-03 0. -1.
    9900012    2    1    2    0    0  0.36681694335E+00  0.66876408658E+00 -0.90076769561E+00  0.90007668472E+02  0.89999928896E+02 0.  0.
        -12    1    1    2    0    0 -0.36681694335E+00 -0.66876408658E+00  0.90076769561E+00  0.11803315275E+01  0.00000000000E+00 0.  1.
         11    1    3    3    0    0  0.60859529472E+01  0.78712451484E+01 -0.42113262494E+01  0.10804193283E+02  0.51100000000E-03 0. -1.
        -11    1    3    3    0    0 -0.16420677829E+02  0.20628737388E+02 -0.26257663219E+02  0.37210863260E+02  0.51100000000E-03 0.  1.
         12    1    3    3    0    0  0.10701541825E+02 -0.27831218450E+02  0.29568221773E+02  0.41992611929E+02  0.00000000000E+00 0. -1.
</event>
<event>
 7    1  0.1978681E-015  0.9000767E+02  0.7816164E-02  0.1186339E+00
        -11   -1    0    0    0    0  0.00000000000E+00  0.00000000000E+00  0.45593999997E+02  0.45594000000E+02  0.51100000000E-03 0.  1.
         11   -1    0    0    0    0 -0.00000000000E+00 -0.00000000000E+00 -0.45593999997E+02  0.45594000000E+02  0.51100000000E-03 0. -1.
    9900012    2    1    2    0    0 -0.31745856648E+00 -0.62954508773E+00 -0.94661328513E+00  0.90007667983E+02  0.89999928400E+02 0.  0.
        -12    1    1    2    0    0  0.31745856648E+00  0.62954508773E+00  0.94661328513E+00  0.11803320171E+01  0.00000000000E+00 0.  1.
         11    1    3    3    0    0  0.23107754938E+02  0.30490813049E+02  0.39114127038E-01  0.38257803764E+02  0.51100000000E-03 0. -1.
        -11    1    3    3    0    0  0.73618218269E+01  0.63458105801E+00  0.11052022572E+01  0.74713175559E+01  0.51100000000E-03 0.  1.
        -12    1    3    3    0    0 -0.30787035331E+02 -0.31754939194E+02 -0.20909296694E+01  0.44278546663E+02  0.00000000000E+00 0.  1.
</event>
<event>
 7    1  0.1978681E-015  0.9000789E+02  0.7816164E-02  0.1186339E+00
        -11   -1    0    0    0    0  0.00000000000E+00  0.00000000000E+00  0.45593999997E+02  0.45594000000E+02  0.51100000000E-03 0.  1.
         11   -1    0    0    0    0 -0.00000000000E+00 -0.00000000000E+00 -0.45593999997E+02  0.45594000000E+02  0.51100000000E-03 0. -1.
    9900012    2    1    2    0    0  0.84805667465E+00 -0.79271189307E+00 -0.21229206806E+00  0.90007889755E+02  0.90000153099E+02 0.  0.
        -12    1    1    2    0    0 -0.84805667465E+00  0.79271189307E+00  0.21229206806E+00  0.11801102453E+01  0.00000000000E+00 0.  1.
         11    1    3    3    0    0 -0.57652215280E-01 -0.91473448091E+01 -0.33716679798E+01  0.97491223226E+01  0.51100000000E-03 0. -1.
        -11    1    3    3    0    0 -0.27712179630E+02  0.31393047618E+02 -0.62385376964E+01  0.42336836106E+02  0.51100000000E-03 0.  1.
         12    1    3    3    0    0  0.28617888520E+02 -0.23038414702E+02  0.93979136081E+01  0.37921931326E+02  0.00000000000E+00 0. -1.
</event>
<event>
 7    1  0.1978681E-015  0.9000784E+02  0.7816164E-02  0.1186339E+00
        -11   -1    0    0    0    0  0.00000000000E+00  0.00000000000E+00  0.45593999997E+02  0.45594000000E+02  0.51100000000E-03 0.  1.
         11   -1    0    0    0    0 -0.00000000000E+00 -0.00000000000E+00 -0.45593999997E+02  0.45594000000E+02  0.51100000000E-03 0. -1.
    9900012    2    1    2    0    0 -0.22455282359E+00 -0.11094582975E+01  0.33386410489E+00  0.90007836060E+02  0.90000098696E+02 0.  0.
        -12    1    1    2    0    0  0.22455282359E+00  0.11094582975E+01 -0.33386410489E+00  0.11801639399E+01  0.00000000000E+00 0.  1.
         11    1    3    3    0    0  0.16435604527E+01 -0.41138146902E+01  0.93338021349E+01  0.10331729034E+02  0.51100000000E-03 0. -1.
        -11    1    3    3    0    0 -0.33557442109E+02 -0.53820482168E+01  0.16845900904E+02  0.37932212451E+02  0.51100000000E-03 0.  1.
         12    1    3    3    0    0  0.31689328833E+02  0.83864046095E+01 -0.25845838934E+02  0.41743894576E+02  0.00000000000E+00 0. -1.
</event>
<event>
 7    1  0.1978681E-015  0.9000773E+02  0.7816164E-02  0.1186339E+00
        -11   -1    0    0    0    0  0.00000000000E+00  0.00000000000E+00  0.45593999997E+02  0.45594000000E+02  0.51100000000E-03 0.  1.
         11   -1    0    0    0    0 -0.00000000000E+00 -0.00000000000E+00 -0.45593999997E+02  0.45594000000E+02  0.51100000000E-03 0. -1.
    9900012    2    1    2    0    0  0.75160167604E+00 -0.78601650610E+00 -0.45859126899E+00  0.90007731819E+02  0.89999993079E+02 0.  0.
        -12    1    1    2    0    0 -0.75160167604E+00  0.78601650610E+00  0.45859126899E+00  0.11802681811E+01  0.00000000000E+00 0.  1.
         11    1    3    3    0    0 -0.85740178051E+01 -0.42888551204E+01  0.60171695222E+01  0.11318762692E+02  0.51100000000E-03 0. -1.
        -11    1    3    3    0    0  0.21659131991E+02  0.28350533881E+02  0.19523130693E+02  0.40669686528E+02  0.51100000000E-03 0.  1.
         12    1    3    3    0    0 -0.12333512510E+02 -0.24847695266E+02 -0.25998891485E+02  0.38019282599E+02  0.00000000000E+00 0. -1.
</event>
<event>
 7    1  0.1978681E-015  0.9000772E+02  0.7816164E-02  0.1186339E+00
        -11   -1    0    0    0    0  0.00000000000E+00  0.00000000000E+00  0.45593999997E+02  0.45594000000E+02  0.51100000000E-03 0.  1.
         11   -1    0    0    0    0 -0.00000000000E+00 -0.00000000000E+00 -0.45593999997E+02  0.45594000000E+02  0.51100000000E-03 0. -1.
    9900012    2    1    2    0    0  0.20370916447E+00  0.30010926983E+00 -0.11231619802E+01  0.90007722138E+02  0.89999983270E+02 0.  0.
        -12    1    1    2    0    0 -0.20370916447E+00 -0.30010926983E+00  0.11231619802E+01  0.11802778619E+01  0.00000000000E+00 0.  1.
         11    1    3    3    0    0 -0.95518892612E+01 -0.60544795126E+01  0.13206394240E+02  0.17386896207E+02  0.51100000000E-03 0. -1.
        -11    1    3    3    0    0  0.38231272658E+02  0.14604245386E+02 -0.35660343092E+01  0.41080783747E+02  0.51100000000E-03 0.  1.
         12    1    3    3    0    0 -0.28475674232E+02 -0.82496566039E+01 -0.10763521911E+02  0.31540042184E+02  0.00000000000E+00 0. -1.
</event>
<event>
 7    1  0.1978681E-015  0.9000782E+02  0.7816164E-02  0.1186339E+00
        -11   -1    0    0    0    0  0.00000000000E+00  0.00000000000E+00  0.45593999997E+02  0.45594000000E+02  0.51100000000E-03 0. -1.
         11   -1    0    0    0    0 -0.00000000000E+00 -0.00000000000E+00 -0.45593999997E+02  0.45594000000E+02  0.51100000000E-03 0.  1.
    9900012    2    1    2    0    0  0.72281967383E+00 -0.63681738683E+00  0.68177672106E+00  0.90007820284E+02  0.90000082712E+02 0.  0.
        -12    1    1    2    0    0 -0.72281967383E+00  0.63681738683E+00 -0.68177672106E+00  0.11801797162E+01  0.00000000000E+00 0.  1.
         11    1    3    3    0    0 -0.10338965682E+02  0.10723060546E+02  0.38271442415E+02  0.41068011196E+02  0.51100000000E-03 0. -1.
        -11    1    3    3    0    0  0.85941787859E+00 -0.95454171747E+01  0.36998515937E+00  0.95911666344E+01  0.51100000000E-03 0.  1.
        -12    1    3    3    0    0  0.10202367477E+02 -0.18144607580E+01 -0.37959650853E+02  0.39348642453E+02  0.00000000000E+00 0.  1.
</event>
<event>
 7    1  0.1978681E-015  0.9000774E+02  0.7816164E-02  0.1186339E+00
        -11   -1    0    0    0    0  0.00000000000E+00  0.00000000000E+00  0.45593999997E+02  0.45594000000E+02  0.51100000000E-03 0. -1.
         11   -1    0    0    0    0 -0.00000000000E+00 -0.00000000000E+00 -0.45593999997E+02  0.45594000000E+02  0.51100000000E-03 0.  1.
    9900012    2    1    2    0    0  0.89743049331E+00 -0.72512711520E+00  0.24863655607E+00  0.90007741147E+02  0.90000002530E+02 0.  0.
        -12    1    1    2    0    0 -0.89743049331E+00  0.72512711520E+00 -0.24863655607E+00  0.11802588532E+01  0.00000000000E+00 0.  1.
         11    1    3    3    0    0  0.34853701491E+02  0.21759658599E+01  0.10928296285E+01  0.34938654981E+02  0.51100000000E-03 0. -1.
        -11    1    3    3    0    0  0.88185531677E+01  0.53227864063E+01 -0.47366165257E+01  0.11337304418E+02  0.51100000000E-03 0.  1.
        -12    1    3    3    0    0 -0.42774824165E+02 -0.82238793814E+01  0.38924234533E+01  0.43731781747E+02  0.00000000000E+00 0.  1.
</event>
<event>
 7    1  0.1978681E-015  0.9000880E+02  0.7816164E-02  0.1186337E+00
        -11   -1    0    0    0    0  0.00000000000E+00  0.00000000000E+00  0.45593999997E+02  0.45594000000E+02  0.51100000000E-03 0.  1.
         11   -1    0    0    0    0 -0.00000000000E+00 -0.00000000000E+00 -0.45593999997E+02  0.45594000000E+02  0.51100000000E-03 0. -1.
    9900012    2    1    2    0    0  0.40128130357E+00 -0.54590577293E+00  0.96513177999E+00  0.90008797240E+02  0.90001072557E+02 0.  0.
        -12    1    1    2    0    0 -0.40128130357E+00  0.54590577293E+00 -0.96513177999E+00  0.11792027605E+01  0.00000000000E+00 0.  1.
         11    1    3    3    0    0  0.19861302226E+02  0.13797456021E+02 -0.32592475179E+02  0.40584609858E+02  0.51100000000E-03 0. -1.
        -11    1    3    3    0    0 -0.10403613152E+02 -0.25816252962E+01 -0.19893752019E+01  0.10902181880E+02  0.51100000000E-03 0.  1.
        -12    1    3    3    0    0 -0.90564077702E+01 -0.11761736498E+02  0.35546982161E+02  0.38522005502E+02  0.00000000000E+00 0.  1.
</event>
<event>
 7    1  0.1978681E-015  0.9000740E+02  0.7816164E-02  0.1186340E+00
        -11   -1    0    0    0    0  0.00000000000E+00  0.00000000000E+00  0.45593999997E+02  0.45594000000E+02  0.51100000000E-03 0. -1.
         11   -1    0    0    0    0 -0.00000000000E+00 -0.00000000000E+00 -0.45593999997E+02  0.45594000000E+02  0.51100000000E-03 0.  1.
    9900012    2    1    2    0    0 -0.68811193245E+00 -0.95778235822E+00  0.54411816920E-01  0.90007404505E+02  0.89999661444E+02 0.  0.
        -12    1    1    2    0    0  0.68811193245E+00  0.95778235822E+00 -0.54411816920E-01  0.11805954951E+01  0.00000000000E+00 0.  1.
         11    1    3    3    0    0 -0.16970561001E+02 -0.33131025238E+02 -0.12011883141E+01  0.37243893830E+02  0.51100000000E-03 0. -1.
        -11    1    3    3    0    0 -0.56302830901E+01 -0.63023872149E+01  0.72821918502E+00  0.84823626263E+01  0.51100000000E-03 0.  1.
        -12    1    3    3    0    0  0.21912732158E+02  0.38475630095E+02  0.52738094598E+00  0.44281148048E+02  0.00000000000E+00 0.  1.
</event>
<event>
 7    1  0.1978681E-015  0.9000774E+02  0.7816164E-02  0.1186339E+00
        -11   -1    0    0    0    0  0.00000000000E+00  0.00000000000E+00  0.45593999997E+02  0.45594000000E+02  0.51100000000E-03 0.  1.
         11   -1    0    0    0    0 -0.00000000000E+00 -0.00000000000E+00 -0.45593999997E+02  0.45594000000E+02  0.51100000000E-03 0. -1.
    9900012    2    1    2    0    0  0.57010039047E+00  0.99214399494E+00 -0.28924086139E+00  0.90007735437E+02  0.89999996745E+02 0.  0.
        -12    1    1    2    0    0 -0.57010039047E+00 -0.99214399494E+00  0.28924086139E+00  0.11802645626E+01  0.00000000000E+00 0.  1.
         11    1    3    3    0    0  0.26075698987E+01  0.26899431127E+01 -0.86160708121E+01  0.93953121942E+01  0.51100000000E-03 0. -1.
        -11    1    3    3    0    0  0.30916005757E+02  0.21154715055E+02  0.14241322392E+02  0.40076634649E+02  0.51100000000E-03 0.  1.
         12    1    3    3    0    0 -0.32953475266E+02 -0.22852514173E+02 -0.59144924413E+01  0.40535788594E+02  0.00000000000E+00 0. -1.
</event>
<event>
 7    1  0.1978681E-015  0.9000780E+02  0.7816164E-02  0.1186339E+00
        -11   -1    0    0    0    0  0.00000000000E+00  0.00000000000E+00  0.45593999997E+02  0.45594000000E+02  0.51100000000E-03 0.  1.
         11   -1    0    0    0    0 -0.00000000000E+00 -0.00000000000E+00 -0.45593999997E+02  0.45594000000E+02  0.51100000000E-03 0. -1.
    9900012    2    1    2    0    0  0.52162697818E+00  0.10086974987E+01 -0.32140769506E+00  0.90007801604E+02  0.90000063785E+02 0.  0.
        -12    1    1    2    0    0 -0.52162697818E+00 -0.10086974987E+01  0.32140769506E+00  0.11801983964E+01  0.00000000000E+00 0.  1.
         11    1    3    3    0    0  0.21907737169E+01 -0.64001314444E+01  0.79970408503E+01  0.10474437198E+02  0.51100000000E-03 0. -1.
        -11    1    3    3    0    0 -0.38911580473E+02 -0.62856016475E+01 -0.43173106228E+01  0.39651721958E+02  0.51100000000E-03 0.  1.
         12    1    3    3    0    0  0.37242433734E+02  0.13694430591E+02 -0.40011379226E+01  0.39881642448E+02  0.00000000000E+00 0. -1.
</event>
<event>
 7    1  0.1978681E-015  0.9000768E+02  0.7816164E-02  0.1186339E+00
        -11   -1    0    0    0    0  0.00000000000E+00  0.00000000000E+00  0.45593999997E+02  0.45594000000E+02  0.51100000000E-03 0.  1.
         11   -1    0    0    0    0 -0.00000000000E+00 -0.00000000000E+00 -0.45593999997E+02  0.45594000000E+02  0.51100000000E-03 0. -1.
    9900012    2    1    2    0    0  0.32014947155E+00 -0.26044027404E+00 -0.11058172840E+01  0.90007679414E+02  0.89999939982E+02 0.  0.
        -12    1    1    2    0    0 -0.32014947155E+00  0.26044027404E+00  0.11058172840E+01  0.11803205861E+01  0.00000000000E+00 0.  1.
         11    1    3    3    0    0  0.12579277878E+01 -0.41235105279E+01  0.84471677933E+01  0.94836894394E+01  0.51100000000E-03 0. -1.
        -11    1    3    3    0    0 -0.22631481111E+02 -0.16999966382E+02  0.22792565584E+02  0.36341214075E+02  0.51100000000E-03 0.  1.
         12    1    3    3    0    0  0.21693702795E+02  0.20863036636E+02 -0.32345550661E+02  0.44182775900E+02  0.00000000000E+00 0. -1.
</event>
<event>
 7    1  0.1978681E-015  0.9000785E+02  0.7816164E-02  0.1186339E+00
        -11   -1    0    0    0    0  0.00000000000E+00  0.00000000000E+00  0.45593999997E+02  0.45594000000E+02  0.51100000000E-03 0.  1.
         11   -1    0    0    0    0 -0.00000000000E+00 -0.00000000000E+00 -0.45593999997E+02  0.45594000000E+02  0.51100000000E-03 0. -1.
    9900012    2    1    2    0    0  0.51718146956E+00  0.10369955937E+01 -0.22340818959E+00  0.90007852656E+02  0.90000115511E+02 0.  0.
        -12    1    1    2    0    0 -0.51718146956E+00 -0.10369955937E+01  0.22340818959E+00  0.11801473438E+01  0.00000000000E+00 0.  1.
         11    1    3    3    0    0 -0.12321609230E+02 -0.18613005365E+02 -0.32525122349E+02  0.39448062143E+02  0.51100000000E-03 0. -1.
        -11    1    3    3    0    0  0.74526314390E+00 -0.81719270031E+01  0.42488544156E+01  0.92405937149E+01  0.51100000000E-03 0.  1.
        -12    1    3    3    0    0  0.12093527556E+02  0.27821927962E+02  0.28052859744E+02  0.41319196798E+02  0.00000000000E+00 0.  1.
</event>
<event>
 7    1  0.1978681E-015  0.9000788E+02  0.7816164E-02  0.1186339E+00
        -11   -1    0    0    0    0  0.00000000000E+00  0.00000000000E+00  0.45593999997E+02  0.45594000000E+02  0.51100000000E-03 0. -1.
         11   -1    0    0    0    0 -0.00000000000E+00 -0.00000000000E+00 -0.45593999997E+02  0.45594000000E+02  0.51100000000E-03 0.  1.
    9900012    2    1    2    0    0  0.63204761672E+00 -0.24034677056E+00  0.96717250691E+00  0.90007884151E+02  0.90000147421E+02 0.  0.
        -12    1    1    2    0    0 -0.63204761672E+00  0.24034677056E+00 -0.96717250691E+00  0.11801158494E+01  0.00000000000E+00 0.  1.
         11    1    3    3    0    0 -0.38826249041E+02  0.13873970053E+01  0.10139769209E+02  0.40152427136E+02  0.51100000000E-03 0. -1.
        -11    1    3    3    0    0  0.33081878632E+01 -0.22199254420E+01  0.86669913431E+01  0.95388109903E+01  0.51100000000E-03 0.  1.
        -12    1    3    3    0    0  0.36150108795E+02  0.59218166612E+00 -0.17839588046E+02  0.40316646024E+02  0.00000000000E+00 0.  1.
</event>
<event>
 7    1  0.1978681E-015  0.9000778E+02  0.7816164E-02  0.1186339E+00
        -11   -1    0    0    0    0  0.00000000000E+00  0.00000000000E+00  0.45593999997E+02  0.45594000000E+02  0.51100000000E-03 0. -1.
         11   -1    0    0    0    0 -0.00000000000E+00 -0.00000000000E+00 -0.45593999997E+02  0.45594000000E+02  0.51100000000E-03 0.  1.
    9900012    2    1    2    0    0 -0.56096675011E+00 -0.83016511305E+00  0.62374071437E+00  0.90007783796E+02  0.90000045742E+02 0.  0.
        -12    1    1    2    0    0  0.56096675011E+00  0.83016511305E+00 -0.62374071437E+00  0.11802162041E+01  0.00000000000E+00 0.  1.
         11    1    3    3    0    0  0.32384960935E+02 -0.58081255091E+01 -0.21127679093E+02  0.39101136055E+02  0.51100000000E-03 0. -1.
        -11    1    3    3    0    0 -0.93448143488E+01 -0.23149644424E+01 -0.78000699868E+01  0.12390549126E+02  0.51100000000E-03 0.  1.
        -12    1    3    3    0    0 -0.23601113336E+02  0.72929248385E+01  0.29551489794E+02  0.38516098615E+02  0.00000000000E+00 0.  1.
</event>
<event>
 7    1  0.1978681E-015  0.9000783E+02  0.7816164E-02  0.1186339E+00
        -11   -1    0    0    0    0  0.00000000000E+00  0.00000000000E+00  0.45593999997E+02  0.45594000000E+02  0.51100000000E-03 0. -1.
         11   -1    0    0    0    0 -0.00000000000E+00 -0.00000000000E+00 -0.45593999997E+02  0.45594000000E+02  0.51100000000E-03 0.  1.
    9900012    2    1    2    0    0  0.78208859756E+00  0.76582048075E-01  0.88049226193E+00  0.90007833059E+02  0.90000095656E+02 0.  0.
        -12    1    1    2    0    0 -0.78208859756E+00 -0.76582048075E-01 -0.88049226193E+00  0.11801669407E+01  0.00000000000E+00 0.  1.
         11    1    3    3    0    0  0.13956730504E+02  0.35691352408E+01 -0.49879658029E+01  0.15244961654E+02  0.51100000000E-03 0. -1.
        -11    1    3    3    0    0 -0.82436046633E+01  0.76921901585E+01 -0.32549599739E+02  0.34447108017E+02  0.51100000000E-03 0.  1.
         12    1    3    3    0    0 -0.49310372434E+01 -0.11184743351E+02  0.38418057804E+02  0.40315763388E+02  0.00000000000E+00 0. -1.
</event>
<event>
 7    1  0.1978681E-015  0.9000776E+02  0.7816164E-02  0.1186339E+00
        -11   -1    0    0    0    0  0.00000000000E+00  0.00000000000E+00  0.45593999997E+02  0.45594000000E+02  0.51100000000E-03 0. -1.
         11   -1    0    0    0    0 -0.00000000000E+00 -0.00000000000E+00 -0.45593999997E+02  0.45594000000E+02  0.51100000000E-03 0.  1.
    9900012    2    1    2    0    0  0.19281174443E+00 -0.96568977346E+00  0.65057010780E+00  0.90007756562E+02  0.90000018149E+02 0.  0.
        -12    1    1    2    0    0 -0.19281174443E+00  0.96568977346E+00 -0.65057010780E+00  0.11802434378E+01  0.00000000000E+00 0.  1.
         11    1    3    3    0    0 -0.83005979636E+01 -0.47667554258E+00 -0.38338486850E+01  0.91556289859E+01  0.51100000000E-03 0. -1.
        -11    1    3    3    0    0 -0.32671494639E+02 -0.10001540852E+02 -0.10937162312E+02  0.35875881886E+02  0.51100000000E-03 0.  1.
         12    1    3    3    0    0  0.41164904347E+02  0.95125266208E+01  0.15421581105E+02  0.44976245691E+02  0.00000000000E+00 0. -1.
</event>
<event>
 7    1  0.1978681E-015  0.9000798E+02  0.7816164E-02  0.1186339E+00
        -11   -1    0    0    0    0  0.00000000000E+00  0.00000000000E+00  0.45593999997E+02  0.45594000000E+02  0.51100000000E-03 0.  1.
         11   -1    0    0    0    0 -0.00000000000E+00 -0.00000000000E+00 -0.45593999997E+02  0.45594000000E+02  0.51100000000E-03 0. -1.
    9900012    2    1    2    0    0 -0.11769407515E+01  0.16454619451E-01  0.83639978071E-01  0.90007976300E+02  0.90000240787E+02 0.  0.
        -12    1    1    2    0    0  0.11769407515E+01 -0.16454619451E-01 -0.83639978071E-01  0.11800237001E+01  0.00000000000E+00 0.  1.
         11    1    3    3    0    0  0.21342573997E+01 -0.12015539988E+02 -0.33902481307E+02  0.36032020411E+02  0.51100000000E-03 0. -1.
        -11    1    3    3    0    0  0.45784663389E+01 -0.58321341912E+01 -0.59591537897E+01  0.95125000600E+01  0.51100000000E-03 0.  1.
        -12    1    3    3    0    0 -0.78896644901E+01  0.17864128798E+02  0.39945275075E+02  0.44463455829E+02  0.00000000000E+00 0.  1.
</event>
<event>
 7    1  0.1978681E-015  0.9000758E+02  0.7816164E-02  0.1186339E+00
        -11   -1    0    0    0    0  0.00000000000E+00  0.00000000000E+00  0.45593999997E+02  0.45594000000E+02  0.51100000000E-03 0. -1.
         11   -1    0    0    0    0 -0.00000000000E+00 -0.00000000000E+00 -0.45593999997E+02  0.45594000000E+02  0.51100000000E-03 0.  1.
    9900012    2    1    2    0    0 -0.10195112821E+01 -0.51380984682E+00 -0.29997279097E+00  0.90007581647E+02  0.89999840925E+02 0.  0.
        -12    1    1    2    0    0  0.10195112821E+01  0.51380984682E+00  0.29997279097E+00  0.11804183531E+01  0.00000000000E+00 0.  1.
         11    1    3    3    0    0  0.36060194040E+01  0.89896074069E+01  0.14228268516E+01  0.97898342061E+01  0.51100000000E-03 0. -1.
        -11    1    3    3    0    0  0.30717476265E+02 -0.49038776766E+01 -0.23020418187E+02  0.38698204327E+02  0.51100000000E-03 0.  1.
         12    1    3    3    0    0 -0.35343006951E+02 -0.45995395771E+01  0.21297618545E+02  0.41519543114E+02  0.00000000000E+00 0. -1.
</event>
<event>
 7    1  0.1978681E-015  0.9000775E+02  0.7816164E-02  0.1186339E+00
        -11   -1    0    0    0    0  0.00000000000E+00  0.00000000000E+00  0.45593999997E+02  0.45594000000E+02  0.51100000000E-03 0.  1.
         11   -1    0    0    0    0 -0.00000000000E+00 -0.00000000000E+00 -0.45593999997E+02  0.45594000000E+02  0.51100000000E-03 0. -1.
    9900012    2    1    2    0    0 -0.10212178218E+01  0.56987806912E+00 -0.15921904012E+00  0.90007746825E+02  0.90000008284E+02 0.  0.
        -12    1    1    2    0    0  0.10212178218E+01 -0.56987806912E+00  0.15921904012E+00  0.11802531746E+01  0.00000000000E+00 0.  1.
         11    1    3    3    0    0  0.23143231721E+01  0.82065793116E+01 -0.52813227328E+01  0.10029775960E+02  0.51100000000E-03 0. -1.
        -11    1    3    3    0    0  0.21080619376E+02 -0.36411570897E+02  0.30027121988E+01  0.42180698065E+02  0.51100000000E-03 0.  1.
         12    1    3    3    0    0 -0.24416160370E+02  0.28774869654E+02  0.21193914939E+01  0.37797272800E+02  0.00000000000E+00 0. -1.
</event>
<event>
 7    1  0.1978681E-015  0.9000761E+02  0.7816164E-02  0.1186339E+00
        -11   -1    0    0    0    0  0.00000000000E+00  0.00000000000E+00  0.45593999997E+02  0.45594000000E+02  0.51100000000E-03 0.  1.
         11   -1    0    0    0    0 -0.00000000000E+00 -0.00000000000E+00 -0.45593999997E+02  0.45594000000E+02  0.51100000000E-03 0. -1.
    9900012    2    1    2    0    0 -0.80181500988E+00  0.73250785955E+00  0.46244258921E+00  0.90007606751E+02  0.89999866360E+02 0.  0.
        -12    1    1    2    0    0  0.80181500988E+00 -0.73250785955E+00 -0.46244258921E+00  0.11803932492E+01  0.00000000000E+00 0.  1.
         11    1    3    3    0    0  0.69075162259E+01  0.56218257453E+01 -0.25351153402E+01  0.92598874275E+01  0.51100000000E-03 0. -1.
        -11    1    3    3    0    0  0.34134144528E+02 -0.12480538869E+01  0.14640315326E+02  0.37162296676E+02  0.51100000000E-03 0.  1.
         12    1    3    3    0    0 -0.41843475764E+02 -0.36412639988E+01 -0.11642757396E+02  0.43585422647E+02  0.00000000000E+00 0. -1.
</event>
<event>
 7    1  0.1978681E-015  0.9000774E+02  0.7816164E-02  0.1186339E+00
        -11   -1    0    0    0    0  0.00000000000E+00  0.00000000000E+00  0.45593999997E+02  0.45594000000E+02  0.51100000000E-03 0.  1.
         11   -1    0    0    0    0 -0.00000000000E+00 -0.00000000000E+00 -0.45593999997E+02  0.45594000000E+02  0.51100000000E-03 0. -1.
    9900012    2    1    2    0    0 -0.17965146828E-01  0.90738610273E+00 -0.75455416750E+00  0.90007735505E+02  0.89999996814E+02 0.  0.
        -12    1    1    2    0    0  0.17965146828E-01 -0.90738610273E+00  0.75455416750E+00  0.11802644948E+01  0.00000000000E+00 0.  1.
         11    1    3    3    0    0  0.34356948993E+02  0.17004207781E+02 -0.97558820314E+01  0.39556545107E+02  0.51100000000E-03 0. -1.
        -11    1    3    3    0    0 -0.28983205810E+01  0.64221859127E+01 -0.56875512506E+01  0.90549971605E+01  0.51100000000E-03 0.  1.
        -12    1    3    3    0    0 -0.31476593559E+02 -0.22519007591E+02  0.14688879115E+02  0.41396193238E+02  0.00000000000E+00 0.  1.
</event>
<event>
 7    1  0.1978681E-015  0.9000772E+02  0.7816164E-02  0.1186339E+00
        -11   -1    0    0    0    0  0.00000000000E+00  0.00000000000E+00  0.45593999997E+02  0.45594000000E+02  0.51100000000E-03 0. -1.
         11   -1    0    0    0    0 -0.00000000000E+00 -0.00000000000E+00 -0.45593999997E+02  0.45594000000E+02  0.51100000000E-03 0.  1.
    9900012    2    1    2    0    0  0.11444487517E+00  0.10544972828E+01 -0.51768497084E+00  0.90007720424E+02  0.89999981533E+02 0.  0.
        -12    1    1    2    0    0 -0.11444487517E+00 -0.10544972828E+01  0.51768497084E+00  0.11802795762E+01  0.00000000000E+00 0.  1.
         11    1    3    3    0    0 -0.33925232168E+02 -0.13819717676E+02  0.45707727325E+01  0.36916093211E+02  0.51100000000E-03 0. -1.
        -11    1    3    3    0    0 -0.14944067852E+01 -0.70695980271E+01  0.65329040212E+01  0.97412167164E+01  0.51100000000E-03 0.  1.
        -12    1    3    3    0    0  0.35534083829E+02  0.21943812986E+02 -0.11621361725E+02  0.43350410497E+02  0.00000000000E+00 0.  1.
</event>
<event>
 7    1  0.1978681E-015  0.9000777E+02  0.7816164E-02  0.1186339E+00
        -11   -1    0    0    0    0  0.00000000000E+00  0.00000000000E+00  0.45593999997E+02  0.45594000000E+02  0.51100000000E-03 0. -1.
         11   -1    0    0    0    0 -0.00000000000E+00 -0.00000000000E+00 -0.45593999997E+02  0.45594000000E+02  0.51100000000E-03 0.  1.
    9900012    2    1    2    0    0  0.77614981096E+00  0.66230864194E+00  0.59319454778E+00  0.90007770769E+02  0.90000032543E+02 0.  0.
        -12    1    1    2    0    0 -0.77614981096E+00 -0.66230864194E+00 -0.59319454778E+00  0.11802292310E+01  0.00000000000E+00 0.  1.
         11    1    3    3    0    0 -0.18924301966E+01  0.11180312949E+01  0.91877087156E+01  0.94469718815E+01  0.51100000000E-03 0. -1.
        -11    1    3    3    0    0  0.90682748991E-01 -0.19045952279E+02  0.31204853240E+02  0.36558164445E+02  0.51100000000E-03 0.  1.
         12    1    3    3    0    0  0.25778972586E+01  0.18590229626E+02 -0.39799367408E+02  0.44002634443E+02  0.00000000000E+00 0. -1.
</event>
<event>
 7    1  0.1978681E-015  0.9000765E+02  0.7816164E-02  0.1186339E+00
        -11   -1    0    0    0    0  0.00000000000E+00  0.00000000000E+00  0.45593999997E+02  0.45594000000E+02  0.51100000000E-03 0. -1.
         11   -1    0    0    0    0 -0.00000000000E+00 -0.00000000000E+00 -0.45593999997E+02  0.45594000000E+02  0.51100000000E-03 0.  1.
    9900012    2    1    2    0    0  0.10787074759E+01 -0.42658739843E+00  0.21827049692E+00  0.90007648935E+02  0.89999909101E+02 0.  0.
        -12    1    1    2    0    0 -0.10787074759E+01  0.42658739843E+00 -0.21827049692E+00  0.11803510651E+01  0.00000000000E+00 0.  1.
         11    1    3    3    0    0 -0.14040954625E+01 -0.55279586508E+01 -0.82481653506E+01  0.10028062765E+02  0.51100000000E-03 0. -1.
        -11    1    3    3    0    0 -0.28035707240E+02 -0.10661048209E+02  0.27514662747E+02  0.40702770123E+02  0.51100000000E-03 0.  1.
         12    1    3    3    0    0  0.30518510178E+02  0.15762419462E+02 -0.19048226899E+02  0.39276816047E+02  0.00000000000E+00 0. -1.
</event>
<event>
 7    1  0.1978681E-015  0.9000782E+02  0.7816164E-02  0.1186339E+00
        -11   -1    0    0    0    0  0.00000000000E+00  0.00000000000E+00  0.45593999997E+02  0.45594000000E+02  0.51100000000E-03 0. -1.
         11   -1    0    0    0    0 -0.00000000000E+00 -0.00000000000E+00 -0.45593999997E+02  0.45594000000E+02  0.51100000000E-03 0.  1.
    9900012    2    1    2    0    0  0.69367126748E+00 -0.94973179528E+00 -0.98264840479E-01  0.90007819383E+02  0.90000081799E+02 0.  0.
        -12    1    1    2    0    0 -0.69367126748E+00  0.94973179528E+00  0.98264840479E-01  0.11801806172E+01  0.00000000000E+00 0.  1.
         11    1    3    3    0    0  0.29181633709E+01  0.81839576117E+01  0.10615581242E+01  0.87532705637E+01  0.51100000000E-03 0. -1.
        -11    1    3    3    0    0 -0.11552492493E+02 -0.49754726326E+00 -0.39345021520E+02  0.41009003338E+02  0.51100000000E-03 0.  1.
         12    1    3    3    0    0  0.93280003894E+01 -0.86361421437E+01  0.38185198555E+02  0.40245545481E+02  0.00000000000E+00 0. -1.
</event>
<event>
 7    1  0.2332632E-015  0.9000772E+02  0.7816164E-02  0.1186339E+00
        -11   -1    0    0    0    0  0.00000000000E+00  0.00000000000E+00  0.45593999997E+02  0.45594000000E+02  0.51100000000E-03 0. -1.
         11   -1    0    0    0    0 -0.00000000000E+00 -0.00000000000E+00 -0.45593999997E+02  0.45594000000E+02  0.51100000000E-03 0.  1.
    9900012    2    1    2    0    0  0.95359791355E+00  0.42272801221E+00  0.55227883247E+00  0.90007720431E+02  0.89999981540E+02 0.  0.
        -12    1    1    2    0    0 -0.95359791355E+00 -0.42272801221E+00 -0.55227883247E+00  0.11802795693E+01  0.00000000000E+00 0.  1.
         11    1    3    3    0    0 -0.77669054042E+01  0.12199521797E+02  0.33681159060E+02  0.36654789968E+02  0.51100000000E-03 0. -1.
        -11    1    3    3    0    0 -0.33302083106E+01  0.70275172950E+01  0.49421830834E+01  0.92141988591E+01  0.51100000000E-03 0.  1.
        -12    1    3    3    0    0  0.12050711628E+02 -0.18804311080E+02 -0.38071063311E+02  0.44138731604E+02  0.00000000000E+00 0.  1.
</event>
<event>
 7    1  0.1978681E-015  0.9000771E+02  0.7816164E-02  0.1186339E+00
        -11   -1    0    0    0    0  0.00000000000E+00  0.00000000000E+00  0.45593999997E+02  0.45594000000E+02  0.51100000000E-03 0.  1.
         11   -1    0    0    0    0 -0.00000000000E+00 -0.00000000000E+00 -0.45593999997E+02  0.45594000000E+02  0.51100000000E-03 0. -1.
    9900012    2    1    2    0    0 -0.42966871699E+00  0.10975703294E+01  0.61788688884E-01  0.90007706106E+02  0.89999967026E+02 0.  0.
        -12    1    1    2    0    0  0.42966871699E+00 -0.10975703294E+01 -0.61788688884E-01  0.11802938941E+01  0.00000000000E+00 0.  1.
         11    1    3    3    0    0 -0.88648096314E+01  0.31752440751E+02 -0.23693417479E+02  0.40597787816E+02  0.51100000000E-03 0. -1.
        -11    1    3    3    0    0  0.12661703258E+02 -0.14536228960E+01  0.12438295599E+02  0.17808507702E+02  0.51100000000E-03 0.  1.
        -12    1    3    3    0    0 -0.42265623434E+01 -0.29201247526E+02  0.11316910569E+02  0.31601410588E+02  0.00000000000E+00 0.  1.
</event>
<event>
 7    1  0.1978681E-015  0.9000777E+02  0.7816164E-02  0.1186339E+00
        -11   -1    0    0    0    0  0.00000000000E+00  0.00000000000E+00  0.45593999997E+02  0.45594000000E+02  0.51100000000E-03 0.  1.
         11   -1    0    0    0    0 -0.00000000000E+00 -0.00000000000E+00 -0.45593999997E+02  0.45594000000E+02  0.51100000000E-03 0. -1.
    9900012    2    1    2    0    0  0.65177795249E-01 -0.10818407002E+01  0.46724981513E+00  0.90007767042E+02  0.90000028767E+02 0.  0.
        -12    1    1    2    0    0 -0.65177795249E-01  0.10818407002E+01 -0.46724981513E+00  0.11802329581E+01  0.00000000000E+00 0.  1.
         11    1    3    3    0    0 -0.11128603062E+02  0.14597693622E+02  0.64833806504E+01  0.19467220914E+02  0.51100000000E-03 0. -1.
        -11    1    3    3    0    0  0.13696554943E+02  0.41898140120E+01  0.27780846639E+02  0.31255809044E+02  0.51100000000E-03 0.  1.
         12    1    3    3    0    0 -0.25027740865E+01 -0.19869348334E+02 -0.33796977474E+02  0.39284737084E+02  0.00000000000E+00 0. -1.
</event>
<event>
 7    1  0.1978681E-015  0.9000778E+02  0.7816164E-02  0.1186339E+00
        -11   -1    0    0    0    0  0.00000000000E+00  0.00000000000E+00  0.45593999997E+02  0.45594000000E+02  0.51100000000E-03 0.  1.
         11   -1    0    0    0    0 -0.00000000000E+00 -0.00000000000E+00 -0.45593999997E+02  0.45594000000E+02  0.51100000000E-03 0. -1.
    9900012    2    1    2    0    0  0.59858216391E+00 -0.51901854179E+00 -0.87478316902E+00  0.90007776951E+02  0.90000038806E+02 0.  0.
        -12    1    1    2    0    0 -0.59858216391E+00  0.51901854179E+00  0.87478316902E+00  0.11802230495E+01  0.00000000000E+00 0.  1.
         11    1    3    3    0    0  0.23379078387E+02  0.21855470081E+02 -0.16338591950E+02  0.35933166655E+02  0.51100000000E-03 0. -1.
        -11    1    3    3    0    0  0.87164158789E+01  0.43512734235E-01 -0.52897083417E+01  0.10196019504E+02  0.51100000000E-03 0.  1.
        -12    1    3    3    0    0 -0.31496912102E+02 -0.22418001357E+02  0.20753517122E+02  0.43878590791E+02  0.00000000000E+00 0.  1.
</event>
<event>
 7    1  0.1978681E-015  0.9000780E+02  0.7816164E-02  0.1186339E+00
        -11   -1    0    0    0    0  0.00000000000E+00  0.00000000000E+00  0.45593999997E+02  0.45594000000E+02  0.51100000000E-03 0.  1.
         11   -1    0    0    0    0 -0.00000000000E+00 -0.00000000000E+00 -0.45593999997E+02  0.45594000000E+02  0.51100000000E-03 0. -1.
    9900012    2    1    2    0    0 -0.81485000833E+00  0.73751846408E+00 -0.43007438546E+00  0.90007797476E+02  0.90000059603E+02 0.  0.
        -12    1    1    2    0    0  0.81485000833E+00 -0.73751846408E+00  0.43007438546E+00  0.11802025241E+01  0.00000000000E+00 0.  1.
         11    1    3    3    0    0  0.40118713718E+01 -0.61418313471E+01 -0.21255941833E+02  0.22486268425E+02  0.51100000000E-03 0. -1.
        -11    1    3    3    0    0  0.83541663078E+01  0.21358185067E+02 -0.14499317771E+02  0.27132902169E+02  0.51100000000E-03 0.  1.
        -12    1    3    3    0    0 -0.13180887688E+02 -0.14478835256E+02  0.35325185219E+02  0.40388626881E+02  0.00000000000E+00 0.  1.
</event>
<event>
 7    1  0.1978681E-015  0.9000778E+02  0.7816164E-02  0.1186339E+00
        -11   -1    0    0    0    0  0.00000000000E+00  0.00000000000E+00  0.45593999997E+02  0.45594000000E+02  0.51100000000E-03 0.  1.
         11   -1    0    0    0    0 -0.00000000000E+00 -0.00000000000E+00 -0.45593999997E+02  0.45594000000E+02  0.51100000000E-03 0. -1.
    9900012    2    1    2    0    0  0.91121483330E+00  0.55368593565E-01  0.74803193114E+00  0.90007775477E+02  0.90000037314E+02 0.  0.
        -12    1    1    2    0    0 -0.91121483330E+00 -0.55368593565E-01 -0.74803193114E+00  0.11802245225E+01  0.00000000000E+00 0.  1.
         11    1    3    3    0    0 -0.57739241998E+01  0.93016073348E+01  0.19448550552E+01  0.11119377731E+02  0.51100000000E-03 0. -1.
        -11    1    3    3    0    0  0.82446834508E+00 -0.13398804268E+02  0.37344237647E+02  0.39683747171E+02  0.51100000000E-03 0.  1.
         12    1    3    3    0    0  0.58606706881E+01  0.41525655268E+01 -0.38541060771E+02  0.39204650575E+02  0.00000000000E+00 0. -1.
</event>
<event>
 7    1  0.1978681E-015  0.9000771E+02  0.7816164E-02  0.1186339E+00
        -11   -1    0    0    0    0  0.00000000000E+00  0.00000000000E+00  0.45593999997E+02  0.45594000000E+02  0.51100000000E-03 0. -1.
         11   -1    0    0    0    0 -0.00000000000E+00 -0.00000000000E+00 -0.45593999997E+02  0.45594000000E+02  0.51100000000E-03 0.  1.
    9900012    2    1    2    0    0 -0.87413131049E+00 -0.28624915683E+00  0.73961678947E+00  0.90007713118E+02  0.89999974131E+02 0.  0.
        -12    1    1    2    0    0  0.87413131049E+00  0.28624915683E+00 -0.73961678947E+00  0.11802868817E+01  0.00000000000E+00 0.  1.
         11    1    3    3    0    0  0.38282911252E+02 -0.11549851093E+02 -0.66986040334E+01  0.40544440439E+02  0.51100000000E-03 0. -1.
        -11    1    3    3    0    0 -0.10436476662E+01  0.70736447645E+01 -0.54734455873E+01  0.90046797591E+01  0.51100000000E-03 0.  1.
        -12    1    3    3    0    0 -0.38113394897E+02  0.41899571714E+01  0.12911666410E+02  0.40458592921E+02  0.00000000000E+00 0.  1.
</event>
<event>
 7    1  0.1978681E-015  0.9000770E+02  0.7816164E-02  0.1186339E+00
        -11   -1    0    0    0    0  0.00000000000E+00  0.00000000000E+00  0.45593999997E+02  0.45594000000E+02  0.51100000000E-03 0. -1.
         11   -1    0    0    0    0 -0.00000000000E+00 -0.00000000000E+00 -0.45593999997E+02  0.45594000000E+02  0.51100000000E-03 0.  1.
    9900012    2    1    2    0    0 -0.34016179394E-01  0.50526298715E+00  0.10661389919E+01  0.90007703369E+02  0.89999964254E+02 0.  0.
        -12    1    1    2    0    0  0.34016179394E-01 -0.50526298715E+00 -0.10661389919E+01  0.11802966308E+01  0.00000000000E+00 0.  1.
         11    1    3    3    0    0 -0.23126316106E+02  0.19011037372E+02 -0.22443194463E+02  0.37415812387E+02  0.51100000000E-03 0. -1.
        -11    1    3    3    0    0 -0.78324533227E+01 -0.45286744003E+01 -0.29965351511E+01  0.95307628262E+01  0.51100000000E-03 0.  1.
        -12    1    3    3    0    0  0.30924753249E+02 -0.13977099984E+02  0.26505868606E+02  0.43061128156E+02  0.00000000000E+00 0.  1.
</event>
<event>
 7    1  0.1978681E-015  0.9000766E+02  0.7816164E-02  0.1186339E+00
        -11   -1    0    0    0    0  0.00000000000E+00  0.00000000000E+00  0.45593999997E+02  0.45594000000E+02  0.51100000000E-03 0.  1.
         11   -1    0    0    0    0 -0.00000000000E+00 -0.00000000000E+00 -0.45593999997E+02  0.45594000000E+02  0.51100000000E-03 0. -1.
    9900012    2    1    2    0    0  0.18721568347E+00  0.10781082396E+01 -0.44253492615E+00  0.90007659266E+02  0.89999919568E+02 0.  0.
        -12    1    1    2    0    0 -0.18721568347E+00 -0.10781082396E+01  0.44253492615E+00  0.11803407344E+01  0.00000000000E+00 0.  1.
         11    1    3    3    0    0  0.71622199020E+01  0.97496586847E+01 -0.39661369098E+02  0.41465376368E+02  0.51100000000E-03 0. -1.
        -11    1    3    3    0    0 -0.63648424719E+01 -0.36998238495E+01 -0.15026811005E+01  0.75138516728E+01  0.51100000000E-03 0.  1.
        -12    1    3    3    0    0 -0.61016174659E+00 -0.49717265955E+01  0.40721515272E+02  0.41028431225E+02  0.00000000000E+00 0.  1.
</event>
<event>
 7    1  0.1978681E-015  0.9000774E+02  0.7816164E-02  0.1186339E+00
        -11   -1    0    0    0    0  0.00000000000E+00  0.00000000000E+00  0.45593999997E+02  0.45594000000E+02  0.51100000000E-03 0.  1.
         11   -1    0    0    0    0 -0.00000000000E+00 -0.00000000000E+00 -0.45593999997E+02  0.45594000000E+02  0.51100000000E-03 0. -1.
    9900012    2    1    2    0    0 -0.66712499278E+00  0.55558912928E+00 -0.79954443096E+00  0.90007743107E+02  0.90000004516E+02 0.  0.
        -12    1    1    2    0    0  0.66712499278E+00 -0.55558912928E+00  0.79954443096E+00  0.11802568931E+01  0.00000000000E+00 0.  1.
         11    1    3    3    0    0 -0.92169450437E+01 -0.46761865588E+00 -0.96343634535E+00  0.92789521498E+01  0.51100000000E-03 0. -1.
        -11    1    3    3    0    0  0.23422628859E+02  0.35841010053E+02  0.15250524501E+01  0.42843007942E+02  0.51100000000E-03 0.  1.
         12    1    3    3    0    0 -0.14872808808E+02 -0.34817802268E+02 -0.13611605357E+01  0.37885783015E+02  0.00000000000E+00 0. -1.
</event>
<event>
 7    1  0.1978681E-015  0.9000781E+02  0.7816164E-02  0.1186339E+00
        -11   -1    0    0    0    0  0.00000000000E+00  0.00000000000E+00  0.45593999997E+02  0.45594000000E+02  0.51100000000E-03 0.  1.
         11   -1    0    0    0    0 -0.00000000000E+00 -0.00000000000E+00 -0.45593999997E+02  0.45594000000E+02  0.51100000000E-03 0. -1.
    9900012    2    1    2    0    0 -0.74857672495E+00  0.59196855864E+00 -0.69429986263E+00  0.90007810953E+02  0.90000073257E+02 0.  0.
        -12    1    1    2    0    0  0.74857672495E+00 -0.59196855864E+00  0.69429986263E+00  0.11801890471E+01  0.00000000000E+00 0.  1.
         11    1    3    3    0    0 -0.24816513672E+02  0.11329576077E+02  0.23418771296E+02  0.35953546337E+02  0.51100000000E-03 0. -1.
        -11    1    3    3    0    0 -0.95718929230E+01 -0.15270790310E+01  0.26988321153E+01  0.10061649941E+02  0.51100000000E-03 0.  1.
        -12    1    3    3    0    0  0.33639829870E+02 -0.92105284877E+01 -0.26811903274E+02  0.43992614674E+02  0.00000000000E+00 0.  1.
</event>
<event>
 7    1  0.1978681E-015  0.9000771E+02  0.7816164E-02  0.1186339E+00
        -11   -1    0    0    0    0  0.00000000000E+00  0.00000000000E+00  0.45593999997E+02  0.45594000000E+02  0.51100000000E-03 0. -1.
         11   -1    0    0    0    0 -0.00000000000E+00 -0.00000000000E+00 -0.45593999997E+02  0.45594000000E+02  0.51100000000E-03 0.  1.
    9900012    2    1    2    0    0 -0.23740431313E+00  0.86966177021E+00 -0.76184149057E+00  0.90007714077E+02  0.89999975103E+02 0.  0.
        -12    1    1    2    0    0  0.23740431313E+00 -0.86966177021E+00  0.76184149057E+00  0.11802859226E+01  0.00000000000E+00 0.  1.
         11    1    3    3    0    0 -0.10543211503E+02 -0.23483551046E+01  0.11595368851E+00  0.10802200054E+02  0.51100000000E-03 0. -1.
        -11    1    3    3    0    0 -0.33370678816E+02 -0.33978550171E+01  0.71770490879E+01  0.34302443896E+02  0.51100000000E-03 0.  1.
         12    1    3    3    0    0  0.43676486006E+02  0.66158718919E+01 -0.80548442670E+01  0.44903070127E+02  0.00000000000E+00 0. -1.
</event>
<event>
 7    1  0.1978681E-015  0.9000724E+02  0.7816164E-02  0.1186340E+00
        -11   -1    0    0    0    0  0.00000000000E+00  0.00000000000E+00  0.45593999997E+02  0.45594000000E+02  0.51100000000E-03 0.  1.
         11   -1    0    0    0    0 -0.00000000000E+00 -0.00000000000E+00 -0.45593999997E+02  0.45594000000E+02  0.51100000000E-03 0. -1.
    9900012    2    1    2    0    0  0.59417456633E+00  0.80965778977E+00 -0.62097311068E+00  0.90007238908E+02  0.89999493660E+02 0.  0.
        -12    1    1    2    0    0 -0.59417456633E+00 -0.80965778977E+00  0.62097311068E+00  0.11807610918E+01  0.00000000000E+00 0.  1.
         11    1    3    3    0    0 -0.44182188313E+01 -0.59996905481E+01 -0.34478919843E+01  0.82100489469E+01  0.51100000000E-03 0. -1.
        -11    1    3    3    0    0  0.33229086290E+02  0.53210991602E+01  0.28135193184E+02  0.43864283508E+02  0.51100000000E-03 0.  1.
         12    1    3    3    0    0 -0.28216692892E+02  0.14882491777E+01 -0.25308274311E+02  0.37932906453E+02  0.00000000000E+00 0. -1.
</event>
<event>
 7    1  0.1978681E-015  0.9000779E+02  0.7816164E-02  0.1186339E+00
        -11   -1    0    0    0    0  0.00000000000E+00  0.00000000000E+00  0.45593999997E+02  0.45594000000E+02  0.51100000000E-03 0.  1.
         11   -1    0    0    0    0 -0.00000000000E+00 -0.00000000000E+00 -0.45593999997E+02  0.45594000000E+02  0.51100000000E-03 0. -1.
    9900012    2    1    2    0    0  0.32104366533E+00  0.55683206744E+00 -0.98982774545E+00  0.90007792411E+02  0.90000054471E+02 0.  0.
        -12    1    1    2    0    0 -0.32104366533E+00 -0.55683206744E+00  0.98982774545E+00  0.11802075885E+01  0.00000000000E+00 0.  1.
         11    1    3    3    0    0 -0.73111033185E+01 -0.46572104805E+01 -0.31652205920E+01  0.92282426740E+01  0.51100000000E-03 0. -1.
        -11    1    3    3    0    0  0.17892688037E+02 -0.18768052230E+02  0.31980396036E+02  0.41172002631E+02  0.51100000000E-03 0.  1.
         12    1    3    3    0    0 -0.10260541054E+02  0.23982094778E+02 -0.29805003190E+02  0.39607547107E+02  0.00000000000E+00 0. -1.
</event>
<event>
 7    1  0.1978681E-015  0.9000773E+02  0.7816164E-02  0.1186339E+00
        -11   -1    0    0    0    0  0.00000000000E+00  0.00000000000E+00  0.45593999997E+02  0.45594000000E+02  0.51100000000E-03 0. -1.
         11   -1    0    0    0    0 -0.00000000000E+00 -0.00000000000E+00 -0.45593999997E+02  0.45594000000E+02  0.51100000000E-03 0.  1.
    9900012    2    1    2    0    0  0.90631946058E+00  0.75450484429E+00 -0.48509060656E-01  0.90007726450E+02  0.89999987639E+02 0.  0.
        -12    1    1    2    0    0 -0.90631946058E+00 -0.75450484429E+00  0.48509060656E-01  0.11802735503E+01  0.00000000000E+00 0.  1.
         11    1    3    3    0    0  0.13385208692E+02 -0.35706945832E+02  0.14232599666E+02  0.40702784743E+02  0.51100000000E-03 0. -1.
        -11    1    3    3    0    0 -0.29160710948E+01 -0.22224377736E+01 -0.82169241925E+01  0.89978077182E+01  0.51100000000E-03 0.  1.
        -12    1    3    3    0    0 -0.95628181368E+01  0.38683888449E+02 -0.60641845339E+01  0.40307133988E+02  0.00000000000E+00 0.  1.
</event>
<event>
 7    1  0.1978681E-015  0.9000789E+02  0.7816164E-02  0.1186339E+00
        -11   -1    0    0    0    0  0.00000000000E+00  0.00000000000E+00  0.45593999997E+02  0.45594000000E+02  0.51100000000E-03 0. -1.
         11   -1    0    0    0    0 -0.00000000000E+00 -0.00000000000E+00 -0.45593999997E+02  0.45594000000E+02  0.51100000000E-03 0.  1.
    9900012    2    1    2    0    0  0.11577562953E+01  0.15108388939E+00  0.17159079421E+00  0.90007885861E+02  0.90000149154E+02 0.  0.
        -12    1    1    2    0    0 -0.11577562953E+01 -0.15108388939E+00 -0.17159079421E+00  0.11801141393E+01  0.00000000000E+00 0.  1.
         11    1    3    3    0    0 -0.24996691624E+02  0.16945778336E+02  0.20026158036E+01  0.30265565680E+02  0.51100000000E-03 0. -1.
        -11    1    3    3    0    0 -0.10795201151E+02 -0.11933030366E+02  0.11912297628E+02  0.20020899496E+02  0.51100000000E-03 0.  1.
        -12    1    3    3    0    0  0.36949649071E+02 -0.48616640810E+01 -0.13743322637E+02  0.39721420685E+02  0.00000000000E+00 0.  1.
</event>
<event>
 7    1  0.1978681E-015  0.9000773E+02  0.7816164E-02  0.1186339E+00
        -11   -1    0    0    0    0  0.00000000000E+00  0.00000000000E+00  0.45593999997E+02  0.45594000000E+02  0.51100000000E-03 0. -1.
         11   -1    0    0    0    0 -0.00000000000E+00 -0.00000000000E+00 -0.45593999997E+02  0.45594000000E+02  0.51100000000E-03 0.  1.
    9900012    2    1    2    0    0 -0.20259902863E+00  0.11323482129E+01 -0.26415009251E+00  0.90007731339E+02  0.89999992592E+02 0.  0.
        -12    1    1    2    0    0  0.20259902863E+00 -0.11323482129E+01  0.26415009251E+00  0.11802686614E+01  0.00000000000E+00 0.  1.
         11    1    3    3    0    0 -0.28452965098E+00 -0.40057708453E+02  0.22503516345E+01  0.40121877403E+02  0.51100000000E-03 0. -1.
        -11    1    3    3    0    0 -0.85182475858E+01  0.15555553261E+01  0.25184695179E+01  0.90179256639E+01  0.51100000000E-03 0.  1.
        -12    1    3    3    0    0  0.86001782082E+01  0.39634501340E+02 -0.50329712449E+01  0.40867928272E+02  0.00000000000E+00 0.  1.
</event>
<event>
 7    1  0.1978681E-015  0.9000776E+02  0.7816164E-02  0.1186339E+00
        -11   -1    0    0    0    0  0.00000000000E+00  0.00000000000E+00  0.45593999997E+02  0.45594000000E+02  0.51100000000E-03 0. -1.
         11   -1    0    0    0    0 -0.00000000000E+00 -0.00000000000E+00 -0.45593999997E+02  0.45594000000E+02  0.51100000000E-03 0.  1.
    9900012    2    1    2    0    0  0.63694635781E+00 -0.97638836020E+00 -0.18423625169E+00  0.90007755157E+02  0.90000016725E+02 0.  0.
        -12    1    1    2    0    0 -0.63694635781E+00  0.97638836020E+00  0.18423625169E+00  0.11802448429E+01  0.00000000000E+00 0.  1.
         11    1    3    3    0    0  0.24591272173E+01 -0.19097068970E+02  0.21537676500E+01  0.19374830715E+02  0.51100000000E-03 0. -1.
        -11    1    3    3    0    0 -0.34440490904E+02  0.53292618736E+01  0.38200533908E+01  0.35059110856E+02  0.51100000000E-03 0.  1.
        -12    1    3    3    0    0  0.32618310045E+02  0.12791418736E+02 -0.61580572926E+01  0.35573813586E+02  0.00000000000E+00 0.  1.
</event>
<event>
 7    1  0.1978681E-015  0.9000778E+02  0.7816164E-02  0.1186339E+00
        -11   -1    0    0    0    0  0.00000000000E+00  0.00000000000E+00  0.45593999997E+02  0.45594000000E+02  0.51100000000E-03 0. -1.
         11   -1    0    0    0    0 -0.00000000000E+00 -0.00000000000E+00 -0.45593999997E+02  0.45594000000E+02  0.51100000000E-03 0.  1.
    9900012    2    1    2    0    0 -0.49058913838E+00 -0.42780108715E+00  0.98449060942E+00  0.90007782548E+02  0.90000044478E+02 0.  0.
        -12    1    1    2    0    0  0.49058913838E+00  0.42780108715E+00 -0.98449060942E+00  0.11802174515E+01  0.00000000000E+00 0.  1.
         11    1    3    3    0    0  0.28937981195E+01 -0.35622759996E+01  0.69164811628E+01  0.83006981507E+01  0.51100000000E-03 0. -1.
        -11    1    3    3    0    0  0.33033485072E+02  0.92551513536E+00 -0.24146553481E+02  0.40928275795E+02  0.51100000000E-03 0.  1.
         12    1    3    3    0    0 -0.36417872330E+02  0.22089597771E+01  0.18214562928E+02  0.40778808602E+02  0.00000000000E+00 0. -1.
</event>
<event>
 7    1  0.1978681E-015  0.9000783E+02  0.7816164E-02  0.1186339E+00
        -11   -1    0    0    0    0  0.00000000000E+00  0.00000000000E+00  0.45593999997E+02  0.45594000000E+02  0.51100000000E-03 0.  1.
         11   -1    0    0    0    0 -0.00000000000E+00 -0.00000000000E+00 -0.45593999997E+02  0.45594000000E+02  0.51100000000E-03 0. -1.
    9900012    2    1    2    0    0 -0.74163451844E+00 -0.77677194806E+00 -0.48929174201E+00  0.90007829323E+02  0.90000091870E+02 0.  0.
        -12    1    1    2    0    0  0.74163451844E+00  0.77677194806E+00  0.48929174201E+00  0.11801706771E+01  0.00000000000E+00 0.  1.
         11    1    3    3    0    0  0.45840442340E+01  0.23970512037E+01  0.74831557477E+00  0.52267860558E+01  0.51100000000E-03 0. -1.
        -11    1    3    3    0    0  0.10749182518E+02  0.22544990343E+02  0.31469146010E+02  0.40176220146E+02  0.51100000000E-03 0.  1.
         12    1    3    3    0    0 -0.16074861271E+02 -0.25718813495E+02 -0.32706753327E+02  0.44604823121E+02  0.00000000000E+00 0. -1.
</event>
<event>
 7    1  0.1978681E-015  0.9000778E+02  0.7816164E-02  0.1186339E+00
        -11   -1    0    0    0    0  0.00000000000E+00  0.00000000000E+00  0.45593999997E+02  0.45594000000E+02  0.51100000000E-03 0. -1.
         11   -1    0    0    0    0 -0.00000000000E+00 -0.00000000000E+00 -0.45593999997E+02  0.45594000000E+02  0.51100000000E-03 0.  1.
    9900012    2    1    2    0    0 -0.63317235991E+00  0.39240962966E+00  0.91543535675E+00  0.90007782034E+02  0.90000043957E+02 0.  0.
        -12    1    1    2    0    0  0.63317235991E+00 -0.39240962966E+00 -0.91543535675E+00  0.11802179660E+01  0.00000000000E+00 0.  1.
         11    1    3    3    0    0  0.38242645794E+02 -0.52729428903E+01  0.60796998710E+01  0.39080258889E+02  0.51100000000E-03 0. -1.
        -11    1    3    3    0    0 -0.29603584961E+01 -0.77615459251E+01 -0.91729750921E+01  0.12375329890E+02  0.51100000000E-03 0.  1.
        -12    1    3    3    0    0 -0.35915459658E+02  0.13426898445E+02  0.40087105779E+01  0.38552193255E+02  0.00000000000E+00 0.  1.
</event>
<event>
 7    1  0.1986479E-015  0.9000774E+02  0.7816164E-02  0.1186339E+00
        -11   -1    0    0    0    0  0.00000000000E+00  0.00000000000E+00  0.45593999997E+02  0.45594000000E+02  0.51100000000E-03 0.  1.
         11   -1    0    0    0    0 -0.00000000000E+00 -0.00000000000E+00 -0.45593999997E+02  0.45594000000E+02  0.51100000000E-03 0. -1.
    9900012    2    1    2    0    0 -0.24866327019E+00 -0.10728930020E+01  0.42435389661E+00  0.90007741958E+02  0.90000003352E+02 0.  0.
        -12    1    1    2    0    0  0.24866327019E+00  0.10728930020E+01 -0.42435389661E+00  0.11802580418E+01  0.00000000000E+00 0.  1.
         11    1    3    3    0    0  0.16591816087E+01 -0.88202900544E+01  0.46398888395E+01  0.10103413728E+02  0.51100000000E-03 0. -1.
        -11    1    3    3    0    0  0.11637079885E+02 -0.33825053079E+02 -0.53355270245E+01  0.36166610194E+02  0.51100000000E-03 0.  1.
         12    1    3    3    0    0 -0.13544924764E+02  0.41572450131E+02  0.11199920817E+01  0.43737718036E+02  0.00000000000E+00 0. -1.
</event>
<event>
 7    1  0.1978681E-015  0.9000770E+02  0.7816164E-02  0.1186339E+00
        -11   -1    0    0    0    0  0.00000000000E+00  0.00000000000E+00  0.45593999997E+02  0.45594000000E+02  0.51100000000E-03 0. -1.
         11   -1    0    0    0    0 -0.00000000000E+00 -0.00000000000E+00 -0.45593999997E+02  0.45594000000E+02  0.51100000000E-03 0.  1.
    9900012    2    1    2    0    0 -0.11229855297E+00  0.11672982974E+01 -0.13379593218E+00  0.90007704430E+02  0.89999965329E+02 0.  0.
        -12    1    1    2    0    0  0.11229855297E+00 -0.11672982974E+01  0.13379593218E+00  0.11802955695E+01  0.00000000000E+00 0.  1.
         11    1    3    3    0    0  0.77634454843E+01  0.65821130192E+01  0.30323028694E+02  0.31985643139E+02  0.51100000000E-03 0. -1.
        -11    1    3    3    0    0  0.85292283860E+01 -0.17310475100E+01  0.10565124208E+02  0.13688174171E+02  0.51100000000E-03 0.  1.
        -12    1    3    3    0    0 -0.16404972423E+02 -0.36837672118E+01 -0.41021948834E+02  0.44333887121E+02  0.00000000000E+00 0.  1.
</event>
<event>
 7    1  0.1978681E-015  0.9000738E+02  0.7816164E-02  0.1186340E+00
        -11   -1    0    0    0    0  0.00000000000E+00  0.00000000000E+00  0.45593999997E+02  0.45594000000E+02  0.51100000000E-03 0.  1.
         11   -1    0    0    0    0 -0.00000000000E+00 -0.00000000000E+00 -0.45593999997E+02  0.45594000000E+02  0.51100000000E-03 0. -1.
    9900012    2    1    2    0    0  0.11295639119E+01 -0.27897835855E+00  0.20032439284E+00  0.90007375835E+02  0.89999632396E+02 0.  0.
        -12    1    1    2    0    0 -0.11295639119E+01  0.27897835855E+00 -0.20032439284E+00  0.11806241646E+01  0.00000000000E+00 0.  1.
         11    1    3    3    0    0  0.30957236553E+02  0.20033040032E+02 -0.34131651947E+01  0.37031377031E+02  0.51100000000E-03 0. -1.
        -11    1    3    3    0    0  0.82260761546E+01 -0.11566740396E+01 -0.47364655436E+01  0.95624437171E+01  0.51100000000E-03 0.  1.
        -12    1    3    3    0    0 -0.38053748796E+02 -0.19155344351E+02  0.83499551312E+01  0.43413555087E+02  0.00000000000E+00 0.  1.
</event>
<event>
 7    1  0.1978681E-015  0.9000757E+02  0.7816164E-02  0.1186339E+00
        -11   -1    0    0    0    0  0.00000000000E+00  0.00000000000E+00  0.45593999997E+02  0.45594000000E+02  0.51100000000E-03 0.  1.
         11   -1    0    0    0    0 -0.00000000000E+00 -0.00000000000E+00 -0.45593999997E+02  0.45594000000E+02  0.51100000000E-03 0. -1.
    9900012    2    1    2    0    0 -0.13372714416E-01  0.35411144644E+00 -0.11259867800E+01  0.90007567886E+02  0.89999826982E+02 0.  0.
        -12    1    1    2    0    0  0.13372714416E-01 -0.35411144644E+00  0.11259867800E+01  0.11804321136E+01  0.00000000000E+00 0.  1.
         11    1    3    3    0    0  0.58623636196E+01 -0.68776936085E+01 -0.27837149647E+01  0.94561644363E+01  0.51100000000E-03 0. -1.
        -11    1    3    3    0    0  0.10348016866E+02 -0.14544345478E+01  0.38217968319E+02  0.39620827043E+02  0.51100000000E-03 0.  1.
         12    1    3    3    0    0 -0.16223753200E+02  0.86862396027E+01 -0.36560240134E+02  0.40930576407E+02  0.00000000000E+00 0. -1.
</event>
<event>
 7    1  0.1978681E-015  0.9000760E+02  0.7816164E-02  0.1186339E+00
        -11   -1    0    0    0    0  0.00000000000E+00  0.00000000000E+00  0.45593999997E+02  0.45594000000E+02  0.51100000000E-03 0.  1.
         11   -1    0    0    0    0 -0.00000000000E+00 -0.00000000000E+00 -0.45593999997E+02  0.45594000000E+02  0.51100000000E-03 0. -1.
    9900012    2    1    2    0    0 -0.76052671517E+00  0.81310556932E+00 -0.39218385567E+00  0.90007597641E+02  0.89999857130E+02 0.  0.
        -12    1    1    2    0    0  0.76052671517E+00 -0.81310556932E+00  0.39218385567E+00  0.11804023585E+01  0.00000000000E+00 0.  1.
         11    1    3    3    0    0  0.24797613642E+02  0.29212805658E+02 -0.55572230731E+01  0.38719405797E+02  0.51100000000E-03 0. -1.
        -11    1    3    3    0    0  0.51896999218E+01 -0.32765122967E+01 -0.74252507131E+01  0.96334244442E+01  0.51100000000E-03 0.  1.
        -12    1    3    3    0    0 -0.30747840279E+02 -0.25123187792E+02  0.12590289930E+02  0.41654767400E+02  0.00000000000E+00 0.  1.
</event>
<event>
 7    1  0.1978681E-015  0.9000776E+02  0.7816164E-02  0.1186339E+00
        -11   -1    0    0    0    0  0.00000000000E+00  0.00000000000E+00  0.45593999997E+02  0.45594000000E+02  0.51100000000E-03 0.  1.
         11   -1    0    0    0    0 -0.00000000000E+00 -0.00000000000E+00 -0.45593999997E+02  0.45594000000E+02  0.51100000000E-03 0. -1.
    9900012    2    1    2    0    0  0.11427450727E+01 -0.28554516496E+00 -0.74548949304E-01  0.90007762783E+02  0.90000024452E+02 0.  0.
        -12    1    1    2    0    0 -0.11427450727E+01  0.28554516496E+00  0.74548949304E-01  0.11802372169E+01  0.00000000000E+00 0.  1.
         11    1    3    3    0    0 -0.57807490782E+01  0.97154620950E+01  0.41450244353E+01  0.12041116703E+02  0.51100000000E-03 0. -1.
        -11    1    3    3    0    0 -0.37842985708E+01  0.21905892716E+02  0.24958854207E+02  0.33423546415E+02  0.51100000000E-03 0.  1.
         12    1    3    3    0    0  0.10707792722E+02 -0.31906899976E+02 -0.29178427592E+02  0.44543099665E+02  0.00000000000E+00 0. -1.
</event>
<event>
 7    1  0.1978681E-015  0.9000776E+02  0.7816164E-02  0.1186339E+00
        -11   -1    0    0    0    0  0.00000000000E+00  0.00000000000E+00  0.45593999997E+02  0.45594000000E+02  0.51100000000E-03 0. -1.
         11   -1    0    0    0    0 -0.00000000000E+00 -0.00000000000E+00 -0.45593999997E+02  0.45594000000E+02  0.51100000000E-03 0.  1.
    9900012    2    1    2    0    0  0.72418427460E+00 -0.13936388468E-01  0.93184213182E+00  0.90007759836E+02  0.90000021466E+02 0.  0.
        -12    1    1    2    0    0 -0.72418427460E+00  0.13936388468E-01 -0.93184213182E+00  0.11802401642E+01  0.00000000000E+00 0.  1.
         11    1    3    3    0    0 -0.30723382196E+00 -0.35185181317E+01  0.93871904704E+01  0.10029641452E+02  0.51100000000E-03 0. -1.
        -11    1    3    3    0    0  0.12566940566E+02 -0.31018195969E+02 -0.23182923229E+02  0.40712460084E+02  0.51100000000E-03 0.  1.
         12    1    3    3    0    0 -0.11535522469E+02  0.34522777712E+02  0.14727574890E+02  0.39265658300E+02  0.00000000000E+00 0. -1.
</event>
<event>
 7    1  0.1978681E-015  0.9000775E+02  0.7816164E-02  0.1186339E+00
        -11   -1    0    0    0    0  0.00000000000E+00  0.00000000000E+00  0.45593999997E+02  0.45594000000E+02  0.51100000000E-03 0. -1.
         11   -1    0    0    0    0 -0.00000000000E+00 -0.00000000000E+00 -0.45593999997E+02  0.45594000000E+02  0.51100000000E-03 0.  1.
    9900012    2    1    2    0    0 -0.11680761220E+01  0.37289100551E-02  0.16902516653E+00  0.90007752044E+02  0.90000013571E+02 0.  0.
        -12    1    1    2    0    0  0.11680761220E+01 -0.37289100551E-02 -0.16902516653E+00  0.11802479563E+01  0.00000000000E+00 0.  1.
         11    1    3    3    0    0 -0.56220919058E+01  0.67918906625E+01  0.68322953557E+01  0.11154279728E+02  0.51100000000E-03 0. -1.
        -11    1    3    3    0    0 -0.21665985291E+02  0.50229246140E+01 -0.33086652129E+02  0.39866919115E+02  0.51100000000E-03 0.  1.
         12    1    3    3    0    0  0.26120001075E+02 -0.11811086366E+02  0.26423381940E+02  0.38986553201E+02  0.00000000000E+00 0. -1.
</event>
<event>
 7    1  0.1978681E-015  0.9000775E+02  0.7816164E-02  0.1186339E+00
        -11   -1    0    0    0    0  0.00000000000E+00  0.00000000000E+00  0.45593999997E+02  0.45594000000E+02  0.51100000000E-03 0. -1.
         11   -1    0    0    0    0 -0.00000000000E+00 -0.00000000000E+00 -0.45593999997E+02  0.45594000000E+02  0.51100000000E-03 0.  1.
    9900012    2    1    2    0    0  0.88031254718E+00  0.91711578764E-01  0.78078951302E+00  0.90007748562E+02  0.90000010043E+02 0.  0.
        -12    1    1    2    0    0 -0.88031254718E+00 -0.91711578764E-01 -0.78078951302E+00  0.11802514385E+01  0.00000000000E+00 0.  1.
         11    1    3    3    0    0 -0.55574420953E+01 -0.77687163555E+01 -0.31375446296E+01  0.10053969515E+02  0.51100000000E-03 0. -1.
        -11    1    3    3    0    0 -0.30226111314E+02  0.24926063011E+02  0.50156531558E+01  0.39497888542E+02  0.51100000000E-03 0.  1.
         12    1    3    3    0    0  0.36663865957E+02 -0.17065635077E+02 -0.10973190132E+01  0.40455890504E+02  0.00000000000E+00 0. -1.
</event>
<event>
 7    1  0.1978681E-015  0.9000773E+02  0.7816164E-02  0.1186339E+00
        -11   -1    0    0    0    0  0.00000000000E+00  0.00000000000E+00  0.45593999997E+02  0.45594000000E+02  0.51100000000E-03 0. -1.
         11   -1    0    0    0    0 -0.00000000000E+00 -0.00000000000E+00 -0.45593999997E+02  0.45594000000E+02  0.51100000000E-03 0.  1.
    9900012    2    1    2    0    0 -0.85780406541E+00 -0.79721169407E+00 -0.14714481158E+00  0.90007734820E+02  0.89999996120E+02 0.  0.
        -12    1    1    2    0    0  0.85780406541E+00  0.79721169407E+00  0.14714481158E+00  0.11802651801E+01  0.00000000000E+00 0.  1.
         11    1    3    3    0    0  0.36572650298E+02 -0.65916611379E+01  0.44995522240E+01  0.37433336972E+02  0.51100000000E-03 0. -1.
        -11    1    3    3    0    0  0.47980400200E+01 -0.47578389406E+01  0.44715079444E+01  0.81026293866E+01  0.51100000000E-03 0.  1.
        -12    1    3    3    0    0 -0.42228494383E+02  0.10552288384E+02 -0.91182049800E+01  0.44471768461E+02  0.00000000000E+00 0.  1.
</event>
<event>
 7    1  0.1978681E-015  0.9000774E+02  0.7816164E-02  0.1186339E+00
        -11   -1    0    0    0    0  0.00000000000E+00  0.00000000000E+00  0.45593999997E+02  0.45594000000E+02  0.51100000000E-03 0. -1.
         11   -1    0    0    0    0 -0.00000000000E+00 -0.00000000000E+00 -0.45593999997E+02  0.45594000000E+02  0.51100000000E-03 0.  1.
    9900012    2    1    2    0    0 -0.83518327164E+00 -0.77877726402E+00  0.29829272037E+00  0.90007744235E+02  0.90000005659E+02 0.  0.
        -12    1    1    2    0    0  0.83518327164E+00  0.77877726402E+00 -0.29829272037E+00  0.11802557652E+01  0.00000000000E+00 0.  1.
         11    1    3    3    0    0  0.81461899836E+01 -0.25900931982E+02  0.36213395214E+01  0.27392203069E+02  0.51100000000E-03 0. -1.
        -11    1    3    3    0    0 -0.32067799005E+01 -0.17596509061E+02 -0.73140913629E+01  0.19323987715E+02  0.51100000000E-03 0.  1.
        -12    1    3    3    0    0 -0.57745933547E+01  0.42718663779E+02  0.39910445619E+01  0.43291553451E+02  0.00000000000E+00 0.  1.
</event>
<event>
 7    1  0.1978681E-015  0.9000774E+02  0.7816164E-02  0.1186339E+00
        -11   -1    0    0    0    0  0.00000000000E+00  0.00000000000E+00  0.45593999997E+02  0.45594000000E+02  0.51100000000E-03 0.  1.
         11   -1    0    0    0    0 -0.00000000000E+00 -0.00000000000E+00 -0.45593999997E+02  0.45594000000E+02  0.51100000000E-03 0. -1.
    9900012    2    1    2    0    0 -0.20621439636E+00  0.38761300069E+00 -0.10955541856E+01  0.90007742745E+02  0.90000004149E+02 0.  0.
        -12    1    1    2    0    0  0.20621439636E+00 -0.38761300069E+00  0.10955541856E+01  0.11802572555E+01  0.00000000000E+00 0.  1.
         11    1    3    3    0    0 -0.21904496026E+02 -0.18720411179E+02 -0.26181838581E+02  0.38932626582E+02  0.51100000000E-03 0. -1.
        -11    1    3    3    0    0  0.74472379908E-02 -0.75050614235E+01 -0.14979758896E+01  0.76530996635E+01  0.51100000000E-03 0.  1.
        -12    1    3    3    0    0  0.21690834392E+02  0.26613085604E+02  0.26584260285E+02  0.43422016499E+02  0.00000000000E+00 0.  1.
</event>
<event>
 7    1  0.1978681E-015  0.9000757E+02  0.7816164E-02  0.1186339E+00
        -11   -1    0    0    0    0  0.00000000000E+00  0.00000000000E+00  0.45593999997E+02  0.45594000000E+02  0.51100000000E-03 0.  1.
         11   -1    0    0    0    0 -0.00000000000E+00 -0.00000000000E+00 -0.45593999997E+02  0.45594000000E+02  0.51100000000E-03 0. -1.
    9900012    2    1    2    0    0 -0.75416235660E+00 -0.75131047077E+00 -0.51007683633E+00  0.90007573525E+02  0.89999832696E+02 0.  0.
        -12    1    1    2    0    0  0.75416235660E+00  0.75131047077E+00  0.51007683633E+00  0.11804264749E+01  0.00000000000E+00 0.  1.
         11    1    3    3    0    0 -0.94390428994E+01  0.67281987384E+01 -0.34535733963E+02  0.36429124471E+02  0.51100000000E-03 0. -1.
        -11    1    3    3    0    0 -0.57223761539E+01  0.60351036508E+01 -0.50950245020E+01  0.97533245543E+01  0.51100000000E-03 0.  1.
        -12    1    3    3    0    0  0.14407256697E+02 -0.13514612860E+02  0.39120681629E+02  0.43825124499E+02  0.00000000000E+00 0.  1.
</event>
<event>
 7    1  0.1978681E-015  0.9000776E+02  0.7816164E-02  0.1186339E+00
        -11   -1    0    0    0    0  0.00000000000E+00  0.00000000000E+00  0.45593999997E+02  0.45594000000E+02  0.51100000000E-03 0. -1.
         11   -1    0    0    0    0 -0.00000000000E+00 -0.00000000000E+00 -0.45593999997E+02  0.45594000000E+02  0.51100000000E-03 0.  1.
    9900012    2    1    2    0    0 -0.43944773642E+00  0.10666652807E+01  0.24913631401E+00  0.90007763567E+02  0.90000025246E+02 0.  0.
        -12    1    1    2    0    0  0.43944773642E+00 -0.10666652807E+01 -0.24913631401E+00  0.11802364327E+01  0.00000000000E+00 0.  1.
         11    1    3    3    0    0  0.98989320332E+01  0.15021424635E+01  0.79870268501E+00  0.10044063601E+02  0.51100000000E-03 0. -1.
        -11    1    3    3    0    0 -0.98891330706E+01  0.36619503810E+02 -0.14156413018E+02  0.40486874934E+02  0.51100000000E-03 0.  1.
         12    1    3    3    0    0 -0.44924669903E+00 -0.37054980992E+02  0.13606846647E+02  0.39476825032E+02  0.00000000000E+00 0. -1.
</event>
<event>
 7    1  0.1978681E-015  0.9000760E+02  0.7816164E-02  0.1186339E+00
        -11   -1    0    0    0    0  0.00000000000E+00  0.00000000000E+00  0.45593999997E+02  0.45594000000E+02  0.51100000000E-03 0. -1.
         11   -1    0    0    0    0 -0.00000000000E+00 -0.00000000000E+00 -0.45593999997E+02  0.45594000000E+02  0.51100000000E-03 0.  1.
    9900012    2    1    2    0    0 -0.73700737933E-01 -0.11754724452E+01 -0.78601553992E-01  0.90007599444E+02  0.89999858957E+02 0.  0.
        -12    1    1    2    0    0  0.73700737933E-01  0.11754724452E+01  0.78601553992E-01  0.11804005559E+01  0.00000000000E+00 0.  1.
         11    1    3    3    0    0  0.24544489127E+00 -0.10380158420E+02  0.12242466853E+01  0.10454985042E+02  0.51100000000E-03 0. -1.
        -11    1    3    3    0    0  0.96359265869E+01 -0.26477672829E+02 -0.23218430906E+02  0.36510461153E+02  0.51100000000E-03 0.  1.
         12    1    3    3    0    0 -0.99550722161E+01  0.35682358804E+02  0.21915582667E+02  0.43042153249E+02  0.00000000000E+00 0. -1.
</event>
<event>
 7    1  0.1978681E-015  0.9000826E+02  0.7816164E-02  0.1186338E+00
        -11   -1    0    0    0    0  0.00000000000E+00  0.00000000000E+00  0.45593999997E+02  0.45594000000E+02  0.51100000000E-03 0.  1.
         11   -1    0    0    0    0 -0.00000000000E+00 -0.00000000000E+00 -0.45593999997E+02  0.45594000000E+02  0.51100000000E-03 0. -1.
    9900012    2    1    2    0    0 -0.89424521407E+00 -0.17842675954E+00 -0.74851021554E+00  0.90008263523E+02  0.90000531800E+02 0.  0.
        -12    1    1    2    0    0  0.89424521407E+00  0.17842675954E+00  0.74851021554E+00  0.11797364766E+01  0.00000000000E+00 0.  1.
         11    1    3    3    0    0  0.74666151166E+01 -0.11022153887E+02 -0.37635231138E+02  0.39920531568E+02  0.51100000000E-03 0. -1.
        -11    1    3    3    0    0 -0.95838678226E+01 -0.46763771438E+00 -0.18000830720E+01  0.97626587977E+01  0.51100000000E-03 0.  1.
        -12    1    3    3    0    0  0.12230074919E+01  0.11311364842E+02  0.38686803994E+02  0.40325073158E+02  0.00000000000E+00 0.  1.
</event>
<event>
 7    1  0.1978681E-015  0.9000764E+02  0.7816164E-02  0.1186339E+00
        -11   -1    0    0    0    0  0.00000000000E+00  0.00000000000E+00  0.45593999997E+02  0.45594000000E+02  0.51100000000E-03 0. -1.
         11   -1    0    0    0    0 -0.00000000000E+00 -0.00000000000E+00 -0.45593999997E+02  0.45594000000E+02  0.51100000000E-03 0.  1.
    9900012    2    1    2    0    0  0.10180201288E+00 -0.10961537245E+01  0.42582437943E+00  0.90007642834E+02  0.89999902919E+02 0.  0.
        -12    1    1    2    0    0 -0.10180201288E+00  0.10961537245E+01 -0.42582437943E+00  0.11803571662E+01  0.00000000000E+00 0.  1.
         11    1    3    3    0    0  0.13749362287E+00  0.50915930709E+00 -0.96179778396E+01  0.96324267805E+01  0.51100000000E-03 0. -1.
        -11    1    3    3    0    0 -0.24836521181E+02  0.92575885339E+01 -0.24765850324E+02  0.36275378321E+02  0.51100000000E-03 0.  1.
         12    1    3    3    0    0  0.24800829571E+02 -0.10862901566E+02  0.34809652543E+02  0.44099837732E+02  0.00000000000E+00 0. -1.
</event>
<event>
 7    1  0.1978681E-015  0.9000771E+02  0.7816164E-02  0.1186339E+00
        -11   -1    0    0    0    0  0.00000000000E+00  0.00000000000E+00  0.45593999997E+02  0.45594000000E+02  0.51100000000E-03 0.  1.
         11   -1    0    0    0    0 -0.00000000000E+00 -0.00000000000E+00 -0.45593999997E+02  0.45594000000E+02  0.51100000000E-03 0. -1.
    9900012    2    1    2    0    0  0.27788624814E-01 -0.11070067910E+01 -0.40848003502E+00  0.90007706739E+02  0.89999967668E+02 0.  0.
        -12    1    1    2    0    0 -0.27788624814E-01  0.11070067910E+01  0.40848003502E+00  0.11802932610E+01  0.00000000000E+00 0.  1.
         11    1    3    3    0    0 -0.71298294899E+01 -0.64634802685E+01  0.41523672120E+01  0.10481087704E+02  0.51100000000E-03 0. -1.
        -11    1    3    3    0    0  0.12682099443E+02 -0.35522354779E+02 -0.62936019521E+01  0.38239805977E+02  0.51100000000E-03 0.  1.
         12    1    3    3    0    0 -0.55244813286E+01  0.40878828257E+02  0.17327547051E+01  0.41286813058E+02  0.00000000000E+00 0. -1.
</event>
<event>
 7    1  0.1978681E-015  0.9000792E+02  0.7816164E-02  0.1186339E+00
        -11   -1    0    0    0    0  0.00000000000E+00  0.00000000000E+00  0.45593999997E+02  0.45594000000E+02  0.51100000000E-03 0. -1.
         11   -1    0    0    0    0 -0.00000000000E+00 -0.00000000000E+00 -0.45593999997E+02  0.45594000000E+02  0.51100000000E-03 0.  1.
    9900012    2    1    2    0    0  0.11741170957E+01  0.11814385722E+00 -0.91434319781E-02  0.90007918423E+02  0.90000182146E+02 0.  0.
        -12    1    1    2    0    0 -0.11741170957E+01 -0.11814385722E+00  0.91434319781E-02  0.11800815767E+01  0.00000000000E+00 0.  1.
         11    1    3    3    0    0 -0.76079203914E+01  0.36332254858E+01 -0.89764681699E+00  0.84785936441E+01  0.51100000000E-03 0. -1.
        -11    1    3    3    0    0 -0.26765220030E+02  0.19203139453E+02 -0.15328139805E+02  0.36333035082E+02  0.51100000000E-03 0.  1.
         12    1    3    3    0    0  0.35547257517E+02 -0.22718221081E+02  0.16216643190E+02  0.45196289698E+02  0.00000000000E+00 0. -1.
</event>
<event>
 7    1  0.1978681E-015  0.9000773E+02  0.7816164E-02  0.1186339E+00
        -11   -1    0    0    0    0  0.00000000000E+00  0.00000000000E+00  0.45593999997E+02  0.45594000000E+02  0.51100000000E-03 0.  1.
         11   -1    0    0    0    0 -0.00000000000E+00 -0.00000000000E+00 -0.45593999997E+02  0.45594000000E+02  0.51100000000E-03 0. -1.
    9900012    2    1    2    0    0 -0.31996390011E+00  0.11976430933E-01 -0.11360056258E+01  0.90007733456E+02  0.89999994738E+02 0.  0.
        -12    1    1    2    0    0  0.31996390011E+00 -0.11976430933E-01  0.11360056258E+01  0.11802665436E+01  0.00000000000E+00 0.  1.
         11    1    3    3    0    0 -0.24842593485E+02 -0.29789729725E+02 -0.49405014297E+01  0.39102314545E+02  0.51100000000E-03 0. -1.
        -11    1    3    3    0    0 -0.79721425472E+01  0.59321980188E+01 -0.20979586628E+01  0.10156153846E+02  0.51100000000E-03 0.  1.
        -12    1    3    3    0    0  0.32494772132E+02  0.23869508137E+02  0.59024544668E+01  0.40749265065E+02  0.00000000000E+00 0.  1.
</event>
<event>
 7    1  0.1978681E-015  0.9000773E+02  0.7816164E-02  0.1186339E+00
        -11   -1    0    0    0    0  0.00000000000E+00  0.00000000000E+00  0.45593999997E+02  0.45594000000E+02  0.51100000000E-03 0.  1.
         11   -1    0    0    0    0 -0.00000000000E+00 -0.00000000000E+00 -0.45593999997E+02  0.45594000000E+02  0.51100000000E-03 0. -1.
    9900012    2    1    2    0    0  0.67308809919E+00  0.15884481117E-01 -0.96940171834E+00  0.90007729015E+02  0.89999990238E+02 0.  0.
        -12    1    1    2    0    0 -0.67308809919E+00 -0.15884481117E-01  0.96940171834E+00  0.11802709848E+01  0.00000000000E+00 0.  1.
         11    1    3    3    0    0 -0.68324644115E+01  0.13484323414E+01 -0.58428114080E+01  0.90906152226E+01  0.51100000000E-03 0. -1.
        -11    1    3    3    0    0 -0.34598445253E+02 -0.67404161870E+01  0.13234740848E+02  0.37651613377E+02  0.51100000000E-03 0.  1.
         12    1    3    3    0    0  0.42103997764E+02  0.54078683267E+01 -0.83613311584E+01  0.43265500416E+02  0.00000000000E+00 0. -1.
</event>
<event>
 7    1  0.1978681E-015  0.9000773E+02  0.7816164E-02  0.1186339E+00
        -11   -1    0    0    0    0  0.00000000000E+00  0.00000000000E+00  0.45593999997E+02  0.45594000000E+02  0.51100000000E-03 0.  1.
         11   -1    0    0    0    0 -0.00000000000E+00 -0.00000000000E+00 -0.45593999997E+02  0.45594000000E+02  0.51100000000E-03 0. -1.
    9900012    2    1    2    0    0  0.40851756948E+00  0.89687105368E+00 -0.64943214262E+00  0.90007734606E+02  0.89999995903E+02 0.  0.
        -12    1    1    2    0    0 -0.40851756948E+00 -0.89687105368E+00  0.64943214262E+00  0.11802653936E+01  0.00000000000E+00 0.  1.
         11    1    3    3    0    0  0.88910107826E+01  0.33398484212E+02  0.15148469105E+02  0.37735724942E+02  0.51100000000E-03 0. -1.
        -11    1    3    3    0    0 -0.42690617326E+01  0.71901110174E+01  0.19547777584E+01  0.85874175900E+01  0.51100000000E-03 0.  1.
        -12    1    3    3    0    0 -0.42134314805E+01 -0.39691724175E+02 -0.17752679006E+02  0.43684592075E+02  0.00000000000E+00 0.  1.
</event>
<event>
 7    1  0.1978681E-015  0.9000771E+02  0.7816164E-02  0.1186339E+00
        -11   -1    0    0    0    0  0.00000000000E+00  0.00000000000E+00  0.45593999997E+02  0.45594000000E+02  0.51100000000E-03 0.  1.
         11   -1    0    0    0    0 -0.00000000000E+00 -0.00000000000E+00 -0.45593999997E+02  0.45594000000E+02  0.51100000000E-03 0. -1.
    9900012    2    1    2    0    0 -0.27346509045E-01 -0.79833176685E+00 -0.86891172103E+00  0.90007708078E+02  0.89999969025E+02 0.  0.
        -12    1    1    2    0    0  0.27346509045E-01  0.79833176685E+00  0.86891172103E+00  0.11802919217E+01  0.00000000000E+00 0.  1.
         11    1    3    3    0    0 -0.88120444758E+01 -0.25352252386E+01 -0.33452385879E+01  0.97606411841E+01  0.51100000000E-03 0. -1.
        -11    1    3    3    0    0  0.14952057419E+02  0.30527841052E+02  0.25807750534E+02  0.42679656609E+02  0.51100000000E-03 0.  1.
         12    1    3    3    0    0 -0.61673594522E+01 -0.28790947580E+02 -0.23331423667E+02  0.37567410285E+02  0.00000000000E+00 0. -1.
</event>
<event>
 7    1  0.1978681E-015  0.9000769E+02  0.7816164E-02  0.1186339E+00
        -11   -1    0    0    0    0  0.00000000000E+00  0.00000000000E+00  0.45593999997E+02  0.45594000000E+02  0.51100000000E-03 0.  1.
         11   -1    0    0    0    0 -0.00000000000E+00 -0.00000000000E+00 -0.45593999997E+02  0.45594000000E+02  0.51100000000E-03 0. -1.
    9900012    2    1    2    0    0 -0.10605354977E+01 -0.50798269588E+00 -0.10177513095E+00  0.90007686424E+02  0.89999947084E+02 0.  0.
        -12    1    1    2    0    0  0.10605354977E+01  0.50798269588E+00  0.10177513095E+00  0.11803135763E+01  0.00000000000E+00 0.  1.
         11    1    3    3    0    0 -0.27636008017E+02  0.95463651524E+00 -0.26020729482E+02  0.37970233513E+02  0.51100000000E-03 0. -1.
        -11    1    3    3    0    0 -0.22032121409E+01 -0.70754892528E+01 -0.53741819474E+01  0.91541533617E+01  0.51100000000E-03 0.  1.
        -12    1    3    3    0    0  0.28778684660E+02  0.56128700417E+01  0.31293136298E+02  0.42883299549E+02  0.00000000000E+00 0.  1.
</event>
<event>
 7    1  0.1978681E-015  0.9000764E+02  0.7816164E-02  0.1186339E+00
        -11   -1    0    0    0    0  0.00000000000E+00  0.00000000000E+00  0.45593999997E+02  0.45594000000E+02  0.51100000000E-03 0.  1.
         11   -1    0    0    0    0 -0.00000000000E+00 -0.00000000000E+00 -0.45593999997E+02  0.45594000000E+02  0.51100000000E-03 0. -1.
    9900012    2    1    2    0    0  0.24467857510E+00 -0.11496275086E+01  0.10834429607E+00  0.90007640097E+02  0.89999900146E+02 0.  0.
        -12    1    1    2    0    0 -0.24467857510E+00  0.11496275086E+01 -0.10834429607E+00  0.11803599028E+01  0.00000000000E+00 0.  1.
         11    1    3    3    0    0 -0.30950489898E+02 -0.77428954893E+01 -0.19612447573E+02  0.37450411954E+02  0.51100000000E-03 0. -1.
        -11    1    3    3    0    0 -0.27467613955E+01 -0.66717507112E+01 -0.47709716812E+01  0.86498050128E+01  0.51100000000E-03 0.  1.
        -12    1    3    3    0    0  0.33941929869E+02  0.13265018692E+02  0.24491763550E+02  0.43907423130E+02  0.00000000000E+00 0.  1.
</event>
<event>
 7    1  0.1978681E-015  0.9000856E+02  0.7816164E-02  0.1186337E+00
        -11   -1    0    0    0    0  0.00000000000E+00  0.00000000000E+00  0.45593999997E+02  0.45594000000E+02  0.51100000000E-03 0. -1.
         11   -1    0    0    0    0 -0.00000000000E+00 -0.00000000000E+00 -0.45593999997E+02  0.45594000000E+02  0.51100000000E-03 0.  1.
    9900012    2    1    2    0    0 -0.80635133464E+00  0.15105352042E+00  0.84738029556E+00  0.90008562420E+02  0.90000834640E+02 0.  0.
        -12    1    1    2    0    0  0.80635133464E+00 -0.15105352042E+00 -0.84738029556E+00  0.11794375805E+01  0.00000000000E+00 0.  1.
         11    1    3    3    0    0  0.84081317616E+01  0.10833869542E+01 -0.40130766393E+01  0.93795091230E+01  0.51100000000E-03 0. -1.
        -11    1    3    3    0    0  0.19462582007E+02  0.20160470476E+02 -0.22332340131E+02  0.35832528297E+02  0.51100000000E-03 0.  1.
         12    1    3    3    0    0 -0.28677065104E+02 -0.21092803910E+02  0.27192797066E+02  0.44796524999E+02  0.00000000000E+00 0. -1.
</event>
<event>
 7    1  0.1978681E-015  0.9000883E+02  0.7816164E-02  0.1186337E+00
        -11   -1    0    0    0    0  0.00000000000E+00  0.00000000000E+00  0.45593999997E+02  0.45594000000E+02  0.51100000000E-03 0. -1.
         11   -1    0    0    0    0 -0.00000000000E+00 -0.00000000000E+00 -0.45593999997E+02  0.45594000000E+02  0.51100000000E-03 0.  1.
    9900012    2    1    2    0    0  0.17037556259E-01  0.92212674530E+00  0.73474148983E+00  0.90008825259E+02  0.90001100946E+02 0.  0.
        -12    1    1    2    0    0 -0.17037556259E-01 -0.92212674530E+00 -0.73474148983E+00  0.11791747409E+01  0.00000000000E+00 0.  1.
         11    1    3    3    0    0 -0.68871804548E+01  0.21843610095E+02  0.35670807951E+02  0.42390837415E+02  0.51100000000E-03 0. -1.
        -11    1    3    3    0    0 -0.72361269801E+01 -0.40971641924E+00 -0.58001598366E+01  0.92828473868E+01  0.51100000000E-03 0.  1.
        -12    1    3    3    0    0  0.14140344991E+02 -0.20511766930E+02 -0.29135906625E+02  0.38335140458E+02  0.00000000000E+00 0.  1.
</event>
<event>
 7    1  0.1978681E-015  0.9000791E+02  0.7816164E-02  0.1186339E+00
        -11   -1    0    0    0    0  0.00000000000E+00  0.00000000000E+00  0.45593999997E+02  0.45594000000E+02  0.51100000000E-03 0.  1.
         11   -1    0    0    0    0 -0.00000000000E+00 -0.00000000000E+00 -0.45593999997E+02  0.45594000000E+02  0.51100000000E-03 0. -1.
    9900012    2    1    2    0    0 -0.58062139603E+00  0.61208937656E-01 -0.10255443923E+01  0.90007911427E+02  0.90000175058E+02 0.  0.
        -12    1    1    2    0    0  0.58062139603E+00 -0.61208937656E-01  0.10255443923E+01  0.11800885730E+01  0.00000000000E+00 0.  1.
         11    1    3    3    0    0  0.94675227650E+00 -0.22511390292E+01  0.10252732630E+02  0.10539567991E+02  0.51100000000E-03 0. -1.
        -11    1    3    3    0    0  0.19122248457E+02  0.13894846824E+02  0.26106137773E+02  0.35217290980E+02  0.51100000000E-03 0.  1.
         12    1    3    3    0    0 -0.20649622130E+02 -0.11582498857E+02 -0.37384414795E+02  0.44251052456E+02  0.00000000000E+00 0. -1.
</event>
<event>
 7    1  0.1978681E-015  0.9000774E+02  0.7816164E-02  0.1186339E+00
        -11   -1    0    0    0    0  0.00000000000E+00  0.00000000000E+00  0.45593999997E+02  0.45594000000E+02  0.51100000000E-03 0.  1.
         11   -1    0    0    0    0 -0.00000000000E+00 -0.00000000000E+00 -0.45593999997E+02  0.45594000000E+02  0.51100000000E-03 0. -1.
    9900012    2    1    2    0    0 -0.65058427701E+00 -0.89556757140E+00  0.40954095471E+00  0.90007735212E+02  0.89999996517E+02 0.  0.
        -12    1    1    2    0    0  0.65058427701E+00  0.89556757140E+00 -0.40954095471E+00  0.11802647881E+01  0.00000000000E+00 0.  1.
         11    1    3    3    0    0  0.26744960724E+02 -0.19833464332E+02 -0.11030623740E+02  0.35076115690E+02  0.51100000000E-03 0. -1.
        -11    1    3    3    0    0  0.68058953349E+01 -0.66726431087E+01 -0.27320578229E+01  0.99150651826E+01  0.51100000000E-03 0.  1.
        -12    1    3    3    0    0 -0.34201440336E+02  0.25610539869E+02  0.14172222518E+02  0.45016554339E+02  0.00000000000E+00 0.  1.
</event>
<event>
 7    1  0.1978681E-015  0.9000771E+02  0.7816164E-02  0.1186339E+00
        -11   -1    0    0    0    0  0.00000000000E+00  0.00000000000E+00  0.45593999997E+02  0.45594000000E+02  0.51100000000E-03 0.  1.
         11   -1    0    0    0    0 -0.00000000000E+00 -0.00000000000E+00 -0.45593999997E+02  0.45594000000E+02  0.51100000000E-03 0. -1.
    9900012    2    1    2    0    0 -0.58045137598E-01 -0.10410338543E+01  0.55314776919E+00  0.90007706317E+02  0.89999967240E+02 0.  0.
        -12    1    1    2    0    0  0.58045137598E-01  0.10410338543E+01 -0.55314776919E+00  0.11802936831E+01  0.00000000000E+00 0.  1.
         11    1    3    3    0    0 -0.72094667605E+01  0.35624509824E+02 -0.14312953165E+02  0.39063317060E+02  0.51100000000E-03 0. -1.
        -11    1    3    3    0    0  0.44362336939E+01 -0.51416179875E+01 -0.90267482170E+01  0.11295954521E+02  0.51100000000E-03 0.  1.
        -12    1    3    3    0    0  0.27151879290E+01 -0.31523925690E+02  0.23892849151E+02  0.39648434736E+02  0.00000000000E+00 0.  1.
</event>
<event>
 7    1  0.1978681E-015  0.9000833E+02  0.7816164E-02  0.1186338E+00
        -11   -1    0    0    0    0  0.00000000000E+00  0.00000000000E+00  0.45593999997E+02  0.45594000000E+02  0.51100000000E-03 0.  1.
         11   -1    0    0    0    0 -0.00000000000E+00 -0.00000000000E+00 -0.45593999997E+02  0.45594000000E+02  0.51100000000E-03 0. -1.
    9900012    2    1    2    0    0  0.74593042551E+00 -0.91212265043E+00 -0.56969763377E-01  0.90008328231E+02  0.90000597361E+02 0.  0.
        -12    1    1    2    0    0 -0.74593042551E+00  0.91212265043E+00  0.56969763377E-01  0.11796717692E+01  0.00000000000E+00 0.  1.
         11    1    3    3    0    0  0.20572979940E+01  0.99886265535E+01  0.16794660973E+01  0.10335653927E+02  0.51100000000E-03 0. -1.
        -11    1    3    3    0    0  0.30179050035E+02 -0.18100182462E+02  0.20246402944E+02  0.40599365742E+02  0.51100000000E-03 0.  1.
         12    1    3    3    0    0 -0.31490417604E+02  0.71994332582E+01 -0.21982838805E+02  0.39073308562E+02  0.00000000000E+00 0. -1.
</event>
<event>
 7    1  0.1978681E-015  0.9000773E+02  0.7816164E-02  0.1186339E+00
        -11   -1    0    0    0    0  0.00000000000E+00  0.00000000000E+00  0.45593999997E+02  0.45594000000E+02  0.51100000000E-03 0.  1.
         11   -1    0    0    0    0 -0.00000000000E+00 -0.00000000000E+00 -0.45593999997E+02  0.45594000000E+02  0.51100000000E-03 0. -1.
    9900012    2    1    2    0    0  0.15752305738E+00  0.11602623762E+01  0.14834301065E+00  0.90007733952E+02  0.89999995240E+02 0.  0.
        -12    1    1    2    0    0 -0.15752305738E+00 -0.11602623762E+01 -0.14834301065E+00  0.11802660480E+01  0.00000000000E+00 0.  1.
         11    1    3    3    0    0 -0.67599862220E+01 -0.23871467444E+02  0.14166438201E+02  0.28569780244E+02  0.51100000000E-03 0. -1.
        -11    1    3    3    0    0 -0.12026752695E+02  0.17534962818E+00  0.14700442838E+02  0.18994118768E+02  0.51100000000E-03 0.  1.
         12    1    3    3    0    0  0.18944261974E+02  0.24856380192E+02 -0.28718538028E+02  0.42443834940E+02  0.00000000000E+00 0. -1.
</event>
<event>
 7    1  0.1978681E-015  0.9000794E+02  0.7816164E-02  0.1186339E+00
        -11   -1    0    0    0    0  0.00000000000E+00  0.00000000000E+00  0.45593999997E+02  0.45594000000E+02  0.51100000000E-03 0. -1.
         11   -1    0    0    0    0 -0.00000000000E+00 -0.00000000000E+00 -0.45593999997E+02  0.45594000000E+02  0.51100000000E-03 0.  1.
    9900012    2    1    2    0    0  0.91525181589E+00 -0.52516014798E+00  0.52826889982E+00  0.90007937672E+02  0.90000201649E+02 0.  0.
        -12    1    1    2    0    0 -0.91525181589E+00  0.52516014798E+00 -0.52826889982E+00  0.11800623280E+01  0.00000000000E+00 0.  1.
         11    1    3    3    0    0  0.34054607192E+01 -0.46321223953E+01  0.54630840598E+01  0.79308895025E+01  0.51100000000E-03 0. -1.
        -11    1    3    3    0    0  0.36796717565E+02 -0.11967869740E+02 -0.80210453309E+01  0.39516648366E+02  0.51100000000E-03 0.  1.
         12    1    3    3    0    0 -0.39286926468E+02  0.16074831987E+02  0.30862301710E+01  0.42560399803E+02  0.00000000000E+00 0. -1.
</event>
<event>
 7    1  0.1978681E-015  0.9000780E+02  0.7816164E-02  0.1186339E+00
        -11   -1    0    0    0    0  0.00000000000E+00  0.00000000000E+00  0.45593999997E+02  0.45594000000E+02  0.51100000000E-03 0.  1.
         11   -1    0    0    0    0 -0.00000000000E+00 -0.00000000000E+00 -0.45593999997E+02  0.45594000000E+02  0.51100000000E-03 0. -1.
    9900012    2    1    2    0    0 -0.49639995064E-01 -0.55093284587E+00 -0.10425393584E+01  0.90007796863E+02  0.90000058982E+02 0.  0.
        -12    1    1    2    0    0  0.49639995064E-01  0.55093284587E+00  0.10425393584E+01  0.11802031365E+01  0.00000000000E+00 0.  1.
         11    1    3    3    0    0 -0.16254234955E+02 -0.33236033712E+02 -0.11136683325E+02  0.38637544003E+02  0.51100000000E-03 0. -1.
        -11    1    3    3    0    0  0.61788661471E+00 -0.18523596881E+01 -0.88106060769E+01  0.90244002563E+01  0.51100000000E-03 0.  1.
        -12    1    3    3    0    0  0.15586708345E+02  0.34537460554E+02  0.18904750043E+02  0.42345852604E+02  0.00000000000E+00 0.  1.
</event>
<event>
 7    1  0.1978681E-015  0.9000771E+02  0.7816164E-02  0.1186339E+00
        -11   -1    0    0    0    0  0.00000000000E+00  0.00000000000E+00  0.45593999997E+02  0.45594000000E+02  0.51100000000E-03 0.  1.
         11   -1    0    0    0    0 -0.00000000000E+00 -0.00000000000E+00 -0.45593999997E+02  0.45594000000E+02  0.51100000000E-03 0. -1.
    9900012    2    1    2    0    0  0.29970219540E+00  0.74026242633E+00 -0.86906212301E+00  0.90007712391E+02  0.89999973395E+02 0.  0.
        -12    1    1    2    0    0 -0.29970219540E+00 -0.74026242633E+00  0.86906212301E+00  0.11802876088E+01  0.00000000000E+00 0.  1.
         11    1    3    3    0    0  0.23692621973E+02 -0.28399763042E+02  0.14946515646E+02  0.39890916348E+02  0.51100000000E-03 0. -1.
        -11    1    3    3    0    0 -0.79220324442E+01 -0.49203133872E+01  0.42265535627E+00  0.93352407407E+01  0.51100000000E-03 0.  1.
        -12    1    3    3    0    0 -0.15470887334E+02  0.34060338856E+02 -0.16238233125E+02  0.40781555303E+02  0.00000000000E+00 0.  1.
</event>
<event>
 7    1  0.1978681E-015  0.9000779E+02  0.7816164E-02  0.1186339E+00
        -11   -1    0    0    0    0  0.00000000000E+00  0.00000000000E+00  0.45593999997E+02  0.45594000000E+02  0.51100000000E-03 0.  1.
         11   -1    0    0    0    0 -0.00000000000E+00 -0.00000000000E+00 -0.45593999997E+02  0.45594000000E+02  0.51100000000E-03 0. -1.
    9900012    2    1    2    0    0 -0.13797800580E+00 -0.83608805835E+00 -0.82147158601E+00  0.90007789537E+02  0.90000051558E+02 0.  0.
        -12    1    1    2    0    0  0.13797800580E+00  0.83608805835E+00  0.82147158601E+00  0.11802104634E+01  0.00000000000E+00 0.  1.
         11    1    3    3    0    0  0.99963934141E+00  0.16870299765E+01  0.11834267438E+02  0.11995633997E+02  0.51100000000E-03 0. -1.
        -11    1    3    3    0    0  0.25500036355E+01 -0.17500038071E+02  0.28790848970E+02  0.33788560722E+02  0.51100000000E-03 0.  1.
         12    1    3    3    0    0 -0.36876209827E+01  0.14976920036E+02 -0.41446587993E+02  0.44223594817E+02  0.00000000000E+00 0. -1.
</event>
<event>
 7    1  0.1978681E-015  0.9000766E+02  0.7816164E-02  0.1186339E+00
        -11   -1    0    0    0    0  0.00000000000E+00  0.00000000000E+00  0.45593999997E+02  0.45594000000E+02  0.51100000000E-03 0. -1.
         11   -1    0    0    0    0 -0.00000000000E+00 -0.00000000000E+00 -0.45593999997E+02  0.45594000000E+02  0.51100000000E-03 0.  1.
    9900012    2    1    2    0    0 -0.19758228953E+00 -0.73767466166E-01  0.11613463460E+01  0.90007658636E+02  0.89999918930E+02 0.  0.
        -12    1    1    2    0    0  0.19758228953E+00  0.73767466166E-01 -0.11613463460E+01  0.11803413640E+01  0.00000000000E+00 0.  1.
         11    1    3    3    0    0  0.20987501267E+01  0.97072635182E+01 -0.83613635104E+00  0.99666865791E+01  0.51100000000E-03 0. -1.
        -11    1    3    3    0    0 -0.11703773242E+02  0.33099071586E+02  0.71867698718E+01  0.35835408598E+02  0.51100000000E-03 0.  1.
         12    1    3    3    0    0  0.94074408254E+01 -0.42880102570E+02 -0.51892871747E+01  0.44205563459E+02  0.00000000000E+00 0. -1.
</event>
<event>
 7    1  0.1978681E-015  0.9000778E+02  0.7816164E-02  0.1186339E+00
        -11   -1    0    0    0    0  0.00000000000E+00  0.00000000000E+00  0.45593999997E+02  0.45594000000E+02  0.51100000000E-03 0.  1.
         11   -1    0    0    0    0 -0.00000000000E+00 -0.00000000000E+00 -0.45593999997E+02  0.45594000000E+02  0.51100000000E-03 0. -1.
    9900012    2    1    2    0    0 -0.10083329830E+00  0.11324914658E+01 -0.31658517005E+00  0.90007775257E+02  0.90000037090E+02 0.  0.
        -12    1    1    2    0    0  0.10083329830E+00 -0.11324914658E+01  0.31658517005E+00  0.11802247430E+01  0.00000000000E+00 0.  1.
         11    1    3    3    0    0  0.61786305924E+01  0.65220600627E+01 -0.37034558170E+01  0.97174239749E+01  0.51100000000E-03 0. -1.
        -11    1    3    3    0    0 -0.19971928347E+02 -0.19461499869E+02  0.33968311145E+02  0.43948538785E+02  0.51100000000E-03 0.  1.
         12    1    3    3    0    0  0.13692464456E+02  0.14071931272E+02 -0.30581440498E+02  0.36341812497E+02  0.00000000000E+00 0. -1.
</event>
<event>
 7    1  0.1978681E-015  0.9000770E+02  0.7816164E-02  0.1186339E+00
        -11   -1    0    0    0    0  0.00000000000E+00  0.00000000000E+00  0.45593999997E+02  0.45594000000E+02  0.51100000000E-03 0. -1.
         11   -1    0    0    0    0 -0.00000000000E+00 -0.00000000000E+00 -0.45593999997E+02  0.45594000000E+02  0.51100000000E-03 0.  1.
    9900012    2    1    2    0    0  0.20166266350E+00 -0.77053416111E+00  0.87103868959E+00  0.90007703799E+02  0.89999964689E+02 0.  0.
        -12    1    1    2    0    0 -0.20166266350E+00  0.77053416111E+00 -0.87103868959E+00  0.11802962010E+01  0.00000000000E+00 0.  1.
         11    1    3    3    0    0  0.18957368363E+02  0.30340403092E+02  0.23548981054E+02  0.42830787805E+02  0.51100000000E-03 0. -1.
        -11    1    3    3    0    0  0.54826637205E+00  0.18757147572E+00 -0.72921258250E+01  0.73151130122E+01  0.51100000000E-03 0.  1.
        -12    1    3    3    0    0 -0.19303972071E+02 -0.31298508729E+02 -0.15385816539E+02  0.39861802982E+02  0.00000000000E+00 0.  1.
</event>
<event>
 7    1  0.1978681E-015  0.9000772E+02  0.7816164E-02  0.1186339E+00
        -11   -1    0    0    0    0  0.00000000000E+00  0.00000000000E+00  0.45593999997E+02  0.45594000000E+02  0.51100000000E-03 0.  1.
         11   -1    0    0    0    0 -0.00000000000E+00 -0.00000000000E+00 -0.45593999997E+02  0.45594000000E+02  0.51100000000E-03 0. -1.
    9900012    2    1    2    0    0  0.30764913593E+00 -0.10399471184E+01 -0.46574135421E+00  0.90007723334E+02  0.89999984482E+02 0.  0.
        -12    1    1    2    0    0 -0.30764913593E+00  0.10399471184E+01  0.46574135421E+00  0.11802766662E+01  0.00000000000E+00 0.  1.
         11    1    3    3    0    0 -0.48690254916E+01 -0.36807018751E+02  0.15367658366E+02  0.40182445949E+02  0.51100000000E-03 0. -1.
        -11    1    3    3    0    0  0.12257233491E+02  0.25707299557E+01 -0.83934016885E+01  0.15076392722E+02  0.51100000000E-03 0.  1.
        -12    1    3    3    0    0 -0.70805588633E+01  0.33196341677E+02 -0.74399980317E+01  0.34748884662E+02  0.00000000000E+00 0.  1.
</event>
<event>
 7    1  0.1978681E-015  0.9000780E+02  0.7816164E-02  0.1186339E+00
        -11   -1    0    0    0    0  0.00000000000E+00  0.00000000000E+00  0.45593999997E+02  0.45594000000E+02  0.51100000000E-03 0.  1.
         11   -1    0    0    0    0 -0.00000000000E+00 -0.00000000000E+00 -0.45593999997E+02  0.45594000000E+02  0.51100000000E-03 0. -1.
    9900012    2    1    2    0    0  0.10108353766E+01  0.38064844925E+00 -0.47558267814E+00  0.90007804980E+02  0.90000067206E+02 0.  0.
        -12    1    1    2    0    0 -0.10108353766E+01 -0.38064844925E+00  0.47558267814E+00  0.11801950196E+01  0.00000000000E+00 0.  1.
         11    1    3    3    0    0  0.46627882132E+01 -0.87389642664E+01  0.48402582849E+01  0.11024481434E+02  0.51100000000E-03 0. -1.
        -11    1    3    3    0    0  0.30705456754E+02  0.24968197873E+02  0.46723593094E+01  0.39850557352E+02  0.51100000000E-03 0.  1.
         12    1    3    3    0    0 -0.34357409591E+02 -0.15848585158E+02 -0.99882002724E+01  0.39132766194E+02  0.00000000000E+00 0. -1.
</event>
<event>
 7    1  0.1978681E-015  0.9000777E+02  0.7816164E-02  0.1186339E+00
        -11   -1    0    0    0    0  0.00000000000E+00  0.00000000000E+00  0.45593999997E+02  0.45594000000E+02  0.51100000000E-03 0.  1.
         11   -1    0    0    0    0 -0.00000000000E+00 -0.00000000000E+00 -0.45593999997E+02  0.45594000000E+02  0.51100000000E-03 0. -1.
    9900012    2    1    2    0    0  0.88914819930E+00 -0.67354156889E+00 -0.38562985091E+00  0.90007765639E+02  0.90000027345E+02 0.  0.
        -12    1    1    2    0    0 -0.88914819930E+00  0.67354156889E+00  0.38562985091E+00  0.11802343612E+01  0.00000000000E+00 0.  1.
         11    1    3    3    0    0  0.40847381448E+01 -0.29772515613E+01  0.16890464311E+02  0.17630567134E+02  0.51100000000E-03 0. -1.
        -11    1    3    3    0    0  0.35004209802E+01  0.34409054111E+02  0.14395151498E+01  0.34616587874E+02  0.51100000000E-03 0.  1.
         12    1    3    3    0    0 -0.66960109257E+01 -0.32105344119E+02 -0.18715609312E+02  0.37760610631E+02  0.00000000000E+00 0. -1.
</event>
<event>
 7    1  0.1978681E-015  0.9000781E+02  0.7816164E-02  0.1186339E+00
        -11   -1    0    0    0    0  0.00000000000E+00  0.00000000000E+00  0.45593999997E+02  0.45594000000E+02  0.51100000000E-03 0.  1.
         11   -1    0    0    0    0 -0.00000000000E+00 -0.00000000000E+00 -0.45593999997E+02  0.45594000000E+02  0.51100000000E-03 0. -1.
    9900012    2    1    2    0    0  0.79891920353E+00 -0.29189081270E+00 -0.81815695541E+00  0.90007808090E+02  0.90000070357E+02 0.  0.
        -12    1    1    2    0    0 -0.79891920353E+00  0.29189081270E+00  0.81815695541E+00  0.11801919098E+01  0.00000000000E+00 0.  1.
         11    1    3    3    0    0 -0.73384468512E+01 -0.35206249720E+02 -0.16078001467E+02  0.39393336403E+02  0.51100000000E-03 0. -1.
        -11    1    3    3    0    0  0.61341943282E+01 -0.33446473604E+01 -0.36584570086E+01  0.78866541680E+01  0.51100000000E-03 0.  1.
        -12    1    3    3    0    0  0.20031717265E+01  0.38259006268E+02  0.18918301520E+02  0.42727817519E+02  0.00000000000E+00 0.  1.
</event>
<event>
 7    1  0.1978681E-015  0.9000772E+02  0.7816164E-02  0.1186339E+00
        -11   -1    0    0    0    0  0.00000000000E+00  0.00000000000E+00  0.45593999997E+02  0.45594000000E+02  0.51100000000E-03 0.  1.
         11   -1    0    0    0    0 -0.00000000000E+00 -0.00000000000E+00 -0.45593999997E+02  0.45594000000E+02  0.51100000000E-03 0. -1.
    9900012    2    1    2    0    0 -0.75993954184E+00 -0.80531278757E+00 -0.40867297641E+00  0.90007724441E+02  0.89999985604E+02 0.  0.
        -12    1    1    2    0    0  0.75993954184E+00  0.80531278757E+00  0.40867297641E+00  0.11802755588E+01  0.00000000000E+00 0.  1.
         11    1    3    3    0    0 -0.33418236976E+02  0.13984116887E+02 -0.16089798775E+02  0.39638563452E+02  0.51100000000E-03 0. -1.
        -11    1    3    3    0    0  0.35784722261E+01 -0.57626524739E+01 -0.89325420746E+01  0.11216235339E+02  0.51100000000E-03 0.  1.
        -12    1    3    3    0    0  0.29079825208E+02 -0.90267772009E+01  0.24613667873E+02  0.39152925650E+02  0.00000000000E+00 0.  1.
</event>
<event>
 7    1  0.1978681E-015  0.9000780E+02  0.7816164E-02  0.1186339E+00
        -11   -1    0    0    0    0  0.00000000000E+00  0.00000000000E+00  0.45593999997E+02  0.45594000000E+02  0.51100000000E-03 0.  1.
         11   -1    0    0    0    0 -0.00000000000E+00 -0.00000000000E+00 -0.45593999997E+02  0.45594000000E+02  0.51100000000E-03 0. -1.
    9900012    2    1    2    0    0  0.70542068764E+00  0.71061266819E+00 -0.62472437579E+00  0.90007801179E+02  0.90000063355E+02 0.  0.
        -12    1    1    2    0    0 -0.70542068764E+00 -0.71061266819E+00  0.62472437579E+00  0.11801988207E+01  0.00000000000E+00 0.  1.
         11    1    3    3    0    0  0.98412877069E+00 -0.42014837108E+01  0.34536947906E+01  0.55271134217E+01  0.51100000000E-03 0.  1.
        -11    1    3    3    0    0 -0.20643080829E+02 -0.33247995011E+02 -0.11057493777E+02  0.40667359482E+02  0.51100000000E-03 0. -1.
         12    1    3    3    0    0  0.20364372746E+02  0.38160091390E+02  0.69790746104E+01  0.43813328276E+02  0.00000000000E+00 0. -1.
</event>
<event>
 7    1  0.1978681E-015  0.9000779E+02  0.7816164E-02  0.1186339E+00
        -11   -1    0    0    0    0  0.00000000000E+00  0.00000000000E+00  0.45593999997E+02  0.45594000000E+02  0.51100000000E-03 0. -1.
         11   -1    0    0    0    0 -0.00000000000E+00 -0.00000000000E+00 -0.45593999997E+02  0.45594000000E+02  0.51100000000E-03 0.  1.
    9900012    2    1    2    0    0 -0.55459395090E+00  0.91854742220E+00  0.49152027853E+00  0.90007789849E+02  0.90000051875E+02 0.  0.
        -12    1    1    2    0    0  0.55459395090E+00 -0.91854742220E+00 -0.49152027853E+00  0.11802101514E+01  0.00000000000E+00 0.  1.
         11    1    3    3    0    0  0.46916819412E+01  0.14373535271E+02 -0.95173528389E+01  0.17865900507E+02  0.51100000000E-03 0. -1.
        -11    1    3    3    0    0  0.20829182805E+02  0.14516922904E+02 -0.11932915266E+02  0.28053348711E+02  0.51100000000E-03 0.  1.
         12    1    3    3    0    0 -0.26075458697E+02 -0.27971910753E+02  0.21941788383E+02  0.44088540630E+02  0.00000000000E+00 0. -1.
</event>
<event>
 7    1  0.1978681E-015  0.9000778E+02  0.7816164E-02  0.1186339E+00
        -11   -1    0    0    0    0  0.00000000000E+00  0.00000000000E+00  0.45593999997E+02  0.45594000000E+02  0.51100000000E-03 0. -1.
         11   -1    0    0    0    0 -0.00000000000E+00 -0.00000000000E+00 -0.45593999997E+02  0.45594000000E+02  0.51100000000E-03 0.  1.
    9900012    2    1    2    0    0 -0.18340266265E+00  0.13664790262E+00  0.11578454900E+01  0.90007781645E+02  0.90000043563E+02 0.  0.
        -12    1    1    2    0    0  0.18340266265E+00 -0.13664790262E+00 -0.11578454900E+01  0.11802183546E+01  0.00000000000E+00 0.  1.
         11    1    3    3    0    0 -0.25021377434E+01 -0.77992169102E+01 -0.65599259528E+01  0.10493860418E+02  0.51100000000E-03 0. -1.
        -11    1    3    3    0    0 -0.29101867312E+02  0.28911064886E+02  0.76862154356E+01  0.41735431732E+02  0.51100000000E-03 0.  1.
         12    1    3    3    0    0  0.31420602392E+02 -0.20975200073E+02  0.31556007238E-01  0.37778489496E+02  0.00000000000E+00 0. -1.
</event>
<event>
 7    1  0.1978681E-015  0.9000774E+02  0.7816164E-02  0.1186339E+00
        -11   -1    0    0    0    0  0.00000000000E+00  0.00000000000E+00  0.45593999997E+02  0.45594000000E+02  0.51100000000E-03 0.  1.
         11   -1    0    0    0    0 -0.00000000000E+00 -0.00000000000E+00 -0.45593999997E+02  0.45594000000E+02  0.51100000000E-03 0. -1.
    9900012    2    1    2    0    0 -0.65938587817E-01  0.67878314771E+00 -0.96328349373E+00  0.90007741745E+02  0.90000003136E+02 0.  0.
        -12    1    1    2    0    0  0.65938587817E-01 -0.67878314771E+00  0.96328349373E+00  0.11802582549E+01  0.00000000000E+00 0.  1.
         11    1    3    3    0    0  0.88442018407E+01  0.76980142892E+01 -0.12628442657E+00  0.11725838060E+02  0.51100000000E-03 0. -1.
        -11    1    3    3    0    0 -0.28233532222E+02  0.26866552794E+02  0.29800185783E+01  0.39087395817E+02  0.51100000000E-03 0.  1.
         12    1    3    3    0    0  0.19323391794E+02 -0.33885783935E+02 -0.38170176455E+01  0.39194507868E+02  0.00000000000E+00 0. -1.
</event>
<event>
 7    1  0.1978681E-015  0.9000776E+02  0.7816164E-02  0.1186339E+00
        -11   -1    0    0    0    0  0.00000000000E+00  0.00000000000E+00  0.45593999997E+02  0.45594000000E+02  0.51100000000E-03 0. -1.
         11   -1    0    0    0    0 -0.00000000000E+00 -0.00000000000E+00 -0.45593999997E+02  0.45594000000E+02  0.51100000000E-03 0.  1.
    9900012    2    1    2    0    0 -0.11107410070E+01  0.39575187563E+00  0.51034511850E-01  0.90007758646E+02  0.90000020260E+02 0.  0.
        -12    1    1    2    0    0  0.11107410070E+01 -0.39575187563E+00 -0.51034511850E-01  0.11802413537E+01  0.00000000000E+00 0.  1.
         11    1    3    3    0    0 -0.20246587472E+01  0.44788000118E+01  0.82856654974E+01  0.96338541397E+01  0.51100000000E-03 0. -1.
        -11    1    3    3    0    0 -0.20516942772E+02 -0.72650491786E+01 -0.37860622168E+02  0.43670958216E+02  0.51100000000E-03 0.  1.
         12    1    3    3    0    0  0.21430860512E+02  0.31820010424E+01  0.29625991182E+02  0.36702946291E+02  0.00000000000E+00 0. -1.
</event>
<event>
 7    1  0.1978681E-015  0.9000782E+02  0.7816164E-02  0.1186339E+00
        -11   -1    0    0    0    0  0.00000000000E+00  0.00000000000E+00  0.45593999997E+02  0.45594000000E+02  0.51100000000E-03 0. -1.
         11   -1    0    0    0    0 -0.00000000000E+00 -0.00000000000E+00 -0.45593999997E+02  0.45594000000E+02  0.51100000000E-03 0.  1.
    9900012    2    1    2    0    0  0.32768243955E+00  0.79045033582E+00  0.81278913771E+00  0.90007824718E+02  0.90000087204E+02 0.  0.
        -12    1    1    2    0    0 -0.32768243955E+00 -0.79045033582E+00 -0.81278913771E+00  0.11801752823E+01  0.00000000000E+00 0.  1.
         11    1    3    3    0    0  0.26659932211E+02 -0.86590366407E+01  0.26620491867E+02  0.38657230741E+02  0.51100000000E-03 0. -1.
        -11    1    3    3    0    0  0.33082230812E+01  0.64458302628E+01  0.47577668695E+01  0.86677225138E+01  0.51100000000E-03 0.  1.
        -12    1    3    3    0    0 -0.29640472853E+02  0.30036567137E+01 -0.30565469598E+02  0.42682871463E+02  0.00000000000E+00 0.  1.
</event>
<event>
 7    1  0.1978681E-015  0.9000774E+02  0.7816164E-02  0.1186339E+00
        -11   -1    0    0    0    0  0.00000000000E+00  0.00000000000E+00  0.45593999997E+02  0.45594000000E+02  0.51100000000E-03 0.  1.
         11   -1    0    0    0    0 -0.00000000000E+00 -0.00000000000E+00 -0.45593999997E+02  0.45594000000E+02  0.51100000000E-03 0. -1.
    9900012    2    1    2    0    0  0.80039278642E+00  0.86739037593E+00 -0.55258495205E-02  0.90007735109E+02  0.89999996413E+02 0.  0.
        -12    1    1    2    0    0 -0.80039278642E+00 -0.86739037593E+00  0.55258495205E-02  0.11802648905E+01  0.00000000000E+00 0.  1.
         11    1    3    3    0    0  0.22032900461E+02 -0.24757636408E+02 -0.19235768477E+02  0.38319760599E+02  0.51100000000E-03 0. -1.
        -11    1    3    3    0    0  0.93503578795E+01  0.52453028065E+01  0.13109053734E+01  0.10800966029E+02  0.51100000000E-03 0.  1.
        -12    1    3    3    0    0 -0.30582865554E+02  0.20379723978E+02  0.17919337254E+02  0.40887008481E+02  0.00000000000E+00 0.  1.
</event>
<event>
 7    1  0.1978681E-015  0.9000764E+02  0.7816164E-02  0.1186339E+00
        -11   -1    0    0    0    0  0.00000000000E+00  0.00000000000E+00  0.45593999997E+02  0.45594000000E+02  0.51100000000E-03 0. -1.
         11   -1    0    0    0    0 -0.00000000000E+00 -0.00000000000E+00 -0.45593999997E+02  0.45594000000E+02  0.51100000000E-03 0.  1.
    9900012    2    1    2    0    0 -0.43011449228E+00 -0.33742971949E+00  0.10461365015E+01  0.90007636127E+02  0.89999896124E+02 0.  0.
        -12    1    1    2    0    0  0.43011449228E+00  0.33742971949E+00 -0.10461365015E+01  0.11803638727E+01  0.00000000000E+00 0.  1.
         11    1    3    3    0    0  0.16060414756E+02  0.28799306007E+02  0.20260035058E+02  0.38701498284E+02  0.51100000000E-03 0. -1.
        -11    1    3    3    0    0  0.13595825121E+01  0.68629318996E+01 -0.53218499328E+01  0.87903575487E+01  0.51100000000E-03 0.  1.
        -12    1    3    3    0    0 -0.17850111761E+02 -0.35999667626E+02 -0.13892048624E+02  0.42515780294E+02  0.00000000000E+00 0.  1.
</event>
<event>
 7    1  0.1978681E-015  0.9000777E+02  0.7816164E-02  0.1186339E+00
        -11   -1    0    0    0    0  0.00000000000E+00  0.00000000000E+00  0.45593999997E+02  0.45594000000E+02  0.51100000000E-03 0. -1.
         11   -1    0    0    0    0 -0.00000000000E+00 -0.00000000000E+00 -0.45593999997E+02  0.45594000000E+02  0.51100000000E-03 0.  1.
    9900012    2    1    2    0    0  0.34076956607E+00  0.10456235354E+01  0.42835066593E+00  0.90007772578E+02  0.90000034376E+02 0.  0.
        -12    1    1    2    0    0 -0.34076956607E+00 -0.10456235354E+01 -0.42835066593E+00  0.11802274221E+01  0.00000000000E+00 0.  1.
         11    1    3    3    0    0 -0.22225459198E+02 -0.24417410935E+02 -0.23002662316E+00  0.33018690251E+02  0.51100000000E-03 0. -1.
        -11    1    3    3    0    0 -0.99789156558E+01 -0.30074458273E+01  0.79883682565E+01  0.13131546586E+02  0.51100000000E-03 0.  1.
        -12    1    3    3    0    0  0.32545144420E+02  0.28470480298E+02 -0.73299909674E+01  0.43857535741E+02  0.00000000000E+00 0.  1.
</event>
<event>
 7    1  0.1978681E-015  0.9000799E+02  0.7816164E-02  0.1186339E+00
        -11   -1    0    0    0    0  0.00000000000E+00  0.00000000000E+00  0.45593999997E+02  0.45594000000E+02  0.51100000000E-03 0.  1.
         11   -1    0    0    0    0 -0.00000000000E+00 -0.00000000000E+00 -0.45593999997E+02  0.45594000000E+02  0.51100000000E-03 0. -1.
    9900012    2    1    2    0    0 -0.61474226197E+00  0.49546398545E+00 -0.87694765111E+00  0.90007987376E+02  0.90000252009E+02 0.  0.
        -12    1    1    2    0    0  0.61474226197E+00 -0.49546398545E+00  0.87694765111E+00  0.11800126238E+01  0.00000000000E+00 0.  1.
         11    1    3    3    0    0  0.58339317693E+00 -0.11532434060E+02 -0.55160174320E+01  0.12797024323E+02  0.51100000000E-03 0. -1.
        -11    1    3    3    0    0  0.31552301757E+02 -0.13975467298E+02  0.74300640174E+01  0.35299678241E+02  0.51100000000E-03 0.  1.
         12    1    3    3    0    0 -0.32750437196E+02  0.26003365344E+02 -0.27909942366E+01  0.41911284812E+02  0.00000000000E+00 0. -1.
</event>
<event>
 7    1  0.1978681E-015  0.9000771E+02  0.7816164E-02  0.1186339E+00
        -11   -1    0    0    0    0  0.00000000000E+00  0.00000000000E+00  0.45593999997E+02  0.45594000000E+02  0.51100000000E-03 0. -1.
         11   -1    0    0    0    0 -0.00000000000E+00 -0.00000000000E+00 -0.45593999997E+02  0.45594000000E+02  0.51100000000E-03 0.  1.
    9900012    2    1    2    0    0  0.75396699103E+00 -0.74616050065E+00  0.51755275374E+00  0.90007710811E+02  0.89999971794E+02 0.  0.
        -12    1    1    2    0    0 -0.75396699103E+00  0.74616050065E+00 -0.51755275374E+00  0.11802891888E+01  0.00000000000E+00 0.  1.
         11    1    3    3    0    0  0.12205895701E+02  0.38610776628E+02  0.72240117571E+01  0.41133469435E+02  0.51100000000E-03 0. -1.
        -11    1    3    3    0    0  0.22739315290E+01  0.25783543067E+01 -0.30547530222E+01  0.45989337696E+01  0.51100000000E-03 0.  1.
        -12    1    3    3    0    0 -0.13725860239E+02 -0.41935291435E+02 -0.36517059812E+01  0.44275307606E+02  0.00000000000E+00 0.  1.
</event>
<event>
 7    1  0.1978681E-015  0.9000841E+02  0.7816164E-02  0.1186338E+00
        -11   -1    0    0    0    0  0.00000000000E+00  0.00000000000E+00  0.45593999997E+02  0.45594000000E+02  0.51100000000E-03 0. -1.
         11   -1    0    0    0    0 -0.00000000000E+00 -0.00000000000E+00 -0.45593999997E+02  0.45594000000E+02  0.51100000000E-03 0.  1.
    9900012    2    1    2    0    0  0.40843198853E+00 -0.73002842251E+00  0.83167114047E+00  0.90008408938E+02  0.90000679134E+02 0.  0.
        -12    1    1    2    0    0 -0.40843198853E+00  0.73002842251E+00 -0.83167114047E+00  0.11795910617E+01  0.00000000000E+00 0.  1.
         11    1    3    3    0    0  0.72829678549E+01  0.17074107362E+01 -0.30494552236E+01  0.80781216641E+01  0.51100000000E-03 0. -1.
        -11    1    3    3    0    0 -0.54389647467E+01  0.22629211045E+02 -0.31116781363E+02  0.38857658353E+02  0.51100000000E-03 0.  1.
         12    1    3    3    0    0 -0.14355711197E+01 -0.25066650204E+02  0.34997907727E+02  0.43072628921E+02  0.00000000000E+00 0. -1.
</event>
<event>
 7    1  0.1978681E-015  0.9000771E+02  0.7816164E-02  0.1186339E+00
        -11   -1    0    0    0    0  0.00000000000E+00  0.00000000000E+00  0.45593999997E+02  0.45594000000E+02  0.51100000000E-03 0.  1.
         11   -1    0    0    0    0 -0.00000000000E+00 -0.00000000000E+00 -0.45593999997E+02  0.45594000000E+02  0.51100000000E-03 0. -1.
    9900012    2    1    2    0    0 -0.17556256009E+00 -0.89839232121E+00 -0.74508247417E+00  0.90007712379E+02  0.89999973382E+02 0.  0.
        -12    1    1    2    0    0  0.17556256009E+00  0.89839232121E+00  0.74508247417E+00  0.11802876211E+01  0.00000000000E+00 0.  1.
         11    1    3    3    0    0  0.28795524166E+02  0.17230808879E+02 -0.15837530020E+02  0.37106742568E+02  0.51100000000E-03 0. -1.
        -11    1    3    3    0    0 -0.26834886822E+01  0.50061915883E+01 -0.88245229441E+01  0.10494535301E+02  0.51100000000E-03 0.  1.
        -12    1    3    3    0    0 -0.26287598044E+02 -0.23135392789E+02  0.23916970490E+02  0.42406434510E+02  0.00000000000E+00 0.  1.
</event>
<event>
 7    1  0.1978681E-015  0.9000786E+02  0.7816164E-02  0.1186339E+00
        -11   -1    0    0    0    0  0.00000000000E+00  0.00000000000E+00  0.45593999997E+02  0.45594000000E+02  0.51100000000E-03 0. -1.
         11   -1    0    0    0    0 -0.00000000000E+00 -0.00000000000E+00 -0.45593999997E+02  0.45594000000E+02  0.51100000000E-03 0.  1.
    9900012    2    1    2    0    0  0.10267366423E+01 -0.45608310698E+00 -0.36128057867E+00  0.90007862894E+02  0.90000125884E+02 0.  0.
        -12    1    1    2    0    0 -0.10267366423E+01  0.45608310698E+00  0.36128057867E+00  0.11801371063E+01  0.00000000000E+00 0.  1.
         11    1    3    3    0    0  0.44617988795E+01  0.50959586394E+01 -0.61882489998E+01  0.91744683574E+01  0.51100000000E-03 0. -1.
        -11    1    3    3    0    0  0.32867892306E+02  0.32949904484E+01  0.22447689070E+02  0.39938127792E+02  0.51100000000E-03 0.  1.
         12    1    3    3    0    0 -0.36302954543E+02 -0.88470321948E+01 -0.16620720649E+02  0.40895266744E+02  0.00000000000E+00 0. -1.
</event>
<event>
 7    1  0.1978681E-015  0.9000763E+02  0.7816164E-02  0.1186339E+00
        -11   -1    0    0    0    0  0.00000000000E+00  0.00000000000E+00  0.45593999997E+02  0.45594000000E+02  0.51100000000E-03 0.  1.
         11   -1    0    0    0    0 -0.00000000000E+00 -0.00000000000E+00 -0.45593999997E+02  0.45594000000E+02  0.51100000000E-03 0. -1.
    9900012    2    1    2    0    0  0.48967990360E+00 -0.10490455668E+01 -0.23017262014E+00  0.90007634614E+02  0.89999894591E+02 0.  0.
        -12    1    1    2    0    0 -0.48967990360E+00  0.10490455668E+01  0.23017262014E+00  0.11803653859E+01  0.00000000000E+00 0.  1.
         11    1    3    3    0    0 -0.71093584689E+01 -0.29136213258E+01  0.78116560687E+01  0.10956921916E+02  0.51100000000E-03 0. -1.
        -11    1    3    3    0    0  0.14132168111E+02  0.68978280072E+01  0.33335994356E+02  0.36859011472E+02  0.51100000000E-03 0.  1.
         12    1    3    3    0    0 -0.65331297387E+01 -0.50332522482E+01 -0.41377823045E+02  0.42191701226E+02  0.00000000000E+00 0. -1.
</event>
<event>
 7    1  0.1978681E-015  0.9000775E+02  0.7816164E-02  0.1186339E+00
        -11   -1    0    0    0    0  0.00000000000E+00  0.00000000000E+00  0.45593999997E+02  0.45594000000E+02  0.51100000000E-03 0. -1.
         11   -1    0    0    0    0 -0.00000000000E+00 -0.00000000000E+00 -0.45593999997E+02  0.45594000000E+02  0.51100000000E-03 0.  1.
    9900012    2    1    2    0    0  0.16620077475E+00  0.11667775364E+01 -0.63225068236E-01  0.90007750058E+02  0.90000011559E+02 0.  0.
        -12    1    1    2    0    0 -0.16620077475E+00 -0.11667775364E+01  0.63225068236E-01  0.11802499423E+01  0.00000000000E+00 0.  1.
         11    1    3    3    0    0 -0.54617841600E+01 -0.12294483885E+02  0.24763661381E+01  0.13679101203E+02  0.51100000000E-03 0. -1.
        -11    1    3    3    0    0 -0.13385181580E+02 -0.23857958954E+02 -0.16777535757E+02  0.32091291618E+02  0.51100000000E-03 0.  1.
         12    1    3    3    0    0  0.19013166515E+02  0.37319220375E+02  0.14237944550E+02  0.44237357237E+02  0.00000000000E+00 0. -1.
</event>
<event>
 7    1  0.1978681E-015  0.9000777E+02  0.7816164E-02  0.1186339E+00
        -11   -1    0    0    0    0  0.00000000000E+00  0.00000000000E+00  0.45593999997E+02  0.45594000000E+02  0.51100000000E-03 0. -1.
         11   -1    0    0    0    0 -0.00000000000E+00 -0.00000000000E+00 -0.45593999997E+02  0.45594000000E+02  0.51100000000E-03 0.  1.
    9900012    2    1    2    0    0 -0.76495903478E+00 -0.88695748847E+00 -0.14518109534E+00  0.90007773979E+02  0.90000035795E+02 0.  0.
        -12    1    1    2    0    0  0.76495903478E+00  0.88695748847E+00  0.14518109534E+00  0.11802260214E+01  0.00000000000E+00 0.  1.
         11    1    3    3    0    0 -0.45617894347E+00  0.23887541631E+01 -0.10385899376E+02  0.10666824822E+02  0.51100000000E-03 0. -1.
        -11    1    3    3    0    0  0.10524982347E+01 -0.40267796800E+02 -0.20583282121E+01  0.40334103771E+02  0.51100000000E-03 0.  1.
         12    1    3    3    0    0 -0.13612783260E+01  0.36992085149E+02  0.12299046493E+02  0.39006845386E+02  0.00000000000E+00 0. -1.
</event>
<event>
 7    1  0.1978681E-015  0.9000775E+02  0.7816164E-02  0.1186339E+00
        -11   -1    0    0    0    0  0.00000000000E+00  0.00000000000E+00  0.45593999997E+02  0.45594000000E+02  0.51100000000E-03 0. -1.
         11   -1    0    0    0    0 -0.00000000000E+00 -0.00000000000E+00 -0.45593999997E+02  0.45594000000E+02  0.51100000000E-03 0.  1.
    9900012    2    1    2    0    0 -0.26989045869E+00  0.10352989768E+01  0.49831218574E+00  0.90007745847E+02  0.90000007292E+02 0.  0.
        -12    1    1    2    0    0  0.26989045869E+00 -0.10352989768E+01 -0.49831218574E+00  0.11802541529E+01  0.00000000000E+00 0.  1.
         11    1    3    3    0    0  0.17076079743E+02  0.20355384987E+02 -0.13504074093E+02  0.29804265043E+02  0.51100000000E-03 0. -1.
        -11    1    3    3    0    0 -0.18642451731E+02 -0.26773965387E+01 -0.16755112337E+02  0.25207999692E+02  0.51100000000E-03 0.  1.
         12    1    3    3    0    0  0.12964815299E+01 -0.16642689472E+02  0.30757498616E+02  0.34995481113E+02  0.00000000000E+00 0. -1.
</event>
<event>
 7    1  0.1978681E-015  0.9000779E+02  0.7816164E-02  0.1186339E+00
        -11   -1    0    0    0    0  0.00000000000E+00  0.00000000000E+00  0.45593999997E+02  0.45594000000E+02  0.51100000000E-03 0.  1.
         11   -1    0    0    0    0 -0.00000000000E+00 -0.00000000000E+00 -0.45593999997E+02  0.45594000000E+02  0.51100000000E-03 0. -1.
    9900012    2    1    2    0    0  0.23744621571E+00 -0.46365015285E+00 -0.10590293312E+01  0.90007790148E+02  0.90000052178E+02 0.  0.
        -12    1    1    2    0    0 -0.23744621571E+00  0.46365015285E+00  0.10590293312E+01  0.11802098516E+01  0.00000000000E+00 0.  1.
         11    1    3    3    0    0 -0.38617194912E+02 -0.58974107502E+01 -0.18121703427E+02  0.43063480256E+02  0.51100000000E-03 0. -1.
        -11    1    3    3    0    0  0.53244750308E+01  0.79116695100E+01  0.70629008147E+01  0.11867144432E+02  0.51100000000E-03 0.  1.
        -12    1    3    3    0    0  0.33530166097E+02 -0.24779089126E+01  0.99997732815E+01  0.35077165460E+02  0.00000000000E+00 0.  1.
</event>
<event>
 7    1  0.1978681E-015  0.9000781E+02  0.7816164E-02  0.1186339E+00
        -11   -1    0    0    0    0  0.00000000000E+00  0.00000000000E+00  0.45593999997E+02  0.45594000000E+02  0.51100000000E-03 0.  1.
         11   -1    0    0    0    0 -0.00000000000E+00 -0.00000000000E+00 -0.45593999997E+02  0.45594000000E+02  0.51100000000E-03 0. -1.
    9900012    2    1    2    0    0  0.69357643856E+00  0.55841111820E+00 -0.77457620593E+00  0.90007813764E+02  0.90000076106E+02 0.  0.
        -12    1    1    2    0    0 -0.69357643856E+00 -0.55841111820E+00  0.77457620593E+00  0.11801862361E+01  0.00000000000E+00 0.  1.
         11    1    3    3    0    0 -0.68653973312E+01  0.16937502693E+01  0.49564428311E-01  0.70714162219E+01  0.51100000000E-03 0. -1.
        -11    1    3    3    0    0 -0.91493298030E+01 -0.19540629625E+02  0.33928790327E+02  0.40208323210E+02  0.51100000000E-03 0.  1.
         12    1    3    3    0    0  0.16708303573E+02  0.18405290474E+02 -0.34752930962E+02  0.42728074332E+02  0.00000000000E+00 0. -1.
</event>
<event>
 7    1  0.1978681E-015  0.9000763E+02  0.7816164E-02  0.1186339E+00
        -11   -1    0    0    0    0  0.00000000000E+00  0.00000000000E+00  0.45593999997E+02  0.45594000000E+02  0.51100000000E-03 0.  1.
         11   -1    0    0    0    0 -0.00000000000E+00 -0.00000000000E+00 -0.45593999997E+02  0.45594000000E+02  0.51100000000E-03 0. -1.
    9900012    2    1    2    0    0  0.55237511829E+00  0.78484897439E+00 -0.68714348699E+00  0.90007630416E+02  0.89999890337E+02 0.  0.
        -12    1    1    2    0    0 -0.55237511829E+00 -0.78484897439E+00  0.68714348699E+00  0.11803695843E+01  0.00000000000E+00 0.  1.
         11    1    3    3    0    0  0.63987080845E+01  0.17462835592E+02 -0.34312870164E+02  0.39029055218E+02  0.51100000000E-03 0. -1.
        -11    1    3    3    0    0  0.13526857491E+02 -0.54693385089E+01  0.69635021006E+01  0.16167247727E+02  0.51100000000E-03 0.  1.
        -12    1    3    3    0    0 -0.19373190457E+02 -0.11208648109E+02  0.26662224576E+02  0.34811327471E+02  0.00000000000E+00 0.  1.
</event>
<event>
 7    1  0.1978681E-015  0.9000772E+02  0.7816164E-02  0.1186339E+00
        -11   -1    0    0    0    0  0.00000000000E+00  0.00000000000E+00  0.45593999997E+02  0.45594000000E+02  0.51100000000E-03 0.  1.
         11   -1    0    0    0    0 -0.00000000000E+00 -0.00000000000E+00 -0.45593999997E+02  0.45594000000E+02  0.51100000000E-03 0. -1.
    9900012    2    1    2    0    0  0.23397986049E+00  0.91817526455E+00 -0.70375224693E+00  0.90007720535E+02  0.89999981646E+02 0.  0.
        -12    1    1    2    0    0 -0.23397986049E+00 -0.91817526455E+00  0.70375224693E+00  0.11802794655E+01  0.00000000000E+00 0.  1.
         11    1    3    3    0    0  0.84591739814E+01  0.78256142252E+01 -0.55068392246E+01  0.12771966996E+02  0.51100000000E-03 0. -1.
        -11    1    3    3    0    0 -0.17345259473E+02  0.27427636926E+02  0.20512894950E+02  0.38391563565E+02  0.51100000000E-03 0.  1.
         12    1    3    3    0    0  0.91200653518E+01 -0.34335075886E+02 -0.15709807972E+02  0.38844189973E+02  0.00000000000E+00 0. -1.
</event>
<event>
 7    1  0.1978681E-015  0.9000794E+02  0.7816164E-02  0.1186339E+00
        -11   -1    0    0    0    0  0.00000000000E+00  0.00000000000E+00  0.45593999997E+02  0.45594000000E+02  0.51100000000E-03 0.  1.
         11   -1    0    0    0    0 -0.00000000000E+00 -0.00000000000E+00 -0.45593999997E+02  0.45594000000E+02  0.51100000000E-03 0. -1.
    9900012    2    1    2    0    0 -0.29262896955E+00 -0.66232432205E+00 -0.93179608096E+00  0.90007936799E+02  0.90000200765E+02 0.  0.
        -12    1    1    2    0    0  0.29262896955E+00  0.66232432205E+00  0.93179608096E+00  0.11800632008E+01  0.00000000000E+00 0.  1.
         11    1    3    3    0    0  0.89702293837E+01 -0.33299062743E+01  0.23193823847E+01  0.98454469629E+01  0.51100000000E-03 0. -1.
        -11    1    3    3    0    0  0.11065091040E+02  0.34158406562E+02  0.14458116037E+02  0.38707494083E+02  0.51100000000E-03 0.  1.
         12    1    3    3    0    0 -0.20327949394E+02 -0.31490824610E+02 -0.17709294502E+02  0.41454995753E+02  0.00000000000E+00 0. -1.
</event>
<event>
 7    1  0.1978681E-015  0.9000775E+02  0.7816164E-02  0.1186339E+00
        -11   -1    0    0    0    0  0.00000000000E+00  0.00000000000E+00  0.45593999997E+02  0.45594000000E+02  0.51100000000E-03 0. -1.
         11   -1    0    0    0    0 -0.00000000000E+00 -0.00000000000E+00 -0.45593999997E+02  0.45594000000E+02  0.51100000000E-03 0.  1.
    9900012    2    1    2    0    0  0.92229638626E+00 -0.71846562666E+00  0.16174969519E+00  0.90007751533E+02  0.90000013053E+02 0.  0.
        -12    1    1    2    0    0 -0.92229638626E+00  0.71846562666E+00 -0.16174969519E+00  0.11802484674E+01  0.00000000000E+00 0.  1.
         11    1    3    3    0    0  0.10828161237E+02  0.20937175397E+02 -0.27896996863E+02  0.36522004650E+02  0.51100000000E-03 0. -1.
        -11    1    3    3    0    0  0.63645446203E+01 -0.56904498310E+00 -0.69866834229E+01  0.94681036079E+01  0.51100000000E-03 0.  1.
        -12    1    3    3    0    0 -0.16270409471E+02 -0.21086596041E+02  0.35045429981E+02  0.44017643275E+02  0.00000000000E+00 0.  1.
</event>
<event>
 7    1  0.1978681E-015  0.9000776E+02  0.7816164E-02  0.1186339E+00
        -11   -1    0    0    0    0  0.00000000000E+00  0.00000000000E+00  0.45593999997E+02  0.45594000000E+02  0.51100000000E-03 0. -1.
         11   -1    0    0    0    0 -0.00000000000E+00 -0.00000000000E+00 -0.45593999997E+02  0.45594000000E+02  0.51100000000E-03 0.  1.
    9900012    2    1    2    0    0  0.79350382021E+00  0.61323100140E+00  0.62230782553E+00  0.90007759515E+02  0.90000021140E+02 0.  0.
        -12    1    1    2    0    0 -0.79350382021E+00 -0.61323100140E+00 -0.62230782553E+00  0.11802404854E+01  0.00000000000E+00 0.  1.
         11    1    3    3    0    0  0.30816887073E+02 -0.18196551056E+01  0.28883346884E+02  0.42275754294E+02  0.51100000000E-03 0. -1.
        -11    1    3    3    0    0 -0.78774868152E+01 -0.45088627672E+01  0.22942270160E+01  0.93620574576E+01  0.51100000000E-03 0.  1.
        -12    1    3    3    0    0 -0.22145896438E+02  0.69417488743E+01 -0.30555266075E+02  0.38369947763E+02  0.00000000000E+00 0.  1.
</event>
<event>
 7    1  0.1978681E-015  0.9000782E+02  0.7816164E-02  0.1186339E+00
        -11   -1    0    0    0    0  0.00000000000E+00  0.00000000000E+00  0.45593999997E+02  0.45594000000E+02  0.51100000000E-03 0.  1.
         11   -1    0    0    0    0 -0.00000000000E+00 -0.00000000000E+00 -0.45593999997E+02  0.45594000000E+02  0.51100000000E-03 0. -1.
    9900012    2    1    2    0    0 -0.78305654677E+00 -0.29801013171E-01 -0.88247905211E+00  0.90007815721E+02  0.90000078088E+02 0.  0.
        -12    1    1    2    0    0  0.78305654677E+00  0.29801013171E-01  0.88247905211E+00  0.11801842794E+01  0.00000000000E+00 0.  1.
         11    1    3    3    0    0  0.30062511207E+02  0.78915684334E+01  0.20315817849E+02  0.37131710000E+02  0.51100000000E-03 0. -1.
        -11    1    3    3    0    0  0.36916762082E+01  0.87618507912E+01 -0.10927549059E+01  0.95704031294E+01  0.51100000000E-03 0.  1.
        -12    1    3    3    0    0 -0.34537243962E+02 -0.16683220238E+02 -0.20105541996E+02  0.43305702591E+02  0.00000000000E+00 0.  1.
</event>
<event>
 7    1  0.1978681E-015  0.9000776E+02  0.7816164E-02  0.1186339E+00
        -11   -1    0    0    0    0  0.00000000000E+00  0.00000000000E+00  0.45593999997E+02  0.45594000000E+02  0.51100000000E-03 0.  1.
         11   -1    0    0    0    0 -0.00000000000E+00 -0.00000000000E+00 -0.45593999997E+02  0.45594000000E+02  0.51100000000E-03 0. -1.
    9900012    2    1    2    0    0 -0.13140515252E+00 -0.14271531482E+00 -0.11641869577E+01  0.90007760089E+02  0.90000021722E+02 0.  0.
        -12    1    1    2    0    0  0.13140515252E+00  0.14271531482E+00  0.11641869577E+01  0.11802399111E+01  0.00000000000E+00 0.  1.
         11    1    3    3    0    0 -0.10032228895E+01  0.24679557525E+01 -0.96062415860E+01  0.99688083255E+01  0.51100000000E-03 0. -1.
        -11    1    3    3    0    0 -0.11510058929E+02  0.35968945558E+02 -0.31462166453E+01  0.37896506179E+02  0.51100000000E-03 0.  1.
         12    1    3    3    0    0  0.12381876666E+02 -0.38579616625E+02  0.11588271274E+02  0.42142445585E+02  0.00000000000E+00 0. -1.
</event>
<event>
 7    1  0.1978681E-015  0.9000770E+02  0.7816164E-02  0.1186339E+00
        -11   -1    0    0    0    0  0.00000000000E+00  0.00000000000E+00  0.45593999997E+02  0.45594000000E+02  0.51100000000E-03 0.  1.
         11   -1    0    0    0    0 -0.00000000000E+00 -0.00000000000E+00 -0.45593999997E+02  0.45594000000E+02  0.51100000000E-03 0. -1.
    9900012    2    1    2    0    0  0.72847122698E+00 -0.18470860204E+00 -0.91012739910E+00  0.90007695175E+02  0.89999955952E+02 0.  0.
        -12    1    1    2    0    0 -0.72847122698E+00  0.18470860204E+00  0.91012739910E+00  0.11803048245E+01  0.00000000000E+00 0.  1.
         11    1    3    3    0    0 -0.80528336664E-01 -0.46906881171E+01 -0.78275041480E+01  0.91257252464E+01  0.51100000000E-03 0. -1.
        -11    1    3    3    0    0  0.27514514127E+02 -0.27321093439E+02  0.66079007810E+01  0.39333891078E+02  0.51100000000E-03 0.  1.
         12    1    3    3    0    0 -0.26705514563E+02  0.31827072954E+02  0.30947596786E+00  0.41548078852E+02  0.00000000000E+00 0. -1.
</event>
<event>
 7    1  0.1978681E-015  0.9000773E+02  0.7816164E-02  0.1186339E+00
        -11   -1    0    0    0    0  0.00000000000E+00  0.00000000000E+00  0.45593999997E+02  0.45594000000E+02  0.51100000000E-03 0.  1.
         11   -1    0    0    0    0 -0.00000000000E+00 -0.00000000000E+00 -0.45593999997E+02  0.45594000000E+02  0.51100000000E-03 0. -1.
    9900012    2    1    2    0    0  0.68940487203E+00 -0.42161209119E+00 -0.86023821534E+00  0.90007726464E+02  0.89999987653E+02 0.  0.
        -12    1    1    2    0    0 -0.68940487203E+00  0.42161209119E+00  0.86023821534E+00  0.11802735362E+01  0.00000000000E+00 0.  1.
         11    1    3    3    0    0 -0.89408326744E+01 -0.10267796174E+02 -0.35978729316E+02  0.38468624757E+02  0.51100000000E-03 0. -1.
        -11    1    3    3    0    0  0.69748992064E+01 -0.57487063160E+01 -0.35879711807E+01  0.97247303665E+01  0.51100000000E-03 0.  1.
        -12    1    3    3    0    0  0.26553383400E+01  0.15594890399E+02  0.38706462282E+02  0.41814371341E+02  0.00000000000E+00 0.  1.
</event>
<event>
 7    1  0.1978681E-015  0.9000775E+02  0.7816164E-02  0.1186339E+00
        -11   -1    0    0    0    0  0.00000000000E+00  0.00000000000E+00  0.45593999997E+02  0.45594000000E+02  0.51100000000E-03 0.  1.
         11   -1    0    0    0    0 -0.00000000000E+00 -0.00000000000E+00 -0.45593999997E+02  0.45594000000E+02  0.51100000000E-03 0. -1.
    9900012    2    1    2    0    0 -0.18996145913E+00  0.57845279552E+00 -0.10110817606E+01  0.90007754551E+02  0.90000016111E+02 0.  0.
        -12    1    1    2    0    0  0.18996145913E+00 -0.57845279552E+00  0.10110817606E+01  0.11802454488E+01  0.00000000000E+00 0.  1.
         11    1    3    3    0    0  0.34656521119E+02  0.11334196709E+02 -0.25875180003E+01  0.36554530783E+02  0.51100000000E-03 0. -1.
        -11    1    3    3    0    0  0.76531734980E+01 -0.16728490522E+01  0.58601782577E+01  0.97832089836E+01  0.51100000000E-03 0.  1.
        -12    1    3    3    0    0 -0.42499656076E+02 -0.90828948613E+01 -0.42837420181E+01  0.43670014785E+02  0.00000000000E+00 0.  1.
</event>
<event>
 7    1  0.1978681E-015  0.9000763E+02  0.7816164E-02  0.1186339E+00
        -11   -1    0    0    0    0  0.00000000000E+00  0.00000000000E+00  0.45593999997E+02  0.45594000000E+02  0.51100000000E-03 0.  1.
         11   -1    0    0    0    0 -0.00000000000E+00 -0.00000000000E+00 -0.45593999997E+02  0.45594000000E+02  0.51100000000E-03 0. -1.
    9900012    2    1    2    0    0  0.59704569107E+00  0.23480407419E+00 -0.99080188602E+00  0.90007625107E+02  0.89999884958E+02 0.  0.
        -12    1    1    2    0    0 -0.59704569107E+00 -0.23480407419E+00  0.99080188602E+00  0.11803748929E+01  0.00000000000E+00 0.  1.
         11    1    3    3    0    0 -0.48251971427E+01 -0.87441876418E+01 -0.50189028462E+01  0.11177331123E+02  0.51100000000E-03 0. -1.
        -11    1    3    3    0    0 -0.36243933987E+02  0.12381878576E+01  0.36629338697E+01  0.36449594577E+02  0.51100000000E-03 0.  1.
         12    1    3    3    0    0  0.41666176821E+02  0.77408038585E+01  0.36516709047E+00  0.42380699407E+02  0.00000000000E+00 0. -1.
</event>
<event>
 7    1  0.1978681E-015  0.9000780E+02  0.7816164E-02  0.1186339E+00
        -11   -1    0    0    0    0  0.00000000000E+00  0.00000000000E+00  0.45593999997E+02  0.45594000000E+02  0.51100000000E-03 0. -1.
         11   -1    0    0    0    0 -0.00000000000E+00 -0.00000000000E+00 -0.45593999997E+02  0.45594000000E+02  0.51100000000E-03 0.  1.
    9900012    2    1    2    0    0 -0.10854392279E+01  0.46272229378E+00  0.24222284585E-01  0.90007797917E+02  0.90000060049E+02 0.  0.
        -12    1    1    2    0    0  0.10854392279E+01 -0.46272229378E+00 -0.24222284585E-01  0.11802020835E+01  0.00000000000E+00 0.  1.
         11    1    3    3    0    0  0.37121410770E+01 -0.71693185492E+01  0.54011984616E+01  0.97134991079E+01  0.51100000000E-03 0. -1.
        -11    1    3    3    0    0 -0.30858504147E+02  0.16647518054E+02  0.22034895790E+02  0.41411638077E+02  0.51100000000E-03 0.  1.
         12    1    3    3    0    0  0.26060923842E+02 -0.90154772106E+01 -0.27411871967E+02  0.38882660731E+02  0.00000000000E+00 0. -1.
</event>
<event>
 7    1  0.1978681E-015  0.9000777E+02  0.7816164E-02  0.1186339E+00
        -11   -1    0    0    0    0  0.00000000000E+00  0.00000000000E+00  0.45593999997E+02  0.45594000000E+02  0.51100000000E-03 0. -1.
         11   -1    0    0    0    0 -0.00000000000E+00 -0.00000000000E+00 -0.45593999997E+02  0.45594000000E+02  0.51100000000E-03 0.  1.
    9900012    2    1    2    0    0  0.88060557263E+00  0.54294968156E+00 -0.56805511740E+00  0.90007768181E+02  0.90000029921E+02 0.  0.
        -12    1    1    2    0    0 -0.88060557263E+00 -0.54294968156E+00  0.56805511740E+00  0.11802318195E+01  0.00000000000E+00 0.  1.
         11    1    3    3    0    0 -0.25563988185E+01  0.78272628548E+01  0.35341205835E+01  0.89605372203E+01  0.51100000000E-03 0. -1.
        -11    1    3    3    0    0 -0.19906941367E+02 -0.34579480071E+02  0.12030260099E+02  0.41674379598E+02  0.51100000000E-03 0.  1.
         12    1    3    3    0    0  0.23343945758E+02  0.27295166898E+02 -0.16132435800E+02  0.39372851362E+02  0.00000000000E+00 0. -1.
</event>
<event>
 7    1  0.1978681E-015  0.9000764E+02  0.7816164E-02  0.1186339E+00
        -11   -1    0    0    0    0  0.00000000000E+00  0.00000000000E+00  0.45593999997E+02  0.45594000000E+02  0.51100000000E-03 0.  1.
         11   -1    0    0    0    0 -0.00000000000E+00 -0.00000000000E+00 -0.45593999997E+02  0.45594000000E+02  0.51100000000E-03 0. -1.
    9900012    2    1    2    0    0  0.37994885803E+00  0.10239185060E+01 -0.44774626501E+00  0.90007641173E+02  0.89999901237E+02 0.  0.
        -12    1    1    2    0    0 -0.37994885803E+00 -0.10239185060E+01  0.44774626501E+00  0.11803588266E+01  0.00000000000E+00 0.  1.
         11    1    3    3    0    0 -0.14472778857E+00 -0.30879857987E+02 -0.22235560255E+02  0.38052683421E+02  0.51100000000E-03 0. -1.
        -11    1    3    3    0    0  0.60583413574E+01 -0.58093592313E+01  0.74743991792E+01  0.11239163582E+02  0.51100000000E-03 0.  1.
        -12    1    3    3    0    0 -0.55336647108E+01  0.37713135725E+02  0.14313414811E+02  0.40715794170E+02  0.00000000000E+00 0.  1.
</event>
<event>
 7    1  0.1978681E-015  0.9000779E+02  0.7816164E-02  0.1186339E+00
        -11   -1    0    0    0    0  0.00000000000E+00  0.00000000000E+00  0.45593999997E+02  0.45594000000E+02  0.51100000000E-03 0.  1.
         11   -1    0    0    0    0 -0.00000000000E+00 -0.00000000000E+00 -0.45593999997E+02  0.45594000000E+02  0.51100000000E-03 0. -1.
    9900012    2    1    2    0    0 -0.11474846305E+01 -0.13808545986E+00 -0.23898650102E+00  0.90007786833E+02  0.90000048819E+02 0.  0.
        -12    1    1    2    0    0  0.11474846305E+01  0.13808545986E+00  0.23898650102E+00  0.11802131669E+01  0.00000000000E+00 0.  1.
         11    1    3    3    0    0 -0.19274244023E+02  0.69713695342E+00 -0.15977461182E+02  0.25045194123E+02  0.51100000000E-03 0. -1.
        -11    1    3    3    0    0 -0.13229636416E+02  0.10014397700E+02 -0.12990667651E+02  0.21072942065E+02  0.51100000000E-03 0.  1.
         12    1    3    3    0    0  0.31356395808E+02 -0.10849620113E+02  0.28729142332E+02  0.43889650645E+02  0.00000000000E+00 0. -1.
</event>
<event>
 7    1  0.1978681E-015  0.9000779E+02  0.7816164E-02  0.1186339E+00
        -11   -1    0    0    0    0  0.00000000000E+00  0.00000000000E+00  0.45593999997E+02  0.45594000000E+02  0.51100000000E-03 0.  1.
         11   -1    0    0    0    0 -0.00000000000E+00 -0.00000000000E+00 -0.45593999997E+02  0.45594000000E+02  0.51100000000E-03 0. -1.
    9900012    2    1    2    0    0  0.44356860977E+00 -0.55278446622E+00 -0.94370679485E+00  0.90007785489E+02  0.90000047457E+02 0.  0.
        -12    1    1    2    0    0 -0.44356860977E+00  0.55278446622E+00  0.94370679485E+00  0.11802145111E+01  0.00000000000E+00 0.  1.
         11    1    3    3    0    0 -0.22512407945E+02  0.26175350291E+02  0.10222913821E+02  0.36006463886E+02  0.51100000000E-03 0. -1.
        -11    1    3    3    0    0  0.49440958875E+01  0.75861969626E+01  0.67614964837E+01  0.11300986836E+02  0.51100000000E-03 0.  1.
        -12    1    3    3    0    0  0.18011880667E+02 -0.34314331720E+02 -0.17928117099E+02  0.42700334767E+02  0.00000000000E+00 0.  1.
</event>
<event>
 7    1  0.1978681E-015  0.9000769E+02  0.7816164E-02  0.1186339E+00
        -11   -1    0    0    0    0  0.00000000000E+00  0.00000000000E+00  0.45593999997E+02  0.45594000000E+02  0.51100000000E-03 0.  1.
         11   -1    0    0    0    0 -0.00000000000E+00 -0.00000000000E+00 -0.45593999997E+02  0.45594000000E+02  0.51100000000E-03 0. -1.
    9900012    2    1    2    0    0 -0.13967275971E+00  0.11628932651E+01 -0.14592758666E+00  0.90007693224E+02  0.89999953974E+02 0.  0.
        -12    1    1    2    0    0  0.13967275971E+00 -0.11628932651E+01  0.14592758666E+00  0.11803067764E+01  0.00000000000E+00 0.  1.
         11    1    3    3    0    0  0.59679220427E+01  0.55058390886E+01  0.33604688122E+01  0.87876679772E+01  0.51100000000E-03 0. -1.
        -11    1    3    3    0    0 -0.18995412223E+02 -0.22775046060E+02  0.29139371149E+02  0.41576812766E+02  0.51100000000E-03 0.  1.
         12    1    3    3    0    0  0.12887817421E+02  0.18432100236E+02 -0.32645767548E+02  0.39643212481E+02  0.00000000000E+00 0. -1.
</event>
<event>
 7    1  0.1978681E-015  0.9000775E+02  0.7816164E-02  0.1186339E+00
        -11   -1    0    0    0    0  0.00000000000E+00  0.00000000000E+00  0.45593999997E+02  0.45594000000E+02  0.51100000000E-03 0. -1.
         11   -1    0    0    0    0 -0.00000000000E+00 -0.00000000000E+00 -0.45593999997E+02  0.45594000000E+02  0.51100000000E-03 0.  1.
    9900012    2    1    2    0    0 -0.56537677936E+00  0.53997177442E+00  0.88417288711E+00  0.90007753367E+02  0.90000014912E+02 0.  0.
        -12    1    1    2    0    0  0.56537677936E+00 -0.53997177442E+00 -0.88417288711E+00  0.11802466328E+01  0.00000000000E+00 0.  1.
         11    1    3    3    0    0  0.27692438036E+02 -0.23714165846E+02  0.17297948227E+02  0.40354080329E+02  0.51100000000E-03 0. -1.
        -11    1    3    3    0    0 -0.52916641558E+01 -0.63723182723E+01 -0.51360795871E+01  0.97461512140E+01  0.51100000000E-03 0.  1.
        -12    1    3    3    0    0 -0.22966150659E+02  0.30626455893E+02 -0.11277695752E+02  0.39907521824E+02  0.00000000000E+00 0.  1.
</event>
<event>
 7    1  0.1978681E-015  0.9000779E+02  0.7816164E-02  0.1186339E+00
        -11   -1    0    0    0    0  0.00000000000E+00  0.00000000000E+00  0.45593999997E+02  0.45594000000E+02  0.51100000000E-03 0.  1.
         11   -1    0    0    0    0 -0.00000000000E+00 -0.00000000000E+00 -0.45593999997E+02  0.45594000000E+02  0.51100000000E-03 0. -1.
    9900012    2    1    2    0    0 -0.20780413059E+00 -0.97048504484E+00 -0.63865107301E+00  0.90007788590E+02  0.90000050599E+02 0.  0.
        -12    1    1    2    0    0  0.20780413059E+00  0.97048504484E+00  0.63865107301E+00  0.11802114099E+01  0.00000000000E+00 0.  1.
         11    1    3    3    0    0 -0.20969164381E+02  0.13197284114E+02 -0.26493814275E+02  0.36273907398E+02  0.51100000000E-03 0. -1.
        -11    1    3    3    0    0 -0.11214257348E+02 -0.77103500731E-01  0.19150114436E+01  0.11376852900E+02  0.51100000000E-03 0.  1.
        -12    1    3    3    0    0  0.31975617598E+02 -0.14090665658E+02  0.23940151759E+02  0.42357028292E+02  0.00000000000E+00 0.  1.
</event>
<event>
 7    1  0.1978681E-015  0.9000772E+02  0.7816164E-02  0.1186339E+00
        -11   -1    0    0    0    0  0.00000000000E+00  0.00000000000E+00  0.45593999997E+02  0.45594000000E+02  0.51100000000E-03 0.  1.
         11   -1    0    0    0    0 -0.00000000000E+00 -0.00000000000E+00 -0.45593999997E+02  0.45594000000E+02  0.51100000000E-03 0. -1.
    9900012    2    1    2    0    0  0.29281163734E+00 -0.69769259479E+00 -0.90584268799E+00  0.90007718429E+02  0.89999979512E+02 0.  0.
        -12    1    1    2    0    0 -0.29281163734E+00  0.69769259479E+00  0.90584268799E+00  0.11802815711E+01  0.00000000000E+00 0.  1.
         11    1    3    3    0    0 -0.15496385356E+01  0.21574104815E+01  0.38565296857E+01  0.46828005568E+01  0.51100000000E-03 0. -1.
        -11    1    3    3    0    0 -0.34311575657E+02  0.26309803062E+00  0.21534336303E+02  0.40510259008E+02  0.51100000000E-03 0.  1.
         12    1    3    3    0    0  0.36154025830E+02 -0.31182011069E+01 -0.26296708676E+02  0.44814658864E+02  0.00000000000E+00 0. -1.
</event>
<event>
 7    1  0.1978681E-015  0.9000759E+02  0.7816164E-02  0.1186339E+00
        -11   -1    0    0    0    0  0.00000000000E+00  0.00000000000E+00  0.45593999997E+02  0.45594000000E+02  0.51100000000E-03 0. -1.
         11   -1    0    0    0    0 -0.00000000000E+00 -0.00000000000E+00 -0.45593999997E+02  0.45594000000E+02  0.51100000000E-03 0.  1.
    9900012    2    1    2    0    0 -0.21697090700E+00  0.10041153064E+01  0.58140810973E+00  0.90007593581E+02  0.89999853017E+02 0.  0.
        -12    1    1    2    0    0  0.21697090700E+00 -0.10041153064E+01 -0.58140810973E+00  0.11804064186E+01  0.00000000000E+00 0.  1.
         11    1    3    3    0    0 -0.24746925782E+01 -0.18531654890E+02  0.30080966468E+02  0.35417663393E+02  0.51100000000E-03 0. -1.
        -11    1    3    3    0    0 -0.17816886127E+01 -0.76279770509E+01  0.58857757032E+01  0.97981020658E+01  0.51100000000E-03 0.  1.
        -12    1    3    3    0    0  0.40394102839E+01  0.27163747247E+02 -0.35385334061E+02  0.44791828123E+02  0.00000000000E+00 0.  1.
</event>
<event>
 7    1  0.1978681E-015  0.9000772E+02  0.7816164E-02  0.1186339E+00
        -11   -1    0    0    0    0  0.00000000000E+00  0.00000000000E+00  0.45593999997E+02  0.45594000000E+02  0.51100000000E-03 0.  1.
         11   -1    0    0    0    0 -0.00000000000E+00 -0.00000000000E+00 -0.45593999997E+02  0.45594000000E+02  0.51100000000E-03 0. -1.
    9900012    2    1    2    0    0  0.19179425595E+00  0.84900297379E+00 -0.79716762314E+00  0.90007717277E+02  0.89999978345E+02 0.  0.
        -12    1    1    2    0    0 -0.19179425595E+00 -0.84900297379E+00  0.79716762314E+00  0.11802827227E+01  0.00000000000E+00 0.  1.
         11    1    3    3    0    0 -0.46073675821E+01  0.23742757547E+01 -0.90360313198E+01  0.10417047743E+02  0.51100000000E-03 0. -1.
        -11    1    3    3    0    0  0.17663324734E+02  0.29423767262E+02 -0.16357853014E+02  0.38017502233E+02  0.51100000000E-03 0.  1.
         12    1    3    3    0    0 -0.12864162896E+02 -0.30949040043E+02  0.24596716710E+02  0.41573167302E+02  0.00000000000E+00 0. -1.
</event>
<event>
 7    1  0.1978681E-015  0.9000867E+02  0.7816164E-02  0.1186337E+00
        -11   -1    0    0    0    0  0.00000000000E+00  0.00000000000E+00  0.45593999997E+02  0.45594000000E+02  0.51100000000E-03 0. -1.
         11   -1    0    0    0    0 -0.00000000000E+00 -0.00000000000E+00 -0.45593999997E+02  0.45594000000E+02  0.51100000000E-03 0.  1.
    9900012    2    1    2    0    0  0.34712975886E+00  0.11075392100E+01  0.20896877256E+00  0.90008673871E+02  0.90000947561E+02 0.  0.
        -12    1    1    2    0    0 -0.34712975886E+00 -0.11075392100E+01 -0.20896877256E+00  0.11793261292E+01  0.00000000000E+00 0.  1.
         11    1    3    3    0    0 -0.21785655372E+02 -0.28549895090E+02 -0.11044804522E+02  0.37572583047E+02  0.51100000000E-03 0. -1.
        -11    1    3    3    0    0  0.40638621030E+01 -0.82581700888E+01  0.24088481156E+01  0.95139317799E+01  0.51100000000E-03 0.  1.
        -12    1    3    3    0    0  0.18068923028E+02  0.37915604389E+02  0.88449251788E+01  0.42922159044E+02  0.00000000000E+00 0.  1.
</event>
<event>
 7    1  0.1978681E-015  0.9000776E+02  0.7816164E-02  0.1186339E+00
        -11   -1    0    0    0    0  0.00000000000E+00  0.00000000000E+00  0.45593999997E+02  0.45594000000E+02  0.51100000000E-03 0.  1.
         11   -1    0    0    0    0 -0.00000000000E+00 -0.00000000000E+00 -0.45593999997E+02  0.45594000000E+02  0.51100000000E-03 0. -1.
    9900012    2    1    2    0    0 -0.87435014936E+00  0.13150194949E+00 -0.78178985927E+00  0.90007755817E+02  0.90000017394E+02 0.  0.
        -12    1    1    2    0    0  0.87435014936E+00 -0.13150194949E+00  0.78178985927E+00  0.11802441826E+01  0.00000000000E+00 0.  1.
         11    1    3    3    0    0  0.99545853965E+01 -0.12191539265E+02 -0.18301444511E+02  0.24138563990E+02  0.51100000000E-03 0. -1.
        -11    1    3    3    0    0  0.16570111251E+02 -0.34635302893E+01  0.27860114415E+02  0.32599855896E+02  0.51100000000E-03 0.  1.
         12    1    3    3    0    0 -0.27399046796E+02  0.15786571504E+02 -0.10340459764E+02  0.33269335931E+02  0.00000000000E+00 0. -1.
</event>
<event>
 7    1  0.1978681E-015  0.9000778E+02  0.7816164E-02  0.1186339E+00
        -11   -1    0    0    0    0  0.00000000000E+00  0.00000000000E+00  0.45593999997E+02  0.45594000000E+02  0.51100000000E-03 0. -1.
         11   -1    0    0    0    0 -0.00000000000E+00 -0.00000000000E+00 -0.45593999997E+02  0.45594000000E+02  0.51100000000E-03 0.  1.
    9900012    2    1    2    0    0 -0.55141644603E+00 -0.19917395696E+00  0.10242951201E+01  0.90007783556E+02  0.90000045499E+02 0.  0.
        -12    1    1    2    0    0  0.55141644603E+00  0.19917395696E+00 -0.10242951201E+01  0.11802164442E+01  0.00000000000E+00 0.  1.
         11    1    3    3    0    0 -0.14686075133E+01  0.85039292594E+01  0.63171550298E+01  0.10694861795E+02  0.51100000000E-03 0. -1.
        -11    1    3    3    0    0  0.10598079645E+02  0.32849432017E+02  0.63308894794E+01  0.35092515411E+02  0.51100000000E-03 0.  1.
         12    1    3    3    0    0 -0.96808885776E+01 -0.41552535233E+02 -0.11623749389E+02  0.44220406351E+02  0.00000000000E+00 0. -1.
</event>
<event>
 7    1  0.1978681E-015  0.9000771E+02  0.7816164E-02  0.1186339E+00
        -11   -1    0    0    0    0  0.00000000000E+00  0.00000000000E+00  0.45593999997E+02  0.45594000000E+02  0.51100000000E-03 0.  1.
         11   -1    0    0    0    0 -0.00000000000E+00 -0.00000000000E+00 -0.45593999997E+02  0.45594000000E+02  0.51100000000E-03 0. -1.
    9900012    2    1    2    0    0 -0.54933243552E-01  0.10479956706E+01 -0.54016411111E+00  0.90007707725E+02  0.89999968667E+02 0.  0.
        -12    1    1    2    0    0  0.54933243552E-01 -0.10479956706E+01  0.54016411111E+00  0.11802922747E+01  0.00000000000E+00 0.  1.
         11    1    3    3    0    0  0.76861947013E+01  0.46016886434E+01  0.43110898120E+01  0.99417615635E+01  0.51100000000E-03 0. -1.
        -11    1    3    3    0    0 -0.30491306903E+02 -0.17579671143E+02  0.22540948595E+02  0.41795442311E+02  0.51100000000E-03 0.  1.
         12    1    3    3    0    0  0.22750178958E+02  0.14025978170E+02 -0.27392202518E+02  0.38270503851E+02  0.00000000000E+00 0. -1.
</event>
<event>
 7    1  0.1978681E-015  0.9000771E+02  0.7816164E-02  0.1186339E+00
        -11   -1    0    0    0    0  0.00000000000E+00  0.00000000000E+00  0.45593999997E+02  0.45594000000E+02  0.51100000000E-03 0.  1.
         11   -1    0    0    0    0 -0.00000000000E+00 -0.00000000000E+00 -0.45593999997E+02  0.45594000000E+02  0.51100000000E-03 0. -1.
    9900012    2    1    2    0    0  0.69506708684E+00 -0.76598550938E+00 -0.56853623281E+00  0.90007709568E+02  0.89999970534E+02 0.  0.
        -12    1    1    2    0    0 -0.69506708684E+00  0.76598550938E+00  0.56853623281E+00  0.11802904320E+01  0.00000000000E+00 0.  1.
         11    1    3    3    0    0  0.20654406635E+01 -0.39616596223E+01 -0.98430969667E+01  0.10809595286E+02  0.51100000000E-03 0. -1.
        -11    1    3    3    0    0  0.90899148781E+01 -0.32410663491E+02 -0.12806160141E+02  0.36014932990E+02  0.51100000000E-03 0.  1.
         12    1    3    3    0    0 -0.10460288455E+02  0.35606337604E+02  0.22080720875E+02  0.43183181292E+02  0.00000000000E+00 0. -1.
</event>
<event>
 7    1  0.1978681E-015  0.9000779E+02  0.7816164E-02  0.1186339E+00
        -11   -1    0    0    0    0  0.00000000000E+00  0.00000000000E+00  0.45593999997E+02  0.45594000000E+02  0.51100000000E-03 0.  1.
         11   -1    0    0    0    0 -0.00000000000E+00 -0.00000000000E+00 -0.45593999997E+02  0.45594000000E+02  0.51100000000E-03 0. -1.
    9900012    2    1    2    0    0 -0.36700195628E+00 -0.10921504237E+01  0.25575141778E+00  0.90007791641E+02  0.90000053690E+02 0.  0.
        -12    1    1    2    0    0  0.36700195628E+00  0.10921504237E+01 -0.25575141778E+00  0.11802083594E+01  0.00000000000E+00 0.  1.
         11    1    3    3    0    0  0.13849063432E+01  0.62909240674E+01  0.63331834560E+01  0.90334325785E+01  0.51100000000E-03 0. -1.
        -11    1    3    3    0    0 -0.30192109274E+02  0.69722945845E+00  0.24167037825E+02  0.38679391268E+02  0.51100000000E-03 0.  1.
         12    1    3    3    0    0  0.28440200975E+02 -0.80803039496E+01 -0.30244469864E+02  0.42294967794E+02  0.00000000000E+00 0. -1.
</event>
<event>
 7    1  0.1978681E-015  0.9000779E+02  0.7816164E-02  0.1186339E+00
        -11   -1    0    0    0    0  0.00000000000E+00  0.00000000000E+00  0.45593999997E+02  0.45594000000E+02  0.51100000000E-03 0. -1.
         11   -1    0    0    0    0 -0.00000000000E+00 -0.00000000000E+00 -0.45593999997E+02  0.45594000000E+02  0.51100000000E-03 0.  1.
    9900012    2    1    2    0    0  0.18362236255E-01 -0.41381457474E+00  0.11051338334E+01  0.90007787958E+02  0.90000049959E+02 0.  0.
        -12    1    1    2    0    0 -0.18362236255E-01  0.41381457474E+00 -0.11051338334E+01  0.11802120419E+01  0.00000000000E+00 0.  1.
         11    1    3    3    0    0  0.52223609252E+01  0.85380704333E+01  0.15477500312E+01  0.10127548113E+02  0.51100000000E-03 0. -1.
        -11    1    3    3    0    0  0.22164524539E+02  0.25994963601E+02 -0.73898669992E+01  0.34951601038E+02  0.51100000000E-03 0.  1.
         12    1    3    3    0    0 -0.27368523228E+02 -0.34946848609E+02  0.69472508014E+01  0.44928638807E+02  0.00000000000E+00 0. -1.
</event>
<event>
 7    1  0.1978681E-015  0.9000775E+02  0.7816164E-02  0.1186339E+00
        -11   -1    0    0    0    0  0.00000000000E+00  0.00000000000E+00  0.45593999997E+02  0.45594000000E+02  0.51100000000E-03 0. -1.
         11   -1    0    0    0    0 -0.00000000000E+00 -0.00000000000E+00 -0.45593999997E+02  0.45594000000E+02  0.51100000000E-03 0.  1.
    9900012    2    1    2    0    0  0.61688717966E+00 -0.10464676994E-01  0.10061422557E+01  0.90007753610E+02  0.90000015158E+02 0.  0.
        -12    1    1    2    0    0 -0.61688717966E+00  0.10464676994E-01 -0.10061422557E+01  0.11802463898E+01  0.00000000000E+00 0.  1.
         11    1    3    3    0    0 -0.63993093262E+01  0.46878450285E+00 -0.80600356781E+01  0.10302188804E+02  0.51100000000E-03 0. -1.
        -11    1    3    3    0    0 -0.19728254044E+02  0.31477393821E+02  0.81081201992E+01  0.38023307889E+02  0.51100000000E-03 0.  1.
         12    1    3    3    0    0  0.26744450549E+02 -0.31956643001E+02  0.95805773464E+00  0.41682256917E+02  0.00000000000E+00 0. -1.
</event>
<event>
 7    1  0.1978681E-015  0.9000774E+02  0.7816164E-02  0.1186339E+00
        -11   -1    0    0    0    0  0.00000000000E+00  0.00000000000E+00  0.45593999997E+02  0.45594000000E+02  0.51100000000E-03 0. -1.
         11   -1    0    0    0    0 -0.00000000000E+00 -0.00000000000E+00 -0.45593999997E+02  0.45594000000E+02  0.51100000000E-03 0.  1.
    9900012    2    1    2    0    0 -0.10773930195E+01  0.13917655253E+00 -0.46136329975E+00  0.90007744974E+02  0.90000006408E+02 0.  0.
        -12    1    1    2    0    0  0.10773930195E+01 -0.13917655253E+00  0.46136329975E+00  0.11802550257E+01  0.00000000000E+00 0.  1.
         11    1    3    3    0    0 -0.77101557277E+01 -0.31203179252E+02  0.24201143900E+02  0.40234068438E+02  0.51100000000E-03 0. -1.
        -11    1    3    3    0    0  0.88701152060E+01 -0.19092444607E+01 -0.15200936658E+01  0.91997197345E+01  0.51100000000E-03 0.  1.
        -12    1    3    3    0    0 -0.22373524978E+01  0.33251600265E+02 -0.23142413534E+02  0.40573956802E+02  0.00000000000E+00 0.  1.
</event>
<event>
 7    1  0.1978681E-015  0.9000770E+02  0.7816164E-02  0.1186339E+00
        -11   -1    0    0    0    0  0.00000000000E+00  0.00000000000E+00  0.45593999997E+02  0.45594000000E+02  0.51100000000E-03 0.  1.
         11   -1    0    0    0    0 -0.00000000000E+00 -0.00000000000E+00 -0.45593999997E+02  0.45594000000E+02  0.51100000000E-03 0. -1.
    9900012    2    1    2    0    0  0.45225819263E+00 -0.10897558158E+01  0.31595627792E-01  0.90007701947E+02  0.89999962812E+02 0.  0.
        -12    1    1    2    0    0 -0.45225819263E+00  0.10897558158E+01 -0.31595627792E-01  0.11802980533E+01  0.00000000000E+00 0.  1.
         11    1    3    3    0    0 -0.28091496078E+02 -0.22590173207E+02  0.83158473998E+01  0.36994613062E+02  0.51100000000E-03 0. -1.
        -11    1    3    3    0    0  0.29209100322E+01 -0.79511041926E+01  0.71009245986E+01  0.11053275701E+02  0.51100000000E-03 0.  1.
        -12    1    3    3    0    0  0.25622844238E+02  0.29451521584E+02 -0.15385176371E+02  0.41959813184E+02  0.00000000000E+00 0.  1.
</event>
<event>
 7    1  0.1978681E-015  0.9000758E+02  0.7816164E-02  0.1186339E+00
        -11   -1    0    0    0    0  0.00000000000E+00  0.00000000000E+00  0.45593999997E+02  0.45594000000E+02  0.51100000000E-03 0. -1.
         11   -1    0    0    0    0 -0.00000000000E+00 -0.00000000000E+00 -0.45593999997E+02  0.45594000000E+02  0.51100000000E-03 0.  1.
    9900012    2    1    2    0    0 -0.86532874799E+00 -0.67140318642E+00  0.44024602168E+00  0.90007579465E+02  0.89999838713E+02 0.  0.
        -12    1    1    2    0    0  0.86532874799E+00  0.67140318642E+00 -0.44024602168E+00  0.11804205354E+01  0.00000000000E+00 0.  1.
         11    1    3    3    0    0 -0.29842958704E+01  0.41342664222E+02  0.13016243177E+02  0.43445880052E+02  0.51100000000E-03 0. -1.
        -11    1    3    3    0    0  0.37061642122E+01 -0.28702869755E+01  0.15184771838E+01  0.49274713300E+01  0.51100000000E-03 0.  1.
        -12    1    3    3    0    0 -0.15871970897E+01 -0.39143780433E+02 -0.14094474339E+02  0.41634228083E+02  0.00000000000E+00 0.  1.
</event>
<event>
 7    1  0.1978681E-015  0.9000773E+02  0.7816164E-02  0.1186339E+00
        -11   -1    0    0    0    0  0.00000000000E+00  0.00000000000E+00  0.45593999997E+02  0.45594000000E+02  0.51100000000E-03 0. -1.
         11   -1    0    0    0    0 -0.00000000000E+00 -0.00000000000E+00 -0.45593999997E+02  0.45594000000E+02  0.51100000000E-03 0.  1.
    9900012    2    1    2    0    0 -0.50374329730E+00  0.51485952242E+00  0.93499029234E+00  0.90007726945E+02  0.89999988141E+02 0.  0.
        -12    1    1    2    0    0  0.50374329730E+00 -0.51485952242E+00 -0.93499029234E+00  0.11802730549E+01  0.00000000000E+00 0.  1.
         11    1    3    3    0    0  0.74823492093E+01  0.40398378267E+02 -0.54746007024E+01  0.41448591887E+02  0.51100000000E-03 0. -1.
        -11    1    3    3    0    0 -0.11344106670E+01 -0.32286022068E+01 -0.79067996225E+01  0.86155812516E+01  0.51100000000E-03 0.  1.
        -12    1    3    3    0    0 -0.68516818396E+01 -0.36654916538E+02  0.14316390617E+02  0.39943553807E+02  0.00000000000E+00 0.  1.
</event>
<event>
 7    1  0.1978681E-015  0.9000771E+02  0.7816164E-02  0.1186339E+00
        -11   -1    0    0    0    0  0.00000000000E+00  0.00000000000E+00  0.45593999997E+02  0.45594000000E+02  0.51100000000E-03 0.  1.
         11   -1    0    0    0    0 -0.00000000000E+00 -0.00000000000E+00 -0.45593999997E+02  0.45594000000E+02  0.51100000000E-03 0. -1.
    9900012    2    1    2    0    0 -0.35845569824E+00  0.68006550869E+00 -0.89560862417E+00  0.90007705803E+02  0.89999966720E+02 0.  0.
        -12    1    1    2    0    0  0.35845569824E+00 -0.68006550869E+00  0.89560862417E+00  0.11802941970E+01  0.00000000000E+00 0.  1.
         11    1    3    3    0    0 -0.24606135400E+02  0.28530642684E+02  0.11617964878E+02  0.39426343724E+02  0.51100000000E-03 0. -1.
        -11    1    3    3    0    0  0.64905299314E+01  0.70330388651E+01 -0.29235719805E+00  0.95747630499E+01  0.51100000000E-03 0.  1.
        -12    1    3    3    0    0  0.17757149770E+02 -0.34883616040E+02 -0.12221216304E+02  0.41006599029E+02  0.00000000000E+00 0.  1.
</event>
<event>
 7    1  0.1978681E-015  0.9000770E+02  0.7816164E-02  0.1186339E+00
        -11   -1    0    0    0    0  0.00000000000E+00  0.00000000000E+00  0.45593999997E+02  0.45594000000E+02  0.51100000000E-03 0.  1.
         11   -1    0    0    0    0 -0.00000000000E+00 -0.00000000000E+00 -0.45593999997E+02  0.45594000000E+02  0.51100000000E-03 0. -1.
    9900012    2    1    2    0    0 -0.32230792077E+00  0.30344058375E+00 -0.10941423753E+01  0.90007700834E+02  0.89999961685E+02 0.  0.
        -12    1    1    2    0    0  0.32230792077E+00 -0.30344058375E+00  0.10941423753E+01  0.11802991659E+01  0.00000000000E+00 0.  1.
         11    1    3    3    0    0 -0.53526077946E+01 -0.67001614830E+01  0.32647252246E+01  0.91761105679E+01  0.51100000000E-03 0. -1.
        -11    1    3    3    0    0  0.25271223156E+02 -0.24121004828E+02  0.16071229631E+02  0.38454414776E+02  0.51100000000E-03 0.  1.
         12    1    3    3    0    0 -0.20240923282E+02  0.31124606894E+02 -0.20430097231E+02  0.42377175490E+02  0.00000000000E+00 0. -1.
</event>
<event>
 7    1  0.1978681E-015  0.9000774E+02  0.7816164E-02  0.1186339E+00
        -11   -1    0    0    0    0  0.00000000000E+00  0.00000000000E+00  0.45593999997E+02  0.45594000000E+02  0.51100000000E-03 0.  1.
         11   -1    0    0    0    0 -0.00000000000E+00 -0.00000000000E+00 -0.45593999997E+02  0.45594000000E+02  0.51100000000E-03 0. -1.
    9900012    2    1    2    0    0 -0.24999789841E+00 -0.11108258476E+01  0.31076715497E+00  0.90007741877E+02  0.90000003270E+02 0.  0.
        -12    1    1    2    0    0  0.24999789841E+00  0.11108258476E+01 -0.31076715497E+00  0.11802581232E+01  0.00000000000E+00 0.  1.
         11    1    3    3    0    0 -0.32595315027E+02 -0.16713435183E+02 -0.15972691205E+02  0.39961485732E+02  0.51100000000E-03 0. -1.
        -11    1    3    3    0    0 -0.41950056596E+01  0.18785961792E+00  0.87121328124E+01  0.96713299045E+01  0.51100000000E-03 0.  1.
        -12    1    3    3    0    0  0.36540322788E+02  0.15414749718E+02  0.75713255478E+01  0.40374926240E+02  0.00000000000E+00 0.  1.
</event>
<event>
 7    1  0.1978681E-015  0.9000763E+02  0.7816164E-02  0.1186339E+00
        -11   -1    0    0    0    0  0.00000000000E+00  0.00000000000E+00  0.45593999997E+02  0.45594000000E+02  0.51100000000E-03 0. -1.
         11   -1    0    0    0    0 -0.00000000000E+00 -0.00000000000E+00 -0.45593999997E+02  0.45594000000E+02  0.51100000000E-03 0.  1.
    9900012    2    1    2    0    0 -0.45520225598E+00  0.98941437372E+00  0.45510198097E+00  0.90007632384E+02  0.89999892331E+02 0.  0.
        -12    1    1    2    0    0  0.45520225598E+00 -0.98941437372E+00 -0.45510198097E+00  0.11803676164E+01  0.00000000000E+00 0.  1.
         11    1    3    3    0    0 -0.17411193498E+02 -0.60645980736E+01  0.67475959998E+01  0.19633111339E+02  0.51100000000E-03 0. -1.
        -11    1    3    3    0    0 -0.25834470833E+02  0.11336352832E+01 -0.82173995819E+01  0.27133570873E+02  0.51100000000E-03 0.  1.
        -12    1    3    3    0    0  0.42790462075E+02  0.59203771641E+01  0.19249055631E+01  0.43240950172E+02  0.00000000000E+00 0.  1.
</event>
<event>
 7    1  0.2101558E-015  0.9000775E+02  0.7816164E-02  0.1186339E+00
        -11   -1    0    0    0    0  0.00000000000E+00  0.00000000000E+00  0.45593999997E+02  0.45594000000E+02  0.51100000000E-03 0. -1.
         11   -1    0    0    0    0 -0.00000000000E+00 -0.00000000000E+00 -0.45593999997E+02  0.45594000000E+02  0.51100000000E-03 0.  1.
    9900012    2    1    2    0    0 -0.56339695643E+00  0.91169477895E+00 -0.49435953948E+00  0.90007747970E+02  0.90000009443E+02 0.  0.
        -12    1    1    2    0    0  0.56339695643E+00 -0.91169477895E+00  0.49435953948E+00  0.11802520302E+01  0.00000000000E+00 0.  1.
         11    1    3    3    0    0 -0.72242848981E+01 -0.38545401109E+01 -0.39505359711E+01  0.90914523854E+01  0.51100000000E-03 0. -1.
        -11    1    3    3    0    0 -0.30098075094E+02  0.24768175700E+02  0.88791374215E+00  0.38989037471E+02  0.51100000000E-03 0.  1.
         12    1    3    3    0    0  0.36758963036E+02 -0.20001940810E+02  0.25682626895E+01  0.41927258113E+02  0.00000000000E+00 0. -1.
</event>
<event>
 7    1  0.1978681E-015  0.9000752E+02  0.7816164E-02  0.1186339E+00
        -11   -1    0    0    0    0  0.00000000000E+00  0.00000000000E+00  0.45593999997E+02  0.45594000000E+02  0.51100000000E-03 0.  1.
         11   -1    0    0    0    0 -0.00000000000E+00 -0.00000000000E+00 -0.45593999997E+02  0.45594000000E+02  0.51100000000E-03 0. -1.
    9900012    2    1    2    0    0  0.28788528979E+00  0.29015721771E-01 -0.11444731123E+01  0.90007517659E+02  0.89999776092E+02 0.  0.
        -12    1    1    2    0    0 -0.28788528979E+00 -0.29015721771E-01  0.11444731123E+01  0.11804823409E+01  0.00000000000E+00 0.  1.
         11    1    3    3    0    0 -0.17440761530E+02  0.28666919074E+02  0.25924457602E+02  0.42403418662E+02  0.51100000000E-03 0. -1.
        -11    1    3    3    0    0  0.93556078011E+01 -0.14401678260E+01 -0.19896562555E+01  0.96726528404E+01  0.51100000000E-03 0.  1.
        -12    1    3    3    0    0  0.83730390182E+01 -0.27197735527E+02 -0.25079274459E+02  0.37931446157E+02  0.00000000000E+00 0.  1.
</event>
<event>
 7    1  0.1978681E-015  0.9000755E+02  0.7816164E-02  0.1186339E+00
        -11   -1    0    0    0    0  0.00000000000E+00  0.00000000000E+00  0.45593999997E+02  0.45594000000E+02  0.51100000000E-03 0.  1.
         11   -1    0    0    0    0 -0.00000000000E+00 -0.00000000000E+00 -0.45593999997E+02  0.45594000000E+02  0.51100000000E-03 0. -1.
    9900012    2    1    2    0    0 -0.15444084561E+00 -0.42631123685E+00 -0.10898903329E+01  0.90007553397E+02  0.89999812301E+02 0.  0.
        -12    1    1    2    0    0  0.15444084561E+00  0.42631123685E+00  0.10898903329E+01  0.11804466033E+01  0.00000000000E+00 0.  1.
         11    1    3    3    0    0 -0.25956420838E+02 -0.22966100656E+02  0.49713792758E+01  0.35012743026E+02  0.51100000000E-03 0. -1.
        -11    1    3    3    0    0 -0.10995454863E+02 -0.81860565512E+00 -0.21593680800E+01  0.11235346618E+02  0.51100000000E-03 0.  1.
        -12    1    3    3    0    0  0.36797434855E+02  0.23358395074E+02 -0.39019015288E+01  0.43759463753E+02  0.00000000000E+00 0.  1.
</event>
<event>
 7    1  0.1978681E-015  0.9000815E+02  0.7816164E-02  0.1186338E+00
        -11   -1    0    0    0    0  0.00000000000E+00  0.00000000000E+00  0.45593999997E+02  0.45594000000E+02  0.51100000000E-03 0.  1.
         11   -1    0    0    0    0 -0.00000000000E+00 -0.00000000000E+00 -0.45593999997E+02  0.45594000000E+02  0.51100000000E-03 0. -1.
    9900012    2    1    2    0    0 -0.82575957866E+00  0.94188760462E-01 -0.83743593429E+00  0.90008148591E+02  0.90000415351E+02 0.  0.
        -12    1    1    2    0    0  0.82575957866E+00 -0.94188760462E-01  0.83743593429E+00  0.11798514094E+01  0.00000000000E+00 0.  1.
         11    1    3    3    0    0 -0.71707016757E+00 -0.71319904898E+01  0.64559545285E+01  0.96467003222E+01  0.51100000000E-03 0. -1.
        -11    1    3    3    0    0 -0.24088893747E+02 -0.18482261251E+02 -0.26500253152E+02  0.40300523574E+02  0.51100000000E-03 0.  1.
         12    1    3    3    0    0  0.23980204336E+02  0.25708440502E+02  0.19206862689E+02  0.40060924695E+02  0.00000000000E+00 0. -1.
</event>
<event>
 7    1  0.1978681E-015  0.9000781E+02  0.7816164E-02  0.1186339E+00
        -11   -1    0    0    0    0  0.00000000000E+00  0.00000000000E+00  0.45593999997E+02  0.45594000000E+02  0.51100000000E-03 0.  1.
         11   -1    0    0    0    0 -0.00000000000E+00 -0.00000000000E+00 -0.45593999997E+02  0.45594000000E+02  0.51100000000E-03 0. -1.
    9900012    2    1    2    0    0 -0.10813526083E+01 -0.29251477826E+00  0.37142378935E+00  0.90007811883E+02  0.90000074200E+02 0.  0.
        -12    1    1    2    0    0  0.10813526083E+01  0.29251477826E+00 -0.37142378935E+00  0.11801881165E+01  0.00000000000E+00 0.  1.
         11    1    3    3    0    0 -0.14368683705E+01  0.51862372185E+01  0.13892720533E+02  0.14898635215E+02  0.51100000000E-03 0. -1.
        -11    1    3    3    0    0 -0.18919459806E+02  0.24284069862E+02  0.10219719343E+02  0.32436163030E+02  0.51100000000E-03 0.  1.
         12    1    3    3    0    0  0.19274975568E+02 -0.29762821858E+02 -0.23741016087E+02  0.42673013638E+02  0.00000000000E+00 0. -1.
</event>
<event>
 7    1  0.1978681E-015  0.9000763E+02  0.7816164E-02  0.1186339E+00
        -11   -1    0    0    0    0  0.00000000000E+00  0.00000000000E+00  0.45593999997E+02  0.45594000000E+02  0.51100000000E-03 0. -1.
         11   -1    0    0    0    0 -0.00000000000E+00 -0.00000000000E+00 -0.45593999997E+02  0.45594000000E+02  0.51100000000E-03 0.  1.
    9900012    2    1    2    0    0  0.60381850878E+00 -0.92327750819E+00  0.41979494442E+00  0.90007633132E+02  0.89999893089E+02 0.  0.
        -12    1    1    2    0    0 -0.60381850878E+00  0.92327750819E+00 -0.41979494442E+00  0.11803668684E+01  0.00000000000E+00 0.  1.
         11    1    3    3    0    0 -0.18274731409E+02 -0.32854866386E+02  0.22624982267E+02  0.43878216420E+02  0.51100000000E-03 0. -1.
        -11    1    3    3    0    0  0.97041859255E+00  0.31531927290E+01 -0.92873174079E+01  0.98558917165E+01  0.51100000000E-03 0.  1.
        -12    1    3    3    0    0  0.17908131326E+02  0.28778396149E+02 -0.12917869915E+02  0.36273524996E+02  0.00000000000E+00 0.  1.
</event>
<event>
 7    1  0.1978681E-015  0.9000778E+02  0.7816164E-02  0.1186339E+00
        -11   -1    0    0    0    0  0.00000000000E+00  0.00000000000E+00  0.45593999997E+02  0.45594000000E+02  0.51100000000E-03 0. -1.
         11   -1    0    0    0    0 -0.00000000000E+00 -0.00000000000E+00 -0.45593999997E+02  0.45594000000E+02  0.51100000000E-03 0.  1.
    9900012    2    1    2    0    0  0.10152456254E+01  0.59570928543E+00 -0.85630365842E-01  0.90007777228E+02  0.90000039087E+02 0.  0.
        -12    1    1    2    0    0 -0.10152456254E+01 -0.59570928543E+00  0.85630365842E-01  0.11802227723E+01  0.00000000000E+00 0.  1.
         11    1    3    3    0    0  0.24707414018E+01  0.27356201693E+01 -0.83247636418E+01  0.91043874445E+01  0.51100000000E-03 0. -1.
        -11    1    3    3    0    0  0.28841849876E+02 -0.96329808957E+01 -0.21933490030E+02  0.37492994151E+02  0.51100000000E-03 0.  1.
         12    1    3    3    0    0 -0.30297345653E+02  0.74930700119E+01  0.30172623306E+02  0.43410395633E+02  0.00000000000E+00 0. -1.
</event>
<event>
 7    1  0.1978681E-015  0.9000775E+02  0.7816164E-02  0.1186339E+00
        -11   -1    0    0    0    0  0.00000000000E+00  0.00000000000E+00  0.45593999997E+02  0.45594000000E+02  0.51100000000E-03 0.  1.
         11   -1    0    0    0    0 -0.00000000000E+00 -0.00000000000E+00 -0.45593999997E+02  0.45594000000E+02  0.51100000000E-03 0. -1.
    9900012    2    1    2    0    0  0.21170932659E+00 -0.81461547391E-01 -0.11582472582E+01  0.90007748529E+02  0.90000010010E+02 0.  0.
        -12    1    1    2    0    0 -0.21170932659E+00  0.81461547391E-01  0.11582472582E+01  0.11802514706E+01  0.00000000000E+00 0.  1.
         11    1    3    3    0    0  0.81750088579E+01  0.40801540891E+01 -0.19625378467E+01  0.93450512186E+01  0.51100000000E-03 0. -1.
        -11    1    3    3    0    0  0.26121013158E+01  0.32912747451E+02  0.18933371987E+02  0.38059750303E+02  0.51100000000E-03 0.  1.
         12    1    3    3    0    0 -0.10575400847E+02 -0.37074363087E+02 -0.18129081399E+02  0.42602947008E+02  0.00000000000E+00 0. -1.
</event>
<event>
 7    1  0.1978681E-015  0.9000770E+02  0.7816164E-02  0.1186339E+00
        -11   -1    0    0    0    0  0.00000000000E+00  0.00000000000E+00  0.45593999997E+02  0.45594000000E+02  0.51100000000E-03 0. -1.
         11   -1    0    0    0    0 -0.00000000000E+00 -0.00000000000E+00 -0.45593999997E+02  0.45594000000E+02  0.51100000000E-03 0.  1.
    9900012    2    1    2    0    0 -0.39520450367E+00 -0.91294988632E+00 -0.63517867021E+00  0.90007696633E+02  0.89999957429E+02 0.  0.
        -12    1    1    2    0    0  0.39520450367E+00  0.91294988632E+00  0.63517867021E+00  0.11803033668E+01  0.00000000000E+00 0.  1.
         11    1    3    3    0    0  0.15881932378E+02  0.28116880408E+02  0.13097116633E+02  0.34847226637E+02  0.51100000000E-03 0. -1.
        -11    1    3    3    0    0 -0.56603296960E+01  0.92302476116E+01 -0.10884278191E+02  0.15352664761E+02  0.51100000000E-03 0.  1.
        -12    1    3    3    0    0 -0.10616807186E+02 -0.38260077906E+02 -0.28480171113E+01  0.39807805235E+02  0.00000000000E+00 0.  1.
</event>
<event>
 7    1  0.1978681E-015  0.9000773E+02  0.7816164E-02  0.1186339E+00
        -11   -1    0    0    0    0  0.00000000000E+00  0.00000000000E+00  0.45593999997E+02  0.45594000000E+02  0.51100000000E-03 0.  1.
         11   -1    0    0    0    0 -0.00000000000E+00 -0.00000000000E+00 -0.45593999997E+02  0.45594000000E+02  0.51100000000E-03 0. -1.
    9900012    2    1    2    0    0  0.67671893811E+00  0.49683236912E+00 -0.82961076027E+00  0.90007726753E+02  0.89999987946E+02 0.  0.
        -12    1    1    2    0    0 -0.67671893811E+00 -0.49683236912E+00  0.82961076027E+00  0.11802732471E+01  0.00000000000E+00 0.  1.
         11    1    3    3    0    0  0.17482289429E+02  0.72608259290E-01 -0.13705201442E+02  0.22214145549E+02  0.51100000000E-03 0. -1.
        -11    1    3    3    0    0 -0.35043638598E+02 -0.18282400212E+02  0.22513349175E+01  0.39590040072E+02  0.51100000000E-03 0.  1.
         12    1    3    3    0    0  0.18238068107E+02  0.18706624322E+02  0.10624255765E+02  0.28203541132E+02  0.00000000000E+00 0. -1.
</event>
<event>
 7    1  0.1978681E-015  0.9000745E+02  0.7816164E-02  0.1186340E+00
        -11   -1    0    0    0    0  0.00000000000E+00  0.00000000000E+00  0.45593999997E+02  0.45594000000E+02  0.51100000000E-03 0.  1.
         11   -1    0    0    0    0 -0.00000000000E+00 -0.00000000000E+00 -0.45593999997E+02  0.45594000000E+02  0.51100000000E-03 0. -1.
    9900012    2    1    2    0    0 -0.40349096274E+00 -0.11000960278E+01  0.14383503768E+00  0.90007447271E+02  0.89999704775E+02 0.  0.
        -12    1    1    2    0    0  0.40349096274E+00  0.11000960278E+01 -0.14383503768E+00  0.11805527288E+01  0.00000000000E+00 0.  1.
         11    1    3    3    0    0 -0.24250257409E+02 -0.29666208866E+02 -0.44483459769E+00  0.38319144184E+02  0.51100000000E-03 0. -1.
        -11    1    3    3    0    0  0.22647808023E+01 -0.81249726660E+01  0.32457328186E+01  0.90376542696E+01  0.51100000000E-03 0.  1.
        -12    1    3    3    0    0  0.21581985644E+02  0.36691085504E+02 -0.26570631833E+01  0.42650648818E+02  0.00000000000E+00 0.  1.
</event>
<event>
 7    1  0.1978681E-015  0.9000769E+02  0.7816164E-02  0.1186339E+00
        -11   -1    0    0    0    0  0.00000000000E+00  0.00000000000E+00  0.45593999997E+02  0.45594000000E+02  0.51100000000E-03 0.  1.
         11   -1    0    0    0    0 -0.00000000000E+00 -0.00000000000E+00 -0.45593999997E+02  0.45594000000E+02  0.51100000000E-03 0. -1.
    9900012    2    1    2    0    0 -0.91220647307E+00 -0.17873290689E+00  0.72737515674E+00  0.90007686177E+02  0.89999946835E+02 0.  0.
        -12    1    1    2    0    0  0.91220647307E+00  0.17873290689E+00 -0.72737515674E+00  0.11803138227E+01  0.00000000000E+00 0.  1.
         11    1    3    3    0    0  0.47646153902E+01  0.11655118817E+02 -0.38129421225E+01  0.13156058769E+02  0.51100000000E-03 0. -1.
        -11    1    3    3    0    0 -0.35588243421E+01 -0.19115276031E+02  0.37923765441E+02  0.42617730980E+02  0.51100000000E-03 0.  1.
         12    1    3    3    0    0 -0.21179975212E+01  0.72814243073E+01 -0.33383448162E+02  0.34233896428E+02  0.00000000000E+00 0. -1.
</event>
<event>
 7    1  0.1978681E-015  0.9000801E+02  0.7816164E-02  0.1186339E+00
        -11   -1    0    0    0    0  0.00000000000E+00  0.00000000000E+00  0.45593999997E+02  0.45594000000E+02  0.51100000000E-03 0. -1.
         11   -1    0    0    0    0 -0.00000000000E+00 -0.00000000000E+00 -0.45593999997E+02  0.45594000000E+02  0.51100000000E-03 0.  1.
    9900012    2    1    2    0    0  0.62475849772E+00  0.66322203185E+00  0.74979261658E+00  0.90008010334E+02  0.90000275270E+02 0.  0.
        -12    1    1    2    0    0 -0.62475849772E+00 -0.66322203185E+00 -0.74979261658E+00  0.11799896660E+01  0.00000000000E+00 0.  1.
         11    1    3    3    0    0 -0.82379066821E+01 -0.27992117551E+02 -0.12508480171E+02  0.31747186142E+02  0.51100000000E-03 0. -1.
        -11    1    3    3    0    0 -0.10183675884E+02 -0.64397413318E+01 -0.65208041738E+01  0.13700306940E+02  0.51100000000E-03 0.  1.
        -12    1    3    3    0    0  0.19046341064E+02  0.35095080914E+02  0.19779076961E+02  0.44560517252E+02  0.00000000000E+00 0.  1.
</event>
<event>
 7    1  0.1978681E-015  0.9000779E+02  0.7816164E-02  0.1186339E+00
        -11   -1    0    0    0    0  0.00000000000E+00  0.00000000000E+00  0.45593999997E+02  0.45594000000E+02  0.51100000000E-03 0.  1.
         11   -1    0    0    0    0 -0.00000000000E+00 -0.00000000000E+00 -0.45593999997E+02  0.45594000000E+02  0.51100000000E-03 0. -1.
    9900012    2    1    2    0    0  0.47956897735E+00 -0.31125566561E+00  0.10324852084E+01  0.90007791460E+02  0.90000053507E+02 0.  0.
        -12    1    1    2    0    0 -0.47956897735E+00  0.31125566561E+00 -0.10324852084E+01  0.11802085404E+01  0.00000000000E+00 0.  1.
         11    1    3    3    0    0 -0.30238677202E+02 -0.25247823254E+02 -0.17486216729E+01  0.39432066342E+02  0.51100000000E-03 0. -1.
        -11    1    3    3    0    0 -0.20605983120E+01  0.27181167369E+00  0.88646976163E+01  0.91050980818E+01  0.51100000000E-03 0.  1.
        -12    1    3    3    0    0  0.32778844491E+02  0.24664755915E+02 -0.60835907351E+01  0.41470627036E+02  0.00000000000E+00 0.  1.
</event>
<event>
 7    1  0.1978681E-015  0.9000784E+02  0.7816164E-02  0.1186339E+00
        -11   -1    0    0    0    0  0.00000000000E+00  0.00000000000E+00  0.45593999997E+02  0.45594000000E+02  0.51100000000E-03 0.  1.
         11   -1    0    0    0    0 -0.00000000000E+00 -0.00000000000E+00 -0.45593999997E+02  0.45594000000E+02  0.51100000000E-03 0. -1.
    9900012    2    1    2    0    0 -0.11536038351E+01 -0.52191595519E-01 -0.24341015939E+00  0.90007841419E+02  0.90000104125E+02 0.  0.
        -12    1    1    2    0    0  0.11536038351E+01  0.52191595519E-01  0.24341015939E+00  0.11801585812E+01  0.00000000000E+00 0.  1.
         11    1    3    3    0    0 -0.18501688239E+00 -0.40020908896E+01 -0.39940453293E+02  0.40140886540E+02  0.51100000000E-03 0. -1.
        -11    1    3    3    0    0  0.75857622708E+00  0.49003720146E+01 -0.38484157479E+01  0.62768931649E+01  0.51100000000E-03 0.  1.
        -12    1    3    3    0    0 -0.17271631798E+01 -0.95047272053E+00  0.43545458881E+02  0.43590061714E+02  0.00000000000E+00 0.  1.
</event>
<event>
 7    1  0.1978681E-015  0.9000784E+02  0.7816164E-02  0.1186339E+00
        -11   -1    0    0    0    0  0.00000000000E+00  0.00000000000E+00  0.45593999997E+02  0.45594000000E+02  0.51100000000E-03 0. -1.
         11   -1    0    0    0    0 -0.00000000000E+00 -0.00000000000E+00 -0.45593999997E+02  0.45594000000E+02  0.51100000000E-03 0.  1.
    9900012    2    1    2    0    0  0.72672229214E+00 -0.80565138075E+00  0.46430417305E+00  0.90007839925E+02  0.90000102612E+02 0.  0.
        -12    1    1    2    0    0 -0.72672229214E+00  0.80565138075E+00 -0.46430417305E+00  0.11801600749E+01  0.00000000000E+00 0.  1.
         11    1    3    3    0    0  0.16274470600E+01 -0.60236329545E+01 -0.52744782078E+01  0.81702422564E+01  0.51100000000E-03 0. -1.
        -11    1    3    3    0    0 -0.10008698504E+02  0.17923516241E+02 -0.33673755929E+02  0.39437904595E+02  0.51100000000E-03 0.  1.
         12    1    3    3    0    0  0.91079737361E+01 -0.12705534667E+02  0.39412538310E+02  0.42399693074E+02  0.00000000000E+00 0. -1.
</event>
<event>
 7    1  0.1978681E-015  0.9000775E+02  0.7816164E-02  0.1186339E+00
        -11   -1    0    0    0    0  0.00000000000E+00  0.00000000000E+00  0.45593999997E+02  0.45594000000E+02  0.51100000000E-03 0. -1.
         11   -1    0    0    0    0 -0.00000000000E+00 -0.00000000000E+00 -0.45593999997E+02  0.45594000000E+02  0.51100000000E-03 0.  1.
    9900012    2    1    2    0    0 -0.41263923937E+00 -0.10846327128E+01 -0.21517391483E+00  0.90007746181E+02  0.90000007631E+02 0.  0.
        -12    1    1    2    0    0  0.41263923937E+00  0.10846327128E+01  0.21517391483E+00  0.11802538189E+01  0.00000000000E+00 0.  1.
         11    1    3    3    0    0 -0.18737336765E+01  0.35583331837E+02  0.51909995659E+01  0.36008760868E+02  0.51100000000E-03 0. -1.
        -11    1    3    3    0    0  0.28950864389E+01  0.57319643430E+01  0.72907519482E+01  0.97155547937E+01  0.51100000000E-03 0.  1.
        -12    1    3    3    0    0 -0.14339920018E+01 -0.42399928893E+02 -0.12696925429E+02  0.44283430519E+02  0.00000000000E+00 0.  1.
</event>
<event>
 7    1  0.1978681E-015  0.9000775E+02  0.7816164E-02  0.1186339E+00
        -11   -1    0    0    0    0  0.00000000000E+00  0.00000000000E+00  0.45593999997E+02  0.45594000000E+02  0.51100000000E-03 0.  1.
         11   -1    0    0    0    0 -0.00000000000E+00 -0.00000000000E+00 -0.45593999997E+02  0.45594000000E+02  0.51100000000E-03 0. -1.
    9900012    2    1    2    0    0  0.83416943833E+00  0.67458015302E+00 -0.49203580539E+00  0.90007747371E+02  0.90000008836E+02 0.  0.
        -12    1    1    2    0    0 -0.83416943833E+00 -0.67458015302E+00  0.49203580539E+00  0.11802526291E+01  0.00000000000E+00 0.  1.
         11    1    3    3    0    0 -0.56898985555E+01  0.51462155634E+01 -0.69612336895E+01  0.10359404179E+02  0.51100000000E-03 0. -1.
        -11    1    3    3    0    0 -0.17141351786E+02 -0.36051911138E+02  0.35506850239E+01  0.40077095730E+02  0.51100000000E-03 0.  1.
         12    1    3    3    0    0  0.23665419780E+02  0.31580275728E+02  0.29185128603E+01  0.39571247462E+02  0.00000000000E+00 0. -1.
</event>
<event>
 7    1  0.1978681E-015  0.9000785E+02  0.7816164E-02  0.1186339E+00
        -11   -1    0    0    0    0  0.00000000000E+00  0.00000000000E+00  0.45593999997E+02  0.45594000000E+02  0.51100000000E-03 0.  1.
         11   -1    0    0    0    0 -0.00000000000E+00 -0.00000000000E+00 -0.45593999997E+02  0.45594000000E+02  0.51100000000E-03 0. -1.
    9900012    2    1    2    0    0 -0.56526802895E+00 -0.27151538236E+00 -0.99975621058E+00  0.90007847032E+02  0.90000109813E+02 0.  0.
        -12    1    1    2    0    0  0.56526802895E+00  0.27151538236E+00  0.99975621058E+00  0.11801529681E+01  0.00000000000E+00 0.  1.
         11    1    3    3    0    0 -0.38868201382E+02 -0.63218047350E+01 -0.10928670005E+02  0.40867323403E+02  0.51100000000E-03 0. -1.
        -11    1    3    3    0    0 -0.89425316745E+00  0.41952112067E+01  0.89071171736E+01  0.98861631790E+01  0.51100000000E-03 0.  1.
        -12    1    3    3    0    0  0.39197186520E+02  0.18550781459E+01  0.10217966213E+01  0.39254360450E+02  0.00000000000E+00 0.  1.
</event>
<event>
 7    1  0.1978681E-015  0.9000747E+02  0.7816164E-02  0.1186340E+00
        -11   -1    0    0    0    0  0.00000000000E+00  0.00000000000E+00  0.45593999997E+02  0.45594000000E+02  0.51100000000E-03 0. -1.
         11   -1    0    0    0    0 -0.00000000000E+00 -0.00000000000E+00 -0.45593999997E+02  0.45594000000E+02  0.51100000000E-03 0.  1.
    9900012    2    1    2    0    0 -0.40130758586E+00 -0.10840056131E+01  0.23984403984E+00  0.90007474223E+02  0.89999732082E+02 0.  0.
        -12    1    1    2    0    0  0.40130758586E+00  0.10840056131E+01 -0.23984403984E+00  0.11805257774E+01  0.00000000000E+00 0.  1.
         11    1    3    3    0    0 -0.14708381537E+02  0.14509889679E+02  0.32583530654E+02  0.38581859158E+02  0.51100000000E-03 0. -1.
        -11    1    3    3    0    0 -0.92578356580E+01 -0.10486935693E+01 -0.65230205089E+00  0.93398489014E+01  0.51100000000E-03 0.  1.
        -12    1    3    3    0    0  0.23564909609E+02 -0.14545201723E+02 -0.31691384563E+02  0.42085766164E+02  0.00000000000E+00 0.  1.
</event>
<event>
 7    1  0.1978681E-015  0.9000771E+02  0.7816164E-02  0.1186339E+00
        -11   -1    0    0    0    0  0.00000000000E+00  0.00000000000E+00  0.45593999997E+02  0.45594000000E+02  0.51100000000E-03 0. -1.
         11   -1    0    0    0    0 -0.00000000000E+00 -0.00000000000E+00 -0.45593999997E+02  0.45594000000E+02  0.51100000000E-03 0.  1.
    9900012    2    1    2    0    0  0.10113551086E+01  0.24954017912E+00 -0.55494441371E+00  0.90007714967E+02  0.89999976005E+02 0.  0.
        -12    1    1    2    0    0 -0.10113551086E+01 -0.24954017912E+00  0.55494441371E+00  0.11802850330E+01  0.00000000000E+00 0.  1.
         11    1    3    3    0    0  0.31310470041E+01  0.11408510971E+02 -0.15843724611E+01  0.11935988198E+02  0.51100000000E-03 0. -1.
        -11    1    3    3    0    0 -0.17976663559E+02  0.22941882412E+02 -0.19652392417E+02  0.35152623362E+02  0.51100000000E-03 0.  1.
         12    1    3    3    0    0  0.15856971663E+02 -0.34100853203E+02  0.20681820464E+02  0.42919103407E+02  0.00000000000E+00 0. -1.
</event>
<event>
 7    1  0.1978681E-015  0.9000778E+02  0.7816164E-02  0.1186339E+00
        -11   -1    0    0    0    0  0.00000000000E+00  0.00000000000E+00  0.45593999997E+02  0.45594000000E+02  0.51100000000E-03 0.  1.
         11   -1    0    0    0    0 -0.00000000000E+00 -0.00000000000E+00 -0.45593999997E+02  0.45594000000E+02  0.51100000000E-03 0. -1.
    9900012    2    1    2    0    0 -0.82764759590E+00 -0.72825049260E+00  0.42138395398E+00  0.90007782325E+02  0.90000044252E+02 0.  0.
        -12    1    1    2    0    0  0.82764759590E+00  0.72825049260E+00 -0.42138395398E+00  0.11802176747E+01  0.00000000000E+00 0.  1.
         11    1    3    3    0    0 -0.26368743698E+02 -0.12520323893E+02 -0.27956122157E+02  0.40417990065E+02  0.51100000000E-03 0. -1.
        -11    1    3    3    0    0 -0.65864157549E+01  0.22046797474E+01  0.67923683394E+01  0.97148213162E+01  0.51100000000E-03 0.  1.
        -12    1    3    3    0    0  0.32127511857E+02  0.95873936531E+01  0.21585137771E+02  0.39874970944E+02  0.00000000000E+00 0.  1.
</event>
<event>
 7    1  0.1978681E-015  0.9000734E+02  0.7816164E-02  0.1186340E+00
        -11   -1    0    0    0    0  0.00000000000E+00  0.00000000000E+00  0.45593999997E+02  0.45594000000E+02  0.51100000000E-03 0.  1.
         11   -1    0    0    0    0 -0.00000000000E+00 -0.00000000000E+00 -0.45593999997E+02  0.45594000000E+02  0.51100000000E-03 0. -1.
    9900012    2    1    2    0    0 -0.63931847327E+00  0.69178086833E+00  0.71180706665E+00  0.90007339939E+02  0.89999596025E+02 0.  0.
        -12    1    1    2    0    0  0.63931847327E+00 -0.69178086833E+00 -0.71180706665E+00  0.11806600612E+01  0.00000000000E+00 0.  1.
         11    1    3    3    0    0 -0.53403032067E+01  0.64411693104E+01 -0.45522520541E+01  0.95252558732E+01  0.51100000000E-03 0. -1.
        -11    1    3    3    0    0 -0.16560271915E+02 -0.19152230657E+02  0.33944750074E+02  0.42347332890E+02  0.51100000000E-03 0.  1.
         12    1    3    3    0    0  0.21261256648E+02  0.13402842215E+02 -0.28680690953E+02  0.38134751176E+02  0.00000000000E+00 0. -1.
</event>
<event>
 7    1  0.1978681E-015  0.9000743E+02  0.7816164E-02  0.1186340E+00
        -11   -1    0    0    0    0  0.00000000000E+00  0.00000000000E+00  0.45593999997E+02  0.45594000000E+02  0.51100000000E-03 0.  1.
         11   -1    0    0    0    0 -0.00000000000E+00 -0.00000000000E+00 -0.45593999997E+02  0.45594000000E+02  0.51100000000E-03 0. -1.
    9900012    2    1    2    0    0 -0.76764778608E+00  0.24388051606E+00 -0.86311833414E+00  0.90007434844E+02  0.89999692183E+02 0.  0.
        -12    1    1    2    0    0  0.76764778608E+00 -0.24388051606E+00  0.86311833414E+00  0.11805651563E+01  0.00000000000E+00 0.  1.
         11    1    3    3    0    0  0.54759623091E+01 -0.42329389726E+01  0.41475187015E+01  0.80688194426E+01  0.51100000000E-03 0. -1.
        -11    1    3    3    0    0 -0.53485295584E+01 -0.36472607937E+02 -0.14969270564E+02  0.39786140296E+02  0.51100000000E-03 0.  1.
         12    1    3    3    0    0 -0.89508053685E+00  0.40949427426E+02  0.99586335287E+01  0.42152475105E+02  0.00000000000E+00 0. -1.
</event>
<event>
 7    1  0.1978681E-015  0.9000777E+02  0.7816164E-02  0.1186339E+00
        -11   -1    0    0    0    0  0.00000000000E+00  0.00000000000E+00  0.45593999997E+02  0.45594000000E+02  0.51100000000E-03 0. -1.
         11   -1    0    0    0    0 -0.00000000000E+00 -0.00000000000E+00 -0.45593999997E+02  0.45594000000E+02  0.51100000000E-03 0.  1.
    9900012    2    1    2    0    0 -0.62835531289E-01 -0.28562942305E+00  0.11434218987E+01  0.90007768620E+02  0.90000030366E+02 0.  0.
        -12    1    1    2    0    0  0.62835531289E-01  0.28562942305E+00 -0.11434218987E+01  0.11802313798E+01  0.00000000000E+00 0.  1.
         11    1    3    3    0    0  0.17786453153E+02 -0.31615529368E+02  0.18659113900E+02  0.40792917826E+02  0.51100000000E-03 0. -1.
        -11    1    3    3    0    0 -0.98095231991E+01 -0.15438264325E+01  0.20269215466E+01  0.10135016362E+02  0.51100000000E-03 0.  1.
        -12    1    3    3    0    0 -0.80397654850E+01  0.32873726377E+02 -0.19542613548E+02  0.39079834432E+02  0.00000000000E+00 0.  1.
</event>
<event>
 7    1  0.1978681E-015  0.9000779E+02  0.7816164E-02  0.1186339E+00
        -11   -1    0    0    0    0  0.00000000000E+00  0.00000000000E+00  0.45593999997E+02  0.45594000000E+02  0.51100000000E-03 0.  1.
         11   -1    0    0    0    0 -0.00000000000E+00 -0.00000000000E+00 -0.45593999997E+02  0.45594000000E+02  0.51100000000E-03 0. -1.
    9900012    2    1    2    0    0 -0.28604796309E+00 -0.86164832274E+00 -0.75407310188E+00  0.90007793445E+02  0.90000055519E+02 0.  0.
        -12    1    1    2    0    0  0.28604796309E+00  0.86164832274E+00  0.75407310188E+00  0.11802065549E+01  0.00000000000E+00 0.  1.
         11    1    3    3    0    0  0.45041779899E+01  0.37196986275E+02 -0.15622923944E+02  0.40595309583E+02  0.51100000000E-03 0. -1.
        -11    1    3    3    0    0 -0.91954513285E+01 -0.25850206667E+01 -0.21973736350E+01  0.98013829706E+01  0.51100000000E-03 0.  1.
        -12    1    3    3    0    0  0.44052253755E+01 -0.35473613931E+02  0.17066224477E+02  0.39611100892E+02  0.00000000000E+00 0.  1.
</event>
<event>
 7    1  0.1978681E-015  0.9000783E+02  0.7816164E-02  0.1186339E+00
        -11   -1    0    0    0    0  0.00000000000E+00  0.00000000000E+00  0.45593999997E+02  0.45594000000E+02  0.51100000000E-03 0. -1.
         11   -1    0    0    0    0 -0.00000000000E+00 -0.00000000000E+00 -0.45593999997E+02  0.45594000000E+02  0.51100000000E-03 0.  1.
    9900012    2    1    2    0    0 -0.26031547053E+00 -0.10332234777E+01 -0.50742000060E+00  0.90007834776E+02  0.90000097395E+02 0.  0.
        -12    1    1    2    0    0  0.26031547053E+00  0.10332234777E+01  0.50742000060E+00  0.11801652240E+01  0.00000000000E+00 0.  1.
         11    1    3    3    0    0 -0.98748100513E+01 -0.12163907524E+01 -0.16009561811E+01  0.10077427299E+02  0.51100000000E-03 0. -1.
        -11    1    3    3    0    0 -0.27676436341E+02  0.16322035489E+02 -0.15944394445E+02  0.35869453376E+02  0.51100000000E-03 0.  1.
         12    1    3    3    0    0  0.37290930921E+02 -0.16138868215E+02  0.17037930626E+02  0.44060954101E+02  0.00000000000E+00 0. -1.
</event>
<event>
 7    1  0.1978681E-015  0.9000765E+02  0.7816164E-02  0.1186339E+00
        -11   -1    0    0    0    0  0.00000000000E+00  0.00000000000E+00  0.45593999997E+02  0.45594000000E+02  0.51100000000E-03 0. -1.
         11   -1    0    0    0    0 -0.00000000000E+00 -0.00000000000E+00 -0.45593999997E+02  0.45594000000E+02  0.51100000000E-03 0.  1.
    9900012    2    1    2    0    0 -0.58809890432E+00  0.91781252539E+00  0.45274676662E+00  0.90007652683E+02  0.89999912899E+02 0.  0.
        -12    1    1    2    0    0  0.58809890432E+00 -0.91781252539E+00 -0.45274676662E+00  0.11803473166E+01  0.00000000000E+00 0.  1.
         11    1    3    3    0    0 -0.63690451710E+01  0.42848072190E+00 -0.66092219586E+01  0.91885878827E+01  0.51100000000E-03 0. -1.
        -11    1    3    3    0    0 -0.13631930935E+02  0.23844944405E+02 -0.24653169555E+02  0.36907853962E+02  0.51100000000E-03 0.  1.
         12    1    3    3    0    0  0.19412877201E+02 -0.23355612602E+02  0.31715138280E+02  0.43911210839E+02  0.00000000000E+00 0. -1.
</event>
<event>
 7    1  0.1978681E-015  0.9000785E+02  0.7816164E-02  0.1186339E+00
        -11   -1    0    0    0    0  0.00000000000E+00  0.00000000000E+00  0.45593999997E+02  0.45594000000E+02  0.51100000000E-03 0.  1.
         11   -1    0    0    0    0 -0.00000000000E+00 -0.00000000000E+00 -0.45593999997E+02  0.45594000000E+02  0.51100000000E-03 0. -1.
    9900012    2    1    2    0    0 -0.10961613137E+01 -0.35921296746E+00 -0.24929652733E+00  0.90007850713E+02  0.90000113542E+02 0.  0.
        -12    1    1    2    0    0  0.10961613137E+01  0.35921296746E+00  0.24929652733E+00  0.11801492872E+01  0.00000000000E+00 0.  1.
         11    1    3    3    0    0 -0.49681987011E+01  0.92439056584E+01 -0.10442959633E+01  0.10546247886E+02  0.51100000000E-03 0. -1.
        -11    1    3    3    0    0 -0.11436558935E+02 -0.13996271324E+02  0.36298436220E+02  0.40549561817E+02  0.51100000000E-03 0.  1.
         12    1    3    3    0    0  0.15308596323E+02  0.43931526986E+01 -0.35503436784E+02  0.38912041009E+02  0.00000000000E+00 0. -1.
</event>
<event>
 7    1  0.1978681E-015  0.9000769E+02  0.7816164E-02  0.1186339E+00
        -11   -1    0    0    0    0  0.00000000000E+00  0.00000000000E+00  0.45593999997E+02  0.45594000000E+02  0.51100000000E-03 0. -1.
         11   -1    0    0    0    0 -0.00000000000E+00 -0.00000000000E+00 -0.45593999997E+02  0.45594000000E+02  0.51100000000E-03 0.  1.
    9900012    2    1    2    0    0 -0.49961447811E+00  0.96517935292E+00 -0.46037389534E+00  0.90007690747E+02  0.89999951464E+02 0.  0.
        -12    1    1    2    0    0  0.49961447811E+00 -0.96517935292E+00  0.46037389534E+00  0.11803092534E+01  0.00000000000E+00 0.  1.
         11    1    3    3    0    0  0.42775164555E+01 -0.74263934658E+01 -0.18277387963E+01  0.87629387939E+01  0.51100000000E-03 0. -1.
        -11    1    3    3    0    0  0.18029685644E+02  0.25690623414E+01 -0.34110969781E+02  0.38668176909E+02  0.51100000000E-03 0.  1.
         12    1    3    3    0    0 -0.22806816578E+02  0.58225104774E+01  0.35478334682E+02  0.42576575044E+02  0.00000000000E+00 0. -1.
</event>
<event>
 7    1  0.1978681E-015  0.9000777E+02  0.7816164E-02  0.1186339E+00
        -11   -1    0    0    0    0  0.00000000000E+00  0.00000000000E+00  0.45593999997E+02  0.45594000000E+02  0.51100000000E-03 0.  1.
         11   -1    0    0    0    0 -0.00000000000E+00 -0.00000000000E+00 -0.45593999997E+02  0.45594000000E+02  0.51100000000E-03 0. -1.
    9900012    2    1    2    0    0  0.11210739749E+01  0.17254084688E+00 -0.32615024822E+00  0.90007766470E+02  0.90000028187E+02 0.  0.
        -12    1    1    2    0    0 -0.11210739749E+01 -0.17254084688E+00  0.32615024822E+00  0.11802335300E+01  0.00000000000E+00 0.  1.
         11    1    3    3    0    0 -0.30968709423E+02 -0.20690460304E+02  0.15868818763E+02  0.40484262623E+02  0.51100000000E-03 0. -1.
        -11    1    3    3    0    0 -0.46213124250E+01  0.99642564323E-01 -0.14575881753E+01  0.48467536269E+01  0.51100000000E-03 0.  1.
        -12    1    3    3    0    0  0.36711095823E+02  0.20763358587E+02 -0.14737380836E+02  0.44676750220E+02  0.00000000000E+00 0.  1.
</event>
<event>
 7    1  0.1978681E-015  0.9000771E+02  0.7816164E-02  0.1186339E+00
        -11   -1    0    0    0    0  0.00000000000E+00  0.00000000000E+00  0.45593999997E+02  0.45594000000E+02  0.51100000000E-03 0.  1.
         11   -1    0    0    0    0 -0.00000000000E+00 -0.00000000000E+00 -0.45593999997E+02  0.45594000000E+02  0.51100000000E-03 0. -1.
    9900012    2    1    2    0    0 -0.39392336109E+00 -0.50801758899E+00 -0.98985954250E+00  0.90007712154E+02  0.89999973155E+02 0.  0.
        -12    1    1    2    0    0  0.39392336109E+00  0.50801758899E+00  0.98985954250E+00  0.11802878458E+01  0.00000000000E+00 0.  1.
         11    1    3    3    0    0  0.32248358742E+02  0.25055372725E+02 -0.14137839985E+02  0.43215817285E+02  0.51100000000E-03 0. -1.
        -11    1    3    3    0    0  0.21207110509E+01 -0.12281498881E+01  0.10548969420E+01  0.26680658403E+01  0.51100000000E-03 0.  1.
        -12    1    3    3    0    0 -0.34762993154E+02 -0.24335240425E+02  0.12093083501E+02  0.44123829029E+02  0.00000000000E+00 0.  1.
</event>
<event>
 7    1  0.1978681E-015  0.9000773E+02  0.7816164E-02  0.1186339E+00
        -11   -1    0    0    0    0  0.00000000000E+00  0.00000000000E+00  0.45593999997E+02  0.45594000000E+02  0.51100000000E-03 0.  1.
         11   -1    0    0    0    0 -0.00000000000E+00 -0.00000000000E+00 -0.45593999997E+02  0.45594000000E+02  0.51100000000E-03 0. -1.
    9900012    2    1    2    0    0  0.52984196655E+00  0.21429998172E+00 -0.10326520899E+01  0.90007734212E+02  0.89999995504E+02 0.  0.
        -12    1    1    2    0    0 -0.52984196655E+00 -0.21429998172E+00  0.10326520899E+01  0.11802657881E+01  0.00000000000E+00 0.  1.
         11    1    3    3    0    0  0.18927299499E+02  0.24229941832E+02  0.10531024940E+02  0.32499772831E+02  0.51100000000E-03 0. -1.
        -11    1    3    3    0    0 -0.30307678670E+01  0.31580445649E+01  0.15553210673E+02  0.16157387222E+02  0.51100000000E-03 0.  1.
         12    1    3    3    0    0 -0.15366689666E+02 -0.27173686415E+02 -0.27116887702E+02  0.41350574160E+02  0.00000000000E+00 0. -1.
</event>
<event>
 7    1  0.1978681E-015  0.9000775E+02  0.7816164E-02  0.1186339E+00
        -11   -1    0    0    0    0  0.00000000000E+00  0.00000000000E+00  0.45593999997E+02  0.45594000000E+02  0.51100000000E-03 0. -1.
         11   -1    0    0    0    0 -0.00000000000E+00 -0.00000000000E+00 -0.45593999997E+02  0.45594000000E+02  0.51100000000E-03 0.  1.
    9900012    2    1    2    0    0  0.11274596024E+01 -0.65539680763E-01  0.34283384461E+00  0.90007747633E+02  0.90000009102E+02 0.  0.
        -12    1    1    2    0    0 -0.11274596024E+01  0.65539680763E-01 -0.34283384461E+00  0.11802523670E+01  0.00000000000E+00 0.  1.
         11    1    3    3    0    0  0.14076303487E+02 -0.24312564587E+02  0.30061296487E+02  0.41145165735E+02  0.51100000000E-03 0. -1.
        -11    1    3    3    0    0  0.72995971425E+01  0.40665971362E+01 -0.11281745336E+01  0.84317322508E+01  0.51100000000E-03 0.  1.
        -12    1    3    3    0    0 -0.20248441027E+02  0.20180427770E+02 -0.28590288109E+02  0.40430849647E+02  0.00000000000E+00 0.  1.
</event>
<event>
 7    1  0.1978681E-015  0.9000766E+02  0.7816164E-02  0.1186339E+00
        -11   -1    0    0    0    0  0.00000000000E+00  0.00000000000E+00  0.45593999997E+02  0.45594000000E+02  0.51100000000E-03 0. -1.
         11   -1    0    0    0    0 -0.00000000000E+00 -0.00000000000E+00 -0.45593999997E+02  0.45594000000E+02  0.51100000000E-03 0.  1.
    9900012    2    1    2    0    0  0.20450278421E+00 -0.17211133678E+00  0.11496819033E+01  0.90007655906E+02  0.89999916164E+02 0.  0.
        -12    1    1    2    0    0 -0.20450278421E+00  0.17211133678E+00 -0.11496819033E+01  0.11803440938E+01  0.00000000000E+00 0.  1.
         11    1    3    3    0    0 -0.33731647405E+02 -0.12104663308E+02 -0.16687553102E+02  0.39532535199E+02  0.51100000000E-03 0. -1.
        -11    1    3    3    0    0  0.10593620862E+01  0.94863386004E+01 -0.46007098316E+01  0.10596197397E+02  0.51100000000E-03 0.  1.
        -12    1    3    3    0    0  0.32876788103E+02  0.24462133710E+01  0.22437944837E+02  0.39878923310E+02  0.00000000000E+00 0.  1.
</event>
<event>
 7    1  0.1978681E-015  0.9000789E+02  0.7816164E-02  0.1186339E+00
        -11   -1    0    0    0    0  0.00000000000E+00  0.00000000000E+00  0.45593999997E+02  0.45594000000E+02  0.51100000000E-03 0.  1.
         11   -1    0    0    0    0 -0.00000000000E+00 -0.00000000000E+00 -0.45593999997E+02  0.45594000000E+02  0.51100000000E-03 0. -1.
    9900012    2    1    2    0    0 -0.95833983443E+00 -0.68583992340E+00  0.62126294130E-01  0.90007893515E+02  0.90000156910E+02 0.  0.
        -12    1    1    2    0    0  0.95833983443E+00  0.68583992340E+00 -0.62126294130E-01  0.11801064847E+01  0.00000000000E+00 0.  1.
         11    1    3    3    0    0  0.62352151822E+01 -0.64179341554E+01  0.39510293592E+01  0.97815346674E+01  0.51100000000E-03 0. -1.
        -11    1    3    3    0    0  0.19516868344E+02  0.31213196922E+02  0.13771403257E+02  0.39304240992E+02  0.51100000000E-03 0.  1.
         12    1    3    3    0    0 -0.26710423361E+02 -0.25481102690E+02 -0.17660306322E+02  0.40922117856E+02  0.00000000000E+00 0. -1.
</event>
<event>
 7    1  0.1978681E-015  0.9000773E+02  0.7816164E-02  0.1186339E+00
        -11   -1    0    0    0    0  0.00000000000E+00  0.00000000000E+00  0.45593999997E+02  0.45594000000E+02  0.51100000000E-03 0.  1.
         11   -1    0    0    0    0 -0.00000000000E+00 -0.00000000000E+00 -0.45593999997E+02  0.45594000000E+02  0.51100000000E-03 0. -1.
    9900012    2    1    2    0    0 -0.18350581924E+00 -0.10037895964E+01 -0.59309873916E+00  0.90007731364E+02  0.89999992618E+02 0.  0.
        -12    1    1    2    0    0  0.18350581924E+00  0.10037895964E+01  0.59309873916E+00  0.11802686363E+01  0.00000000000E+00 0.  1.
         11    1    3    3    0    0 -0.38240643130E+02  0.69913263445E+01  0.16291150865E+02  0.42150053711E+02  0.51100000000E-03 0. -1.
        -11    1    3    3    0    0  0.75349421447E+01  0.14607047746E+01  0.49715807356E+01  0.91447048522E+01  0.51100000000E-03 0.  1.
        -12    1    3    3    0    0  0.30522195167E+02 -0.94558207156E+01 -0.21855830340E+02  0.38712972800E+02  0.00000000000E+00 0.  1.
</event>
<event>
 7    1  0.1978681E-015  0.9000769E+02  0.7816164E-02  0.1186339E+00
        -11   -1    0    0    0    0  0.00000000000E+00  0.00000000000E+00  0.45593999997E+02  0.45594000000E+02  0.51100000000E-03 0. -1.
         11   -1    0    0    0    0 -0.00000000000E+00 -0.00000000000E+00 -0.45593999997E+02  0.45594000000E+02  0.51100000000E-03 0.  1.
    9900012    2    1    2    0    0 -0.52164190297E+00 -0.10587351848E+01 -0.98542139662E-02  0.90007691747E+02  0.89999952478E+02 0.  0.
        -12    1    1    2    0    0  0.52164190297E+00  0.10587351848E+01  0.98542139662E-02  0.11803082530E+01  0.00000000000E+00 0.  1.
         11    1    3    3    0    0 -0.11269076045E+02  0.25559676272E+02 -0.16509396282E+01  0.27982400325E+02  0.51100000000E-03 0. -1.
        -11    1    3    3    0    0  0.23862300683E+02  0.60364767776E+01 -0.73814337121E+01  0.25696964989E+02  0.51100000000E-03 0.  1.
        -12    1    3    3    0    0 -0.13114866541E+02 -0.32654888235E+02  0.90225191263E+01  0.36328326433E+02  0.00000000000E+00 0.  1.
</event>
<event>
 7    1  0.1978681E-015  0.9000780E+02  0.7816164E-02  0.1186339E+00
        -11   -1    0    0    0    0  0.00000000000E+00  0.00000000000E+00  0.45593999997E+02  0.45594000000E+02  0.51100000000E-03 0. -1.
         11   -1    0    0    0    0 -0.00000000000E+00 -0.00000000000E+00 -0.45593999997E+02  0.45594000000E+02  0.51100000000E-03 0.  1.
    9900012    2    1    2    0    0 -0.44094016936E+00  0.93576027604E+00  0.56814643597E+00  0.90007802601E+02  0.90000064796E+02 0.  0.
        -12    1    1    2    0    0  0.44094016936E+00 -0.93576027604E+00 -0.56814643597E+00  0.11801973987E+01  0.00000000000E+00 0.  1.
         11    1    3    3    0    0 -0.17202524449E+01  0.81532638639E+00 -0.92813166282E+01  0.94745376776E+01  0.51100000000E-03 0. -1.
        -11    1    3    3    0    0  0.24220512849E-01 -0.25384549474E+02  0.35956397999E+02  0.44014071567E+02  0.51100000000E-03 0.  1.
         12    1    3    3    0    0  0.12550917627E+01  0.25504983364E+02 -0.26106934935E+02  0.36519193356E+02  0.00000000000E+00 0. -1.
</event>
<event>
 7    1  0.1978681E-015  0.9000782E+02  0.7816164E-02  0.1186339E+00
        -11   -1    0    0    0    0  0.00000000000E+00  0.00000000000E+00  0.45593999997E+02  0.45594000000E+02  0.51100000000E-03 0.  1.
         11   -1    0    0    0    0 -0.00000000000E+00 -0.00000000000E+00 -0.45593999997E+02  0.45594000000E+02  0.51100000000E-03 0. -1.
    9900012    2    1    2    0    0  0.56585859493E-01 -0.62420564526E+00  0.99999922590E+00  0.90007816498E+02  0.90000078876E+02 0.  0.
        -12    1    1    2    0    0 -0.56585859493E-01  0.62420564526E+00 -0.99999922590E+00  0.11801835022E+01  0.00000000000E+00 0.  1.
         11    1    3    3    0    0  0.66753123274E+01  0.74532413612E+01 -0.11185851641E+02  0.15007793930E+02  0.51100000000E-03 0. -1.
        -11    1    3    3    0    0  0.32108422827E+02 -0.21746802762E+01  0.15433233430E+02  0.35691241855E+02  0.51100000000E-03 0.  1.
         12    1    3    3    0    0 -0.38727149295E+02 -0.59027667303E+01 -0.32473825635E+01  0.39308780713E+02  0.00000000000E+00 0. -1.
</event>
<event>
 7    1  0.1978681E-015  0.9000782E+02  0.7816164E-02  0.1186339E+00
        -11   -1    0    0    0    0  0.00000000000E+00  0.00000000000E+00  0.45593999997E+02  0.45594000000E+02  0.51100000000E-03 0.  1.
         11   -1    0    0    0    0 -0.00000000000E+00 -0.00000000000E+00 -0.45593999997E+02  0.45594000000E+02  0.51100000000E-03 0. -1.
    9900012    2    1    2    0    0  0.47390781320E+00 -0.67548725456E+00 -0.84377829392E+00  0.90007816347E+02  0.90000078722E+02 0.  0.
        -12    1    1    2    0    0 -0.47390781320E+00  0.67548725456E+00  0.84377829392E+00  0.11801836534E+01  0.00000000000E+00 0.  1.
         11    1    3    3    0    0 -0.84287989348E+01  0.11603071954E+02 -0.36601236352E+02  0.39310640201E+02  0.51100000000E-03 0. -1.
        -11    1    3    3    0    0  0.10657140795E+02  0.45814113106E+01  0.54018475308E+00  0.11612742112E+02  0.51100000000E-03 0.  1.
        -12    1    3    3    0    0 -0.17544340472E+01 -0.16859970519E+02  0.35217273305E+02  0.39084434034E+02  0.00000000000E+00 0.  1.
</event>
<event>
 7    1  0.1978681E-015  0.9000777E+02  0.7816164E-02  0.1186339E+00
        -11   -1    0    0    0    0  0.00000000000E+00  0.00000000000E+00  0.45593999997E+02  0.45594000000E+02  0.51100000000E-03 0.  1.
         11   -1    0    0    0    0 -0.00000000000E+00 -0.00000000000E+00 -0.45593999997E+02  0.45594000000E+02  0.51100000000E-03 0. -1.
    9900012    2    1    2    0    0 -0.37048305511E+00  0.36946042702E-01 -0.11199652283E+01  0.90007769168E+02  0.90000030921E+02 0.  0.
        -12    1    1    2    0    0  0.37048305511E+00 -0.36946042702E-01  0.11199652283E+01  0.11802308320E+01  0.00000000000E+00 0.  1.
         11    1    3    3    0    0 -0.73521439352E+01 -0.36111756723E+01  0.35618673562E+01  0.89320495690E+01  0.51100000000E-03 0. -1.
        -11    1    3    3    0    0 -0.27393469031E+02 -0.23593919110E+02 -0.82072735242E+01  0.37073366497E+02  0.51100000000E-03 0.  1.
         12    1    3    3    0    0  0.34375129911E+02  0.27242040825E+02  0.35254409398E+01  0.44002353102E+02  0.00000000000E+00 0. -1.
</event>
<event>
 7    1  0.1978681E-015  0.9000789E+02  0.7816164E-02  0.1186339E+00
        -11   -1    0    0    0    0  0.00000000000E+00  0.00000000000E+00  0.45593999997E+02  0.45594000000E+02  0.51100000000E-03 0.  1.
         11   -1    0    0    0    0 -0.00000000000E+00 -0.00000000000E+00 -0.45593999997E+02  0.45594000000E+02  0.51100000000E-03 0. -1.
    9900012    2    1    2    0    0  0.10456261788E+01 -0.49838913010E+00 -0.22568937204E+00  0.90007889190E+02  0.90000152527E+02 0.  0.
        -12    1    1    2    0    0 -0.10456261788E+01  0.49838913010E+00  0.22568937204E+00  0.11801108098E+01  0.00000000000E+00 0.  1.
         11    1    3    3    0    0  0.85412013075E+01  0.57140419474E-01  0.51095664716E+01  0.99530424792E+01  0.51100000000E-03 0. -1.
        -11    1    3    3    0    0  0.25178371257E+01  0.27668769646E+02  0.25037780738E+02  0.37400411523E+02  0.51100000000E-03 0.  1.
         12    1    3    3    0    0 -0.10013412254E+02 -0.28224299196E+02 -0.30373036582E+02  0.42654435188E+02  0.00000000000E+00 0. -1.
</event>
<event>
 7    1  0.1978681E-015  0.9000778E+02  0.7816164E-02  0.1186339E+00
        -11   -1    0    0    0    0  0.00000000000E+00  0.00000000000E+00  0.45593999997E+02  0.45594000000E+02  0.51100000000E-03 0. -1.
         11   -1    0    0    0    0 -0.00000000000E+00 -0.00000000000E+00 -0.45593999997E+02  0.45594000000E+02  0.51100000000E-03 0.  1.
    9900012    2    1    2    0    0  0.60746721888E+00  0.59213666177E+00  0.82053584700E+00  0.90007779120E+02  0.90000041005E+02 0.  0.
        -12    1    1    2    0    0 -0.60746721888E+00 -0.59213666177E+00 -0.82053584700E+00  0.11802208795E+01  0.00000000000E+00 0.  1.
         11    1    3    3    0    0 -0.62128157047E+01  0.26106492232E+01 -0.63589925770E+01  0.92656006390E+01  0.51100000000E-03 0. -1.
        -11    1    3    3    0    0 -0.29556151924E+02  0.20579353963E+02  0.11234379821E+02  0.37726478981E+02  0.51100000000E-03 0.  1.
         12    1    3    3    0    0  0.36376434847E+02 -0.22597866524E+02 -0.40548513975E+01  0.43015699500E+02  0.00000000000E+00 0. -1.
</event>
<event>
 7    1  0.1978681E-015  0.9000777E+02  0.7816164E-02  0.1186339E+00
        -11   -1    0    0    0    0  0.00000000000E+00  0.00000000000E+00  0.45593999997E+02  0.45594000000E+02  0.51100000000E-03 0.  1.
         11   -1    0    0    0    0 -0.00000000000E+00 -0.00000000000E+00 -0.45593999997E+02  0.45594000000E+02  0.51100000000E-03 0. -1.
    9900012    2    1    2    0    0  0.93474422251E+00  0.16521513264E+00 -0.70136265134E+00  0.90007765968E+02  0.90000027679E+02 0.  0.
        -12    1    1    2    0    0 -0.93474422251E+00 -0.16521513264E+00  0.70136265134E+00  0.11802340320E+01  0.00000000000E+00 0.  1.
         11    1    3    3    0    0 -0.25988400267E+02  0.90013787167E+01 -0.31381760508E+02  0.41728127925E+02  0.51100000000E-03 0. -1.
        -11    1    3    3    0    0  0.46092672948E+01 -0.78636832718E+01 -0.13670749899E+01  0.92169275729E+01  0.51100000000E-03 0.  1.
        -12    1    3    3    0    0  0.22313877195E+02 -0.97248031219E+00  0.32047472847E+02  0.39062710470E+02  0.00000000000E+00 0.  1.
</event>
<event>
 7    1  0.1978681E-015  0.9000776E+02  0.7816164E-02  0.1186339E+00
        -11   -1    0    0    0    0  0.00000000000E+00  0.00000000000E+00  0.45593999997E+02  0.45594000000E+02  0.51100000000E-03 0.  1.
         11   -1    0    0    0    0 -0.00000000000E+00 -0.00000000000E+00 -0.45593999997E+02  0.45594000000E+02  0.51100000000E-03 0. -1.
    9900012    2    1    2    0    0  0.97678613431E+00 -0.39460774275E+00  0.53210570203E+00  0.90007761507E+02  0.90000023159E+02 0.  0.
        -12    1    1    2    0    0 -0.97678613431E+00  0.39460774275E+00 -0.53210570203E+00  0.11802384932E+01  0.00000000000E+00 0.  1.
         11    1    3    3    0    0  0.67840720123E+01  0.30735268815E+01 -0.37992147607E+01  0.83608751706E+01  0.51100000000E-03 0. -1.
        -11    1    3    3    0    0  0.17404747519E+02 -0.17411682989E+02  0.33677636980E+02  0.41716605489E+02  0.51100000000E-03 0.  1.
         12    1    3    3    0    0 -0.23212033397E+02  0.13943548365E+02 -0.29346316517E+02  0.39930280847E+02  0.00000000000E+00 0. -1.
</event>
<event>
 7    1  0.1978681E-015  0.9000784E+02  0.7816164E-02  0.1186339E+00
        -11   -1    0    0    0    0  0.00000000000E+00  0.00000000000E+00  0.45593999997E+02  0.45594000000E+02  0.51100000000E-03 0. -1.
         11   -1    0    0    0    0 -0.00000000000E+00 -0.00000000000E+00 -0.45593999997E+02  0.45594000000E+02  0.51100000000E-03 0.  1.
    9900012    2    1    2    0    0  0.67162763292E+00 -0.97040837058E+00  0.32452626506E-02  0.90007836192E+02  0.90000098829E+02 0.  0.
        -12    1    1    2    0    0 -0.67162763292E+00  0.97040837058E+00 -0.32452626506E-02  0.11801638084E+01  0.00000000000E+00 0.  1.
         11    1    3    3    0    0  0.93164901313E+01 -0.63845921525E+01  0.41979400642E+01  0.12049178659E+02  0.51100000000E-03 0. -1.
        -11    1    3    3    0    0  0.22721369247E+02 -0.21935940679E+02 -0.14999306284E+02  0.34963199270E+02  0.51100000000E-03 0.  1.
         12    1    3    3    0    0 -0.31366231745E+02  0.27350124461E+02  0.10804611482E+02  0.42995458263E+02  0.00000000000E+00 0. -1.
</event>
<event>
 7    1  0.1978681E-015  0.9000776E+02  0.7816164E-02  0.1186339E+00
        -11   -1    0    0    0    0  0.00000000000E+00  0.00000000000E+00  0.45593999997E+02  0.45594000000E+02  0.51100000000E-03 0.  1.
         11   -1    0    0    0    0 -0.00000000000E+00 -0.00000000000E+00 -0.45593999997E+02  0.45594000000E+02  0.51100000000E-03 0. -1.
    9900012    2    1    2    0    0  0.91806386258E+00  0.70490083852E+00 -0.23072685747E+00  0.90007762172E+02  0.90000023833E+02 0.  0.
        -12    1    1    2    0    0 -0.91806386258E+00 -0.70490083852E+00  0.23072685747E+00  0.11802378280E+01  0.00000000000E+00 0.  1.
         11    1    3    3    0    0 -0.25111370558E+02  0.46747823242E+01 -0.29399590169E+02  0.38945736910E+02  0.51100000000E-03 0. -1.
        -11    1    3    3    0    0  0.48985547228E+01 -0.11357318224E+00 -0.72678094253E+01  0.87652604835E+01  0.51100000000E-03 0.  1.
        -12    1    3    3    0    0  0.21130879698E+02 -0.38563083035E+01  0.36436672737E+02  0.42296764778E+02  0.00000000000E+00 0.  1.
</event>
<event>
 7    1  0.1978681E-015  0.9000776E+02  0.7816164E-02  0.1186339E+00
        -11   -1    0    0    0    0  0.00000000000E+00  0.00000000000E+00  0.45593999997E+02  0.45594000000E+02  0.51100000000E-03 0. -1.
         11   -1    0    0    0    0 -0.00000000000E+00 -0.00000000000E+00 -0.45593999997E+02  0.45594000000E+02  0.51100000000E-03 0.  1.
    9900012    2    1    2    0    0  0.74934414845E+00  0.90936051572E+00 -0.67238539243E-01  0.90007756711E+02  0.90000018299E+02 0.  0.
        -12    1    1    2    0    0 -0.74934414845E+00 -0.90936051572E+00  0.67238539243E-01  0.11802432891E+01  0.00000000000E+00 0.  1.
         11    1    3    3    0    0  0.33406659406E+02 -0.81205170445E+01  0.16873025001E+02  0.38296823141E+02  0.51100000000E-03 0. -1.
        -11    1    3    3    0    0  0.20878953712E+01 -0.93258016706E+01 -0.36069617904E+01  0.10214698111E+02  0.51100000000E-03 0.  1.
        -12    1    3    3    0    0 -0.34745210629E+02  0.18355679231E+02 -0.13333301750E+02  0.41496235459E+02  0.00000000000E+00 0.  1.
</event>
<event>
 7    1  0.1978681E-015  0.9000772E+02  0.7816164E-02  0.1186339E+00
        -11   -1    0    0    0    0  0.00000000000E+00  0.00000000000E+00  0.45593999997E+02  0.45594000000E+02  0.51100000000E-03 0.  1.
         11   -1    0    0    0    0 -0.00000000000E+00 -0.00000000000E+00 -0.45593999997E+02  0.45594000000E+02  0.51100000000E-03 0. -1.
    9900012    2    1    2    0    0 -0.56830981252E+00  0.14647622590E+00 -0.10240240812E+01  0.90007721793E+02  0.89999982920E+02 0.  0.
        -12    1    1    2    0    0  0.56830981252E+00 -0.14647622590E+00  0.10240240812E+01  0.11802782073E+01  0.00000000000E+00 0.  1.
         11    1    3    3    0    0  0.29769081750E+02  0.23835121090E+02  0.17203440836E+02  0.41836223569E+02  0.51100000000E-03 0. -1.
        -11    1    3    3    0    0 -0.85436273540E+01  0.38895092046E+01 -0.29005960983E+01  0.98252383280E+01  0.51100000000E-03 0.  1.
        -12    1    3    3    0    0 -0.21793764209E+02 -0.27578154069E+02 -0.15326868819E+02  0.38346259896E+02  0.00000000000E+00 0.  1.
</event>
<event>
 7    1  0.1978681E-015  0.9000767E+02  0.7816164E-02  0.1186339E+00
        -11   -1    0    0    0    0  0.00000000000E+00  0.00000000000E+00  0.45593999997E+02  0.45594000000E+02  0.51100000000E-03 0.  1.
         11   -1    0    0    0    0 -0.00000000000E+00 -0.00000000000E+00 -0.45593999997E+02  0.45594000000E+02  0.51100000000E-03 0. -1.
    9900012    2    1    2    0    0  0.10786345268E+01 -0.45005193779E+00 -0.16484396800E+00  0.90007672620E+02  0.89999933099E+02 0.  0.
        -12    1    1    2    0    0 -0.10786345268E+01  0.45005193779E+00  0.16484396800E+00  0.11803273795E+01  0.00000000000E+00 0.  1.
         11    1    3    3    0    0 -0.46431911004E+01 -0.33946119732E+01 -0.29905385602E+02  0.30453484240E+02  0.51100000000E-03 0. -1.
        -11    1    3    3    0    0  0.14606285234E+02 -0.25744952226E+01 -0.10373390440E+02  0.18099138750E+02  0.51100000000E-03 0.  1.
        -12    1    3    3    0    0 -0.88844596069E+01  0.55190552580E+01  0.40113932075E+02  0.41455049631E+02  0.00000000000E+00 0.  1.
</event>
<event>
 7    1  0.1978681E-015  0.9000774E+02  0.7816164E-02  0.1186339E+00
        -11   -1    0    0    0    0  0.00000000000E+00  0.00000000000E+00  0.45593999997E+02  0.45594000000E+02  0.51100000000E-03 0. -1.
         11   -1    0    0    0    0 -0.00000000000E+00 -0.00000000000E+00 -0.45593999997E+02  0.45594000000E+02  0.51100000000E-03 0.  1.
    9900012    2    1    2    0    0 -0.11509726849E+01 -0.18582540073E+00  0.18371493003E+00  0.90007737158E+02  0.89999998488E+02 0.  0.
        -12    1    1    2    0    0  0.11509726849E+01  0.18582540073E+00 -0.18371493003E+00  0.11802628421E+01  0.00000000000E+00 0.  1.
         11    1    3    3    0    0  0.13460908366E+02 -0.25225355291E+02  0.29066003642E+02  0.40771891931E+02  0.51100000000E-03 0. -1.
        -11    1    3    3    0    0 -0.19291760322E+02  0.66350116778E+01 -0.11126139678E+02  0.23237607034E+02  0.51100000000E-03 0.  1.
        -12    1    3    3    0    0  0.46798792706E+01  0.18404518213E+02 -0.17756149034E+02  0.25998238193E+02  0.00000000000E+00 0.  1.
</event>
<event>
 7    1  0.1978681E-015  0.9000780E+02  0.7816164E-02  0.1186339E+00
        -11   -1    0    0    0    0  0.00000000000E+00  0.00000000000E+00  0.45593999997E+02  0.45594000000E+02  0.51100000000E-03 0.  1.
         11   -1    0    0    0    0 -0.00000000000E+00 -0.00000000000E+00 -0.45593999997E+02  0.45594000000E+02  0.51100000000E-03 0. -1.
    9900012    2    1    2    0    0 -0.68898213234E+00 -0.14352578996E+00 -0.94741049661E+00  0.90007795492E+02  0.90000057593E+02 0.  0.
        -12    1    1    2    0    0  0.68898213234E+00  0.14352578996E+00  0.94741049661E+00  0.11802045078E+01  0.00000000000E+00 0.  1.
         11    1    3    3    0    0  0.13951430346E+02 -0.84359883508E-01 -0.36811686492E+02  0.39366861545E+02  0.51100000000E-03 0. -1.
        -11    1    3    3    0    0 -0.11084705351E+02 -0.40063205524E+01 -0.23842548538E+01  0.12025222183E+02  0.51100000000E-03 0.  1.
        -12    1    3    3    0    0 -0.35557071272E+01  0.39471546459E+01  0.38248530849E+02  0.38615711764E+02  0.00000000000E+00 0.  1.
</event>
<event>
 7    1  0.1978681E-015  0.9000776E+02  0.7816164E-02  0.1186339E+00
        -11   -1    0    0    0    0  0.00000000000E+00  0.00000000000E+00  0.45593999997E+02  0.45594000000E+02  0.51100000000E-03 0.  1.
         11   -1    0    0    0    0 -0.00000000000E+00 -0.00000000000E+00 -0.45593999997E+02  0.45594000000E+02  0.51100000000E-03 0. -1.
    9900012    2    1    2    0    0  0.12514815038E+00 -0.87139535815E+00 -0.78610798743E+00  0.90007763711E+02  0.90000025392E+02 0.  0.
        -12    1    1    2    0    0 -0.12514815038E+00  0.87139535815E+00  0.78610798743E+00  0.11802362889E+01  0.00000000000E+00 0.  1.
         11    1    3    3    0    0 -0.58241048566E+00 -0.13871363524E+01 -0.10074144531E+02  0.10185859685E+02  0.51100000000E-03 0. -1.
        -11    1    3    3    0    0 -0.25355629221E+02 -0.10164944384E+02 -0.23897077362E+02  0.36294687410E+02  0.51100000000E-03 0.  1.
         12    1    3    3    0    0  0.26063187857E+02  0.10680685379E+02  0.33185113905E+02  0.43527216616E+02  0.00000000000E+00 0. -1.
</event>
<event>
 7    1  0.1978681E-015  0.9000755E+02  0.7816164E-02  0.1186339E+00
        -11   -1    0    0    0    0  0.00000000000E+00  0.00000000000E+00  0.45593999997E+02  0.45594000000E+02  0.51100000000E-03 0.  1.
         11   -1    0    0    0    0 -0.00000000000E+00 -0.00000000000E+00 -0.45593999997E+02  0.45594000000E+02  0.51100000000E-03 0. -1.
    9900012    2    1    2    0    0  0.93758262851E+00 -0.36074855669E+00 -0.61988585778E+00  0.90007551279E+02  0.89999810156E+02 0.  0.
        -12    1    1    2    0    0 -0.93758262851E+00  0.36074855669E+00  0.61988585778E+00  0.11804487211E+01  0.00000000000E+00 0.  1.
         11    1    3    3    0    0  0.17156997876E+01 -0.12219685892E+02  0.11410681466E+02  0.16806784370E+02  0.51100000000E-03 0. -1.
        -11    1    3    3    0    0  0.17178876501E+02  0.23230936772E+01  0.25313642199E+02  0.30680466811E+02  0.51100000000E-03 0.  1.
         12    1    3    3    0    0 -0.17956993660E+02  0.95358436584E+01 -0.37344209523E+02  0.42520300099E+02  0.00000000000E+00 0. -1.
</event>
<event>
 7    1  0.1978681E-015  0.9000772E+02  0.7816164E-02  0.1186339E+00
        -11   -1    0    0    0    0  0.00000000000E+00  0.00000000000E+00  0.45593999997E+02  0.45594000000E+02  0.51100000000E-03 0.  1.
         11   -1    0    0    0    0 -0.00000000000E+00 -0.00000000000E+00 -0.45593999997E+02  0.45594000000E+02  0.51100000000E-03 0. -1.
    9900012    2    1    2    0    0  0.96162460699E-03 -0.78191623123E+00 -0.88411418234E+00  0.90007723844E+02  0.89999984999E+02 0.  0.
        -12    1    1    2    0    0 -0.96162460699E-03  0.78191623123E+00  0.88411418234E+00  0.11802761562E+01  0.00000000000E+00 0.  1.
         11    1    3    3    0    0 -0.17755830955E+02  0.16626130126E+02  0.61357398779E+01  0.25086750288E+02  0.51100000000E-03 0. -1.
        -11    1    3    3    0    0  0.54842410495E+01  0.15610827671E+02  0.15857635929E+02  0.22918103280E+02  0.51100000000E-03 0.  1.
         12    1    3    3    0    0  0.12272551530E+02 -0.33018874029E+02 -0.22877489989E+02  0.42002870276E+02  0.00000000000E+00 0. -1.
</event>
<event>
 7    1  0.1978681E-015  0.9000778E+02  0.7816164E-02  0.1186339E+00
        -11   -1    0    0    0    0  0.00000000000E+00  0.00000000000E+00  0.45593999997E+02  0.45594000000E+02  0.51100000000E-03 0.  1.
         11   -1    0    0    0    0 -0.00000000000E+00 -0.00000000000E+00 -0.45593999997E+02  0.45594000000E+02  0.51100000000E-03 0. -1.
    9900012    2    1    2    0    0  0.27454491290E+00  0.11434965194E+01  0.99770162068E-01  0.90007782527E+02  0.90000044456E+02 0.  0.
        -12    1    1    2    0    0 -0.27454491290E+00 -0.11434965194E+01 -0.99770162068E-01  0.11802174733E+01  0.00000000000E+00 0.  1.
         11    1    3    3    0    0 -0.84697561336E+01 -0.11914872127E+02 -0.37050111248E+02  0.39829783963E+02  0.51100000000E-03 0. -1.
        -11    1    3    3    0    0  0.46979446872E+01  0.47401113099E+01 -0.41473446521E+01  0.78574682588E+01  0.51100000000E-03 0.  1.
        -12    1    3    3    0    0  0.40463563594E+01  0.83182573368E+01  0.41297226062E+02  0.42320530305E+02  0.00000000000E+00 0.  1.
</event>
<event>
 7    1  0.1978681E-015  0.9000771E+02  0.7816164E-02  0.1186339E+00
        -11   -1    0    0    0    0  0.00000000000E+00  0.00000000000E+00  0.45593999997E+02  0.45594000000E+02  0.51100000000E-03 0. -1.
         11   -1    0    0    0    0 -0.00000000000E+00 -0.00000000000E+00 -0.45593999997E+02  0.45594000000E+02  0.51100000000E-03 0.  1.
    9900012    2    1    2    0    0  0.49419221588E+00 -0.10341156536E+01 -0.28187299935E+00  0.90007714645E+02  0.89999975678E+02 0.  0.
        -12    1    1    2    0    0 -0.49419221588E+00  0.10341156536E+01  0.28187299935E+00  0.11802853549E+01  0.00000000000E+00 0.  1.
         11    1    3    3    0    0 -0.69096594864E+01  0.58676673851E+01 -0.40505011613E+01  0.99287196898E+01  0.51100000000E-03 0. -1.
        -11    1    3    3    0    0 -0.25875915172E+02  0.17935699090E+02 -0.14559670979E+02  0.34687696768E+02  0.51100000000E-03 0.  1.
         12    1    3    3    0    0  0.33279766874E+02 -0.24837482129E+02  0.18328299141E+02  0.45391298187E+02  0.00000000000E+00 0. -1.
</event>
<event>
 7    1  0.1978681E-015  0.9000775E+02  0.7816164E-02  0.1186339E+00
        -11   -1    0    0    0    0  0.00000000000E+00  0.00000000000E+00  0.45593999997E+02  0.45594000000E+02  0.51100000000E-03 0. -1.
         11   -1    0    0    0    0 -0.00000000000E+00 -0.00000000000E+00 -0.45593999997E+02  0.45594000000E+02  0.51100000000E-03 0.  1.
    9900012    2    1    2    0    0 -0.97987621335E+00  0.50401021640E+00 -0.42286095708E+00  0.90007747874E+02  0.90000009346E+02 0.  0.
        -12    1    1    2    0    0  0.97987621335E+00 -0.50401021640E+00  0.42286095708E+00  0.11802521259E+01  0.00000000000E+00 0.  1.
         11    1    3    3    0    0 -0.27604743991E+02 -0.28827312413E+02  0.15289561093E+02  0.42741157103E+02  0.51100000000E-03 0. -1.
        -11    1    3    3    0    0  0.61433594717E+01 -0.23182474249E+01 -0.40497527570E+00  0.65786884678E+01  0.51100000000E-03 0.  1.
        -12    1    3    3    0    0  0.20481508306E+02  0.31649570054E+02 -0.15307446775E+02  0.40687902304E+02  0.00000000000E+00 0.  1.
</event>
<event>
 7    1  0.1978681E-015  0.9000772E+02  0.7816164E-02  0.1186339E+00
        -11   -1    0    0    0    0  0.00000000000E+00  0.00000000000E+00  0.45593999997E+02  0.45594000000E+02  0.51100000000E-03 0.  1.
         11   -1    0    0    0    0 -0.00000000000E+00 -0.00000000000E+00 -0.45593999997E+02  0.45594000000E+02  0.51100000000E-03 0. -1.
    9900012    2    1    2    0    0 -0.35003514530E+00 -0.72736064047E+00 -0.86110063131E+00  0.90007715119E+02  0.89999976158E+02 0.  0.
        -12    1    1    2    0    0  0.35003514530E+00  0.72736064047E+00  0.86110063131E+00  0.11802848815E+01  0.00000000000E+00 0.  1.
         11    1    3    3    0    0 -0.76604924333E+01 -0.63575103298E+00  0.61264614277E+01  0.98295907129E+01  0.51100000000E-03 0. -1.
        -11    1    3    3    0    0 -0.24652244468E+02  0.18227908493E+02  0.18103184229E+02  0.35604986797E+02  0.51100000000E-03 0.  1.
         12    1    3    3    0    0  0.31962701756E+02 -0.18319518101E+02 -0.25090746288E+02  0.44573137608E+02  0.00000000000E+00 0. -1.
</event>
<event>
 7    1  0.1978681E-015  0.9000771E+02  0.7816164E-02  0.1186339E+00
        -11   -1    0    0    0    0  0.00000000000E+00  0.00000000000E+00  0.45593999997E+02  0.45594000000E+02  0.51100000000E-03 0.  1.
         11   -1    0    0    0    0 -0.00000000000E+00 -0.00000000000E+00 -0.45593999997E+02  0.45594000000E+02  0.51100000000E-03 0. -1.
    9900012    2    1    2    0    0 -0.11694502065E+01 -0.57156347604E-01 -0.14900738646E+00  0.90007710275E+02  0.89999971251E+02 0.  0.
        -12    1    1    2    0    0  0.11694502065E+01  0.57156347604E-01  0.14900738646E+00  0.11802897249E+01  0.00000000000E+00 0.  1.
         11    1    3    3    0    0 -0.13987339315E+02 -0.22321100676E+02 -0.26860813135E+02  0.37621542752E+02  0.51100000000E-03 0. -1.
        -11    1    3    3    0    0 -0.75424638311E+01 -0.63799120598E+01  0.49320230568E+01  0.11041598174E+02  0.51100000000E-03 0.  1.
        -12    1    3    3    0    0  0.20360352940E+02  0.28643856388E+02  0.21779782692E+02  0.41344569350E+02  0.00000000000E+00 0.  1.
</event>
<event>
 7    1  0.1978681E-015  0.9000768E+02  0.7816164E-02  0.1186339E+00
        -11   -1    0    0    0    0  0.00000000000E+00  0.00000000000E+00  0.45593999997E+02  0.45594000000E+02  0.51100000000E-03 0.  1.
         11   -1    0    0    0    0 -0.00000000000E+00 -0.00000000000E+00 -0.45593999997E+02  0.45594000000E+02  0.51100000000E-03 0. -1.
    9900012    2    1    2    0    0 -0.11121021311E+01  0.70357783943E-01  0.38914975502E+00  0.90007678476E+02  0.89999939032E+02 0.  0.
        -12    1    1    2    0    0  0.11121021311E+01 -0.70357783943E-01 -0.38914975502E+00  0.11803215238E+01  0.00000000000E+00 0.  1.
         11    1    3    3    0    0  0.10485356662E+02 -0.47966286148E+01  0.25446909266E+01  0.11807870366E+02  0.51100000000E-03 0. -1.
        -11    1    3    3    0    0  0.23487680143E+02  0.22404586160E+02  0.14543470141E+02  0.35568934810E+02  0.51100000000E-03 0.  1.
         12    1    3    3    0    0 -0.35085138936E+02 -0.17537599761E+02 -0.16699011313E+02  0.42630873301E+02  0.00000000000E+00 0. -1.
</event>
<event>
 7    1  0.1978681E-015  0.9000775E+02  0.7816164E-02  0.1186339E+00
        -11   -1    0    0    0    0  0.00000000000E+00  0.00000000000E+00  0.45593999997E+02  0.45594000000E+02  0.51100000000E-03 0. -1.
         11   -1    0    0    0    0 -0.00000000000E+00 -0.00000000000E+00 -0.45593999997E+02  0.45594000000E+02  0.51100000000E-03 0.  1.
    9900012    2    1    2    0    0  0.92581762090E+00 -0.56042967616E+00  0.47092258741E+00  0.90007750970E+02  0.90000012483E+02 0.  0.
        -12    1    1    2    0    0 -0.92581762090E+00  0.56042967616E+00 -0.47092258741E+00  0.11802490298E+01  0.00000000000E+00 0.  1.
         11    1    3    3    0    0  0.52445879624E+01  0.26594484957E+01 -0.66742159530E+01  0.88951406984E+01  0.51100000000E-03 0. -1.
        -11    1    3    3    0    0  0.23777920295E+02  0.38279226227E+01 -0.27102553917E+02  0.36257287740E+02  0.51100000000E-03 0.  1.
         12    1    3    3    0    0 -0.28096690636E+02 -0.70478007945E+01  0.34247692458E+02  0.44855322532E+02  0.00000000000E+00 0. -1.
</event>
<event>
 7    1  0.1978681E-015  0.9000770E+02  0.7816164E-02  0.1186339E+00
        -11   -1    0    0    0    0  0.00000000000E+00  0.00000000000E+00  0.45593999997E+02  0.45594000000E+02  0.51100000000E-03 0. -1.
         11   -1    0    0    0    0 -0.00000000000E+00 -0.00000000000E+00 -0.45593999997E+02  0.45594000000E+02  0.51100000000E-03 0.  1.
    9900012    2    1    2    0    0  0.13588910579E+00  0.78493170705E+00  0.87093963944E+00  0.90007695171E+02  0.89999955947E+02 0.  0.
        -12    1    1    2    0    0 -0.13588910579E+00 -0.78493170705E+00 -0.87093963944E+00  0.11803048290E+01  0.00000000000E+00 0.  1.
         11    1    3    3    0    0 -0.26358077753E+02 -0.23766363860E+02 -0.20868893603E+02  0.41171580422E+02  0.51100000000E-03 0. -1.
        -11    1    3    3    0    0  0.91104178620E+01  0.18513239216E+01 -0.42273889941E+01  0.10212635891E+02  0.51100000000E-03 0.  1.
        -12    1    3    3    0    0  0.17383548996E+02  0.22699971645E+02  0.25967222237E+02  0.38623478858E+02  0.00000000000E+00 0.  1.
</event>
<event>
 7    1  0.1978681E-015  0.9000769E+02  0.7816164E-02  0.1186339E+00
        -11   -1    0    0    0    0  0.00000000000E+00  0.00000000000E+00  0.45593999997E+02  0.45594000000E+02  0.51100000000E-03 0. -1.
         11   -1    0    0    0    0 -0.00000000000E+00 -0.00000000000E+00 -0.45593999997E+02  0.45594000000E+02  0.51100000000E-03 0.  1.
    9900012    2    1    2    0    0  0.21428324834E+00 -0.74539315295E+00  0.88971541201E+00  0.90007694202E+02  0.89999954965E+02 0.  0.
        -12    1    1    2    0    0 -0.21428324834E+00  0.74539315295E+00 -0.88971541201E+00  0.11803057982E+01  0.00000000000E+00 0.  1.
         11    1    3    3    0    0  0.30210167378E+02 -0.19809760310E+02  0.83477561555E+01  0.37077835018E+02  0.51100000000E-03 0. -1.
        -11    1    3    3    0    0  0.76443112998E+01 -0.35905269101E+01 -0.17959699288E+01  0.86344013681E+01  0.51100000000E-03 0.  1.
        -12    1    3    3    0    0 -0.37640195429E+02  0.22654894067E+02 -0.56620708146E+01  0.44295457815E+02  0.00000000000E+00 0.  1.
</event>
<event>
 7    1  0.1978681E-015  0.9000775E+02  0.7816164E-02  0.1186339E+00
        -11   -1    0    0    0    0  0.00000000000E+00  0.00000000000E+00  0.45593999997E+02  0.45594000000E+02  0.51100000000E-03 0. -1.
         11   -1    0    0    0    0 -0.00000000000E+00 -0.00000000000E+00 -0.45593999997E+02  0.45594000000E+02  0.51100000000E-03 0.  1.
    9900012    2    1    2    0    0 -0.44460564613E-01  0.37387247047E+00  0.11185881342E+01  0.90007747154E+02  0.90000008617E+02 0.  0.
        -12    1    1    2    0    0  0.44460564613E-01 -0.37387247047E+00 -0.11185881342E+01  0.11802528458E+01  0.00000000000E+00 0.  1.
         11    1    3    3    0    0  0.84674135210E+01  0.23487419834E+01 -0.58574817238E+01  0.10560481667E+02  0.51100000000E-03 0. -1.
        -11    1    3    3    0    0 -0.97852794241E+01  0.12604759005E+02 -0.33120057219E+02  0.36763702662E+02  0.51100000000E-03 0.  1.
         12    1    3    3    0    0  0.12734053384E+01 -0.14579628518E+02  0.40096127077E+02  0.42683562825E+02  0.00000000000E+00 0. -1.
</event>
<event>
 7    1  0.1978681E-015  0.9000777E+02  0.7816164E-02  0.1186339E+00
        -11   -1    0    0    0    0  0.00000000000E+00  0.00000000000E+00  0.45593999997E+02  0.45594000000E+02  0.51100000000E-03 0. -1.
         11   -1    0    0    0    0 -0.00000000000E+00 -0.00000000000E+00 -0.45593999997E+02  0.45594000000E+02  0.51100000000E-03 0.  1.
    9900012    2    1    2    0    0 -0.10468236887E+01  0.40395239705E+00  0.36595504486E+00  0.90007771010E+02  0.90000032787E+02 0.  0.
        -12    1    1    2    0    0  0.10468236887E+01 -0.40395239705E+00 -0.36595504486E+00  0.11802289901E+01  0.00000000000E+00 0.  1.
         11    1    3    3    0    0 -0.93152767811E+01 -0.72864239722E+01 -0.62669351514E+01  0.13384350274E+02  0.51100000000E-03 0. -1.
        -11    1    3    3    0    0  0.25249613148E+02 -0.23588348275E+02  0.18387647933E+02  0.39141521882E+02  0.51100000000E-03 0.  1.
         12    1    3    3    0    0 -0.16981160056E+02  0.31278724644E+02 -0.11754757736E+02  0.37481898854E+02  0.00000000000E+00 0. -1.
</event>
<event>
 7    1  0.1978681E-015  0.9000768E+02  0.7816164E-02  0.1186339E+00
        -11   -1    0    0    0    0  0.00000000000E+00  0.00000000000E+00  0.45593999997E+02  0.45594000000E+02  0.51100000000E-03 0.  1.
         11   -1    0    0    0    0 -0.00000000000E+00 -0.00000000000E+00 -0.45593999997E+02  0.45594000000E+02  0.51100000000E-03 0. -1.
    9900012    2    1    2    0    0 -0.51846456047E+00  0.61944661053E+00 -0.86060132079E+00  0.90007680451E+02  0.89999941033E+02 0.  0.
        -12    1    1    2    0    0  0.51846456047E+00 -0.61944661053E+00  0.86060132079E+00  0.11803195487E+01  0.00000000000E+00 0.  1.
         11    1    3    3    0    0 -0.60481507470E+01 -0.87494549475E+01 -0.55798807497E+00  0.10651030011E+02  0.51100000000E-03 0. -1.
        -11    1    3    3    0    0  0.39763080919E+02  0.11317864591E+02  0.11801933355E+02  0.42993979744E+02  0.51100000000E-03 0.  1.
         12    1    3    3    0    0 -0.34233394732E+02 -0.19489630329E+01 -0.12104546601E+02  0.36362670697E+02  0.00000000000E+00 0. -1.
</event>
<event>
 7    1  0.1978681E-015  0.9000774E+02  0.7816164E-02  0.1186339E+00
        -11   -1    0    0    0    0  0.00000000000E+00  0.00000000000E+00  0.45593999997E+02  0.45594000000E+02  0.51100000000E-03 0.  1.
         11   -1    0    0    0    0 -0.00000000000E+00 -0.00000000000E+00 -0.45593999997E+02  0.45594000000E+02  0.51100000000E-03 0. -1.
    9900012    2    1    2    0    0  0.10513468374E+01 -0.36130318016E-01 -0.53515202094E+00  0.90007735937E+02  0.89999997252E+02 0.  0.
        -12    1    1    2    0    0 -0.10513468374E+01  0.36130318016E-01  0.53515202094E+00  0.11802640627E+01  0.00000000000E+00 0.  1.
         11    1    3    3    0    0 -0.26086159123E+01 -0.10026799028E+02  0.39912987517E+01  0.11102794320E+02  0.51100000000E-03 0. -1.
        -11    1    3    3    0    0 -0.12155582164E+02  0.10745633676E+01  0.34103604753E+02  0.36221108785E+02  0.51100000000E-03 0.  1.
         12    1    3    3    0    0  0.15815544914E+02  0.89161053422E+01 -0.38630055526E+02  0.42683832833E+02  0.00000000000E+00 0. -1.
</event>
<event>
 7    1  0.1978681E-015  0.9000775E+02  0.7816164E-02  0.1186339E+00
        -11   -1    0    0    0    0  0.00000000000E+00  0.00000000000E+00  0.45593999997E+02  0.45594000000E+02  0.51100000000E-03 0.  1.
         11   -1    0    0    0    0 -0.00000000000E+00 -0.00000000000E+00 -0.45593999997E+02  0.45594000000E+02  0.51100000000E-03 0. -1.
    9900012    2    1    2    0    0 -0.67634241210E+00 -0.75158026340E-01 -0.96430934365E+00  0.90007754137E+02  0.90000015691E+02 0.  0.
        -12    1    1    2    0    0  0.67634241210E+00  0.75158026340E-01  0.96430934365E+00  0.11802458632E+01  0.00000000000E+00 0.  1.
         11    1    3    3    0    0  0.13973883485E+01 -0.74336983132E+01  0.12820390438E+01  0.76717787494E+01  0.51100000000E-03 0. -1.
        -11    1    3    3    0    0  0.39053908340E+02 -0.47337385541E+01 -0.30724035231E+01  0.39459545119E+02  0.51100000000E-03 0.  1.
         12    1    3    3    0    0 -0.41127639100E+02  0.12092278841E+02  0.82605513565E+00  0.42876430269E+02  0.00000000000E+00 0. -1.
</event>
<event>
 7    1  0.1978681E-015  0.9000777E+02  0.7816164E-02  0.1186339E+00
        -11   -1    0    0    0    0  0.00000000000E+00  0.00000000000E+00  0.45593999997E+02  0.45594000000E+02  0.51100000000E-03 0. -1.
         11   -1    0    0    0    0 -0.00000000000E+00 -0.00000000000E+00 -0.45593999997E+02  0.45594000000E+02  0.51100000000E-03 0.  1.
    9900012    2    1    2    0    0  0.33457649668E+00 -0.10888153553E+01 -0.30901533131E+00  0.90007766640E+02  0.90000028359E+02 0.  0.
        -12    1    1    2    0    0 -0.33457649668E+00  0.10888153553E+01  0.30901533131E+00  0.11802333604E+01  0.00000000000E+00 0.  1.
         11    1    3    3    0    0  0.49405683799E+01  0.57384703532E+01 -0.68334832767E+01  0.10199791756E+02  0.51100000000E-03 0. -1.
        -11    1    3    3    0    0 -0.68128364191E+01 -0.36527030099E+01 -0.36145667064E+02  0.36963038662E+02  0.51100000000E-03 0.  1.
         12    1    3    3    0    0  0.22068445358E+01 -0.31745826987E+01  0.42670135009E+02  0.42844936222E+02  0.00000000000E+00 0. -1.
</event>
<event>
 7    1  0.1978681E-015  0.9000771E+02  0.7816164E-02  0.1186339E+00
        -11   -1    0    0    0    0  0.00000000000E+00  0.00000000000E+00  0.45593999997E+02  0.45594000000E+02  0.51100000000E-03 0.  1.
         11   -1    0    0    0    0 -0.00000000000E+00 -0.00000000000E+00 -0.45593999997E+02  0.45594000000E+02  0.51100000000E-03 0. -1.
    9900012    2    1    2    0    0  0.19378147538E+00  0.80753808487E-01 -0.11614738401E+01  0.90007706003E+02  0.89999966922E+02 0.  0.
        -12    1    1    2    0    0 -0.19378147538E+00 -0.80753808487E-01  0.11614738401E+01  0.11802939969E+01  0.00000000000E+00 0.  1.
         11    1    3    3    0    0 -0.27753261474E+02  0.50593954209E+01 -0.21199534160E+02  0.35288259426E+02  0.51100000000E-03 0. -1.
        -11    1    3    3    0    0 -0.74618522516E+01 -0.11729471966E+02  0.95866215061E+00  0.13934804807E+02  0.51100000000E-03 0.  1.
        -12    1    3    3    0    0  0.35408895201E+02  0.67508303534E+01  0.19079398170E+02  0.40784641770E+02  0.00000000000E+00 0.  1.
</event>
<event>
 7    1  0.1978681E-015  0.9000815E+02  0.7816164E-02  0.1186338E+00
        -11   -1    0    0    0    0  0.00000000000E+00  0.00000000000E+00  0.45593999997E+02  0.45594000000E+02  0.51100000000E-03 0. -1.
         11   -1    0    0    0    0 -0.00000000000E+00 -0.00000000000E+00 -0.45593999997E+02  0.45594000000E+02  0.51100000000E-03 0.  1.
    9900012    2    1    2    0    0  0.21833537855E+00 -0.91643054337E+00  0.71030224550E+00  0.90008150620E+02  0.90000417408E+02 0.  0.
        -12    1    1    2    0    0 -0.21833537855E+00  0.91643054337E+00 -0.71030224550E+00  0.11798493795E+01  0.00000000000E+00 0.  1.
         11    1    3    3    0    0 -0.66607929463E+01 -0.25418983831E+01  0.19581233490E+02  0.20838716739E+02  0.51100000000E-03 0. -1.
        -11    1    3    3    0    0 -0.20751683909E+02  0.19761979071E+02  0.40601175291E+01  0.28942231367E+02  0.51100000000E-03 0.  1.
         12    1    3    3    0    0  0.27630812234E+02 -0.18136511231E+02 -0.22931048774E+02  0.40227202515E+02  0.00000000000E+00 0. -1.
</event>
<event>
 7    1  0.1978681E-015  0.9000770E+02  0.7816164E-02  0.1186339E+00
        -11   -1    0    0    0    0  0.00000000000E+00  0.00000000000E+00  0.45593999997E+02  0.45594000000E+02  0.51100000000E-03 0.  1.
         11   -1    0    0    0    0 -0.00000000000E+00 -0.00000000000E+00 -0.45593999997E+02  0.45594000000E+02  0.51100000000E-03 0. -1.
    9900012    2    1    2    0    0 -0.20155196751E+00  0.16433721328E+00 -0.11512947279E+01  0.90007699417E+02  0.89999960249E+02 0.  0.
        -12    1    1    2    0    0  0.20155196751E+00 -0.16433721328E+00  0.11512947279E+01  0.11803005829E+01  0.00000000000E+00 0.  1.
         11    1    3    3    0    0  0.12216039686E+02 -0.37699322229E+02 -0.12875378502E+02  0.41668284030E+02  0.51100000000E-03 0. -1.
        -11    1    3    3    0    0 -0.28476195298E+01 -0.34485263416E+01  0.73183131206E+00  0.45317599501E+01  0.51100000000E-03 0.  1.
        -12    1    3    3    0    0 -0.95699721240E+01  0.41312185784E+02  0.10992252462E+02  0.43807655437E+02  0.00000000000E+00 0.  1.
</event>
<event>
 7    1  0.1978681E-015  0.9000767E+02  0.7816164E-02  0.1186339E+00
        -11   -1    0    0    0    0  0.00000000000E+00  0.00000000000E+00  0.45593999997E+02  0.45594000000E+02  0.51100000000E-03 0. -1.
         11   -1    0    0    0    0 -0.00000000000E+00 -0.00000000000E+00 -0.45593999997E+02  0.45594000000E+02  0.51100000000E-03 0.  1.
    9900012    2    1    2    0    0 -0.73079395376E+00  0.46993896100E+00  0.79892685385E+00  0.90007666764E+02  0.89999927165E+02 0.  0.
        -12    1    1    2    0    0  0.73079395376E+00 -0.46993896100E+00 -0.79892685385E+00  0.11803332359E+01  0.00000000000E+00 0.  1.
         11    1    3    3    0    0  0.30359894830E+01  0.49045694137E+01 -0.53567006191E+01  0.78718660467E+01  0.51100000000E-03 0. -1.
        -11    1    3    3    0    0 -0.37487499042E+01 -0.14030649792E+02 -0.36043525373E+02  0.38859335828E+02  0.51100000000E-03 0.  1.
         12    1    3    3    0    0 -0.18033532529E-01  0.95960193392E+01  0.42199152846E+02  0.43276464889E+02  0.00000000000E+00 0. -1.
</event>
<event>
 7    1  0.1978681E-015  0.9000775E+02  0.7816164E-02  0.1186339E+00
        -11   -1    0    0    0    0  0.00000000000E+00  0.00000000000E+00  0.45593999997E+02  0.45594000000E+02  0.51100000000E-03 0. -1.
         11   -1    0    0    0    0 -0.00000000000E+00 -0.00000000000E+00 -0.45593999997E+02  0.45594000000E+02  0.51100000000E-03 0.  1.
    9900012    2    1    2    0    0 -0.31986803248E+00  0.95103445388E+00  0.62146261251E+00  0.90007746693E+02  0.90000008149E+02 0.  0.
        -12    1    1    2    0    0  0.31986803248E+00 -0.95103445388E+00 -0.62146261251E+00  0.11802533073E+01  0.00000000000E+00 0.  1.
         11    1    3    3    0    0 -0.77505582293E+01  0.82314696409E+00 -0.46926016789E+01  0.90977598654E+01  0.51100000000E-03 0. -1.
        -11    1    3    3    0    0 -0.29482110663E+02 -0.11143054624E+02  0.22435681276E+02  0.38687495526E+02  0.51100000000E-03 0.  1.
         12    1    3    3    0    0  0.36912800860E+02  0.11270942114E+02 -0.17121616985E+02  0.42222491301E+02  0.00000000000E+00 0. -1.
</event>
<event>
 7    1  0.1978681E-015  0.9000773E+02  0.7816164E-02  0.1186339E+00
        -11   -1    0    0    0    0  0.00000000000E+00  0.00000000000E+00  0.45593999997E+02  0.45594000000E+02  0.51100000000E-03 0.  1.
         11   -1    0    0    0    0 -0.00000000000E+00 -0.00000000000E+00 -0.45593999997E+02  0.45594000000E+02  0.51100000000E-03 0. -1.
    9900012    2    1    2    0    0 -0.42256012242E-02 -0.78260327923E+00 -0.88348590395E+00  0.90007731772E+02  0.89999993031E+02 0.  0.
        -12    1    1    2    0    0  0.42256012242E-02  0.78260327923E+00  0.88348590395E+00  0.11802682283E+01  0.00000000000E+00 0.  1.
         11    1    3    3    0    0 -0.34254462797E+02  0.11279391890E+02  0.53584920527E+00  0.36067714615E+02  0.51100000000E-03 0. -1.
        -11    1    3    3    0    0 -0.45665753590E+01  0.56927711579E+01  0.73567104789E+01  0.10362550038E+02  0.51100000000E-03 0.  1.
        -12    1    3    3    0    0  0.38816812555E+02 -0.17754766327E+02 -0.87760455881E+01  0.43577467118E+02  0.00000000000E+00 0.  1.
</event>
<event>
 7    1  0.1978681E-015  0.9000779E+02  0.7816164E-02  0.1186339E+00
        -11   -1    0    0    0    0  0.00000000000E+00  0.00000000000E+00  0.45593999997E+02  0.45594000000E+02  0.51100000000E-03 0. -1.
         11   -1    0    0    0    0 -0.00000000000E+00 -0.00000000000E+00 -0.45593999997E+02  0.45594000000E+02  0.51100000000E-03 0.  1.
    9900012    2    1    2    0    0  0.65199991567E-01  0.11310836854E+01 -0.33059022032E+00  0.90007791867E+02  0.90000053920E+02 0.  0.
        -12    1    1    2    0    0 -0.65199991567E-01 -0.11310836854E+01  0.33059022032E+00  0.11802081325E+01  0.00000000000E+00 0.  1.
         11    1    3    3    0    0  0.27445105446E+02  0.23932961753E+01 -0.31470807497E+02  0.41825511406E+02  0.51100000000E-03 0. -1.
        -11    1    3    3    0    0  0.34241709644E+01 -0.26521343702E+01  0.97074418958E+01  0.10629825583E+02  0.51100000000E-03 0.  1.
        -12    1    3    3    0    0 -0.30804076419E+02  0.13899218804E+01  0.21432775381E+02  0.37552454879E+02  0.00000000000E+00 0.  1.
</event>
<event>
 7    1  0.1978681E-015  0.9000783E+02  0.7816164E-02  0.1186339E+00
        -11   -1    0    0    0    0  0.00000000000E+00  0.00000000000E+00  0.45593999997E+02  0.45594000000E+02  0.51100000000E-03 0.  1.
         11   -1    0    0    0    0 -0.00000000000E+00 -0.00000000000E+00 -0.45593999997E+02  0.45594000000E+02  0.51100000000E-03 0. -1.
    9900012    2    1    2    0    0  0.70886830990E+00 -0.93846352342E+00  0.97983786161E-01  0.90007826755E+02  0.90000089268E+02 0.  0.
        -12    1    1    2    0    0 -0.70886830990E+00  0.93846352342E+00 -0.97983786161E-01  0.11801732449E+01  0.00000000000E+00 0.  1.
         11    1    3    3    0    0  0.31497436393E+02  0.81657578407E+01  0.17009285886E+02  0.36716262161E+02  0.51100000000E-03 0. -1.
        -11    1    3    3    0    0  0.93636754854E+01 -0.20810961986E+01 -0.14754931095E+01  0.97049708996E+01  0.51100000000E-03 0.  1.
        -12    1    3    3    0    0 -0.40152243569E+02 -0.70231251655E+01 -0.15435808990E+02  0.43586593694E+02  0.00000000000E+00 0.  1.
</event>
<event>
 7    1  0.1978681E-015  0.9000818E+02  0.7816164E-02  0.1186338E+00
        -11   -1    0    0    0    0  0.00000000000E+00  0.00000000000E+00  0.45593999997E+02  0.45594000000E+02  0.51100000000E-03 0. -1.
         11   -1    0    0    0    0 -0.00000000000E+00 -0.00000000000E+00 -0.45593999997E+02  0.45594000000E+02  0.51100000000E-03 0.  1.
    9900012    2    1    2    0    0 -0.89599309781E+00  0.29595106894E-01  0.76700481731E+00  0.90008179721E+02  0.90000446892E+02 0.  0.
        -12    1    1    2    0    0  0.89599309781E+00 -0.29595106894E-01 -0.76700481731E+00  0.11798202793E+01  0.00000000000E+00 0.  1.
         11    1    3    3    0    0 -0.29691187639E+02 -0.11775631091E+02 -0.20877197831E+02  0.38158740815E+02  0.51100000000E-03 0. -1.
        -11    1    3    3    0    0 -0.75753072559E+01 -0.22268440932E+01  0.56664348916E+01  0.97186727118E+01  0.51100000000E-03 0.  1.
        -12    1    3    3    0    0  0.36370501797E+02  0.14032070291E+02  0.15977767756E+02  0.42130766194E+02  0.00000000000E+00 0.  1.
</event>
<event>
 7    1  0.1978681E-015  0.9000785E+02  0.7816164E-02  0.1186339E+00
        -11   -1    0    0    0    0  0.00000000000E+00  0.00000000000E+00  0.45593999997E+02  0.45594000000E+02  0.51100000000E-03 0.  1.
         11   -1    0    0    0    0 -0.00000000000E+00 -0.00000000000E+00 -0.45593999997E+02  0.45594000000E+02  0.51100000000E-03 0. -1.
    9900012    2    1    2    0    0 -0.86454805127E+00  0.20294666605E+00 -0.77725956508E+00  0.90007846148E+02  0.90000108917E+02 0.  0.
        -12    1    1    2    0    0  0.86454805127E+00 -0.20294666605E+00  0.77725956508E+00  0.11801538517E+01  0.00000000000E+00 0.  1.
         11    1    3    3    0    0  0.53683908284E+00  0.56169489666E+01 -0.75698673060E+01  0.94414619200E+01  0.51100000000E-03 0. -1.
        -11    1    3    3    0    0 -0.41396342516E+00  0.27845168613E+02  0.29278343202E+02  0.40407253826E+02  0.51100000000E-03 0.  1.
         12    1    3    3    0    0 -0.98742370894E+00 -0.33259170914E+02 -0.22485735461E+02  0.40159130402E+02  0.00000000000E+00 0. -1.
</event>
<event>
 7    1  0.1978681E-015  0.9000770E+02  0.7816164E-02  0.1186339E+00
        -11   -1    0    0    0    0  0.00000000000E+00  0.00000000000E+00  0.45593999997E+02  0.45594000000E+02  0.51100000000E-03 0. -1.
         11   -1    0    0    0    0 -0.00000000000E+00 -0.00000000000E+00 -0.45593999997E+02  0.45594000000E+02  0.51100000000E-03 0.  1.
    9900012    2    1    2    0    0  0.10856460620E+01  0.31271328734E+00  0.34160878532E+00  0.90007697694E+02  0.89999958503E+02 0.  0.
        -12    1    1    2    0    0 -0.10856460620E+01 -0.31271328734E+00 -0.34160878532E+00  0.11803023063E+01  0.00000000000E+00 0.  1.
         11    1    3    3    0    0 -0.50529978895E+01 -0.83247608897E+00  0.77596206304E+01  0.92971778889E+01  0.51100000000E-03 0. -1.
        -11    1    3    3    0    0 -0.15349991026E+01 -0.35455604793E+02  0.13370847401E+02  0.37924078024E+02  0.51100000000E-03 0.  1.
         12    1    3    3    0    0  0.76736430541E+01  0.36600794169E+02 -0.20788859246E+02  0.42786441781E+02  0.00000000000E+00 0. -1.
</event>
<event>
 7    1  0.1978681E-015  0.9000769E+02  0.7816164E-02  0.1186339E+00
        -11   -1    0    0    0    0  0.00000000000E+00  0.00000000000E+00  0.45593999997E+02  0.45594000000E+02  0.51100000000E-03 0. -1.
         11   -1    0    0    0    0 -0.00000000000E+00 -0.00000000000E+00 -0.45593999997E+02  0.45594000000E+02  0.51100000000E-03 0.  1.
    9900012    2    1    2    0    0  0.14417806732E-01  0.97132617342E+00  0.67041217566E+00  0.90007688645E+02  0.89999949336E+02 0.  0.
        -12    1    1    2    0    0 -0.14417806732E-01 -0.97132617342E+00 -0.67041217566E+00  0.11803113545E+01  0.00000000000E+00 0.  1.
         11    1    3    3    0    0 -0.31728777728E+02  0.15220973937E+02  0.21129673084E+02  0.41047003162E+02  0.51100000000E-03 0. -1.
        -11    1    3    3    0    0 -0.34598902983E+01 -0.79805627929E+01 -0.33479037816E+01  0.93203370841E+01  0.51100000000E-03 0.  1.
        -12    1    3    3    0    0  0.35203085833E+02 -0.62690849703E+01 -0.17111357127E+02  0.39640348399E+02  0.00000000000E+00 0.  1.
</event>
<event>
 7    1  0.1978681E-015  0.9000778E+02  0.7816164E-02  0.1186339E+00
        -11   -1    0    0    0    0  0.00000000000E+00  0.00000000000E+00  0.45593999997E+02  0.45594000000E+02  0.51100000000E-03 0.  1.
         11   -1    0    0    0    0 -0.00000000000E+00 -0.00000000000E+00 -0.45593999997E+02  0.45594000000E+02  0.51100000000E-03 0. -1.
    9900012    2    1    2    0    0 -0.35097114283E+00  0.82946814172E+00 -0.76270761631E+00  0.90007779237E+02  0.90000041123E+02 0.  0.
        -12    1    1    2    0    0  0.35097114283E+00 -0.82946814172E+00  0.76270761631E+00  0.11802207629E+01  0.00000000000E+00 0.  1.
         11    1    3    3    0    0 -0.18334048013E+02 -0.10396653066E+01 -0.36313377830E+02  0.40692500909E+02  0.51100000000E-03 0. -1.
        -11    1    3    3    0    0 -0.77337870523E+01 -0.17600556112E+01  0.58174097919E+01  0.98362347915E+01  0.51100000000E-03 0.  1.
        -12    1    3    3    0    0  0.25716863923E+02  0.36291890595E+01  0.29733260422E+02  0.39479043537E+02  0.00000000000E+00 0.  1.
</event>
<event>
 7    1  0.1978681E-015  0.9000721E+02  0.7816164E-02  0.1186340E+00
        -11   -1    0    0    0    0  0.00000000000E+00  0.00000000000E+00  0.45593999997E+02  0.45594000000E+02  0.51100000000E-03 0.  1.
         11   -1    0    0    0    0 -0.00000000000E+00 -0.00000000000E+00 -0.45593999997E+02  0.45594000000E+02  0.51100000000E-03 0. -1.
    9900012    2    1    2    0    0 -0.15115230946E+00 -0.22722703966E+00 -0.11488175071E+01  0.90007211783E+02  0.89999466177E+02 0.  0.
        -12    1    1    2    0    0  0.15115230946E+00  0.22722703966E+00  0.11488175071E+01  0.11807882167E+01  0.00000000000E+00 0.  1.
         11    1    3    3    0    0  0.15531514545E+01 -0.10857347675E+02 -0.55929175362E+01  0.12311580110E+02  0.51100000000E-03 0. -1.
        -11    1    3    3    0    0  0.79868486440E+01  0.63670725807E+01  0.39643632763E+02  0.40938331468E+02  0.51100000000E-03 0.  1.
         12    1    3    3    0    0 -0.96911524080E+01  0.42630480544E+01 -0.35199532734E+02  0.36757300205E+02  0.00000000000E+00 0. -1.
</event>
<event>
 7    1  0.1978681E-015  0.9000776E+02  0.7816164E-02  0.1186339E+00
        -11   -1    0    0    0    0  0.00000000000E+00  0.00000000000E+00  0.45593999997E+02  0.45594000000E+02  0.51100000000E-03 0.  1.
         11   -1    0    0    0    0 -0.00000000000E+00 -0.00000000000E+00 -0.45593999997E+02  0.45594000000E+02  0.51100000000E-03 0. -1.
    9900012    2    1    2    0    0  0.66043359984E+00  0.96355039476E+00 -0.16842023286E+00  0.90007759652E+02  0.90000021280E+02 0.  0.
        -12    1    1    2    0    0 -0.66043359984E+00 -0.96355039476E+00  0.16842023286E+00  0.11802403475E+01  0.00000000000E+00 0.  1.
         11    1    3    3    0    0 -0.10862238499E+02  0.26082262045E+02 -0.26638976893E+02  0.38831787349E+02  0.51100000000E-03 0. -1.
        -11    1    3    3    0    0 -0.73422594317E+01  0.42058511289E+01  0.23638629841E+01  0.87855452733E+01  0.51100000000E-03 0.  1.
        -12    1    3    3    0    0  0.18864931531E+02 -0.29324562779E+02  0.24106693676E+02  0.42390427030E+02  0.00000000000E+00 0.  1.
</event>
<event>
 7    1  0.1978681E-015  0.9000776E+02  0.7816164E-02  0.1186339E+00
        -11   -1    0    0    0    0  0.00000000000E+00  0.00000000000E+00  0.45593999997E+02  0.45594000000E+02  0.51100000000E-03 0.  1.
         11   -1    0    0    0    0 -0.00000000000E+00 -0.00000000000E+00 -0.45593999997E+02  0.45594000000E+02  0.51100000000E-03 0. -1.
    9900012    2    1    2    0    0 -0.10168248406E+01 -0.48846114031E+00  0.34704727919E+00  0.90007758984E+02  0.90000020603E+02 0.  0.
        -12    1    1    2    0    0  0.10168248406E+01  0.48846114031E+00 -0.34704727919E+00  0.11802410161E+01  0.00000000000E+00 0.  1.
         11    1    3    3    0    0 -0.36044661098E+02  0.15614986033E+02 -0.15977320900E+01  0.39314095825E+02  0.51100000000E-03 0. -1.
        -11    1    3    3    0    0 -0.28114161918E+01  0.55315340490E+01 -0.28781755339E+01  0.68400164184E+01  0.51100000000E-03 0.  1.
        -12    1    3    3    0    0  0.37839252449E+02 -0.21634981222E+02  0.48229549031E+01  0.43853646740E+02  0.00000000000E+00 0.  1.
</event>
<event>
 7    1  0.1978681E-015  0.9000775E+02  0.7816164E-02  0.1186339E+00
        -11   -1    0    0    0    0  0.00000000000E+00  0.00000000000E+00  0.45593999997E+02  0.45594000000E+02  0.51100000000E-03 0.  1.
         11   -1    0    0    0    0 -0.00000000000E+00 -0.00000000000E+00 -0.45593999997E+02  0.45594000000E+02  0.51100000000E-03 0. -1.
    9900012    2    1    2    0    0  0.82318963295E+00  0.84254764354E+00 -0.73983370982E-01  0.90007745264E+02  0.90000006701E+02 0.  0.
        -12    1    1    2    0    0 -0.82318963295E+00 -0.84254764354E+00  0.73983370982E-01  0.11802547363E+01  0.00000000000E+00 0.  1.
         11    1    3    3    0    0 -0.21521205691E+02  0.32569110062E+02 -0.28153566920E+01  0.39138669602E+02  0.51100000000E-03 0. -1.
        -11    1    3    3    0    0  0.89045364492E+01  0.58828587369E+01  0.23522903398E+01  0.10928497902E+02  0.51100000000E-03 0.  1.
        -12    1    3    3    0    0  0.13439858875E+02 -0.37609421155E+02  0.38908298125E+00  0.39940577760E+02  0.00000000000E+00 0.  1.
</event>
<event>
 7    1  0.3279578E-015  0.9000772E+02  0.7816164E-02  0.1186339E+00
        -11   -1    0    0    0    0  0.00000000000E+00  0.00000000000E+00  0.45593999997E+02  0.45594000000E+02  0.51100000000E-03 0. -1.
         11   -1    0    0    0    0 -0.00000000000E+00 -0.00000000000E+00 -0.45593999997E+02  0.45594000000E+02  0.51100000000E-03 0.  1.
    9900012    2    1    2    0    0  0.73277996381E+00  0.14704912088E+00  0.91349145306E+00  0.90007721832E+02  0.89999982960E+02 0.  0.
        -12    1    1    2    0    0 -0.73277996381E+00 -0.14704912088E+00 -0.91349145306E+00  0.11802781681E+01  0.00000000000E+00 0.  1.
         11    1    3    3    0    0 -0.36911150542E+01 -0.68135526197E+01  0.54671677601E+01  0.94836044426E+01  0.51100000000E-03 0. -1.
        -11    1    3    3    0    0  0.15146994434E+02 -0.26998898752E+02 -0.24703990036E+02  0.39606301243E+02  0.51100000000E-03 0.  1.
         12    1    3    3    0    0 -0.10723099416E+02  0.33959500493E+02  0.20150313729E+02  0.40917816146E+02  0.00000000000E+00 0. -1.
</event>
<event>
 7    1  0.1978681E-015  0.9000774E+02  0.7816164E-02  0.1186339E+00
        -11   -1    0    0    0    0  0.00000000000E+00  0.00000000000E+00  0.45593999997E+02  0.45594000000E+02  0.51100000000E-03 0. -1.
         11   -1    0    0    0    0 -0.00000000000E+00 -0.00000000000E+00 -0.45593999997E+02  0.45594000000E+02  0.51100000000E-03 0.  1.
    9900012    2    1    2    0    0  0.11661707115E+01  0.96771316716E-01  0.15390068203E+00  0.90007743996E+02  0.90000005416E+02 0.  0.
        -12    1    1    2    0    0 -0.11661707115E+01 -0.96771316716E-01 -0.15390068203E+00  0.11802560044E+01  0.00000000000E+00 0.  1.
         11    1    3    3    0    0  0.26746870313E+02 -0.27749202431E+02  0.88044322817E+01  0.39533926382E+02  0.51100000000E-03 0. -1.
        -11    1    3    3    0    0 -0.87263021730E+01 -0.62963059665E+01  0.19812690156E+01  0.10941537626E+02  0.51100000000E-03 0.  1.
        -12    1    3    3    0    0 -0.16854397428E+02  0.34142279714E+02 -0.10631800615E+02  0.39532279988E+02  0.00000000000E+00 0.  1.
</event>
<event>
 7    1  0.1978681E-015  0.9000788E+02  0.7816164E-02  0.1186339E+00
        -11   -1    0    0    0    0  0.00000000000E+00  0.00000000000E+00  0.45593999997E+02  0.45594000000E+02  0.51100000000E-03 0.  1.
         11   -1    0    0    0    0 -0.00000000000E+00 -0.00000000000E+00 -0.45593999997E+02  0.45594000000E+02  0.51100000000E-03 0. -1.
    9900012    2    1    2    0    0 -0.71631427202E+00  0.76745184702E+00 -0.53906622383E+00  0.90007880994E+02  0.90000144223E+02 0.  0.
        -12    1    1    2    0    0  0.71631427202E+00 -0.76745184702E+00  0.53906622383E+00  0.11801190056E+01  0.00000000000E+00 0.  1.
         11    1    3    3    0    0  0.50647818719E+01  0.69576591401E+01  0.60035052147E+01  0.10493002966E+02  0.51100000000E-03 0. -1.
        -11    1    3    3    0    0 -0.28331144564E+02 -0.14037435696E+02  0.24750417072E+02  0.40153287521E+02  0.51100000000E-03 0.  1.
         12    1    3    3    0    0  0.22550048420E+02  0.78472284025E+01 -0.31292988511E+02  0.39361590508E+02  0.00000000000E+00 0. -1.
</event>
<event>
 7    1  0.1978681E-015  0.9000777E+02  0.7816164E-02  0.1186339E+00
        -11   -1    0    0    0    0  0.00000000000E+00  0.00000000000E+00  0.45593999997E+02  0.45594000000E+02  0.51100000000E-03 0. -1.
         11   -1    0    0    0    0 -0.00000000000E+00 -0.00000000000E+00 -0.45593999997E+02  0.45594000000E+02  0.51100000000E-03 0.  1.
    9900012    2    1    2    0    0 -0.54820784259E+00  0.74926588009E+00  0.72871278401E+00  0.90007765481E+02  0.90000027186E+02 0.  0.
        -12    1    1    2    0    0  0.54820784259E+00 -0.74926588009E+00 -0.72871278401E+00  0.11802345188E+01  0.00000000000E+00 0.  1.
         11    1    3    3    0    0 -0.67916782462E+01  0.60745917593E+01  0.58918913021E+01  0.10850895899E+02  0.51100000000E-03 0. -1.
        -11    1    3    3    0    0 -0.14677733218E+02 -0.31130988690E+02 -0.23053429431E+02  0.41425051817E+02  0.51100000000E-03 0.  1.
         12    1    3    3    0    0  0.20921203622E+02  0.25805662811E+02  0.17890250913E+02  0.37731817765E+02  0.00000000000E+00 0. -1.
</event>
<event>
 7    1  0.1978681E-015  0.9000775E+02  0.7816164E-02  0.1186339E+00
        -11   -1    0    0    0    0  0.00000000000E+00  0.00000000000E+00  0.45593999997E+02  0.45594000000E+02  0.51100000000E-03 0.  1.
         11   -1    0    0    0    0 -0.00000000000E+00 -0.00000000000E+00 -0.45593999997E+02  0.45594000000E+02  0.51100000000E-03 0. -1.
    9900012    2    1    2    0    0 -0.30909716898E+00 -0.82492856165E+00 -0.78546346285E+00  0.90007745348E+02  0.90000006787E+02 0.  0.
        -12    1    1    2    0    0  0.30909716898E+00  0.82492856165E+00  0.78546346285E+00  0.11802546518E+01  0.00000000000E+00 0.  1.
         11    1    3    3    0    0  0.21126099456E+02 -0.63459465915E+01 -0.37109310591E+02  0.43170407100E+02  0.51100000000E-03 0. -1.
        -11    1    3    3    0    0 -0.68000819979E+01 -0.38538298995E+01  0.15592234887E+01  0.79702131854E+01  0.51100000000E-03 0.  1.
        -12    1    3    3    0    0 -0.14635114627E+02  0.93748479294E+01  0.34764623640E+02  0.38867125063E+02  0.00000000000E+00 0.  1.
</event>
<event>
 7    1  0.1978681E-015  0.9000781E+02  0.7816164E-02  0.1186339E+00
        -11   -1    0    0    0    0  0.00000000000E+00  0.00000000000E+00  0.45593999997E+02  0.45594000000E+02  0.51100000000E-03 0.  1.
         11   -1    0    0    0    0 -0.00000000000E+00 -0.00000000000E+00 -0.45593999997E+02  0.45594000000E+02  0.51100000000E-03 0. -1.
    9900012    2    1    2    0    0 -0.10269523457E+01  0.57753664132E+00 -0.68291898537E-01  0.90007812101E+02  0.90000074421E+02 0.  0.
        -12    1    1    2    0    0  0.10269523457E+01 -0.57753664132E+00  0.68291898537E-01  0.11801878985E+01  0.00000000000E+00 0.  1.
         11    1    3    3    0    0  0.28691561406E+01 -0.73671897406E+01 -0.37798702130E+02  0.38616698779E+02  0.51100000000E-03 0. -1.
        -11    1    3    3    0    0 -0.40238477710E+01  0.61961526582E+01 -0.48091642741E+01  0.88154251131E+01  0.51100000000E-03 0.  1.
        -12    1    3    3    0    0  0.12773928468E+00  0.17485737237E+01  0.42539574505E+02  0.42575688209E+02  0.00000000000E+00 0.  1.
</event>
<event>
 7    1  0.1978681E-015  0.9000776E+02  0.7816164E-02  0.1186339E+00
        -11   -1    0    0    0    0  0.00000000000E+00  0.00000000000E+00  0.45593999997E+02  0.45594000000E+02  0.51100000000E-03 0. -1.
         11   -1    0    0    0    0 -0.00000000000E+00 -0.00000000000E+00 -0.45593999997E+02  0.45594000000E+02  0.51100000000E-03 0.  1.
    9900012    2    1    2    0    0 -0.26530239718E+00  0.70614156656E+00  0.90771549818E+00  0.90007759050E+02  0.90000020670E+02 0.  0.
        -12    1    1    2    0    0  0.26530239718E+00 -0.70614156656E+00 -0.90771549818E+00  0.11802409498E+01  0.00000000000E+00 0.  1.
         11    1    3    3    0    0 -0.14467982217E+02 -0.37506092864E+02  0.10003387049E+02  0.41425804326E+02  0.51100000000E-03 0. -1.
        -11    1    3    3    0    0 -0.67052669230E+01  0.11520805500E+02  0.51763720302E+00  0.13340071679E+02  0.51100000000E-03 0.  1.
        -12    1    3    3    0    0  0.20907946742E+02  0.26691428931E+02 -0.96133087537E+01  0.35241883045E+02  0.00000000000E+00 0.  1.
</event>
<event>
 7    1  0.1978681E-015  0.9000774E+02  0.7816164E-02  0.1186339E+00
        -11   -1    0    0    0    0  0.00000000000E+00  0.00000000000E+00  0.45593999997E+02  0.45594000000E+02  0.51100000000E-03 0. -1.
         11   -1    0    0    0    0 -0.00000000000E+00 -0.00000000000E+00 -0.45593999997E+02  0.45594000000E+02  0.51100000000E-03 0.  1.
    9900012    2    1    2    0    0 -0.10207496477E+01 -0.55343340615E+00 -0.21167508540E+00  0.90007735318E+02  0.89999996624E+02 0.  0.
        -12    1    1    2    0    0  0.10207496477E+01  0.55343340615E+00  0.21167508540E+00  0.11802646822E+01  0.00000000000E+00 0.  1.
         11    1    3    3    0    0  0.10239009949E+02 -0.32991976233E+02  0.11695809858E+02  0.36470533160E+02  0.51100000000E-03 0. -1.
        -11    1    3    3    0    0  0.71072533837E+01 -0.60880400611E+01 -0.37621480317E+01  0.10086180671E+02  0.51100000000E-03 0.  1.
        -12    1    3    3    0    0 -0.18367012980E+02  0.38526582888E+02 -0.81453369114E+01  0.43451021487E+02  0.00000000000E+00 0.  1.
</event>
<event>
 7    1  0.1978681E-015  0.9000773E+02  0.7816164E-02  0.1186339E+00
        -11   -1    0    0    0    0  0.00000000000E+00  0.00000000000E+00  0.45593999997E+02  0.45594000000E+02  0.51100000000E-03 0. -1.
         11   -1    0    0    0    0 -0.00000000000E+00 -0.00000000000E+00 -0.45593999997E+02  0.45594000000E+02  0.51100000000E-03 0.  1.
    9900012    2    1    2    0    0  0.56229788391E+00  0.96722319037E+00  0.37595608697E+00  0.90007727748E+02  0.89999988954E+02 0.  0.
        -12    1    1    2    0    0 -0.56229788391E+00 -0.96722319037E+00 -0.37595608697E+00  0.11802722523E+01  0.00000000000E+00 0.  1.
         11    1    3    3    0    0 -0.23305433727E+02 -0.26241379508E+01  0.33128567392E+02  0.40589793285E+02  0.51100000000E-03 0. -1.
        -11    1    3    3    0    0 -0.35135671870E+01  0.81177356722E+01 -0.49595750445E+01  0.10141014333E+02  0.51100000000E-03 0.  1.
        -12    1    3    3    0    0  0.27381298798E+02 -0.45263745310E+01 -0.27793036261E+02  0.39276920130E+02  0.00000000000E+00 0.  1.
</event>
<event>
 7    1  0.1978681E-015  0.9000776E+02  0.7816164E-02  0.1186339E+00
        -11   -1    0    0    0    0  0.00000000000E+00  0.00000000000E+00  0.45593999997E+02  0.45594000000E+02  0.51100000000E-03 0.  1.
         11   -1    0    0    0    0 -0.00000000000E+00 -0.00000000000E+00 -0.45593999997E+02  0.45594000000E+02  0.51100000000E-03 0. -1.
    9900012    2    1    2    0    0 -0.17478740068E+00  0.47378537998E+00 -0.10667401841E+01  0.90007763650E+02  0.90000025330E+02 0.  0.
        -12    1    1    2    0    0  0.17478740068E+00 -0.47378537998E+00  0.10667401841E+01  0.11802363501E+01  0.00000000000E+00 0.  1.
         11    1    3    3    0    0 -0.19367345123E+02 -0.12551244168E+02 -0.34945020752E+02  0.41878183615E+02  0.51100000000E-03 0. -1.
        -11    1    3    3    0    0 -0.29978571345E+01 -0.41842938247E+01  0.10087983402E+02  0.11325319933E+02  0.51100000000E-03 0.  1.
        -12    1    3    3    0    0  0.22190414856E+02  0.17209323372E+02  0.23790297166E+02  0.36804260102E+02  0.00000000000E+00 0.  1.
</event>
<event>
 7    1  0.1978681E-015  0.9000776E+02  0.7816164E-02  0.1186339E+00
        -11   -1    0    0    0    0  0.00000000000E+00  0.00000000000E+00  0.45593999997E+02  0.45594000000E+02  0.51100000000E-03 0.  1.
         11   -1    0    0    0    0 -0.00000000000E+00 -0.00000000000E+00 -0.45593999997E+02  0.45594000000E+02  0.51100000000E-03 0. -1.
    9900012    2    1    2    0    0  0.83059985154E+00  0.53911132802E+00 -0.64221105203E+00  0.90007757579E+02  0.90000019179E+02 0.  0.
        -12    1    1    2    0    0 -0.83059985154E+00 -0.53911132802E+00  0.64221105203E+00  0.11802424212E+01  0.00000000000E+00 0.  1.
         11    1    3    3    0    0  0.18163661032E+01 -0.37939210419E+00 -0.41011399863E+02  0.41053356052E+02  0.51100000000E-03 0. -1.
        -11    1    3    3    0    0 -0.28583854597E+01 -0.84026804185E+01  0.15775397610E+01  0.90146568215E+01  0.51100000000E-03 0.  1.
        -12    1    3    3    0    0  0.18726192080E+01  0.93211838507E+01  0.38791649050E+02  0.39939744705E+02  0.00000000000E+00 0.  1.
</event>
<event>
 7    1  0.1978681E-015  0.9000810E+02  0.7816164E-02  0.1186338E+00
        -11   -1    0    0    0    0  0.00000000000E+00  0.00000000000E+00  0.45593999997E+02  0.45594000000E+02  0.51100000000E-03 0. -1.
         11   -1    0    0    0    0 -0.00000000000E+00 -0.00000000000E+00 -0.45593999997E+02  0.45594000000E+02  0.51100000000E-03 0.  1.
    9900012    2    1    2    0    0  0.49855020522E+00  0.22821346347E+00  0.10447623367E+01  0.90008100838E+02  0.90000366968E+02 0.  0.
        -12    1    1    2    0    0 -0.49855020522E+00 -0.22821346347E+00 -0.10447623367E+01  0.11798991619E+01  0.00000000000E+00 0.  1.
         11    1    3    3    0    0  0.27246813165E+02  0.31559429712E+02  0.10232542203E+01  0.41706516048E+02  0.51100000000E-03 0. -1.
        -11    1    3    3    0    0 -0.61398537435E+01  0.64761406097E+00 -0.72986266813E+01  0.95596631560E+01  0.51100000000E-03 0.  1.
        -12    1    3    3    0    0 -0.20608409217E+02 -0.31978830310E+02  0.73201347977E+01  0.38741921634E+02  0.00000000000E+00 0.  1.
</event>
<event>
 7    1  0.1978681E-015  0.9000774E+02  0.7816164E-02  0.1186339E+00
        -11   -1    0    0    0    0  0.00000000000E+00  0.00000000000E+00  0.45593999997E+02  0.45594000000E+02  0.51100000000E-03 0.  1.
         11   -1    0    0    0    0 -0.00000000000E+00 -0.00000000000E+00 -0.45593999997E+02  0.45594000000E+02  0.51100000000E-03 0. -1.
    9900012    2    1    2    0    0  0.10760216425E+01  0.32744782933E-01  0.48384676473E+00  0.90007744736E+02  0.90000006167E+02 0.  0.
        -12    1    1    2    0    0 -0.10760216425E+01 -0.32744782933E-01 -0.48384676473E+00  0.11802552638E+01  0.00000000000E+00 0.  1.
         11    1    3    3    0    0  0.35637319219E+02 -0.57107728781E+01 -0.13712991498E+02  0.38609294012E+02  0.51100000000E-03 0. -1.
        -11    1    3    3    0    0 -0.29148024226E+01 -0.74208743175E+01 -0.74071370186E+01  0.10882606667E+02  0.51100000000E-03 0.  1.
        -12    1    3    3    0    0 -0.31646495154E+02  0.13164391979E+02  0.21603975281E+02  0.40515844057E+02  0.00000000000E+00 0.  1.
</event>
<event>
 7    1  0.1978681E-015  0.9000778E+02  0.7816164E-02  0.1186339E+00
        -11   -1    0    0    0    0  0.00000000000E+00  0.00000000000E+00  0.45593999997E+02  0.45594000000E+02  0.51100000000E-03 0. -1.
         11   -1    0    0    0    0 -0.00000000000E+00 -0.00000000000E+00 -0.45593999997E+02  0.45594000000E+02  0.51100000000E-03 0.  1.
    9900012    2    1    2    0    0 -0.10253129532E+01  0.41671039149E+00 -0.40987038570E+00  0.90007784793E+02  0.90000046752E+02 0.  0.
        -12    1    1    2    0    0  0.10253129532E+01 -0.41671039149E+00  0.40987038570E+00  0.11802152072E+01  0.00000000000E+00 0.  1.
         11    1    3    3    0    0  0.75874314457E+01 -0.22068648253E+01 -0.49410655277E+01  0.93195223650E+01  0.51100000000E-03 0. -1.
        -11    1    3    3    0    0 -0.97897876372E+01  0.40211147701E+02 -0.55455826253E+01  0.41755596372E+02  0.51100000000E-03 0.  1.
         12    1    3    3    0    0  0.11770432383E+01 -0.37587572485E+02  0.10076777767E+02  0.38932666056E+02  0.00000000000E+00 0. -1.
</event>
<event>
 7    1  0.1978681E-015  0.9000774E+02  0.7816164E-02  0.1186339E+00
        -11   -1    0    0    0    0  0.00000000000E+00  0.00000000000E+00  0.45593999997E+02  0.45594000000E+02  0.51100000000E-03 0.  1.
         11   -1    0    0    0    0 -0.00000000000E+00 -0.00000000000E+00 -0.45593999997E+02  0.45594000000E+02  0.51100000000E-03 0. -1.
    9900012    2    1    2    0    0 -0.95967100009E+00 -0.28493385755E+00 -0.62517993156E+00  0.90007743385E+02  0.90000004797E+02 0.  0.
        -12    1    1    2    0    0  0.95967100009E+00  0.28493385755E+00  0.62517993156E+00  0.11802566155E+01  0.00000000000E+00 0.  1.
         11    1    3    3    0    0 -0.33561849431E+01 -0.31951065411E+02  0.28360936057E+02  0.42854139270E+02  0.51100000000E-03 0. -1.
        -11    1    3    3    0    0 -0.18355883462E+01 -0.28286119788E+00 -0.90921086929E+01  0.92798618405E+01  0.51100000000E-03 0.  1.
        -12    1    3    3    0    0  0.42321022893E+01  0.31948992751E+02 -0.19894007296E+02  0.37873742274E+02  0.00000000000E+00 0.  1.
</event>
<event>
 7    1  0.1978681E-015  0.9000773E+02  0.7816164E-02  0.1186339E+00
        -11   -1    0    0    0    0  0.00000000000E+00  0.00000000000E+00  0.45593999997E+02  0.45594000000E+02  0.51100000000E-03 0.  1.
         11   -1    0    0    0    0 -0.00000000000E+00 -0.00000000000E+00 -0.45593999997E+02  0.45594000000E+02  0.51100000000E-03 0. -1.
    9900012    2    1    2    0    0 -0.68278220973E+00 -0.93207308265E+00  0.24099605303E+00  0.90007732710E+02  0.89999993982E+02 0.  0.
        -12    1    1    2    0    0  0.68278220973E+00  0.93207308265E+00 -0.24099605303E+00  0.11802672896E+01  0.00000000000E+00 0.  1.
         11    1    3    3    0    0  0.32488103476E+01  0.40878456870E+01  0.52124092345E+01  0.73779713556E+01  0.51100000000E-03 0. -1.
        -11    1    3    3    0    0  0.51072024839E+01 -0.61841246463E+01  0.37931203660E+02  0.38769873952E+02  0.51100000000E-03 0.  1.
         12    1    3    3    0    0 -0.90387950413E+01  0.11642058766E+01 -0.42902616842E+02  0.43859887403E+02  0.00000000000E+00 0. -1.
</event>
<event>
 7    1  0.1978681E-015  0.9000771E+02  0.7816164E-02  0.1186339E+00
        -11   -1    0    0    0    0  0.00000000000E+00  0.00000000000E+00  0.45593999997E+02  0.45594000000E+02  0.51100000000E-03 0.  1.
         11   -1    0    0    0    0 -0.00000000000E+00 -0.00000000000E+00 -0.45593999997E+02  0.45594000000E+02  0.51100000000E-03 0. -1.
    9900012    2    1    2    0    0  0.27626584450E+00 -0.10411873846E+01 -0.48237011816E+00  0.90007714053E+02  0.89999975078E+02 0.  0.
        -12    1    1    2    0    0 -0.27626584450E+00  0.10411873846E+01  0.48237011816E+00  0.11802859474E+01  0.00000000000E+00 0.  1.
         11    1    3    3    0    0  0.69403956242E+01  0.40875395875E+02 -0.88811667168E+01  0.42400969351E+02  0.51100000000E-03 0. -1.
        -11    1    3    3    0    0  0.38824729880E+01 -0.49235816978E+01  0.65912787934E+01  0.90972638541E+01  0.51100000000E-03 0.  1.
        -12    1    3    3    0    0 -0.10546602768E+02 -0.36993001562E+02  0.18075178053E+01  0.38509480847E+02  0.00000000000E+00 0.  1.
</event>
<event>
 7    1  0.1978681E-015  0.9000776E+02  0.7816164E-02  0.1186339E+00
        -11   -1    0    0    0    0  0.00000000000E+00  0.00000000000E+00  0.45593999997E+02  0.45594000000E+02  0.51100000000E-03 0. -1.
         11   -1    0    0    0    0 -0.00000000000E+00 -0.00000000000E+00 -0.45593999997E+02  0.45594000000E+02  0.51100000000E-03 0.  1.
    9900012    2    1    2    0    0 -0.58682794451E+00 -0.41667584278E-01  0.10231647396E+01  0.90007758792E+02  0.90000020408E+02 0.  0.
        -12    1    1    2    0    0  0.58682794451E+00  0.41667584278E-01 -0.10231647396E+01  0.11802412077E+01  0.00000000000E+00 0.  1.
         11    1    3    3    0    0 -0.29048817327E+02  0.19973785531E+01  0.30473482704E+02  0.42148030292E+02  0.51100000000E-03 0. -1.
        -11    1    3    3    0    0 -0.36152208592E+01 -0.25984870769E+01 -0.83437713255E+01  0.94572975603E+01  0.51100000000E-03 0.  1.
        -12    1    3    3    0    0  0.32077210242E+02  0.55944093953E+00 -0.21106546638E+02  0.38402430940E+02  0.00000000000E+00 0.  1.
</event>
<event>
 7    1  0.1978681E-015  0.9000748E+02  0.7816164E-02  0.1186340E+00
        -11   -1    0    0    0    0  0.00000000000E+00  0.00000000000E+00  0.45593999997E+02  0.45594000000E+02  0.51100000000E-03 0.  1.
         11   -1    0    0    0    0 -0.00000000000E+00 -0.00000000000E+00 -0.45593999997E+02  0.45594000000E+02  0.51100000000E-03 0. -1.
    9900012    2    1    2    0    0  0.59975914520E+00 -0.10159683522E+01  0.41573640104E-01  0.90007478466E+02  0.89999736381E+02 0.  0.
        -12    1    1    2    0    0 -0.59975914520E+00  0.10159683522E+01 -0.41573640104E-01  0.11805215341E+01  0.00000000000E+00 0.  1.
         11    1    3    3    0    0  0.23060285182E+02  0.25979735557E+02 -0.10165537990E+02  0.36194772760E+02  0.51100000000E-03 0. -1.
        -11    1    3    3    0    0  0.51765962154E+01  0.22164457074E+01 -0.79071037497E+01  0.97073204295E+01  0.51100000000E-03 0.  1.
        -12    1    3    3    0    0 -0.27637122252E+02 -0.29212149616E+02  0.18114215380E+02  0.44105385277E+02  0.00000000000E+00 0.  1.
</event>
<event>
 7    1  0.1978681E-015  0.9000767E+02  0.7816164E-02  0.1186339E+00
        -11   -1    0    0    0    0  0.00000000000E+00  0.00000000000E+00  0.45593999997E+02  0.45594000000E+02  0.51100000000E-03 0.  1.
         11   -1    0    0    0    0 -0.00000000000E+00 -0.00000000000E+00 -0.45593999997E+02  0.45594000000E+02  0.51100000000E-03 0. -1.
    9900012    2    1    2    0    0 -0.11701024603E+01  0.30063333432E-01 -0.15209150390E+00  0.90007671488E+02  0.89999931951E+02 0.  0.
        -12    1    1    2    0    0  0.11701024603E+01 -0.30063333432E-01  0.15209150390E+00  0.11803285124E+01  0.00000000000E+00 0.  1.
         11    1    3    3    0    0 -0.11061342779E+01 -0.17506810876E+02 -0.29238958960E+02  0.34097341266E+02  0.51100000000E-03 0. -1.
        -11    1    3    3    0    0  0.39471101708E+01 -0.91940670022E+01 -0.59635116463E+01  0.11647919048E+02  0.51100000000E-03 0.  1.
        -12    1    3    3    0    0 -0.40110783532E+01  0.26730941211E+02  0.35050379103E+02  0.44262411173E+02  0.00000000000E+00 0.  1.
</event>
<event>
 7    1  0.1978681E-015  0.9000787E+02  0.7816164E-02  0.1186339E+00
        -11   -1    0    0    0    0  0.00000000000E+00  0.00000000000E+00  0.45593999997E+02  0.45594000000E+02  0.51100000000E-03 0.  1.
         11   -1    0    0    0    0 -0.00000000000E+00 -0.00000000000E+00 -0.45593999997E+02  0.45594000000E+02  0.51100000000E-03 0. -1.
    9900012    2    1    2    0    0  0.21884022896E+00 -0.16718404110E+00 -0.11475519141E+01  0.90007865709E+02  0.90000128736E+02 0.  0.
        -12    1    1    2    0    0 -0.21884022896E+00  0.16718404110E+00  0.11475519141E+01  0.11801342911E+01  0.00000000000E+00 0.  1.
         11    1    3    3    0    0 -0.18242463373E+02 -0.35854801953E+02 -0.12539068594E+02  0.42137661711E+02  0.51100000000E-03 0. -1.
        -11    1    3    3    0    0  0.48389715539E+01  0.45043699668E+01 -0.66309135146E+01  0.93634400086E+01  0.51100000000E-03 0.  1.
        -12    1    3    3    0    0  0.13622332048E+02  0.31183247945E+02  0.18022430195E+02  0.38506763989E+02  0.00000000000E+00 0.  1.
</event>
<event>
 7    1  0.1978681E-015  0.9000736E+02  0.7816164E-02  0.1186340E+00
        -11   -1    0    0    0    0  0.00000000000E+00  0.00000000000E+00  0.45593999997E+02  0.45594000000E+02  0.51100000000E-03 0.  1.
         11   -1    0    0    0    0 -0.00000000000E+00 -0.00000000000E+00 -0.45593999997E+02  0.45594000000E+02  0.51100000000E-03 0. -1.
    9900012    2    1    2    0    0  0.48600774618E+00 -0.70454110694E-02 -0.10759435590E+01  0.90007361313E+02  0.89999617681E+02 0.  0.
        -12    1    1    2    0    0 -0.48600774618E+00  0.70454110694E-02  0.10759435590E+01  0.11806386870E+01  0.00000000000E+00 0.  1.
         11    1    3    3    0    0 -0.46271378301E+01  0.27906951412E+02  0.34311686023E+01  0.28495284871E+02  0.51100000000E-03 0. -1.
        -11    1    3    3    0    0 -0.18991681380E+02 -0.10718437507E+02  0.14626460269E+02  0.26258373988E+02  0.51100000000E-03 0.  1.
        -12    1    3    3    0    0  0.24104826957E+02 -0.17195559316E+02 -0.19133572430E+02  0.35253702454E+02  0.00000000000E+00 0.  1.
</event>
<event>
 7    1  0.1978681E-015  0.9000655E+02  0.7816164E-02  0.1186341E+00
        -11   -1    0    0    0    0  0.00000000000E+00  0.00000000000E+00  0.45593999997E+02  0.45594000000E+02  0.51100000000E-03 0.  1.
         11   -1    0    0    0    0 -0.00000000000E+00 -0.00000000000E+00 -0.45593999997E+02  0.45594000000E+02  0.51100000000E-03 0. -1.
    9900012    2    1    2    0    0 -0.29254600236E+00  0.15773529309E+00 -0.11337403813E+01  0.90006547149E+02  0.89998792764E+02 0.  0.
        -12    1    1    2    0    0  0.29254600236E+00 -0.15773529309E+00  0.11337403813E+01  0.11814528507E+01  0.00000000000E+00 0.  1.
         11    1    3    3    0    0 -0.60882369703E+01 -0.62114365826E+01  0.99106772981E+01  0.13185981139E+02  0.51100000000E-03 0. -1.
        -11    1    3    3    0    0  0.23733329267E+02  0.10512743877E+02  0.25194218774E+02  0.36173710921E+02  0.51100000000E-03 0.  1.
         12    1    3    3    0    0 -0.17937638299E+02 -0.41435720010E+01 -0.36238636453E+02  0.40646855089E+02  0.00000000000E+00 0. -1.
</event>
<event>
 7    1  0.1978681E-015  0.9000768E+02  0.7816164E-02  0.1186339E+00
        -11   -1    0    0    0    0  0.00000000000E+00  0.00000000000E+00  0.45593999997E+02  0.45594000000E+02  0.51100000000E-03 0.  1.
         11   -1    0    0    0    0 -0.00000000000E+00 -0.00000000000E+00 -0.45593999997E+02  0.45594000000E+02  0.51100000000E-03 0. -1.
    9900012    2    1    2    0    0  0.69232095885E+00  0.35824917915E+00 -0.88628875715E+00  0.90007678626E+02  0.89999939184E+02 0.  0.
        -12    1    1    2    0    0 -0.69232095885E+00 -0.35824917915E+00  0.88628875715E+00  0.11803213738E+01  0.00000000000E+00 0.  1.
         11    1    3    3    0    0 -0.68603675383E+01 -0.34159894064E+02 -0.19889849421E+01  0.34898697204E+02  0.51100000000E-03 0. -1.
        -11    1    3    3    0    0 -0.69532181219E+01 -0.72241411496E+01 -0.36338727637E+01  0.10664918618E+02  0.51100000000E-03 0.  1.
        -12    1    3    3    0    0  0.14505906619E+02  0.41742284392E+02  0.47365689487E+01  0.44444062804E+02  0.00000000000E+00 0.  1.
</event>
<event>
 7    1  0.1978681E-015  0.9000783E+02  0.7816164E-02  0.1186339E+00
        -11   -1    0    0    0    0  0.00000000000E+00  0.00000000000E+00  0.45593999997E+02  0.45594000000E+02  0.51100000000E-03 0. -1.
         11   -1    0    0    0    0 -0.00000000000E+00 -0.00000000000E+00 -0.45593999997E+02  0.45594000000E+02  0.51100000000E-03 0.  1.
    9900012    2    1    2    0    0  0.77766303329E+00  0.83364115043E-01  0.88379235712E+00  0.90007831241E+02  0.90000093813E+02 0.  0.
        -12    1    1    2    0    0 -0.77766303329E+00 -0.83364115043E-01 -0.88379235712E+00  0.11801687589E+01  0.00000000000E+00 0.  1.
         11    1    3    3    0    0 -0.21084978712E+01  0.94224549284E+01 -0.11939306329E+01  0.97290231147E+01  0.51100000000E-03 0. -1.
        -11    1    3    3    0    0  0.39990352987E+02  0.22413811577E+01  0.83289924412E+01  0.40909952785E+02  0.51100000000E-03 0.  1.
         12    1    3    3    0    0 -0.37104192082E+02 -0.11580471971E+02 -0.62512694513E+01  0.39368855342E+02  0.00000000000E+00 0. -1.
</event>
<event>
 7    1  0.1978681E-015  0.9000772E+02  0.7816164E-02  0.1186339E+00
        -11   -1    0    0    0    0  0.00000000000E+00  0.00000000000E+00  0.45593999997E+02  0.45594000000E+02  0.51100000000E-03 0.  1.
         11   -1    0    0    0    0 -0.00000000000E+00 -0.00000000000E+00 -0.45593999997E+02  0.45594000000E+02  0.51100000000E-03 0. -1.
    9900012    2    1    2    0    0 -0.19571551381E+00 -0.10261371662E+01 -0.54935310787E+00  0.90007724234E+02  0.89999985394E+02 0.  0.
        -12    1    1    2    0    0  0.19571551381E+00  0.10261371662E+01  0.54935310787E+00  0.11802757658E+01  0.00000000000E+00 0.  1.
         11    1    3    3    0    0 -0.25928706206E+02  0.51108453583E+01 -0.23437663712E+02  0.35323400549E+02  0.51100000000E-03 0. -1.
        -11    1    3    3    0    0  0.41132156779E+00  0.14127851313E+02 -0.13461358583E+01  0.14197797370E+02  0.51100000000E-03 0.  1.
        -12    1    3    3    0    0  0.25321669125E+02 -0.20264833837E+02  0.24234446463E+02  0.40486526315E+02  0.00000000000E+00 0.  1.
</event>
<event>
 7    1  0.1978681E-015  0.9000777E+02  0.7816164E-02  0.1186339E+00
        -11   -1    0    0    0    0  0.00000000000E+00  0.00000000000E+00  0.45593999997E+02  0.45594000000E+02  0.51100000000E-03 0. -1.
         11   -1    0    0    0    0 -0.00000000000E+00 -0.00000000000E+00 -0.45593999997E+02  0.45594000000E+02  0.51100000000E-03 0.  1.
    9900012    2    1    2    0    0  0.11220785582E+01 -0.18926547398E+00 -0.31314462978E+00  0.90007770671E+02  0.90000032444E+02 0.  0.
        -12    1    1    2    0    0 -0.11220785582E+01  0.18926547398E+00  0.31314462978E+00  0.11802293292E+01  0.00000000000E+00 0.  1.
         11    1    3    3    0    0  0.14954535957E+02  0.75292259674E+01  0.55106970931E+01  0.17626547367E+02  0.51100000000E-03 0. -1.
        -11    1    3    3    0    0  0.14448633877E+02 -0.88136668470E+01 -0.30468012691E+02  0.34853171187E+02  0.51100000000E-03 0.  1.
         12    1    3    3    0    0 -0.28281091276E+02  0.10951754057E+01  0.24644170968E+02  0.37528052117E+02  0.00000000000E+00 0. -1.
</event>
<event>
 7    1  0.1978681E-015  0.9000781E+02  0.7816164E-02  0.1186339E+00
        -11   -1    0    0    0    0  0.00000000000E+00  0.00000000000E+00  0.45593999997E+02  0.45594000000E+02  0.51100000000E-03 0.  1.
         11   -1    0    0    0    0 -0.00000000000E+00 -0.00000000000E+00 -0.45593999997E+02  0.45594000000E+02  0.51100000000E-03 0. -1.
    9900012    2    1    2    0    0  0.11199235489E+01  0.23242414821E+00  0.29085674194E+00  0.90007810446E+02  0.90000072743E+02 0.  0.
        -12    1    1    2    0    0 -0.11199235489E+01 -0.23242414821E+00 -0.29085674194E+00  0.11801895544E+01  0.00000000000E+00 0.  1.
         11    1    3    3    0    0 -0.11422851106E+02 -0.32426893539E+02  0.17974917205E+02  0.38795394066E+02  0.51100000000E-03 0. -1.
        -11    1    3    3    0    0  0.57918341218E+01  0.10939637274E+01  0.80173938303E+01  0.99509146928E+01  0.51100000000E-03 0.  1.
        -12    1    3    3    0    0  0.67509405329E+01  0.31565353959E+02 -0.25701454293E+02  0.41261501687E+02  0.00000000000E+00 0.  1.
</event>
<event>
 7    1  0.1978681E-015  0.9000785E+02  0.7816164E-02  0.1186339E+00
        -11   -1    0    0    0    0  0.00000000000E+00  0.00000000000E+00  0.45593999997E+02  0.45594000000E+02  0.51100000000E-03 0.  1.
         11   -1    0    0    0    0 -0.00000000000E+00 -0.00000000000E+00 -0.45593999997E+02  0.45594000000E+02  0.51100000000E-03 0. -1.
    9900012    2    1    2    0    0 -0.38316854837E+00 -0.10847253368E+01  0.26324075230E+00  0.90007854718E+02  0.90000117600E+02 0.  0.
        -12    1    1    2    0    0  0.38316854837E+00  0.10847253368E+01 -0.26324075230E+00  0.11801452819E+01  0.00000000000E+00 0.  1.
         11    1    3    3    0    0 -0.98495024401E+01 -0.19482986607E+01  0.52417373898E+01  0.11326269338E+02  0.51100000000E-03 0. -1.
        -11    1    3    3    0    0  0.15463432087E+02  0.26190158030E+02  0.24719241008E+02  0.39192894583E+02  0.51100000000E-03 0.  1.
         12    1    3    3    0    0 -0.59970981950E+01 -0.25326584706E+02 -0.29697737645E+02  0.39488690797E+02  0.00000000000E+00 0. -1.
</event>
<event>
 7    1  0.1978681E-015  0.9000778E+02  0.7816164E-02  0.1186339E+00
        -11   -1    0    0    0    0  0.00000000000E+00  0.00000000000E+00  0.45593999997E+02  0.45594000000E+02  0.51100000000E-03 0.  1.
         11   -1    0    0    0    0 -0.00000000000E+00 -0.00000000000E+00 -0.45593999997E+02  0.45594000000E+02  0.51100000000E-03 0. -1.
    9900012    2    1    2    0    0  0.10866465051E+00 -0.11399020936E+01  0.28589970468E+00  0.90007778228E+02  0.90000040101E+02 0.  0.
        -12    1    1    2    0    0 -0.10866465051E+00  0.11399020936E+01 -0.28589970468E+00  0.11802217717E+01  0.00000000000E+00 0.  1.
         11    1    3    3    0    0  0.74631361085E+01  0.64501098700E+00  0.82656758761E+01  0.11155081250E+02  0.51100000000E-03 0. -1.
        -11    1    3    3    0    0  0.54391112338E+01  0.22875635972E+01  0.34139308161E+02  0.34645479362E+02  0.51100000000E-03 0.  1.
         12    1    3    3    0    0 -0.12793582692E+02 -0.40724766778E+01 -0.42119084332E+02  0.44207217616E+02  0.00000000000E+00 0. -1.
</event>
<event>
 7    1  0.1978681E-015  0.9000774E+02  0.7816164E-02  0.1186339E+00
        -11   -1    0    0    0    0  0.00000000000E+00  0.00000000000E+00  0.45593999997E+02  0.45594000000E+02  0.51100000000E-03 0.  1.
         11   -1    0    0    0    0 -0.00000000000E+00 -0.00000000000E+00 -0.45593999997E+02  0.45594000000E+02  0.51100000000E-03 0. -1.
    9900012    2    1    2    0    0 -0.23790220489E+00 -0.63651956092E+00  0.96501411235E+00  0.90007742889E+02  0.90000004295E+02 0.  0.
        -12    1    1    2    0    0  0.23790220489E+00  0.63651956092E+00 -0.96501411235E+00  0.11802571108E+01  0.00000000000E+00 0.  1.
         11    1    3    3    0    0  0.16694652651E+02 -0.35137174392E+01  0.30180751566E+01  0.17325311405E+02  0.51100000000E-03 0. -1.
        -11    1    3    3    0    0 -0.16042928457E+01  0.76414853687E+01 -0.35092244606E+02  0.35950405921E+02  0.51100000000E-03 0.  1.
        -12    1    3    3    0    0 -0.15328262010E+02 -0.47642874904E+01  0.33039183561E+02  0.36732025563E+02  0.00000000000E+00 0.  1.
</event>
<event>
 7    1  0.1978681E-015  0.9000781E+02  0.7816164E-02  0.1186339E+00
        -11   -1    0    0    0    0  0.00000000000E+00  0.00000000000E+00  0.45593999997E+02  0.45594000000E+02  0.51100000000E-03 0.  1.
         11   -1    0    0    0    0 -0.00000000000E+00 -0.00000000000E+00 -0.45593999997E+02  0.45594000000E+02  0.51100000000E-03 0. -1.
    9900012    2    1    2    0    0 -0.95151669862E-01 -0.59463236329E+00 -0.10149867960E+01  0.90007813708E+02  0.90000076049E+02 0.  0.
        -12    1    1    2    0    0  0.95151669862E-01  0.59463236329E+00  0.10149867960E+01  0.11801862920E+01  0.00000000000E+00 0.  1.
         11    1    3    3    0    0 -0.93125949784E+01 -0.84478322048E+01 -0.53291612100E+01  0.13656143440E+02  0.51100000000E-03 0. -1.
        -11    1    3    3    0    0  0.28374342066E+02  0.20870131388E+02 -0.21817977384E+02  0.41432955594E+02  0.51100000000E-03 0.  1.
         12    1    3    3    0    0 -0.19156898758E+02 -0.13016931546E+02  0.26132151798E+02  0.34918714674E+02  0.00000000000E+00 0. -1.
</event>
<event>
 7    1  0.1978681E-015  0.9000794E+02  0.7816164E-02  0.1186339E+00
        -11   -1    0    0    0    0  0.00000000000E+00  0.00000000000E+00  0.45593999997E+02  0.45594000000E+02  0.51100000000E-03 0.  1.
         11   -1    0    0    0    0 -0.00000000000E+00 -0.00000000000E+00 -0.45593999997E+02  0.45594000000E+02  0.51100000000E-03 0. -1.
    9900012    2    1    2    0    0  0.94525264518E+00  0.61443419938E+00  0.34857466602E+00  0.90007942270E+02  0.90000206308E+02 0.  0.
        -12    1    1    2    0    0 -0.94525264518E+00 -0.61443419938E+00 -0.34857466602E+00  0.11800577301E+01  0.00000000000E+00 0.  1.
         11    1    3    3    0    0  0.19315078190E+02 -0.34317688384E+02 -0.67456401875E+01  0.39953468476E+02  0.51100000000E-03 0. -1.
        -11    1    3    3    0    0  0.47462106966E+01 -0.60750579102E+00 -0.39936877186E+01  0.62325854280E+01  0.51100000000E-03 0.  1.
        -12    1    3    3    0    0 -0.23116036242E+02  0.35539628374E+02  0.11087902572E+02  0.43821888366E+02  0.00000000000E+00 0.  1.
</event>
<event>
 7    1  0.2851218E-015  0.9000775E+02  0.7816164E-02  0.1186339E+00
        -11   -1    0    0    0    0  0.00000000000E+00  0.00000000000E+00  0.45593999997E+02  0.45594000000E+02  0.51100000000E-03 0.  1.
         11   -1    0    0    0    0 -0.00000000000E+00 -0.00000000000E+00 -0.45593999997E+02  0.45594000000E+02  0.51100000000E-03 0. -1.
    9900012    2    1    2    0    0 -0.10019050401E+01 -0.60986128541E+00  0.13133757853E+00  0.90007748308E+02  0.90000009786E+02 0.  0.
        -12    1    1    2    0    0  0.10019050401E+01  0.60986128541E+00 -0.13133757853E+00  0.11802516920E+01  0.00000000000E+00 0.  1.
         11    1    3    3    0    0  0.69741938257E+01  0.42561400633E+01  0.48613316789E+01  0.95071895800E+01  0.51100000000E-03 0. -1.
        -11    1    3    3    0    0  0.20458828080E+02 -0.33919239701E+02 -0.35488052563E+00  0.39613184785E+02  0.51100000000E-03 0.  1.
         12    1    3    3    0    0 -0.28434926946E+02  0.29053238353E+02 -0.43751135747E+01  0.40887373943E+02  0.00000000000E+00 0. -1.
</event>
<event>
 7    1  0.1978681E-015  0.9000778E+02  0.7816164E-02  0.1186339E+00
        -11   -1    0    0    0    0  0.00000000000E+00  0.00000000000E+00  0.45593999997E+02  0.45594000000E+02  0.51100000000E-03 0.  1.
         11   -1    0    0    0    0 -0.00000000000E+00 -0.00000000000E+00 -0.45593999997E+02  0.45594000000E+02  0.51100000000E-03 0. -1.
    9900012    2    1    2    0    0  0.11351504459E+01  0.61061759336E-01 -0.31722754365E+00  0.90007776128E+02  0.90000037973E+02 0.  0.
        -12    1    1    2    0    0 -0.11351504459E+01 -0.61061759336E-01  0.31722754365E+00  0.11802238718E+01  0.00000000000E+00 0.  1.
         11    1    3    3    0    0 -0.46167970916E+00 -0.38232075880E+02 -0.14776229481E+02  0.40990751789E+02  0.51100000000E-03 0. -1.
        -11    1    3    3    0    0  0.29108042431E+01 -0.19435373625E+01  0.73434764988E+01  0.81349103357E+01  0.51100000000E-03 0.  1.
        -12    1    3    3    0    0 -0.13139740881E+01  0.40236675002E+02  0.71155254387E+01  0.40882114004E+02  0.00000000000E+00 0.  1.
</event>
<event>
 7    1  0.1978681E-015  0.9000774E+02  0.7816164E-02  0.1186339E+00
        -11   -1    0    0    0    0  0.00000000000E+00  0.00000000000E+00  0.45593999997E+02  0.45594000000E+02  0.51100000000E-03 0. -1.
         11   -1    0    0    0    0 -0.00000000000E+00 -0.00000000000E+00 -0.45593999997E+02  0.45594000000E+02  0.51100000000E-03 0.  1.
    9900012    2    1    2    0    0 -0.29864557171E+00 -0.89590286560E+00  0.70794595698E+00  0.90007737910E+02  0.89999999251E+02 0.  0.
        -12    1    1    2    0    0  0.29864557171E+00  0.89590286560E+00 -0.70794595698E+00  0.11802620896E+01  0.00000000000E+00 0.  1.
         11    1    3    3    0    0 -0.98685502032E+01 -0.84374856676E+01  0.40177916493E+02  0.42223742390E+02  0.51100000000E-03 0. -1.
        -11    1    3    3    0    0  0.97927017758E+01  0.44843534185E+01 -0.29934081017E+01  0.11178860674E+02  0.51100000000E-03 0.  1.
        -12    1    3    3    0    0 -0.22279714431E+00  0.30572293835E+01 -0.36476562434E+02  0.36605134846E+02  0.00000000000E+00 0.  1.
</event>
<event>
 7    1  0.1978681E-015  0.9000770E+02  0.7816164E-02  0.1186339E+00
        -11   -1    0    0    0    0  0.00000000000E+00  0.00000000000E+00  0.45593999997E+02  0.45594000000E+02  0.51100000000E-03 0.  1.
         11   -1    0    0    0    0 -0.00000000000E+00 -0.00000000000E+00 -0.45593999997E+02  0.45594000000E+02  0.51100000000E-03 0. -1.
    9900012    2    1    2    0    0 -0.30573784319E+00  0.73127012657E-01 -0.11376669341E+01  0.90007699512E+02  0.89999960346E+02 0.  0.
        -12    1    1    2    0    0  0.30573784319E+00 -0.73127012657E-01  0.11376669341E+01  0.11803004878E+01  0.00000000000E+00 0.  1.
         11    1    3    3    0    0  0.19590759797E+02  0.23529967415E+02 -0.74982619503E+01  0.31522708775E+02  0.51100000000E-03 0. -1.
        -11    1    3    3    0    0  0.10796504855E+02  0.71536135546E+01 -0.46491306349E+01  0.13760563938E+02  0.51100000000E-03 0.  1.
        -12    1    3    3    0    0 -0.30693002495E+02 -0.30610453957E+02  0.11009725651E+02  0.44724426799E+02  0.00000000000E+00 0.  1.
</event>
<event>
 7    1  0.1978681E-015  0.9000784E+02  0.7816164E-02  0.1186339E+00
        -11   -1    0    0    0    0  0.00000000000E+00  0.00000000000E+00  0.45593999997E+02  0.45594000000E+02  0.51100000000E-03 0. -1.
         11   -1    0    0    0    0 -0.00000000000E+00 -0.00000000000E+00 -0.45593999997E+02  0.45594000000E+02  0.51100000000E-03 0.  1.
    9900012    2    1    2    0    0  0.16090383679E+00 -0.75370732379E+00  0.89376633708E+00  0.90007837706E+02  0.90000100364E+02 0.  0.
        -12    1    1    2    0    0 -0.16090383679E+00  0.75370732379E+00 -0.89376633708E+00  0.11801622939E+01  0.00000000000E+00 0.  1.
         11    1    3    3    0    0 -0.91634767696E+00 -0.39761719468E+01 -0.80709482436E+01  0.90437736719E+01  0.51100000000E-03 0. -1.
        -11    1    3    3    0    0 -0.37671914279E+02 -0.35108535621E+01  0.15877001138E+02  0.41031431654E+02  0.51100000000E-03 0.  1.
         12    1    3    3    0    0  0.38749165793E+02  0.67333181851E+01 -0.69122865569E+01  0.39932632381E+02  0.00000000000E+00 0. -1.
</event>
<event>
 7    1  0.1978681E-015  0.9000865E+02  0.7816164E-02  0.1186337E+00
        -11   -1    0    0    0    0  0.00000000000E+00  0.00000000000E+00  0.45593999997E+02  0.45594000000E+02  0.51100000000E-03 0. -1.
         11   -1    0    0    0    0 -0.00000000000E+00 -0.00000000000E+00 -0.45593999997E+02  0.45594000000E+02  0.51100000000E-03 0.  1.
    9900012    2    1    2    0    0  0.83742371553E+00  0.79100094770E+00 -0.25277964383E+00  0.90008653347E+02  0.90000926767E+02 0.  0.
        -12    1    1    2    0    0 -0.83742371553E+00 -0.79100094770E+00  0.25277964383E+00  0.11793466526E+01  0.00000000000E+00 0.  1.
         11    1    3    3    0    0  0.22945586506E+00 -0.57854788061E+01 -0.73273312223E+01  0.93388542184E+01  0.51100000000E-03 0. -1.
        -11    1    3    3    0    0  0.92199792003E+01 -0.33925763516E+01 -0.35119112096E+02  0.36467377551E+02  0.51100000000E-03 0.  1.
         12    1    3    3    0    0 -0.86120113499E+01  0.99690561054E+01  0.42193663674E+02  0.44202421578E+02  0.00000000000E+00 0. -1.
</event>
<event>
 7    1  0.1978681E-015  0.9000784E+02  0.7816164E-02  0.1186339E+00
        -11   -1    0    0    0    0  0.00000000000E+00  0.00000000000E+00  0.45593999997E+02  0.45594000000E+02  0.51100000000E-03 0.  1.
         11   -1    0    0    0    0 -0.00000000000E+00 -0.00000000000E+00 -0.45593999997E+02  0.45594000000E+02  0.51100000000E-03 0. -1.
    9900012    2    1    2    0    0  0.10314637266E+01 -0.41641409250E+00  0.39428198057E+00  0.90007840521E+02  0.90000103216E+02 0.  0.
        -12    1    1    2    0    0 -0.10314637266E+01  0.41641409250E+00 -0.39428198057E+00  0.11801594790E+01  0.00000000000E+00 0.  1.
         11    1    3    3    0    0 -0.22939704502E+02  0.10451714101E+01 -0.34296961351E+02  0.41274737844E+02  0.51100000000E-03 0. -1.
        -11    1    3    3    0    0  0.67822901565E+01 -0.69900909033E+01  0.13117431072E+00  0.97405357946E+01  0.51100000000E-03 0.  1.
        -12    1    3    3    0    0  0.17188878072E+02  0.55285054008E+01  0.34560069021E+02  0.38992566882E+02  0.00000000000E+00 0.  1.
</event>
<event>
 7    1  0.1978681E-015  0.9000766E+02  0.7816164E-02  0.1186339E+00
        -11   -1    0    0    0    0  0.00000000000E+00  0.00000000000E+00  0.45593999997E+02  0.45594000000E+02  0.51100000000E-03 0. -1.
         11   -1    0    0    0    0 -0.00000000000E+00 -0.00000000000E+00 -0.45593999997E+02  0.45594000000E+02  0.51100000000E-03 0.  1.
    9900012    2    1    2    0    0  0.71062310639E+00  0.86997373684E+00  0.36243313656E+00  0.90007662218E+02  0.89999922559E+02 0.  0.
        -12    1    1    2    0    0 -0.71062310639E+00 -0.86997373684E+00 -0.36243313656E+00  0.11803377824E+01  0.00000000000E+00 0.  1.
         11    1    3    3    0    0 -0.29169194996E+02 -0.12843211347E+02  0.16163689781E+02  0.35735904662E+02  0.51100000000E-03 0. -1.
        -11    1    3    3    0    0 -0.50035896998E+01  0.83786659537E+01  0.72183721712E+01  0.12138486319E+02  0.51100000000E-03 0.  1.
        -12    1    3    3    0    0  0.34883407803E+02  0.53345191305E+01 -0.23019628815E+02  0.42133271236E+02  0.00000000000E+00 0.  1.
</event>
<event>
 7    1  0.1978681E-015  0.9000702E+02  0.7816164E-02  0.1186340E+00
        -11   -1    0    0    0    0  0.00000000000E+00  0.00000000000E+00  0.45593999997E+02  0.45594000000E+02  0.51100000000E-03 0.  1.
         11   -1    0    0    0    0 -0.00000000000E+00 -0.00000000000E+00 -0.45593999997E+02  0.45594000000E+02  0.51100000000E-03 0. -1.
    9900012    2    1    2    0    0  0.53162368914E+00  0.10434109098E+01 -0.15295183180E+00  0.90007015522E+02  0.89999267324E+02 0.  0.
        -12    1    1    2    0    0 -0.53162368914E+00 -0.10434109098E+01  0.15295183180E+00  0.11809844776E+01  0.00000000000E+00 0.  1.
         11    1    3    3    0    0 -0.11502990885E+00 -0.14328420380E+01  0.87824063665E+01  0.88992657019E+01  0.51100000000E-03 0. -1.
        -11    1    3    3    0    0 -0.28231131979E+02 -0.25775579152E+02  0.45947364826E+01  0.38503102434E+02  0.51100000000E-03 0.  1.
         12    1    3    3    0    0  0.28877785577E+02  0.28251832100E+02 -0.13530094681E+02  0.42604647386E+02  0.00000000000E+00 0. -1.
</event>
<event>
 7    1  0.1978681E-015  0.9000779E+02  0.7816164E-02  0.1186339E+00
        -11   -1    0    0    0    0  0.00000000000E+00  0.00000000000E+00  0.45593999997E+02  0.45594000000E+02  0.51100000000E-03 0.  1.
         11   -1    0    0    0    0 -0.00000000000E+00 -0.00000000000E+00 -0.45593999997E+02  0.45594000000E+02  0.51100000000E-03 0. -1.
    9900012    2    1    2    0    0  0.43101240840E+00  0.86171892369E+00 -0.68159405619E+00  0.90007787453E+02  0.90000049447E+02 0.  0.
        -12    1    1    2    0    0 -0.43101240840E+00 -0.86171892369E+00  0.68159405619E+00  0.11802125474E+01  0.00000000000E+00 0.  1.
         11    1    3    3    0    0  0.50654496159E+01  0.52857021790E+01 -0.35365767937E+01  0.81304860258E+01  0.51100000000E-03 0. -1.
        -11    1    3    3    0    0 -0.16132991168E+02  0.28795215039E+02 -0.21248191182E+02  0.39254597717E+02  0.51100000000E-03 0.  1.
         12    1    3    3    0    0  0.11498553960E+02 -0.33219198295E+02  0.24103173920E+02  0.42622703710E+02  0.00000000000E+00 0. -1.
</event>
<event>
 7    1  0.1978681E-015  0.9000781E+02  0.7816164E-02  0.1186339E+00
        -11   -1    0    0    0    0  0.00000000000E+00  0.00000000000E+00  0.45593999997E+02  0.45594000000E+02  0.51100000000E-03 0.  1.
         11   -1    0    0    0    0 -0.00000000000E+00 -0.00000000000E+00 -0.45593999997E+02  0.45594000000E+02  0.51100000000E-03 0. -1.
    9900012    2    1    2    0    0 -0.40967432555E+00 -0.22587935208E+00 -0.10835055134E+01  0.90007814111E+02  0.90000076457E+02 0.  0.
        -12    1    1    2    0    0  0.40967432555E+00  0.22587935208E+00  0.10835055134E+01  0.11801858889E+01  0.00000000000E+00 0.  1.
         11    1    3    3    0    0  0.52481149621E+00 -0.15258922328E+01  0.16521802462E+02  0.16600413581E+02  0.51100000000E-03 0. -1.
        -11    1    3    3    0    0 -0.75280424017E+01  0.31044849960E+02  0.87519194255E+01  0.33121748525E+02  0.51100000000E-03 0.  1.
         12    1    3    3    0    0  0.65935565799E+01 -0.29744837079E+02 -0.26357227401E+02  0.40285652005E+02  0.00000000000E+00 0. -1.
</event>
<event>
 7    1  0.1978681E-015  0.9000767E+02  0.7816164E-02  0.1186339E+00
        -11   -1    0    0    0    0  0.00000000000E+00  0.00000000000E+00  0.45593999997E+02  0.45594000000E+02  0.51100000000E-03 0. -1.
         11   -1    0    0    0    0 -0.00000000000E+00 -0.00000000000E+00 -0.45593999997E+02  0.45594000000E+02  0.51100000000E-03 0.  1.
    9900012    2    1    2    0    0  0.10743346582E+01 -0.41129129487E+00 -0.26426038642E+00  0.90007665709E+02  0.89999926096E+02 0.  0.
        -12    1    1    2    0    0 -0.10743346582E+01  0.41129129487E+00  0.26426038642E+00  0.11803342911E+01  0.00000000000E+00 0.  1.
         11    1    3    3    0    0 -0.41020564654E+01  0.83181602477E+01  0.13539680263E+01  0.93729337365E+01  0.51100000000E-03 0. -1.
        -11    1    3    3    0    0  0.17659970796E+02  0.25600501962E+02 -0.22658385512E+02  0.38479380238E+02  0.51100000000E-03 0.  1.
         12    1    3    3    0    0 -0.12483579673E+02 -0.34329953505E+02  0.21040157099E+02  0.42155351734E+02  0.00000000000E+00 0. -1.
</event>
<event>
 7    1  0.1978681E-015  0.9000771E+02  0.7816164E-02  0.1186339E+00
        -11   -1    0    0    0    0  0.00000000000E+00  0.00000000000E+00  0.45593999997E+02  0.45594000000E+02  0.51100000000E-03 0. -1.
         11   -1    0    0    0    0 -0.00000000000E+00 -0.00000000000E+00 -0.45593999997E+02  0.45594000000E+02  0.51100000000E-03 0.  1.
    9900012    2    1    2    0    0 -0.54359703518E+00  0.98757687885E+00  0.34968796565E+00  0.90007708722E+02  0.89999969677E+02 0.  0.
        -12    1    1    2    0    0  0.54359703518E+00 -0.98757687885E+00 -0.34968796565E+00  0.11802912783E+01  0.00000000000E+00 0.  1.
         11    1    3    3    0    0  0.28592637619E+02 -0.31071637568E+02  0.82299069816E+01  0.43019959976E+02  0.51100000000E-03 0. -1.
        -11    1    3    3    0    0 -0.45245118205E+01  0.51785325932E+01 -0.79898335185E+01  0.10541624493E+02  0.51100000000E-03 0.  1.
        -12    1    3    3    0    0 -0.24611722833E+02  0.26880681853E+02  0.10961450260E+00  0.36446124253E+02  0.00000000000E+00 0.  1.
</event>
<event>
 7    1  0.1978681E-015  0.9000772E+02  0.7816164E-02  0.1186339E+00
        -11   -1    0    0    0    0  0.00000000000E+00  0.00000000000E+00  0.45593999997E+02  0.45594000000E+02  0.51100000000E-03 0. -1.
         11   -1    0    0    0    0 -0.00000000000E+00 -0.00000000000E+00 -0.45593999997E+02  0.45594000000E+02  0.51100000000E-03 0.  1.
    9900012    2    1    2    0    0  0.88098175845E+00  0.37963655063E+00  0.68760467168E+00  0.90007723357E+02  0.89999984505E+02 0.  0.
        -12    1    1    2    0    0 -0.88098175845E+00 -0.37963655063E+00 -0.68760467168E+00  0.11802766429E+01  0.00000000000E+00 0.  1.
         11    1    3    3    0    0 -0.16099836865E+02  0.12832984022E+02  0.36373922730E+02  0.41796560637E+02  0.51100000000E-03 0. -1.
        -11    1    3    3    0    0 -0.13258847177E+01  0.61638067477E+01 -0.71101461136E+01  0.95028765080E+01  0.51100000000E-03 0.  1.
        -12    1    3    3    0    0  0.18306703341E+02 -0.18617154219E+02 -0.28576171945E+02  0.38708286212E+02  0.00000000000E+00 0.  1.
</event>
<event>
 7    1  0.1978681E-015  0.9000792E+02  0.7816164E-02  0.1186339E+00
        -11   -1    0    0    0    0  0.00000000000E+00  0.00000000000E+00  0.45593999997E+02  0.45594000000E+02  0.51100000000E-03 0. -1.
         11   -1    0    0    0    0 -0.00000000000E+00 -0.00000000000E+00 -0.45593999997E+02  0.45594000000E+02  0.51100000000E-03 0.  1.
    9900012    2    1    2    0    0 -0.70302245728E+00  0.58709485741E+00 -0.74408658617E+00  0.90007921276E+02  0.90000185037E+02 0.  0.
        -12    1    1    2    0    0  0.70302245728E+00 -0.58709485741E+00  0.74408658617E+00  0.11800787240E+01  0.00000000000E+00 0.  1.
         11    1    3    3    0    0  0.24336932858E+01  0.52947154206E+01  0.76486905650E+01  0.96155780905E+01  0.51100000000E-03 0. -1.
        -11    1    3    3    0    0  0.78435976570E+01  0.36484423182E+02 -0.43484370543E+01  0.37570521213E+02  0.51100000000E-03 0.  1.
         12    1    3    3    0    0 -0.10980313400E+02 -0.41192043745E+02 -0.40443400969E+01  0.42821821973E+02  0.00000000000E+00 0. -1.
</event>
<event>
 7    1  0.1978681E-015  0.9000773E+02  0.7816164E-02  0.1186339E+00
        -11   -1    0    0    0    0  0.00000000000E+00  0.00000000000E+00  0.45593999997E+02  0.45594000000E+02  0.51100000000E-03 0. -1.
         11   -1    0    0    0    0 -0.00000000000E+00 -0.00000000000E+00 -0.45593999997E+02  0.45594000000E+02  0.51100000000E-03 0.  1.
    9900012    2    1    2    0    0 -0.11212114803E+01 -0.15571915908E+00  0.33417204655E+00  0.90007731134E+02  0.89999992385E+02 0.  0.
        -12    1    1    2    0    0  0.11212114803E+01  0.15571915908E+00 -0.33417204655E+00  0.11802688663E+01  0.00000000000E+00 0.  1.
         11    1    3    3    0    0  0.19993201191E+02 -0.28496481589E+02  0.11892165053E+02  0.36785882438E+02  0.51100000000E-03 0. -1.
        -11    1    3    3    0    0  0.28439834430E+01 -0.23416632774E+01  0.86203885757E+01  0.93745788271E+01  0.51100000000E-03 0.  1.
        -12    1    3    3    0    0 -0.23958396114E+02  0.30682425707E+02 -0.20178381582E+02  0.43847269869E+02  0.00000000000E+00 0.  1.
</event>
<event>
 7    1  0.1978681E-015  0.9000835E+02  0.7816164E-02  0.1186338E+00
        -11   -1    0    0    0    0  0.00000000000E+00  0.00000000000E+00  0.45593999997E+02  0.45594000000E+02  0.51100000000E-03 0. -1.
         11   -1    0    0    0    0 -0.00000000000E+00 -0.00000000000E+00 -0.45593999997E+02  0.45594000000E+02  0.51100000000E-03 0.  1.
    9900012    2    1    2    0    0  0.43089757569E+00 -0.95212601901E+00 -0.54712761266E+00  0.90008353739E+02  0.90000623206E+02 0.  0.
        -12    1    1    2    0    0 -0.43089757569E+00  0.95212601901E+00  0.54712761266E+00  0.11796462611E+01  0.00000000000E+00 0.  1.
         11    1    3    3    0    0 -0.10975627648E+02  0.46417730100E+01  0.29516647284E+02  0.31831476970E+02  0.51100000000E-03 0. -1.
        -11    1    3    3    0    0  0.90928058212E+01  0.19152877555E+02 -0.29684219383E+01  0.21408488163E+02  0.51100000000E-03 0.  1.
        -12    1    3    3    0    0  0.23137194023E+01 -0.24746776584E+02 -0.27095352958E+02  0.36768388606E+02  0.00000000000E+00 0.  1.
</event>
<event>
 7    1  0.1978681E-015  0.9000724E+02  0.7816164E-02  0.1186340E+00
        -11   -1    0    0    0    0  0.00000000000E+00  0.00000000000E+00  0.45593999997E+02  0.45594000000E+02  0.51100000000E-03 0.  1.
         11   -1    0    0    0    0 -0.00000000000E+00 -0.00000000000E+00 -0.45593999997E+02  0.45594000000E+02  0.51100000000E-03 0. -1.
    9900012    2    1    2    0    0 -0.18427449827E-01 -0.85567022859E+00 -0.81344211255E+00  0.90007237881E+02  0.89999492620E+02 0.  0.
        -12    1    1    2    0    0  0.18427449827E-01  0.85567022859E+00  0.81344211255E+00  0.11807621189E+01  0.00000000000E+00 0.  1.
         11    1    3    3    0    0 -0.37537906786E+02 -0.52131637244E+01  0.30090898544E+01  0.38017445258E+02  0.51100000000E-03 0. -1.
        -11    1    3    3    0    0 -0.67981290466E+01  0.30970446159E+01 -0.12994082372E+01  0.75825263544E+01  0.51100000000E-03 0.  1.
        -12    1    3    3    0    0  0.44317608383E+02  0.12604488799E+01 -0.25231237297E+01  0.44407266269E+02  0.00000000000E+00 0.  1.
</event>
<event>
 7    1  0.1978681E-015  0.9000771E+02  0.7816164E-02  0.1186339E+00
        -11   -1    0    0    0    0  0.00000000000E+00  0.00000000000E+00  0.45593999997E+02  0.45594000000E+02  0.51100000000E-03 0. -1.
         11   -1    0    0    0    0 -0.00000000000E+00 -0.00000000000E+00 -0.45593999997E+02  0.45594000000E+02  0.51100000000E-03 0.  1.
    9900012    2    1    2    0    0  0.36545099283E+00 -0.47557207087E+00  0.10165426734E+01  0.90007710955E+02  0.89999971940E+02 0.  0.
        -12    1    1    2    0    0 -0.36545099283E+00  0.47557207087E+00 -0.10165426734E+01  0.11802890449E+01  0.00000000000E+00 0.  1.
         11    1    3    3    0    0  0.79973929714E+01  0.34050217544E+01  0.41367928864E+01  0.96262933226E+01  0.51100000000E-03 0. -1.
        -11    1    3    3    0    0  0.23692980292E+02 -0.30726717422E+02 -0.47751631793E+01  0.39093358289E+02  0.51100000000E-03 0.  1.
         12    1    3    3    0    0 -0.31324922270E+02  0.26846123597E+02  0.16549129663E+01  0.41288059344E+02  0.00000000000E+00 0. -1.
</event>
<event>
 7    1  0.1978681E-015  0.9000770E+02  0.7816164E-02  0.1186339E+00
        -11   -1    0    0    0    0  0.00000000000E+00  0.00000000000E+00  0.45593999997E+02  0.45594000000E+02  0.51100000000E-03 0. -1.
         11   -1    0    0    0    0 -0.00000000000E+00 -0.00000000000E+00 -0.45593999997E+02  0.45594000000E+02  0.51100000000E-03 0.  1.
    9900012    2    1    2    0    0  0.19278881479E+00 -0.10995332088E+01  0.38335656701E+00  0.90007702130E+02  0.89999962998E+02 0.  0.
        -12    1    1    2    0    0 -0.19278881479E+00  0.10995332088E+01 -0.38335656701E+00  0.11802978699E+01  0.00000000000E+00 0.  1.
         11    1    3    3    0    0 -0.28066587774E+02 -0.15744850398E+02  0.25946261968E+02  0.41338144295E+02  0.51100000000E-03 0. -1.
        -11    1    3    3    0    0  0.88816421572E+01  0.65599455477E+01  0.45639730287E+01  0.11947648432E+02  0.51100000000E-03 0.  1.
        -12    1    3    3    0    0  0.19377734432E+02  0.80853716413E+01 -0.30126878430E+02  0.36721909403E+02  0.00000000000E+00 0.  1.
</event>
<event>
 7    1  0.1978681E-015  0.9000766E+02  0.7816164E-02  0.1186339E+00
        -11   -1    0    0    0    0  0.00000000000E+00  0.00000000000E+00  0.45593999997E+02  0.45594000000E+02  0.51100000000E-03 0. -1.
         11   -1    0    0    0    0 -0.00000000000E+00 -0.00000000000E+00 -0.45593999997E+02  0.45594000000E+02  0.51100000000E-03 0.  1.
    9900012    2    1    2    0    0 -0.10375872143E+01 -0.55530140724E+00 -0.90841272615E-01  0.90007661482E+02  0.89999921814E+02 0.  0.
        -12    1    1    2    0    0  0.10375872143E+01  0.55530140724E+00  0.90841272615E-01  0.11803385179E+01  0.00000000000E+00 0.  1.
         11    1    3    3    0    0  0.37733213510E+01  0.18800464663E+01 -0.95132478886E+01  0.10405499238E+02  0.51100000000E-03 0. -1.
        -11    1    3    3    0    0  0.23819714988E+02  0.25590341484E+02 -0.80791002866E+01  0.35881976828E+02  0.51100000000E-03 0.  1.
         12    1    3    3    0    0 -0.28630623553E+02 -0.28025689358E+02  0.17501506903E+02  0.43720185417E+02  0.00000000000E+00 0. -1.
</event>
<event>
 7    1  0.1978681E-015  0.9000756E+02  0.7816164E-02  0.1186339E+00
        -11   -1    0    0    0    0  0.00000000000E+00  0.00000000000E+00  0.45593999997E+02  0.45594000000E+02  0.51100000000E-03 0. -1.
         11   -1    0    0    0    0 -0.00000000000E+00 -0.00000000000E+00 -0.45593999997E+02  0.45594000000E+02  0.51100000000E-03 0.  1.
    9900012    2    1    2    0    0  0.10777078395E+00 -0.11271700000E+01 -0.33364301313E+00  0.90007557536E+02  0.89999816495E+02 0.  0.
        -12    1    1    2    0    0 -0.10777078395E+00  0.11271700000E+01  0.33364301313E+00  0.11804424641E+01  0.00000000000E+00 0.  1.
         11    1    3    3    0    0 -0.26529764821E+02  0.26555260638E+02 -0.23117765960E+02  0.44084480174E+02  0.51100000000E-03 0. -1.
        -11    1    3    3    0    0  0.13827392763E+02 -0.73141253561E+01  0.11055119923E+02  0.19154866147E+02  0.51100000000E-03 0.  1.
        -12    1    3    3    0    0  0.12810142842E+02 -0.20368305282E+02  0.11729003024E+02  0.26768211215E+02  0.00000000000E+00 0.  1.
</event>
<event>
 7    1  0.1978681E-015  0.9000783E+02  0.7816164E-02  0.1186339E+00
        -11   -1    0    0    0    0  0.00000000000E+00  0.00000000000E+00  0.45593999997E+02  0.45594000000E+02  0.51100000000E-03 0. -1.
         11   -1    0    0    0    0 -0.00000000000E+00 -0.00000000000E+00 -0.45593999997E+02  0.45594000000E+02  0.51100000000E-03 0.  1.
    9900012    2    1    2    0    0 -0.45597429760E+00 -0.10650929002E+01  0.22465959454E+00  0.90007827394E+02  0.90000089916E+02 0.  0.
        -12    1    1    2    0    0  0.45597429760E+00  0.10650929002E+01 -0.22465959454E+00  0.11801726059E+01  0.00000000000E+00 0.  1.
         11    1    3    3    0    0  0.32645459016E+02  0.84985910175E+01  0.10185015959E+02  0.35237573611E+02  0.51100000000E-03 0. -1.
        -11    1    3    3    0    0  0.40606046826E+01  0.80156866821E+01  0.58528359001E+01  0.10723592295E+02  0.51100000000E-03 0.  1.
        -12    1    3    3    0    0 -0.37162037996E+02 -0.17579370600E+02 -0.15813192264E+02  0.44046661488E+02  0.00000000000E+00 0.  1.
</event>
<event>
 7    1  0.1978681E-015  0.9000775E+02  0.7816164E-02  0.1186339E+00
        -11   -1    0    0    0    0  0.00000000000E+00  0.00000000000E+00  0.45593999997E+02  0.45594000000E+02  0.51100000000E-03 0.  1.
         11   -1    0    0    0    0 -0.00000000000E+00 -0.00000000000E+00 -0.45593999997E+02  0.45594000000E+02  0.51100000000E-03 0. -1.
    9900012    2    1    2    0    0  0.38671728650E+00  0.56868849976E+00 -0.95918294149E+00  0.90007750541E+02  0.90000012048E+02 0.  0.
        -12    1    1    2    0    0 -0.38671728650E+00 -0.56868849976E+00  0.95918294149E+00  0.11802494587E+01  0.00000000000E+00 0.  1.
         11    1    3    3    0    0  0.10199483775E+01 -0.14292183650E+02 -0.23534938288E+02  0.27553586494E+02  0.51100000000E-03 0. -1.
        -11    1    3    3    0    0 -0.61623005308E+01 -0.20378765054E+02  0.14846896451E+02  0.25955699711E+02  0.51100000000E-03 0.  1.
        -12    1    3    3    0    0  0.55290694398E+01  0.35239637204E+02  0.77288588956E+01  0.36498464337E+02  0.00000000000E+00 0.  1.
</event>
<event>
 7    1  0.1978681E-015  0.9000764E+02  0.7816164E-02  0.1186339E+00
        -11   -1    0    0    0    0  0.00000000000E+00  0.00000000000E+00  0.45593999997E+02  0.45594000000E+02  0.51100000000E-03 0.  1.
         11   -1    0    0    0    0 -0.00000000000E+00 -0.00000000000E+00 -0.45593999997E+02  0.45594000000E+02  0.51100000000E-03 0. -1.
    9900012    2    1    2    0    0 -0.72508324575E-01 -0.11314005279E+01  0.32852546746E+00  0.90007638363E+02  0.89999898389E+02 0.  0.
        -12    1    1    2    0    0  0.72508324575E-01  0.11314005279E+01 -0.32852546746E+00  0.11803616371E+01  0.00000000000E+00 0.  1.
         11    1    3    3    0    0  0.17769587504E+02  0.33957542110E+01  0.39999329359E+02  0.43900293122E+02  0.51100000000E-03 0. -1.
        -11    1    3    3    0    0 -0.14251530758E+01  0.42328822772E+01 -0.46353576764E+01  0.64369942296E+01  0.51100000000E-03 0.  1.
        -12    1    3    3    0    0 -0.16416942752E+02 -0.87600370162E+01 -0.35035446216E+02  0.39670351012E+02  0.00000000000E+00 0.  1.
</event>
<event>
 7    1  0.1978681E-015  0.9000772E+02  0.7816164E-02  0.1186339E+00
        -11   -1    0    0    0    0  0.00000000000E+00  0.00000000000E+00  0.45593999997E+02  0.45594000000E+02  0.51100000000E-03 0. -1.
         11   -1    0    0    0    0 -0.00000000000E+00 -0.00000000000E+00 -0.45593999997E+02  0.45594000000E+02  0.51100000000E-03 0.  1.
    9900012    2    1    2    0    0  0.18681389796E-03 -0.84881498770E+00  0.82010305234E+00  0.90007722094E+02  0.89999983226E+02 0.  0.
        -12    1    1    2    0    0 -0.18681389796E-03  0.84881498770E+00 -0.82010305234E+00  0.11802779057E+01  0.00000000000E+00 0.  1.
         11    1    3    3    0    0  0.17638973019E+02  0.29068391238E+02  0.23843427031E+02  0.41528469165E+02  0.51100000000E-03 0. -1.
        -11    1    3    3    0    0 -0.79265806409E+01 -0.11959264409E+01  0.29643550815E+01  0.85468311098E+01  0.51100000000E-03 0.  1.
        -12    1    3    3    0    0 -0.97122055645E+01 -0.28721279785E+02 -0.25987679060E+02  0.39932421819E+02  0.00000000000E+00 0.  1.
</event>
<event>
 7    1  0.1978681E-015  0.9000773E+02  0.7816164E-02  0.1186339E+00
        -11   -1    0    0    0    0  0.00000000000E+00  0.00000000000E+00  0.45593999997E+02  0.45594000000E+02  0.51100000000E-03 0.  1.
         11   -1    0    0    0    0 -0.00000000000E+00 -0.00000000000E+00 -0.45593999997E+02  0.45594000000E+02  0.51100000000E-03 0. -1.
    9900012    2    1    2    0    0  0.99709374369E+00  0.55858927511E+00  0.29463986763E+00  0.90007732842E+02  0.89999994116E+02 0.  0.
        -12    1    1    2    0    0 -0.99709374369E+00 -0.55858927511E+00 -0.29463986763E+00  0.11802671577E+01  0.00000000000E+00 0.  1.
         11    1    3    3    0    0  0.32494066440E+02 -0.16778068720E+02 -0.13790078742E+02  0.39083682219E+02  0.51100000000E-03 0. -1.
        -11    1    3    3    0    0  0.26348879570E+01 -0.41380018092E+01  0.90386037385E+01  0.10284067839E+02  0.51100000000E-03 0.  1.
        -12    1    3    3    0    0 -0.34131860654E+02  0.21474659804E+02  0.50461148714E+01  0.40639982784E+02  0.00000000000E+00 0.  1.
</event>
<event>
 7    1  0.1978681E-015  0.9000763E+02  0.7816164E-02  0.1186339E+00
        -11   -1    0    0    0    0  0.00000000000E+00  0.00000000000E+00  0.45593999997E+02  0.45594000000E+02  0.51100000000E-03 0.  1.
         11   -1    0    0    0    0 -0.00000000000E+00 -0.00000000000E+00 -0.45593999997E+02  0.45594000000E+02  0.51100000000E-03 0. -1.
    9900012    2    1    2    0    0 -0.10806808464E+00 -0.11012472043E+01  0.41090996496E+00  0.90007630941E+02  0.89999890869E+02 0.  0.
        -12    1    1    2    0    0  0.10806808464E+00  0.11012472043E+01 -0.41090996496E+00  0.11803690589E+01  0.00000000000E+00 0.  1.
         11    1    3    3    0    0 -0.36240779904E+02  0.14417610994E+02  0.47285243338E+01  0.39288937088E+02  0.51100000000E-03 0. -1.
        -11    1    3    3    0    0  0.18222325330E+01  0.56343716969E+01  0.66911220232E+01  0.89351994949E+01  0.51100000000E-03 0.  1.
        -12    1    3    3    0    0  0.34310479286E+02 -0.21153229896E+02 -0.11008736392E+02  0.41783494359E+02  0.00000000000E+00 0.  1.
</event>
<event>
 7    1  0.1978681E-015  0.9000775E+02  0.7816164E-02  0.1186339E+00
        -11   -1    0    0    0    0  0.00000000000E+00  0.00000000000E+00  0.45593999997E+02  0.45594000000E+02  0.51100000000E-03 0.  1.
         11   -1    0    0    0    0 -0.00000000000E+00 -0.00000000000E+00 -0.45593999997E+02  0.45594000000E+02  0.51100000000E-03 0. -1.
    9900012    2    1    2    0    0 -0.43580053889E-01 -0.41080232440E+00 -0.11055874641E+01  0.90007753665E+02  0.90000015213E+02 0.  0.
        -12    1    1    2    0    0  0.43580053889E-01  0.41080232440E+00  0.11055874641E+01  0.11802463351E+01  0.00000000000E+00 0.  1.
         11    1    3    3    0    0  0.35616042016E+01  0.82961945163E+01 -0.33778709378E+01  0.96395995910E+01  0.51100000000E-03 0. -1.
        -11    1    3    3    0    0  0.23483517980E+02 -0.29295738699E+02 -0.17053810467E+02  0.41237705736E+02  0.51100000000E-03 0.  1.
         12    1    3    3    0    0 -0.27088702235E+02  0.20588741859E+02  0.19326093941E+02  0.39130448338E+02  0.00000000000E+00 0. -1.
</event>
<event>
 7    1  0.1978681E-015  0.9000764E+02  0.7816164E-02  0.1186339E+00
        -11   -1    0    0    0    0  0.00000000000E+00  0.00000000000E+00  0.45593999997E+02  0.45594000000E+02  0.51100000000E-03 0. -1.
         11   -1    0    0    0    0 -0.00000000000E+00 -0.00000000000E+00 -0.45593999997E+02  0.45594000000E+02  0.51100000000E-03 0.  1.
    9900012    2    1    2    0    0 -0.58588793930E+00  0.10097133604E+01 -0.17456485772E+00  0.90007636227E+02  0.89999896225E+02 0.  0.
        -12    1    1    2    0    0  0.58588793930E+00 -0.10097133604E+01  0.17456485772E+00  0.11803637732E+01  0.00000000000E+00 0.  1.
         11    1    3    3    0    0 -0.19448821928E+02 -0.63093650002E+01  0.31157547913E+02  0.37267379212E+02  0.51100000000E-03 0. -1.
        -11    1    3    3    0    0  0.31956118346E+01 -0.45230284348E+01  0.74417799797E+01  0.92763037222E+01  0.51100000000E-03 0.  1.
        -12    1    3    3    0    0  0.15667322154E+02  0.11842106795E+02 -0.38773892750E+02  0.43463953293E+02  0.00000000000E+00 0.  1.
</event>
<event>
 7    1  0.1978681E-015  0.9000785E+02  0.7816164E-02  0.1186339E+00
        -11   -1    0    0    0    0  0.00000000000E+00  0.00000000000E+00  0.45593999997E+02  0.45594000000E+02  0.51100000000E-03 0. -1.
         11   -1    0    0    0    0 -0.00000000000E+00 -0.00000000000E+00 -0.45593999997E+02  0.45594000000E+02  0.51100000000E-03 0.  1.
    9900012    2    1    2    0    0 -0.95396730080E+00  0.14287652279E+00  0.67992174861E+00  0.90007847088E+02  0.90000109869E+02 0.  0.
        -12    1    1    2    0    0  0.95396730080E+00 -0.14287652279E+00 -0.67992174861E+00  0.11801529121E+01  0.00000000000E+00 0.  1.
         11    1    3    3    0    0  0.53726209355E+01 -0.30117264308E+02  0.21561429481E+02  0.37427395136E+02  0.51100000000E-03 0. -1.
        -11    1    3    3    0    0 -0.95107819409E+01  0.12947682445E+02  0.86158935430E+01  0.18229949962E+02  0.51100000000E-03 0.  1.
        -12    1    3    3    0    0  0.31841937046E+01  0.17312458386E+02 -0.29497401276E+02  0.34350501990E+02  0.00000000000E+00 0.  1.
</event>
<event>
 7    1  0.1978681E-015  0.9000784E+02  0.7816164E-02  0.1186339E+00
        -11   -1    0    0    0    0  0.00000000000E+00  0.00000000000E+00  0.45593999997E+02  0.45594000000E+02  0.51100000000E-03 0.  1.
         11   -1    0    0    0    0 -0.00000000000E+00 -0.00000000000E+00 -0.45593999997E+02  0.45594000000E+02  0.51100000000E-03 0. -1.
    9900012    2    1    2    0    0  0.67086344381E+00 -0.36233020941E+00 -0.90080422288E+00  0.90007835101E+02  0.90000097724E+02 0.  0.
        -12    1    1    2    0    0 -0.67086344381E+00  0.36233020941E+00  0.90080422288E+00  0.11801648990E+01  0.00000000000E+00 0.  1.
         11    1    3    3    0    0 -0.15136441289E+02 -0.18539422399E+02 -0.35511883777E+02  0.42824244622E+02  0.51100000000E-03 0. -1.
        -11    1    3    3    0    0  0.54778657509E+01  0.64645992401E+01 -0.77100898442E+00  0.85083789076E+01  0.51100000000E-03 0.  1.
        -12    1    3    3    0    0  0.10329438982E+02  0.11712492949E+02  0.35382088538E+02  0.38675211572E+02  0.00000000000E+00 0.  1.
</event>
<event>
 7    1  0.1978681E-015  0.9000768E+02  0.7816164E-02  0.1186339E+00
        -11   -1    0    0    0    0  0.00000000000E+00  0.00000000000E+00  0.45593999997E+02  0.45594000000E+02  0.51100000000E-03 0. -1.
         11   -1    0    0    0    0 -0.00000000000E+00 -0.00000000000E+00 -0.45593999997E+02  0.45594000000E+02  0.51100000000E-03 0.  1.
    9900012    2    1    2    0    0 -0.11426478814E+01  0.29014821241E+00 -0.57576504034E-01  0.90007684271E+02  0.89999944904E+02 0.  0.
        -12    1    1    2    0    0  0.11426478814E+01 -0.29014821241E+00  0.57576504034E-01  0.11803157289E+01  0.00000000000E+00 0.  1.
         11    1    3    3    0    0  0.58749911727E+01 -0.38304055271E+02 -0.14827519403E+02  0.41491824537E+02  0.51100000000E-03 0. -1.
        -11    1    3    3    0    0 -0.99996787106E+01  0.36167750457E+01  0.57190871711E+00  0.10649024175E+02  0.51100000000E-03 0.  1.
        -12    1    3    3    0    0  0.29820396566E+01  0.34977428438E+02  0.14198034182E+02  0.37866835559E+02  0.00000000000E+00 0.  1.
</event>
<event>
 7    1  0.1978681E-015  0.9000768E+02  0.7816164E-02  0.1186339E+00
        -11   -1    0    0    0    0  0.00000000000E+00  0.00000000000E+00  0.45593999997E+02  0.45594000000E+02  0.51100000000E-03 0. -1.
         11   -1    0    0    0    0 -0.00000000000E+00 -0.00000000000E+00 -0.45593999997E+02  0.45594000000E+02  0.51100000000E-03 0.  1.
    9900012    2    1    2    0    0 -0.20194083024E+00 -0.65605740556E+00  0.96018636429E+00  0.90007682554E+02  0.89999943164E+02 0.  0.
        -12    1    1    2    0    0  0.20194083024E+00  0.65605740556E+00 -0.96018636429E+00  0.11803174456E+01  0.00000000000E+00 0.  1.
         11    1    3    3    0    0 -0.32638492383E+02  0.95536239691E+01 -0.10718547155E+02  0.35657119477E+02  0.51100000000E-03 0. -1.
        -11    1    3    3    0    0 -0.64881414891E+01  0.78236553488E+01  0.16831825194E+01  0.10302362188E+02  0.51100000000E-03 0.  1.
        -12    1    3    3    0    0  0.38924693042E+02 -0.18033336723E+02  0.99955509996E+01  0.44048200890E+02  0.00000000000E+00 0.  1.
</event>
<event>
 7    1  0.1978681E-015  0.9000775E+02  0.7816164E-02  0.1186339E+00
        -11   -1    0    0    0    0  0.00000000000E+00  0.00000000000E+00  0.45593999997E+02  0.45594000000E+02  0.51100000000E-03 0. -1.
         11   -1    0    0    0    0 -0.00000000000E+00 -0.00000000000E+00 -0.45593999997E+02  0.45594000000E+02  0.51100000000E-03 0.  1.
    9900012    2    1    2    0    0 -0.77437331149E-02  0.92022333369E+00  0.73899522344E+00  0.90007752191E+02  0.90000013720E+02 0.  0.
        -12    1    1    2    0    0  0.77437331149E-02 -0.92022333369E+00 -0.73899522344E+00  0.11802478085E+01  0.00000000000E+00 0.  1.
         11    1    3    3    0    0  0.25436413118E+01 -0.12677578605E+02  0.48848319303E+01  0.13822181219E+02  0.51100000000E-03 0. -1.
        -11    1    3    3    0    0  0.29841108341E+02 -0.13756961017E+02  0.37033644081E+01  0.33067516260E+02  0.51100000000E-03 0.  1.
         12    1    3    3    0    0 -0.32392493386E+02  0.27354762955E+02 -0.78492011150E+01  0.43118054713E+02  0.00000000000E+00 0. -1.
</event>
<event>
 7    1  0.1978681E-015  0.9000781E+02  0.7816164E-02  0.1186339E+00
        -11   -1    0    0    0    0  0.00000000000E+00  0.00000000000E+00  0.45593999997E+02  0.45594000000E+02  0.51100000000E-03 0.  1.
         11   -1    0    0    0    0 -0.00000000000E+00 -0.00000000000E+00 -0.45593999997E+02  0.45594000000E+02  0.51100000000E-03 0. -1.
    9900012    2    1    2    0    0 -0.60341053090E+00 -0.99191734528E+00  0.21176539828E+00  0.90007809815E+02  0.90000072105E+02 0.  0.
        -12    1    1    2    0    0  0.60341053090E+00  0.99191734528E+00 -0.21176539828E+00  0.11801901849E+01  0.00000000000E+00 0.  1.
         11    1    3    3    0    0  0.15373746065E+01  0.60581999030E+01 -0.76159304529E+01  0.98522943353E+01  0.51100000000E-03 0. -1.
        -11    1    3    3    0    0 -0.28353784620E+02  0.22585396163E+01  0.32347693486E+02  0.43074486388E+02  0.51100000000E-03 0.  1.
         12    1    3    3    0    0  0.26212999483E+02 -0.93086568646E+01 -0.24519997635E+02  0.37081029092E+02  0.00000000000E+00 0. -1.
</event>
<event>
 7    1  0.1978681E-015  0.9000769E+02  0.7816164E-02  0.1186339E+00
        -11   -1    0    0    0    0  0.00000000000E+00  0.00000000000E+00  0.45593999997E+02  0.45594000000E+02  0.51100000000E-03 0. -1.
         11   -1    0    0    0    0 -0.00000000000E+00 -0.00000000000E+00 -0.45593999997E+02  0.45594000000E+02  0.51100000000E-03 0.  1.
    9900012    2    1    2    0    0 -0.53010173175E+00 -0.10441715237E+01  0.14772682813E+00  0.90007692738E+02  0.89999953482E+02 0.  0.
        -12    1    1    2    0    0  0.53010173175E+00  0.10441715237E+01 -0.14772682813E+00  0.11803072620E+01  0.00000000000E+00 0.  1.
         11    1    3    3    0    0 -0.37323264152E+02  0.91509741654E+01  0.15771991174E+01  0.38461070350E+02  0.51100000000E-03 0. -1.
        -11    1    3    3    0    0 -0.10006543132E+01  0.68068885170E+01 -0.69013249132E+01  0.97449128347E+01  0.51100000000E-03 0.  1.
        -12    1    3    3    0    0  0.37793816734E+02 -0.17002034206E+02  0.54718526239E+01  0.41801709553E+02  0.00000000000E+00 0.  1.
</event>
<event>
 7    1  0.1978681E-015  0.9000769E+02  0.7816164E-02  0.1186339E+00
        -11   -1    0    0    0    0  0.00000000000E+00  0.00000000000E+00  0.45593999997E+02  0.45594000000E+02  0.51100000000E-03 0. -1.
         11   -1    0    0    0    0 -0.00000000000E+00 -0.00000000000E+00 -0.45593999997E+02  0.45594000000E+02  0.51100000000E-03 0.  1.
    9900012    2    1    2    0    0  0.71232874844E+00 -0.44252309303E+00  0.83060006504E+00  0.90007688430E+02  0.89999949117E+02 0.  0.
        -12    1    1    2    0    0 -0.71232874844E+00  0.44252309303E+00 -0.83060006504E+00  0.11803115698E+01  0.00000000000E+00 0.  1.
         11    1    3    3    0    0 -0.94716882135E+01  0.53501269745E+01 -0.52684630939E+01  0.12086911925E+02  0.51100000000E-03 0. -1.
        -11    1    3    3    0    0  0.13149241605E+02  0.15886261533E+02 -0.29584599446E+02  0.36062783932E+02  0.51100000000E-03 0.  1.
         12    1    3    3    0    0 -0.29652246435E+01 -0.21678911600E+02  0.35683662605E+02  0.41857992573E+02  0.00000000000E+00 0. -1.
</event>
<event>
 7    1  0.1978681E-015  0.9000846E+02  0.7816164E-02  0.1186338E+00
        -11   -1    0    0    0    0  0.00000000000E+00  0.00000000000E+00  0.45593999997E+02  0.45594000000E+02  0.51100000000E-03 0.  1.
         11   -1    0    0    0    0 -0.00000000000E+00 -0.00000000000E+00 -0.45593999997E+02  0.45594000000E+02  0.51100000000E-03 0. -1.
    9900012    2    1    2    0    0  0.55745454641E+00  0.93968649078E+00 -0.44445220041E+00  0.90008464485E+02  0.90000735413E+02 0.  0.
        -12    1    1    2    0    0 -0.55745454641E+00 -0.93968649078E+00  0.44445220041E+00  0.11795355148E+01  0.00000000000E+00 0.  1.
         11    1    3    3    0    0 -0.99477732410E+01 -0.34317733695E+02  0.14690580206E+02  0.38632605212E+02  0.51100000000E-03 0. -1.
        -11    1    3    3    0    0  0.90490873789E+00 -0.50984052929E+01 -0.76288261528E+01  0.92201727254E+01  0.51100000000E-03 0.  1.
        -12    1    3    3    0    0  0.96003190495E+01  0.40355825479E+02 -0.75062062540E+01  0.42155686547E+02  0.00000000000E+00 0.  1.
</event>
<event>
 7    1  0.1978681E-015  0.9000765E+02  0.7816164E-02  0.1186339E+00
        -11   -1    0    0    0    0  0.00000000000E+00  0.00000000000E+00  0.45593999997E+02  0.45594000000E+02  0.51100000000E-03 0.  1.
         11   -1    0    0    0    0 -0.00000000000E+00 -0.00000000000E+00 -0.45593999997E+02  0.45594000000E+02  0.51100000000E-03 0. -1.
    9900012    2    1    2    0    0 -0.10014316217E+01 -0.56610417884E+00 -0.26436003210E+00  0.90007650280E+02  0.89999910464E+02 0.  0.
        -12    1    1    2    0    0  0.10014316217E+01  0.56610417884E+00  0.26436003210E+00  0.11803497197E+01  0.00000000000E+00 0.  1.
         11    1    3    3    0    0  0.11756927137E+02  0.66686748746E+01 -0.13693236595E+01  0.13585713372E+02  0.51100000000E-03 0. -1.
        -11    1    3    3    0    0 -0.18010277868E+02  0.26543095423E+02  0.19564686860E+02  0.37572370111E+02  0.51100000000E-03 0.  1.
         12    1    3    3    0    0  0.52519191093E+01 -0.33777874477E+02 -0.18459723233E+02  0.38849566797E+02  0.00000000000E+00 0. -1.
</event>
<event>
 7    1  0.1978681E-015  0.9000784E+02  0.7816164E-02  0.1186339E+00
        -11   -1    0    0    0    0  0.00000000000E+00  0.00000000000E+00  0.45593999997E+02  0.45594000000E+02  0.51100000000E-03 0. -1.
         11   -1    0    0    0    0 -0.00000000000E+00 -0.00000000000E+00 -0.45593999997E+02  0.45594000000E+02  0.51100000000E-03 0.  1.
    9900012    2    1    2    0    0 -0.48209866198E+00 -0.32044529065E+00  0.10284347281E+01  0.90007838022E+02  0.90000100684E+02 0.  0.
        -12    1    1    2    0    0  0.48209866198E+00  0.32044529065E+00 -0.10284347281E+01  0.11801619779E+01  0.00000000000E+00 0.  1.
         11    1    3    3    0    0  0.37312299124E+01  0.34675911101E+02 -0.68888867893E+01  0.35549931769E+02  0.51100000000E-03 0. -1.
        -11    1    3    3    0    0  0.39975118772E+01  0.85476060656E+01  0.28532976339E+01  0.98581427414E+01  0.51100000000E-03 0.  1.
        -12    1    3    3    0    0 -0.82108404516E+01 -0.43543962457E+02  0.50640238834E+01  0.44599763512E+02  0.00000000000E+00 0.  1.
</event>
<event>
 7    1  0.1978681E-015  0.9000774E+02  0.7816164E-02  0.1186339E+00
        -11   -1    0    0    0    0  0.00000000000E+00  0.00000000000E+00  0.45593999997E+02  0.45594000000E+02  0.51100000000E-03 0. -1.
         11   -1    0    0    0    0 -0.00000000000E+00 -0.00000000000E+00 -0.45593999997E+02  0.45594000000E+02  0.51100000000E-03 0.  1.
    9900012    2    1    2    0    0 -0.11536061669E+01  0.68244914855E-01 -0.23987964087E+00  0.90007742910E+02  0.90000004316E+02 0.  0.
        -12    1    1    2    0    0  0.11536061669E+01 -0.68244914855E-01  0.23987964087E+00  0.11802570901E+01  0.00000000000E+00 0.  1.
         11    1    3    3    0    0 -0.10617442956E+02  0.10110611174E+02 -0.47229761337E+00  0.14668933790E+02  0.51100000000E-03 0. -1.
        -11    1    3    3    0    0 -0.74244336596E+01 -0.64838299061E+01 -0.34862706660E+02  0.36229415968E+02  0.51100000000E-03 0.  1.
         12    1    3    3    0    0  0.16888270449E+02 -0.35585363527E+01  0.35095124633E+02  0.39109393152E+02  0.00000000000E+00 0. -1.
</event>
<event>
 7    1  0.1978681E-015  0.9000774E+02  0.7816164E-02  0.1186339E+00
        -11   -1    0    0    0    0  0.00000000000E+00  0.00000000000E+00  0.45593999997E+02  0.45594000000E+02  0.51100000000E-03 0. -1.
         11   -1    0    0    0    0 -0.00000000000E+00 -0.00000000000E+00 -0.45593999997E+02  0.45594000000E+02  0.51100000000E-03 0.  1.
    9900012    2    1    2    0    0  0.11492886327E+01 -0.20686134299E+00 -0.17136943900E+00  0.90007735851E+02  0.89999997164E+02 0.  0.
        -12    1    1    2    0    0 -0.11492886327E+01  0.20686134299E+00  0.17136943900E+00  0.11802641489E+01  0.00000000000E+00 0.  1.
         11    1    3    3    0    0 -0.12799220643E+02 -0.28572491976E+02 -0.23519573154E+02  0.39158366518E+02  0.51100000000E-03 0. -1.
        -11    1    3    3    0    0 -0.17080756499E+01 -0.27218379241E+01  0.14613569047E+02  0.14962697774E+02  0.51100000000E-03 0.  1.
        -12    1    3    3    0    0  0.15656584926E+02  0.31087468557E+02  0.87346346678E+01  0.35886671559E+02  0.00000000000E+00 0.  1.
</event>
<event>
 7    1  0.1978681E-015  0.9000776E+02  0.7816164E-02  0.1186339E+00
        -11   -1    0    0    0    0  0.00000000000E+00  0.00000000000E+00  0.45593999997E+02  0.45594000000E+02  0.51100000000E-03 0. -1.
         11   -1    0    0    0    0 -0.00000000000E+00 -0.00000000000E+00 -0.45593999997E+02  0.45594000000E+02  0.51100000000E-03 0.  1.
    9900012    2    1    2    0    0 -0.81250811432E+00  0.35782645468E+00  0.77766104927E+00  0.90007760230E+02  0.90000021865E+02 0.  0.
        -12    1    1    2    0    0  0.81250811432E+00 -0.35782645468E+00 -0.77766104927E+00  0.11802397702E+01  0.00000000000E+00 0.  1.
         11    1    3    3    0    0  0.80378003077E+01 -0.42703954427E+01  0.36780062770E+02  0.37889517398E+02  0.51100000000E-03 0. -1.
        -11    1    3    3    0    0 -0.85566963806E+01 -0.63533999562E+01  0.34207945993E+01  0.11193059452E+02  0.51100000000E-03 0.  1.
        -12    1    3    3    0    0 -0.29361204142E+00  0.10981621854E+02 -0.39423196320E+02  0.40925183380E+02  0.00000000000E+00 0.  1.
</event>
<event>
 7    1  0.1978681E-015  0.9000775E+02  0.7816164E-02  0.1186339E+00
        -11   -1    0    0    0    0  0.00000000000E+00  0.00000000000E+00  0.45593999997E+02  0.45594000000E+02  0.51100000000E-03 0.  1.
         11   -1    0    0    0    0 -0.00000000000E+00 -0.00000000000E+00 -0.45593999997E+02  0.45594000000E+02  0.51100000000E-03 0. -1.
    9900012    2    1    2    0    0 -0.19970145894E-01 -0.10839685374E+01 -0.46646890011E+00  0.90007754334E+02  0.90000015891E+02 0.  0.
        -12    1    1    2    0    0  0.19970145894E-01  0.10839685374E+01  0.46646890011E+00  0.11802456657E+01  0.00000000000E+00 0.  1.
         11    1    3    3    0    0 -0.99051367986E+01  0.44389087917E+01 -0.32577274938E+02  0.34337945321E+02  0.51100000000E-03 0. -1.
        -11    1    3    3    0    0 -0.19734142473E+01 -0.77513194802E+01 -0.94571114129E+01  0.12386051591E+02  0.51100000000E-03 0.  1.
        -12    1    3    3    0    0  0.11858580900E+02  0.22284421511E+01  0.41567917451E+02  0.43283757422E+02  0.00000000000E+00 0.  1.
</event>
<event>
 7    1  0.1978681E-015  0.9000776E+02  0.7816164E-02  0.1186339E+00
        -11   -1    0    0    0    0  0.00000000000E+00  0.00000000000E+00  0.45593999997E+02  0.45594000000E+02  0.51100000000E-03 0.  1.
         11   -1    0    0    0    0 -0.00000000000E+00 -0.00000000000E+00 -0.45593999997E+02  0.45594000000E+02  0.51100000000E-03 0. -1.
    9900012    2    1    2    0    0 -0.62927638688E+00 -0.40211480152E+00 -0.91394154297E+00  0.90007756708E+02  0.90000018296E+02 0.  0.
        -12    1    1    2    0    0  0.62927638688E+00  0.40211480152E+00  0.91394154297E+00  0.11802432921E+01  0.00000000000E+00 0.  1.
         11    1    3    3    0    0 -0.25756314703E+02  0.24381704652E+02  0.55762629899E+01  0.35901949502E+02  0.51100000000E-03 0. -1.
        -11    1    3    3    0    0 -0.47923666524E+00  0.91962910070E+01 -0.69797715772E+01  0.11555026941E+02  0.51100000000E-03 0.  1.
        -12    1    3    3    0    0  0.25606274981E+02 -0.33980110461E+02  0.48956704431E+00  0.42550780266E+02  0.00000000000E+00 0.  1.
</event>
<event>
 7    1  0.1978681E-015  0.9000785E+02  0.7816164E-02  0.1186339E+00
        -11   -1    0    0    0    0  0.00000000000E+00  0.00000000000E+00  0.45593999997E+02  0.45594000000E+02  0.51100000000E-03 0.  1.
         11   -1    0    0    0    0 -0.00000000000E+00 -0.00000000000E+00 -0.45593999997E+02  0.45594000000E+02  0.51100000000E-03 0. -1.
    9900012    2    1    2    0    0 -0.60603548706E+00 -0.59676675347E+00 -0.81813576442E+00  0.90007849290E+02  0.90000112100E+02 0.  0.
        -12    1    1    2    0    0  0.60603548706E+00  0.59676675347E+00  0.81813576442E+00  0.11801507101E+01  0.00000000000E+00 0.  1.
         11    1    3    3    0    0 -0.14673553863E+02 -0.56942746693E+01 -0.32821414671E+02  0.36400318793E+02  0.51100000000E-03 0. -1.
        -11    1    3    3    0    0  0.34858105327E+01 -0.10598802343E+02 -0.48584449113E+01  0.12169222382E+02  0.51100000000E-03 0.  1.
        -12    1    3    3    0    0  0.10581707843E+02  0.15696310259E+02  0.36861723817E+02  0.41438308115E+02  0.00000000000E+00 0.  1.
</event>
<event>
 7    1  0.1978681E-015  0.9000762E+02  0.7816164E-02  0.1186339E+00
        -11   -1    0    0    0    0  0.00000000000E+00  0.00000000000E+00  0.45593999997E+02  0.45594000000E+02  0.51100000000E-03 0.  1.
         11   -1    0    0    0    0 -0.00000000000E+00 -0.00000000000E+00 -0.45593999997E+02  0.45594000000E+02  0.51100000000E-03 0. -1.
    9900012    2    1    2    0    0  0.11168574475E+01 -0.37904585744E+00 -0.47511551683E-01  0.90007617152E+02  0.89999876898E+02 0.  0.
        -12    1    1    2    0    0 -0.11168574475E+01  0.37904585744E+00  0.47511551683E-01  0.11803828479E+01  0.00000000000E+00 0.  1.
         11    1    3    3    0    0  0.23505991291E+02  0.14041654134E+02 -0.22854335729E+02  0.35665394141E+02  0.51100000000E-03 0. -1.
        -11    1    3    3    0    0  0.34682786658E+01  0.48055665776E+00 -0.96408690895E+01  0.10257009733E+02  0.51100000000E-03 0.  1.
        -12    1    3    3    0    0 -0.25857412509E+02 -0.14901256649E+02  0.32447693267E+02  0.44085213278E+02  0.00000000000E+00 0.  1.
</event>
<event>
 7    1  0.1978681E-015  0.9000773E+02  0.7816164E-02  0.1186339E+00
        -11   -1    0    0    0    0  0.00000000000E+00  0.00000000000E+00  0.45593999997E+02  0.45594000000E+02  0.51100000000E-03 0. -1.
         11   -1    0    0    0    0 -0.00000000000E+00 -0.00000000000E+00 -0.45593999997E+02  0.45594000000E+02  0.51100000000E-03 0.  1.
    9900012    2    1    2    0    0  0.93061877985E+00 -0.53920059989E+00  0.48606040992E+00  0.90007727437E+02  0.89999988639E+02 0.  0.
        -12    1    1    2    0    0 -0.93061877985E+00  0.53920059989E+00 -0.48606040992E+00  0.11802725628E+01  0.00000000000E+00 0.  1.
         11    1    3    3    0    0 -0.26122257669E+01  0.83253074327E+01  0.65176348093E+01  0.10891006890E+02  0.51100000000E-03 0. -1.
        -11    1    3    3    0    0  0.13427409212E+02 -0.13030651360E+02  0.33382764189E+02  0.38268814173E+02  0.51100000000E-03 0.  1.
         12    1    3    3    0    0 -0.98845646648E+01  0.41661433278E+01 -0.39414338588E+02  0.40847906375E+02  0.00000000000E+00 0. -1.
</event>
<event>
 7    1  0.1978681E-015  0.9000776E+02  0.7816164E-02  0.1186339E+00
        -11   -1    0    0    0    0  0.00000000000E+00  0.00000000000E+00  0.45593999997E+02  0.45594000000E+02  0.51100000000E-03 0.  1.
         11   -1    0    0    0    0 -0.00000000000E+00 -0.00000000000E+00 -0.45593999997E+02  0.45594000000E+02  0.51100000000E-03 0. -1.
    9900012    2    1    2    0    0 -0.51696488331E+00 -0.10596409886E+01 -0.53664628077E-01  0.90007757818E+02  0.90000019421E+02 0.  0.
        -12    1    1    2    0    0  0.51696488331E+00  0.10596409886E+01  0.53664628077E-01  0.11802421817E+01  0.00000000000E+00 0.  1.
         11    1    3    3    0    0  0.66948299481E+01  0.37780470181E+02 -0.66188012547E+01  0.38935757415E+02  0.51100000000E-03 0. -1.
        -11    1    3    3    0    0 -0.78195201358E+01  0.69116601370E+00 -0.56729128967E+01  0.96852747306E+01  0.51100000000E-03 0.  1.
        -12    1    3    3    0    0  0.60772530445E+00 -0.39531277183E+02  0.12238049523E+02  0.41386725673E+02  0.00000000000E+00 0.  1.
</event>
<event>
 7    1  0.2390925E-015  0.9000772E+02  0.7816164E-02  0.1186339E+00
        -11   -1    0    0    0    0  0.00000000000E+00  0.00000000000E+00  0.45593999997E+02  0.45594000000E+02  0.51100000000E-03 0. -1.
         11   -1    0    0    0    0 -0.00000000000E+00 -0.00000000000E+00 -0.45593999997E+02  0.45594000000E+02  0.51100000000E-03 0.  1.
    9900012    2    1    2    0    0  0.11748545981E+01  0.11147336330E+00 -0.18584607791E-01  0.90007722480E+02  0.89999983616E+02 0.  0.
        -12    1    1    2    0    0 -0.11748545981E+01 -0.11147336330E+00  0.18584607791E-01  0.11802775204E+01  0.00000000000E+00 0.  1.
         11    1    3    3    0    0  0.36224735447E+02  0.94040879887E+01 -0.89447850389E+01  0.38479572616E+02  0.51100000000E-03 0. -1.
        -11    1    3    3    0    0  0.37319951428E+01 -0.55975055425E+01 -0.67544814924E+01  0.95332511000E+01  0.51100000000E-03 0.  1.
        -12    1    3    3    0    0 -0.38781875991E+02 -0.36951090829E+01  0.15680681923E+02  0.41994898763E+02  0.00000000000E+00 0.  1.
</event>
<event>
 7    1  0.1978681E-015  0.9000784E+02  0.7816164E-02  0.1186339E+00
        -11   -1    0    0    0    0  0.00000000000E+00  0.00000000000E+00  0.45593999997E+02  0.45594000000E+02  0.51100000000E-03 0.  1.
         11   -1    0    0    0    0 -0.00000000000E+00 -0.00000000000E+00 -0.45593999997E+02  0.45594000000E+02  0.51100000000E-03 0. -1.
    9900012    2    1    2    0    0 -0.10919955485E+01  0.67790722352E-02 -0.44753539144E+00  0.90007835537E+02  0.90000098166E+02 0.  0.
        -12    1    1    2    0    0  0.10919955485E+01 -0.67790722352E-02  0.44753539144E+00  0.11801644633E+01  0.00000000000E+00 0.  1.
         11    1    3    3    0    0  0.38682016170E+02  0.34358834921E+01  0.11758396043E+02  0.40575405704E+02  0.51100000000E-03 0. -1.
        -11    1    3    3    0    0  0.30362468222E+01  0.24341651106E+01 -0.37472225999E+01  0.54023728144E+01  0.51100000000E-03 0.  1.
        -12    1    3    3    0    0 -0.42810258540E+02 -0.58632695304E+01 -0.84587088342E+01  0.44030057018E+02  0.00000000000E+00 0.  1.
</event>
<event>
 7    1  0.1978681E-015  0.9000771E+02  0.7816164E-02  0.1186339E+00
        -11   -1    0    0    0    0  0.00000000000E+00  0.00000000000E+00  0.45593999997E+02  0.45594000000E+02  0.51100000000E-03 0. -1.
         11   -1    0    0    0    0 -0.00000000000E+00 -0.00000000000E+00 -0.45593999997E+02  0.45594000000E+02  0.51100000000E-03 0.  1.
    9900012    2    1    2    0    0  0.21381707573E+00  0.45107786803E-01  0.11598814775E+01  0.90007712960E+02  0.89999973971E+02 0.  0.
        -12    1    1    2    0    0 -0.21381707573E+00 -0.45107786803E-01 -0.11598814775E+01  0.11802870397E+01  0.00000000000E+00 0.  1.
         11    1    3    3    0    0  0.62471275198E+01 -0.39280060334E+01  0.94824745423E+01  0.12015538163E+02  0.51100000000E-03 0. -1.
        -11    1    3    3    0    0 -0.29547079077E+02  0.21435273456E+01 -0.32665230787E+02  0.44098093997E+02  0.51100000000E-03 0.  1.
         12    1    3    3    0    0  0.23513768633E+02  0.18295864746E+01  0.24342637722E+02  0.33894080800E+02  0.00000000000E+00 0. -1.
</event>
<event>
 7    1  0.1978681E-015  0.9000813E+02  0.7816164E-02  0.1186338E+00
        -11   -1    0    0    0    0  0.00000000000E+00  0.00000000000E+00  0.45593999997E+02  0.45594000000E+02  0.51100000000E-03 0. -1.
         11   -1    0    0    0    0 -0.00000000000E+00 -0.00000000000E+00 -0.45593999997E+02  0.45594000000E+02  0.51100000000E-03 0.  1.
    9900012    2    1    2    0    0 -0.44129281364E+00 -0.10782335616E+01  0.18644649655E+00  0.90008131678E+02  0.90000398215E+02 0.  0.
        -12    1    1    2    0    0  0.44129281364E+00  0.10782335616E+01 -0.18644649655E+00  0.11798683218E+01  0.00000000000E+00 0.  1.
         11    1    3    3    0    0 -0.71768923283E+01  0.71818251169E+01  0.30663041337E+01  0.10606065095E+02  0.51100000000E-03 0. -1.
        -11    1    3    3    0    0 -0.30403642588E+02  0.96541712449E+01 -0.16580748193E+02  0.35951435520E+02  0.51100000000E-03 0.  1.
         12    1    3    3    0    0  0.37139242103E+02 -0.17914229923E+02  0.13700890556E+02  0.43450631063E+02  0.00000000000E+00 0. -1.
</event>
<event>
 7    1  0.1978681E-015  0.9000776E+02  0.7816164E-02  0.1186339E+00
        -11   -1    0    0    0    0  0.00000000000E+00  0.00000000000E+00  0.45593999997E+02  0.45594000000E+02  0.51100000000E-03 0. -1.
         11   -1    0    0    0    0 -0.00000000000E+00 -0.00000000000E+00 -0.45593999997E+02  0.45594000000E+02  0.51100000000E-03 0.  1.
    9900012    2    1    2    0    0  0.51257194064E+00  0.10622927118E+01 -0.41966864044E-01  0.90007763999E+02  0.90000025684E+02 0.  0.
        -12    1    1    2    0    0 -0.51257194064E+00 -0.10622927118E+01  0.41966864044E-01  0.11802360008E+01  0.00000000000E+00 0.  1.
         11    1    3    3    0    0 -0.94818944951E+01  0.37933738032E+02  0.14043049238E+02  0.41546143460E+02  0.51100000000E-03 0. -1.
        -11    1    3    3    0    0 -0.35292978709E+01  0.47451931807E+00 -0.73612474065E+01  0.81773513857E+01  0.51100000000E-03 0.  1.
        -12    1    3    3    0    0  0.13523764307E+02 -0.37345964638E+02 -0.67237686953E+01  0.40284269153E+02  0.00000000000E+00 0.  1.
</event>
<event>
 7    1  0.1978681E-015  0.9000798E+02  0.7816164E-02  0.1186339E+00
        -11   -1    0    0    0    0  0.00000000000E+00  0.00000000000E+00  0.45593999997E+02  0.45594000000E+02  0.51100000000E-03 0.  1.
         11   -1    0    0    0    0 -0.00000000000E+00 -0.00000000000E+00 -0.45593999997E+02  0.45594000000E+02  0.51100000000E-03 0. -1.
    9900012    2    1    2    0    0  0.56064980630E+00  0.10187410615E+01 -0.20070409696E+00  0.90007981487E+02  0.90000246043E+02 0.  0.
        -12    1    1    2    0    0 -0.56064980630E+00 -0.10187410615E+01  0.20070409696E+00  0.11800185127E+01  0.00000000000E+00 0.  1.
         11    1    3    3    0    0 -0.58276267417E+01 -0.11630514375E+01  0.72637282422E+01  0.93848638948E+01  0.51100000000E-03 0. -1.
        -11    1    3    3    0    0 -0.21986898082E+02 -0.28374340856E+02  0.68334955304E+01  0.36540711100E+02  0.51100000000E-03 0.  1.
         12    1    3    3    0    0  0.28375174630E+02  0.30556133355E+02 -0.14297927870E+02  0.44082406493E+02  0.00000000000E+00 0. -1.
</event>
<event>
 7    1  0.1978681E-015  0.9000775E+02  0.7816164E-02  0.1186339E+00
        -11   -1    0    0    0    0  0.00000000000E+00  0.00000000000E+00  0.45593999997E+02  0.45594000000E+02  0.51100000000E-03 0. -1.
         11   -1    0    0    0    0 -0.00000000000E+00 -0.00000000000E+00 -0.45593999997E+02  0.45594000000E+02  0.51100000000E-03 0.  1.
    9900012    2    1    2    0    0  0.11004739068E+01  0.42506981866E+00  0.35536493159E-01  0.90007750021E+02  0.90000011521E+02 0.  0.
        -12    1    1    2    0    0 -0.11004739068E+01 -0.42506981866E+00 -0.35536493159E-01  0.11802499789E+01  0.00000000000E+00 0.  1.
         11    1    3    3    0    0 -0.56036418680E+01 -0.83945702571E+01  0.57840952663E+01  0.11632943320E+02  0.51100000000E-03 0. -1.
        -11    1    3    3    0    0  0.79467878320E+01 -0.31672320415E+02  0.11115152761E+02  0.34493969596E+02  0.51100000000E-03 0.  1.
         12    1    3    3    0    0 -0.12426720573E+01  0.40491960491E+02 -0.16863711534E+02  0.43880837104E+02  0.00000000000E+00 0. -1.
</event>
<event>
 7    1  0.1978681E-015  0.9000774E+02  0.7816164E-02  0.1186339E+00
        -11   -1    0    0    0    0  0.00000000000E+00  0.00000000000E+00  0.45593999997E+02  0.45594000000E+02  0.51100000000E-03 0. -1.
         11   -1    0    0    0    0 -0.00000000000E+00 -0.00000000000E+00 -0.45593999997E+02  0.45594000000E+02  0.51100000000E-03 0.  1.
    9900012    2    1    2    0    0  0.26165113551E-01  0.11463130955E+01 -0.27980478666E+00  0.90007741958E+02  0.90000003352E+02 0.  0.
        -12    1    1    2    0    0 -0.26165113551E-01 -0.11463130955E+01  0.27980478666E+00  0.11802580416E+01  0.00000000000E+00 0.  1.
         11    1    3    3    0    0 -0.12142771710E+02  0.36878384662E+01 -0.66900310961E+01  0.14345855627E+02  0.51100000000E-03 0. -1.
        -11    1    3    3    0    0 -0.24941878657E+02 -0.68611779113E+01 -0.17566156027E+02  0.31268880873E+02  0.51100000000E-03 0.  1.
         12    1    3    3    0    0  0.37110815480E+02  0.43196525407E+01  0.23976382336E+02  0.44393005458E+02  0.00000000000E+00 0. -1.
</event>
<event>
 7    1  0.1978681E-015  0.9000777E+02  0.7816164E-02  0.1186339E+00
        -11   -1    0    0    0    0  0.00000000000E+00  0.00000000000E+00  0.45593999997E+02  0.45594000000E+02  0.51100000000E-03 0. -1.
         11   -1    0    0    0    0 -0.00000000000E+00 -0.00000000000E+00 -0.45593999997E+02  0.45594000000E+02  0.51100000000E-03 0.  1.
    9900012    2    1    2    0    0  0.10546370734E+01  0.44948482780E+00  0.28044752760E+00  0.90007768335E+02  0.90000030077E+02 0.  0.
        -12    1    1    2    0    0 -0.10546370734E+01 -0.44948482780E+00 -0.28044752760E+00  0.11802316648E+01  0.00000000000E+00 0.  1.
         11    1    3    3    0    0  0.99858949090E+01 -0.32934320279E+02  0.23368302730E+02  0.41598859625E+02  0.51100000000E-03 0. -1.
        -11    1    3    3    0    0  0.49737276989E+01 -0.44109853700E+00 -0.66426186004E+01  0.83100491740E+01  0.51100000000E-03 0.  1.
        -12    1    3    3    0    0 -0.13904985535E+02  0.33824903644E+02 -0.16445236602E+02  0.40098859536E+02  0.00000000000E+00 0.  1.
</event>
<event>
 7    1  0.1978681E-015  0.9000775E+02  0.7816164E-02  0.1186339E+00
        -11   -1    0    0    0    0  0.00000000000E+00  0.00000000000E+00  0.45593999997E+02  0.45594000000E+02  0.51100000000E-03 0.  1.
         11   -1    0    0    0    0 -0.00000000000E+00 -0.00000000000E+00 -0.45593999997E+02  0.45594000000E+02  0.51100000000E-03 0. -1.
    9900012    2    1    2    0    0 -0.62119887591E+00  0.98175517175E+00 -0.20796985708E+00  0.90007753110E+02  0.90000014651E+02 0.  0.
        -12    1    1    2    0    0  0.62119887591E+00 -0.98175517175E+00  0.20796985708E+00  0.11802468903E+01  0.00000000000E+00 0.  1.
         11    1    3    3    0    0 -0.28741518797E+02  0.22963849595E+02  0.16503578690E+01  0.36825765062E+02  0.51100000000E-03 0. -1.
        -11    1    3    3    0    0 -0.13681942964E+01  0.49299973573E+01  0.10256224440E+02  0.11461543072E+02  0.51100000000E-03 0.  1.
        -12    1    3    3    0    0  0.29488514218E+02 -0.26912091781E+02 -0.12114552166E+02  0.41720444976E+02  0.00000000000E+00 0.  1.
</event>
<event>
 7    1  0.1978681E-015  0.9000724E+02  0.7816164E-02  0.1186340E+00
        -11   -1    0    0    0    0  0.00000000000E+00  0.00000000000E+00  0.45593999997E+02  0.45594000000E+02  0.51100000000E-03 0.  1.
         11   -1    0    0    0    0 -0.00000000000E+00 -0.00000000000E+00 -0.45593999997E+02  0.45594000000E+02  0.51100000000E-03 0. -1.
    9900012    2    1    2    0    0 -0.39172518973E+00  0.81621826396E+00 -0.75798614251E+00  0.90007235895E+02  0.89999490608E+02 0.  0.
        -12    1    1    2    0    0  0.39172518973E+00 -0.81621826396E+00  0.75798614251E+00  0.11807641047E+01  0.00000000000E+00 0.  1.
         11    1    3    3    0    0 -0.31752009857E+02  0.77790970902E+01 -0.16027993476E+01  0.32730313893E+02  0.51100000000E-03 0. -1.
        -11    1    3    3    0    0  0.23050901246E+01 -0.59205081941E+01 -0.20336314335E+02  0.21305669170E+02  0.51100000000E-03 0.  1.
        -12    1    3    3    0    0  0.29055194543E+02 -0.10423706321E+01  0.21181127540E+02  0.35971252833E+02  0.00000000000E+00 0.  1.
</event>
<event>
 7    1  0.1978681E-015  0.9000767E+02  0.7816164E-02  0.1186339E+00
        -11   -1    0    0    0    0  0.00000000000E+00  0.00000000000E+00  0.45593999997E+02  0.45594000000E+02  0.51100000000E-03 0.  1.
         11   -1    0    0    0    0 -0.00000000000E+00 -0.00000000000E+00 -0.45593999997E+02  0.45594000000E+02  0.51100000000E-03 0. -1.
    9900012    2    1    2    0    0 -0.87631229220E-01 -0.85171444063E+00 -0.81245621375E+00  0.90007668767E+02  0.89999929195E+02 0.  0.
        -12    1    1    2    0    0  0.87631229220E-01  0.85171444063E+00  0.81245621375E+00  0.11803312332E+01  0.00000000000E+00 0.  1.
         11    1    3    3    0    0 -0.10795786705E+02 -0.30055429490E+02 -0.23205446228E+02  0.39476202797E+02  0.51100000000E-03 0. -1.
        -11    1    3    3    0    0 -0.10076523287E+02  0.38388770200E+01 -0.69073726773E-01  0.10783230952E+02  0.51100000000E-03 0.  1.
        -12    1    3    3    0    0  0.20784678762E+02  0.25364838029E+02  0.22462063741E+02  0.39748235017E+02  0.00000000000E+00 0.  1.
</event>
<event>
 7    1  0.1978681E-015  0.9000777E+02  0.7816164E-02  0.1186339E+00
        -11   -1    0    0    0    0  0.00000000000E+00  0.00000000000E+00  0.45593999997E+02  0.45594000000E+02  0.51100000000E-03 0. -1.
         11   -1    0    0    0    0 -0.00000000000E+00 -0.00000000000E+00 -0.45593999997E+02  0.45594000000E+02  0.51100000000E-03 0.  1.
    9900012    2    1    2    0    0 -0.11023836835E+01 -0.27159614813E-01  0.42066847098E+00  0.90007767229E+02  0.90000028957E+02 0.  0.
        -12    1    1    2    0    0  0.11023836835E+01  0.27159614813E-01 -0.42066847098E+00  0.11802327706E+01  0.00000000000E+00 0.  1.
         11    1    3    3    0    0  0.49180144730E+00 -0.60768152774E+01 -0.71927414216E+01  0.94289491460E+01  0.51100000000E-03 0. -1.
        -11    1    3    3    0    0  0.17104500351E+02  0.36596137697E+02 -0.85407624109E+01  0.41289052416E+02  0.51100000000E-03 0.  1.
         12    1    3    3    0    0 -0.18698685482E+02 -0.30546482034E+02  0.16154172303E+02  0.39289765668E+02  0.00000000000E+00 0. -1.
</event>
<event>
 7    1  0.1978681E-015  0.9000768E+02  0.7816164E-02  0.1186339E+00
        -11   -1    0    0    0    0  0.00000000000E+00  0.00000000000E+00  0.45593999997E+02  0.45594000000E+02  0.51100000000E-03 0.  1.
         11   -1    0    0    0    0 -0.00000000000E+00 -0.00000000000E+00 -0.45593999997E+02  0.45594000000E+02  0.51100000000E-03 0. -1.
    9900012    2    1    2    0    0 -0.84844532589E+00 -0.61512383530E+00 -0.54306656485E+00  0.90007678816E+02  0.89999939376E+02 0.  0.
        -12    1    1    2    0    0  0.84844532589E+00  0.61512383530E+00  0.54306656485E+00  0.11803211841E+01  0.00000000000E+00 0.  1.
         11    1    3    3    0    0 -0.89386191981E+01  0.85228402879E+01 -0.36247609752E+02  0.38293954258E+02  0.51100000000E-03 0. -1.
        -11    1    3    3    0    0 -0.88062384586E+01  0.35818381126E+01 -0.78405882829E+00  0.95390853105E+01  0.51100000000E-03 0.  1.
        -12    1    3    3    0    0  0.16896412331E+02 -0.12719802236E+02  0.36488602016E+02  0.42174639247E+02  0.00000000000E+00 0.  1.
</event>
<event>
 7    1  0.1978681E-015  0.9000782E+02  0.7816164E-02  0.1186339E+00
        -11   -1    0    0    0    0  0.00000000000E+00  0.00000000000E+00  0.45593999997E+02  0.45594000000E+02  0.51100000000E-03 0.  1.
         11   -1    0    0    0    0 -0.00000000000E+00 -0.00000000000E+00 -0.45593999997E+02  0.45594000000E+02  0.51100000000E-03 0. -1.
    9900012    2    1    2    0    0  0.79924101739E+00  0.78719667568E+00 -0.36655366165E+00  0.90007819337E+02  0.90000081752E+02 0.  0.
        -12    1    1    2    0    0 -0.79924101739E+00 -0.78719667568E+00  0.36655366165E+00  0.11801806628E+01  0.00000000000E+00 0.  1.
         11    1    3    3    0    0  0.22576734515E+02  0.20374331631E+02 -0.28705708184E+01  0.30546071889E+02  0.51100000000E-03 0. -1.
        -11    1    3    3    0    0  0.46510170004E+01  0.14621766877E+02  0.50630575587E+01  0.16157431041E+02  0.51100000000E-03 0.  1.
        -12    1    3    3    0    0 -0.26428510498E+02 -0.34208901832E+02 -0.25590404019E+01  0.43304316407E+02  0.00000000000E+00 0.  1.
</event>
<event>
 7    1  0.1978681E-015  0.9000761E+02  0.7816164E-02  0.1186339E+00
        -11   -1    0    0    0    0  0.00000000000E+00  0.00000000000E+00  0.45593999997E+02  0.45594000000E+02  0.51100000000E-03 0. -1.
         11   -1    0    0    0    0 -0.00000000000E+00 -0.00000000000E+00 -0.45593999997E+02  0.45594000000E+02  0.51100000000E-03 0.  1.
    9900012    2    1    2    0    0 -0.63518426162E+00  0.86866225934E+00  0.48506524988E+00  0.90007609614E+02  0.89999869261E+02 0.  0.
        -12    1    1    2    0    0  0.63518426162E+00 -0.86866225934E+00 -0.48506524988E+00  0.11803903861E+01  0.00000000000E+00 0.  1.
         11    1    3    3    0    0  0.34382582220E+01  0.85438585461E+01 -0.14497922846E+00  0.92108717120E+01  0.51100000000E-03 0. -1.
        -11    1    3    3    0    0  0.35501798186E+02  0.74509117077E+01  0.95265592291E+01  0.37505320833E+02  0.51100000000E-03 0.  1.
         12    1    3    3    0    0 -0.39575240670E+02 -0.15126107994E+02 -0.88965147507E+01  0.43291417069E+02  0.00000000000E+00 0. -1.
</event>
<event>
 7    1  0.1978681E-015  0.9000798E+02  0.7816164E-02  0.1186339E+00
        -11   -1    0    0    0    0  0.00000000000E+00  0.00000000000E+00  0.45593999997E+02  0.45594000000E+02  0.51100000000E-03 0.  1.
         11   -1    0    0    0    0 -0.00000000000E+00 -0.00000000000E+00 -0.45593999997E+02  0.45594000000E+02  0.51100000000E-03 0. -1.
    9900012    2    1    2    0    0 -0.30628604270E+00 -0.39177201611E+00 -0.10701178490E+01  0.90007979380E+02  0.90000243908E+02 0.  0.
        -12    1    1    2    0    0  0.30628604270E+00  0.39177201611E+00  0.10701178490E+01  0.11800206198E+01  0.00000000000E+00 0.  1.
         11    1    3    3    0    0 -0.17843162946E+02  0.32401728810E+02 -0.82973627072E+01  0.37909058574E+02  0.51100000000E-03 0. -1.
        -11    1    3    3    0    0 -0.43617179558E+01 -0.87883881794E+00 -0.90699954833E+01  0.10102562028E+02  0.51100000000E-03 0.  1.
        -12    1    3    3    0    0  0.21898594859E+02 -0.31914662008E+02  0.16297240342E+02  0.41996358779E+02  0.00000000000E+00 0.  1.
</event>
<event>
 7    1  0.1978681E-015  0.9000756E+02  0.7816164E-02  0.1186339E+00
        -11   -1    0    0    0    0  0.00000000000E+00  0.00000000000E+00  0.45593999997E+02  0.45594000000E+02  0.51100000000E-03 0.  1.
         11   -1    0    0    0    0 -0.00000000000E+00 -0.00000000000E+00 -0.45593999997E+02  0.45594000000E+02  0.51100000000E-03 0. -1.
    9900012    2    1    2    0    0 -0.47796075870E+00  0.31581639465E+00 -0.10321061763E+01  0.90007563792E+02  0.89999822834E+02 0.  0.
        -12    1    1    2    0    0  0.47796075870E+00 -0.31581639465E+00  0.10321061763E+01  0.11804362080E+01  0.00000000000E+00 0.  1.
         11    1    3    3    0    0 -0.28413306001E+02 -0.23442680048E+02 -0.62312299906E+01  0.37359114459E+02  0.51100000000E-03 0. -1.
        -11    1    3    3    0    0 -0.86481748287E+01 -0.20040476521E+00  0.12376552081E+01  0.87385857330E+01  0.51100000000E-03 0.  1.
        -12    1    3    3    0    0  0.36583520070E+02  0.23958901208E+02  0.39614686062E+01  0.43909863600E+02  0.00000000000E+00 0.  1.
</event>
<event>
 7    1  0.1978681E-015  0.9000773E+02  0.7816164E-02  0.1186339E+00
        -11   -1    0    0    0    0  0.00000000000E+00  0.00000000000E+00  0.45593999997E+02  0.45594000000E+02  0.51100000000E-03 0.  1.
         11   -1    0    0    0    0 -0.00000000000E+00 -0.00000000000E+00 -0.45593999997E+02  0.45594000000E+02  0.51100000000E-03 0. -1.
    9900012    2    1    2    0    0 -0.10061780451E+01 -0.61127890200E+00 -0.83489618755E-01  0.90007734491E+02  0.89999995787E+02 0.  0.
        -12    1    1    2    0    0  0.10061780451E+01  0.61127890200E+00  0.83489618755E-01  0.11802655086E+01  0.00000000000E+00 0.  1.
         11    1    3    3    0    0 -0.22177761133E+01  0.81323478045E+01 -0.42356812133E+01  0.94336953154E+01  0.51100000000E-03 0. -1.
        -11    1    3    3    0    0 -0.18621375394E+02  0.18840621497E+02  0.28398326183E+02  0.38835416442E+02  0.51100000000E-03 0.  1.
         12    1    3    3    0    0  0.19832973462E+02 -0.27584248204E+02 -0.24246134588E+02  0.41738622734E+02  0.00000000000E+00 0. -1.
</event>
<event>
 7    1  0.1978681E-015  0.9000774E+02  0.7816164E-02  0.1186339E+00
        -11   -1    0    0    0    0  0.00000000000E+00  0.00000000000E+00  0.45593999997E+02  0.45594000000E+02  0.51100000000E-03 0.  1.
         11   -1    0    0    0    0 -0.00000000000E+00 -0.00000000000E+00 -0.45593999997E+02  0.45594000000E+02  0.51100000000E-03 0. -1.
    9900012    2    1    2    0    0 -0.66149127200E+00  0.71630002599E+00 -0.66510316180E+00  0.90007737891E+02  0.89999999231E+02 0.  0.
        -12    1    1    2    0    0  0.66149127200E+00 -0.71630002599E+00  0.66510316180E+00  0.11802621090E+01  0.00000000000E+00 0.  1.
         11    1    3    3    0    0 -0.25914287657E+02 -0.31774114994E+02  0.18277444966E+01  0.41042482120E+02  0.51100000000E-03 0. -1.
        -11    1    3    3    0    0  0.74422558829E+01 -0.31709213396E+01 -0.41040542971E+01  0.90711177207E+01  0.51100000000E-03 0.  1.
        -12    1    3    3    0    0  0.17810540502E+02  0.35661336359E+02  0.16112066387E+01  0.39894138050E+02  0.00000000000E+00 0.  1.
</event>
<event>
 7    1  0.1978681E-015  0.9000772E+02  0.7816164E-02  0.1186339E+00
        -11   -1    0    0    0    0  0.00000000000E+00  0.00000000000E+00  0.45593999997E+02  0.45594000000E+02  0.51100000000E-03 0. -1.
         11   -1    0    0    0    0 -0.00000000000E+00 -0.00000000000E+00 -0.45593999997E+02  0.45594000000E+02  0.51100000000E-03 0.  1.
    9900012    2    1    2    0    0  0.18919033120E+00  0.86050047939E+00 -0.78536792857E+00  0.90007721711E+02  0.89999982837E+02 0.  0.
        -12    1    1    2    0    0 -0.18919033120E+00 -0.86050047939E+00  0.78536792857E+00  0.11802782891E+01  0.00000000000E+00 0.  1.
         11    1    3    3    0    0 -0.25019918953E+01 -0.76014535351E+01 -0.58942219579E+01  0.99390096107E+01  0.51100000000E-03 0. -1.
        -11    1    3    3    0    0  0.99213732661E+01 -0.19320557257E+02 -0.28522850872E+02  0.35850670877E+02  0.51100000000E-03 0.  1.
         12    1    3    3    0    0 -0.72301910396E+01  0.27782511272E+02  0.33631704901E+02  0.44218041223E+02  0.00000000000E+00 0. -1.
</event>
<event>
 7    1  0.1978681E-015  0.9000769E+02  0.7816164E-02  0.1186339E+00
        -11   -1    0    0    0    0  0.00000000000E+00  0.00000000000E+00  0.45593999997E+02  0.45594000000E+02  0.51100000000E-03 0.  1.
         11   -1    0    0    0    0 -0.00000000000E+00 -0.00000000000E+00 -0.45593999997E+02  0.45594000000E+02  0.51100000000E-03 0. -1.
    9900012    2    1    2    0    0  0.14311046741E+00  0.65815777820E+00 -0.96926358219E+00  0.90007693193E+02  0.89999953943E+02 0.  0.
        -12    1    1    2    0    0 -0.14311046741E+00 -0.65815777820E+00  0.96926358219E+00  0.11803068070E+01  0.00000000000E+00 0.  1.
         11    1    3    3    0    0  0.35824870611E+01  0.15488494909E+02  0.10804175802E+02  0.19221287759E+02  0.51100000000E-03 0. -1.
        -11    1    3    3    0    0  0.15961626538E+02 -0.26450654186E+02  0.16144878138E+02  0.34857821489E+02  0.51100000000E-03 0.  1.
         12    1    3    3    0    0 -0.19401003132E+02  0.11620317055E+02 -0.27918317523E+02  0.35928583945E+02  0.00000000000E+00 0. -1.
</event>
<event>
 7    1  0.1978681E-015  0.9000830E+02  0.7816164E-02  0.1186338E+00
        -11   -1    0    0    0    0  0.00000000000E+00  0.00000000000E+00  0.45593999997E+02  0.45594000000E+02  0.51100000000E-03 0.  1.
         11   -1    0    0    0    0 -0.00000000000E+00 -0.00000000000E+00 -0.45593999997E+02  0.45594000000E+02  0.51100000000E-03 0. -1.
    9900012    2    1    2    0    0 -0.10636493286E+01 -0.34445495673E+00 -0.37642394913E+00  0.90008299148E+02  0.90000567895E+02 0.  0.
        -12    1    1    2    0    0  0.10636493286E+01  0.34445495673E+00  0.37642394913E+00  0.11797008523E+01  0.00000000000E+00 0.  1.
         11    1    3    3    0    0 -0.12423785944E+02  0.92512631945E+00  0.11790014299E+02  0.17152572791E+02  0.51100000000E-03 0. -1.
        -11    1    3    3    0    0  0.14072656312E+02 -0.34799778571E+02 -0.15077426404E+01  0.37567772523E+02  0.51100000000E-03 0.  1.
         12    1    3    3    0    0 -0.27125196958E+01  0.33530197294E+02 -0.10658695608E+02  0.35287953834E+02  0.00000000000E+00 0. -1.
</event>
<event>
 7    1  0.1978681E-015  0.9000776E+02  0.7816164E-02  0.1186339E+00
        -11   -1    0    0    0    0  0.00000000000E+00  0.00000000000E+00  0.45593999997E+02  0.45594000000E+02  0.51100000000E-03 0.  1.
         11   -1    0    0    0    0 -0.00000000000E+00 -0.00000000000E+00 -0.45593999997E+02  0.45594000000E+02  0.51100000000E-03 0. -1.
    9900012    2    1    2    0    0 -0.11783539091E+01 -0.22757785999E-01  0.62710983350E-01  0.90007759127E+02  0.90000020747E+02 0.  0.
        -12    1    1    2    0    0  0.11783539091E+01  0.22757785999E-01 -0.62710983350E-01  0.11802408734E+01  0.00000000000E+00 0.  1.
         11    1    3    3    0    0 -0.57895581837E+01  0.38867297846E+01 -0.90373665510E+01  0.11414887070E+02  0.51100000000E-03 0. -1.
        -11    1    3    3    0    0  0.24556717893E+02 -0.11903543026E+02 -0.25834663987E+02  0.37578672061E+02  0.51100000000E-03 0.  1.
         12    1    3    3    0    0 -0.19945513618E+02  0.79940554558E+01  0.34934741522E+02  0.41014199996E+02  0.00000000000E+00 0. -1.
</event>
<event>
 7    1  0.1978681E-015  0.9000781E+02  0.7816164E-02  0.1186339E+00
        -11   -1    0    0    0    0  0.00000000000E+00  0.00000000000E+00  0.45593999997E+02  0.45594000000E+02  0.51100000000E-03 0.  1.
         11   -1    0    0    0    0 -0.00000000000E+00 -0.00000000000E+00 -0.45593999997E+02  0.45594000000E+02  0.51100000000E-03 0. -1.
    9900012    2    1    2    0    0  0.53921008299E+00 -0.28312266416E-01 -0.10494249961E+01  0.90007812760E+02  0.90000075089E+02 0.  0.
        -12    1    1    2    0    0 -0.53921008299E+00  0.28312266416E-01  0.10494249961E+01  0.11801872396E+01  0.00000000000E+00 0.  1.
         11    1    3    3    0    0 -0.16110734164E+01 -0.12491814434E+02  0.51653640939E+01  0.13613301286E+02  0.51100000000E-03 0. -1.
        -11    1    3    3    0    0 -0.22614767019E+02  0.13105242881E+02  0.25253835872E+02  0.36344618650E+02  0.51100000000E-03 0.  1.
         12    1    3    3    0    0  0.24765050519E+02 -0.64174071290E+00 -0.31468624962E+02  0.40049892825E+02  0.00000000000E+00 0. -1.
</event>
<event>
 7    1  0.1978681E-015  0.9000772E+02  0.7816164E-02  0.1186339E+00
        -11   -1    0    0    0    0  0.00000000000E+00  0.00000000000E+00  0.45593999997E+02  0.45594000000E+02  0.51100000000E-03 0.  1.
         11   -1    0    0    0    0 -0.00000000000E+00 -0.00000000000E+00 -0.45593999997E+02  0.45594000000E+02  0.51100000000E-03 0. -1.
    9900012    2    1    2    0    0 -0.11163176747E+00 -0.23175707016E+00 -0.11519067500E+01  0.90007719461E+02  0.89999980557E+02 0.  0.
        -12    1    1    2    0    0  0.11163176747E+00  0.23175707016E+00  0.11519067500E+01  0.11802805394E+01  0.00000000000E+00 0.  1.
         11    1    3    3    0    0  0.36958906154E+02  0.45624581976E+01 -0.61953802801E+01  0.37751284826E+02  0.51100000000E-03 0. -1.
        -11    1    3    3    0    0  0.44877137033E+01 -0.73186189561E+01 -0.42765614500E+01  0.95911801048E+01  0.51100000000E-03 0.  1.
        -12    1    3    3    0    0 -0.41558251625E+02  0.25244036883E+01  0.93200349802E+01  0.42665254530E+02  0.00000000000E+00 0.  1.
</event>
<event>
 7    1  0.1978681E-015  0.9000773E+02  0.7816164E-02  0.1186339E+00
        -11   -1    0    0    0    0  0.00000000000E+00  0.00000000000E+00  0.45593999997E+02  0.45594000000E+02  0.51100000000E-03 0.  1.
         11   -1    0    0    0    0 -0.00000000000E+00 -0.00000000000E+00 -0.45593999997E+02  0.45594000000E+02  0.51100000000E-03 0. -1.
    9900012    2    1    2    0    0 -0.71659472193E+00 -0.25276493256E+00 -0.90312109953E+00  0.90007734849E+02  0.89999996149E+02 0.  0.
        -12    1    1    2    0    0  0.71659472193E+00  0.25276493256E+00  0.90312109953E+00  0.11802651512E+01  0.00000000000E+00 0.  1.
         11    1    3    3    0    0  0.34202842673E+02  0.69731322539E+01  0.90373831281E+01  0.36057361445E+02  0.51100000000E-03 0. -1.
        -11    1    3    3    0    0  0.80036785944E+01 -0.39609650808E+01 -0.59236934115E+01  0.10716261443E+02  0.51100000000E-03 0.  1.
        -12    1    3    3    0    0 -0.42923115989E+02 -0.32649321057E+01 -0.40168108161E+01  0.43234111961E+02  0.00000000000E+00 0.  1.
</event>
<event>
 7    1  0.1978681E-015  0.9000769E+02  0.7816164E-02  0.1186339E+00
        -11   -1    0    0    0    0  0.00000000000E+00  0.00000000000E+00  0.45593999997E+02  0.45594000000E+02  0.51100000000E-03 0.  1.
         11   -1    0    0    0    0 -0.00000000000E+00 -0.00000000000E+00 -0.45593999997E+02  0.45594000000E+02  0.51100000000E-03 0. -1.
    9900012    2    1    2    0    0  0.11536926102E+01  0.12520667205E+00 -0.21550326750E+00  0.90007692833E+02  0.89999953579E+02 0.  0.
        -12    1    1    2    0    0 -0.11536926102E+01 -0.12520667205E+00  0.21550326750E+00  0.11803071667E+01  0.00000000000E+00 0.  1.
         11    1    3    3    0    0  0.11767462800E+02  0.35593409241E+02 -0.20162573052E+02  0.42566340158E+02  0.51100000000E-03 0. -1.
        -11    1    3    3    0    0 -0.67159430411E+01  0.36107034191E+00  0.51951383044E+01  0.84984542704E+01  0.51100000000E-03 0.  1.
        -12    1    3    3    0    0 -0.38978271486E+01 -0.35829272911E+02  0.14751931480E+02  0.38942898405E+02  0.00000000000E+00 0.  1.
</event>
<event>
 7    1  0.1978681E-015  0.9000826E+02  0.7816164E-02  0.1186338E+00
        -11   -1    0    0    0    0  0.00000000000E+00  0.00000000000E+00  0.45593999997E+02  0.45594000000E+02  0.51100000000E-03 0. -1.
         11   -1    0    0    0    0 -0.00000000000E+00 -0.00000000000E+00 -0.45593999997E+02  0.45594000000E+02  0.51100000000E-03 0.  1.
    9900012    2    1    2    0    0 -0.61671141388E+00  0.51573877643E+00  0.86339954051E+00  0.90008263495E+02  0.90000531772E+02 0.  0.
        -12    1    1    2    0    0  0.61671141388E+00 -0.51573877643E+00 -0.86339954051E+00  0.11797365045E+01  0.00000000000E+00 0.  1.
         11    1    3    3    0    0  0.38777884968E+01  0.18260257704E+02  0.40348345019E+02  0.44457431337E+02  0.51100000000E-03 0. -1.
        -11    1    3    3    0    0 -0.23190386584E+01 -0.78454241220E+01 -0.49559268965E+01  0.95650317103E+01  0.51100000000E-03 0.  1.
        -12    1    3    3    0    0 -0.21754612523E+01 -0.98990948051E+01 -0.34529018582E+02  0.35985800448E+02  0.00000000000E+00 0.  1.
</event>
<event>
 7    1  0.1978681E-015  0.9000774E+02  0.7816164E-02  0.1186339E+00
        -11   -1    0    0    0    0  0.00000000000E+00  0.00000000000E+00  0.45593999997E+02  0.45594000000E+02  0.51100000000E-03 0.  1.
         11   -1    0    0    0    0 -0.00000000000E+00 -0.00000000000E+00 -0.45593999997E+02  0.45594000000E+02  0.51100000000E-03 0. -1.
    9900012    2    1    2    0    0 -0.12202182351E+00  0.74399381003E+00 -0.90806774672E+00  0.90007744457E+02  0.90000005884E+02 0.  0.
        -12    1    1    2    0    0  0.12202182351E+00 -0.74399381003E+00  0.90806774672E+00  0.11802555433E+01  0.00000000000E+00 0.  1.
         11    1    3    3    0    0 -0.18532883301E+02  0.31452193129E+02 -0.20910909773E+01  0.36566116527E+02  0.51100000000E-03 0. -1.
        -11    1    3    3    0    0 -0.35958838071E+01  0.57853642048E+01  0.77555937878E+01  0.10322308589E+02  0.51100000000E-03 0.  1.
        -12    1    3    3    0    0  0.22006745285E+02 -0.36493563524E+02 -0.65725705571E+01  0.43119319341E+02  0.00000000000E+00 0.  1.
</event>
<event>
 7    1  0.1978681E-015  0.9000775E+02  0.7816164E-02  0.1186339E+00
        -11   -1    0    0    0    0  0.00000000000E+00  0.00000000000E+00  0.45593999997E+02  0.45594000000E+02  0.51100000000E-03 0. -1.
         11   -1    0    0    0    0 -0.00000000000E+00 -0.00000000000E+00 -0.45593999997E+02  0.45594000000E+02  0.51100000000E-03 0.  1.
    9900012    2    1    2    0    0  0.10291824067E+00  0.31390887887E+00  0.11330794904E+01  0.90007745756E+02  0.90000007200E+02 0.  0.
        -12    1    1    2    0    0 -0.10291824067E+00 -0.31390887887E+00 -0.11330794904E+01  0.11802542438E+01  0.00000000000E+00 0.  1.
         11    1    3    3    0    0 -0.33717709390E+02 -0.39582689091E+01  0.79811613535E+01  0.34874786825E+02  0.51100000000E-03 0. -1.
        -11    1    3    3    0    0 -0.84660522279E+01  0.87582099445E+01 -0.16559739076E+01  0.12293190457E+02  0.51100000000E-03 0.  1.
        -12    1    3    3    0    0  0.42286679858E+02 -0.44860321566E+01 -0.51921079555E+01  0.42839768475E+02  0.00000000000E+00 0.  1.
</event>
<event>
 7    1  0.1978681E-015  0.9000752E+02  0.7816164E-02  0.1186339E+00
        -11   -1    0    0    0    0  0.00000000000E+00  0.00000000000E+00  0.45593999997E+02  0.45594000000E+02  0.51100000000E-03 0.  1.
         11   -1    0    0    0    0 -0.00000000000E+00 -0.00000000000E+00 -0.45593999997E+02  0.45594000000E+02  0.51100000000E-03 0. -1.
    9900012    2    1    2    0    0  0.77825529569E+00 -0.52871724685E+00 -0.71295439801E+00  0.90007522467E+02  0.89999780963E+02 0.  0.
        -12    1    1    2    0    0 -0.77825529569E+00  0.52871724685E+00  0.71295439801E+00  0.11804775330E+01  0.00000000000E+00 0.  1.
         11    1    3    3    0    0  0.56560662537E+01  0.82066937256E+01  0.37141713124E+01  0.10636539671E+02  0.51100000000E-03 0. -1.
        -11    1    3    3    0    0  0.74061766945E+00  0.33685378738E+02  0.83502491373E+01  0.34712820631E+02  0.51100000000E-03 0.  1.
         12    1    3    3    0    0 -0.56184286275E+01 -0.42420789711E+02 -0.12777374848E+02  0.44658162165E+02  0.00000000000E+00 0. -1.
</event>
<event>
 7    1  0.1978681E-015  0.9000767E+02  0.7816164E-02  0.1186339E+00
        -11   -1    0    0    0    0  0.00000000000E+00  0.00000000000E+00  0.45593999997E+02  0.45594000000E+02  0.51100000000E-03 0.  1.
         11   -1    0    0    0    0 -0.00000000000E+00 -0.00000000000E+00 -0.45593999997E+02  0.45594000000E+02  0.51100000000E-03 0. -1.
    9900012    2    1    2    0    0  0.10615969278E+01  0.21171704603E+00 -0.47050399848E+00  0.90007666929E+02  0.89999927333E+02 0.  0.
        -12    1    1    2    0    0 -0.10615969278E+01 -0.21171704603E+00  0.47050399848E+00  0.11803330705E+01  0.00000000000E+00 0.  1.
         11    1    3    3    0    0 -0.30023577694E+01 -0.14901869178E+02  0.68876511921E+01  0.16688906386E+02  0.51100000000E-03 0. -1.
        -11    1    3    3    0    0 -0.29037756396E+02 -0.10710808223E+02 -0.23919428503E+01  0.31042456413E+02  0.51100000000E-03 0.  1.
         12    1    3    3    0    0  0.33101711093E+02  0.25824394447E+02 -0.49662123403E+01  0.42276304130E+02  0.00000000000E+00 0. -1.
</event>
<event>
 7    1  0.1978681E-015  0.9000769E+02  0.7816164E-02  0.1186339E+00
        -11   -1    0    0    0    0  0.00000000000E+00  0.00000000000E+00  0.45593999997E+02  0.45594000000E+02  0.51100000000E-03 0.  1.
         11   -1    0    0    0    0 -0.00000000000E+00 -0.00000000000E+00 -0.45593999997E+02  0.45594000000E+02  0.51100000000E-03 0. -1.
    9900012    2    1    2    0    0  0.45644799170E+00 -0.10831304323E+01  0.10772519433E+00  0.90007694523E+02  0.89999955290E+02 0.  0.
        -12    1    1    2    0    0 -0.45644799170E+00  0.10831304323E+01 -0.10772519433E+00  0.11803054774E+01  0.00000000000E+00 0.  1.
         11    1    3    3    0    0 -0.33605346005E+02 -0.18755414528E+02 -0.13733941305E+02  0.40862036149E+02  0.51100000000E-03 0. -1.
        -11    1    3    3    0    0  0.13007652444E+01  0.68314195640E+01 -0.61340229607E+01  0.92728917509E+01  0.51100000000E-03 0.  1.
        -12    1    3    3    0    0  0.32761028753E+02  0.10840864532E+02  0.19975689460E+02  0.39872766622E+02  0.00000000000E+00 0.  1.
</event>
<event>
 7    1  0.1978681E-015  0.9000735E+02  0.7816164E-02  0.1186340E+00
        -11   -1    0    0    0    0  0.00000000000E+00  0.00000000000E+00  0.45593999997E+02  0.45594000000E+02  0.51100000000E-03 0. -1.
         11   -1    0    0    0    0 -0.00000000000E+00 -0.00000000000E+00 -0.45593999997E+02  0.45594000000E+02  0.51100000000E-03 0.  1.
    9900012    2    1    2    0    0 -0.48685459810E+00 -0.10333757950E+01  0.29839222159E+00  0.90007351512E+02  0.89999607752E+02 0.  0.
        -12    1    1    2    0    0  0.48685459810E+00  0.10333757950E+01 -0.29839222159E+00  0.11806484876E+01  0.00000000000E+00 0.  1.
         11    1    3    3    0    0 -0.37993758958E+01 -0.24982835428E+02  0.33148431807E+02  0.41682080739E+02  0.51100000000E-03 0. -1.
        -11    1    3    3    0    0  0.65093258115E+01 -0.25455151185E+01 -0.14890373014E+01  0.71462019342E+01  0.51100000000E-03 0.  1.
        -12    1    3    3    0    0 -0.31968045137E+01  0.26494974752E+02 -0.31361002284E+02  0.41179068839E+02  0.00000000000E+00 0.  1.
</event>
<event>
 7    1  0.1978681E-015  0.9000789E+02  0.7816164E-02  0.1186339E+00
        -11   -1    0    0    0    0  0.00000000000E+00  0.00000000000E+00  0.45593999997E+02  0.45594000000E+02  0.51100000000E-03 0. -1.
         11   -1    0    0    0    0 -0.00000000000E+00 -0.00000000000E+00 -0.45593999997E+02  0.45594000000E+02  0.51100000000E-03 0.  1.
    9900012    2    1    2    0    0 -0.84535525347E-01  0.74637850379E+00  0.91017993430E+00  0.90007892107E+02  0.90000155483E+02 0.  0.
        -12    1    1    2    0    0  0.84535525347E-01 -0.74637850379E+00 -0.91017993430E+00  0.11801078929E+01  0.00000000000E+00 0.  1.
         11    1    3    3    0    0 -0.85731736636E+01  0.32317155627E+00  0.43276364947E+02  0.44118561965E+02  0.51100000000E-03 0. -1.
        -11    1    3    3    0    0 -0.44119166862E+01 -0.10947620494E+01 -0.89737449759E+01  0.10059404155E+02  0.51100000000E-03 0.  1.
        -12    1    3    3    0    0  0.12900554824E+02  0.15179689969E+01 -0.33392440037E+02  0.35829925988E+02  0.00000000000E+00 0.  1.
</event>
<event>
 7    1  0.1978681E-015  0.9000775E+02  0.7816164E-02  0.1186339E+00
        -11   -1    0    0    0    0  0.00000000000E+00  0.00000000000E+00  0.45593999997E+02  0.45594000000E+02  0.51100000000E-03 0.  1.
         11   -1    0    0    0    0 -0.00000000000E+00 -0.00000000000E+00 -0.45593999997E+02  0.45594000000E+02  0.51100000000E-03 0. -1.
    9900012    2    1    2    0    0 -0.42374242825E+00 -0.86324765876E+00 -0.68427761362E+00  0.90007750019E+02  0.90000011519E+02 0.  0.
        -12    1    1    2    0    0  0.42374242825E+00  0.86324765876E+00  0.68427761362E+00  0.11802499813E+01  0.00000000000E+00 0.  1.
         11    1    3    3    0    0 -0.10781264529E+02  0.53195137252E+00 -0.89858624294E+00  0.10831717067E+02  0.51100000000E-03 0. -1.
        -11    1    3    3    0    0 -0.23489852178E+02  0.14969480485E+02  0.22204222332E+02  0.35621426010E+02  0.51100000000E-03 0.  1.
         12    1    3    3    0    0  0.33847374279E+02 -0.16364679517E+02 -0.21989913703E+02  0.43554606942E+02  0.00000000000E+00 0. -1.
</event>
<event>
 7    1  0.1978681E-015  0.9000780E+02  0.7816164E-02  0.1186339E+00
        -11   -1    0    0    0    0  0.00000000000E+00  0.00000000000E+00  0.45593999997E+02  0.45594000000E+02  0.51100000000E-03 0.  1.
         11   -1    0    0    0    0 -0.00000000000E+00 -0.00000000000E+00 -0.45593999997E+02  0.45594000000E+02  0.51100000000E-03 0. -1.
    9900012    2    1    2    0    0  0.12077977115E+00  0.37353046854E+00 -0.11129983934E+01  0.90007797395E+02  0.90000059521E+02 0.  0.
        -12    1    1    2    0    0 -0.12077977115E+00 -0.37353046854E+00  0.11129983934E+01  0.11802026046E+01  0.00000000000E+00 0.  1.
         11    1    3    3    0    0 -0.25593920399E+02 -0.25596688005E+02 -0.74336288710E+01  0.36952645868E+02  0.51100000000E-03 0. -1.
        -11    1    3    3    0    0 -0.72365852919E+00 -0.79943545405E+01  0.59842776823E+01  0.10012240799E+02  0.51100000000E-03 0.  1.
        -12    1    3    3    0    0  0.26438358699E+02  0.33964573014E+02  0.33635279532E+00  0.43042910728E+02  0.00000000000E+00 0.  1.
</event>
<event>
 7    1  0.1978681E-015  0.9000771E+02  0.7816164E-02  0.1186339E+00
        -11   -1    0    0    0    0  0.00000000000E+00  0.00000000000E+00  0.45593999997E+02  0.45594000000E+02  0.51100000000E-03 0. -1.
         11   -1    0    0    0    0 -0.00000000000E+00 -0.00000000000E+00 -0.45593999997E+02  0.45594000000E+02  0.51100000000E-03 0.  1.
    9900012    2    1    2    0    0  0.71001672001E+00 -0.55546355824E+00  0.76185501585E+00  0.90007709115E+02  0.89999970076E+02 0.  0.
        -12    1    1    2    0    0 -0.71001672001E+00  0.55546355824E+00 -0.76185501585E+00  0.11802908847E+01  0.00000000000E+00 0.  1.
         11    1    3    3    0    0 -0.28149603018E+02 -0.19720576612E+02 -0.21342537826E+00  0.34370726537E+02  0.51100000000E-03 0. -1.
        -11    1    3    3    0    0 -0.53377877456E+00 -0.12418601773E+02 -0.79573167513E+00  0.12455511990E+02  0.51100000000E-03 0.  1.
        -12    1    3    3    0    0  0.29393398513E+02  0.31583714827E+02  0.17710120692E+01  0.43181470588E+02  0.00000000000E+00 0.  1.
</event>
<event>
 7    1  0.1978681E-015  0.9000740E+02  0.7816164E-02  0.1186340E+00
        -11   -1    0    0    0    0  0.00000000000E+00  0.00000000000E+00  0.45593999997E+02  0.45594000000E+02  0.51100000000E-03 0.  1.
         11   -1    0    0    0    0 -0.00000000000E+00 -0.00000000000E+00 -0.45593999997E+02  0.45594000000E+02  0.51100000000E-03 0. -1.
    9900012    2    1    2    0    0  0.43548065785E+00  0.36123499345E+00 -0.10361874016E+01  0.90007399113E+02  0.89999655980E+02 0.  0.
        -12    1    1    2    0    0 -0.43548065785E+00 -0.36123499345E+00  0.10361874016E+01  0.11806008873E+01  0.00000000000E+00 0.  1.
         11    1    3    3    0    0 -0.10564878529E+02  0.24366904827E+02 -0.29054216573E+02  0.39363818541E+02  0.51100000000E-03 0. -1.
        -11    1    3    3    0    0 -0.88853040545E+01  0.15191148266E+01  0.10537004012E+02  0.13866679192E+02  0.51100000000E-03 0.  1.
        -12    1    3    3    0    0  0.19885663241E+02 -0.25524784660E+02  0.17481025159E+02  0.36776901380E+02  0.00000000000E+00 0.  1.
</event>
<event>
 7    1  0.1978681E-015  0.9000774E+02  0.7816164E-02  0.1186339E+00
        -11   -1    0    0    0    0  0.00000000000E+00  0.00000000000E+00  0.45593999997E+02  0.45594000000E+02  0.51100000000E-03 0.  1.
         11   -1    0    0    0    0 -0.00000000000E+00 -0.00000000000E+00 -0.45593999997E+02  0.45594000000E+02  0.51100000000E-03 0. -1.
    9900012    2    1    2    0    0 -0.69126922775E+00  0.15024443742E+00 -0.94477447078E+00  0.90007735057E+02  0.89999996359E+02 0.  0.
        -12    1    1    2    0    0  0.69126922775E+00 -0.15024443742E+00  0.94477447078E+00  0.11802649435E+01  0.00000000000E+00 0.  1.
         11    1    3    3    0    0 -0.40827882679E+01  0.49114796849E+01  0.97013337956E+01  0.11614976126E+02  0.51100000000E-03 0. -1.
        -11    1    3    3    0    0  0.22311621722E+02  0.30410888397E+02 -0.58201531954E+01  0.38164181905E+02  0.51100000000E-03 0.  1.
         12    1    3    3    0    0 -0.18920102682E+02 -0.35172123644E+02 -0.48259550709E+01  0.40228577026E+02  0.00000000000E+00 0. -1.
</event>
<event>
 7    1  0.1978681E-015  0.9000776E+02  0.7816164E-02  0.1186339E+00
        -11   -1    0    0    0    0  0.00000000000E+00  0.00000000000E+00  0.45593999997E+02  0.45594000000E+02  0.51100000000E-03 0. -1.
         11   -1    0    0    0    0 -0.00000000000E+00 -0.00000000000E+00 -0.45593999997E+02  0.45594000000E+02  0.51100000000E-03 0.  1.
    9900012    2    1    2    0    0 -0.86681010532E+00 -0.73432489808E-01 -0.79762843399E+00  0.90007761377E+02  0.90000023027E+02 0.  0.
        -12    1    1    2    0    0  0.86681010532E+00  0.73432489808E-01  0.79762843399E+00  0.11802386233E+01  0.00000000000E+00 0.  1.
         11    1    3    3    0    0  0.46561743293E+01 -0.40403349220E+02  0.17269860651E+02  0.44185502993E+02  0.51100000000E-03 0. -1.
        -11    1    3    3    0    0 -0.69539473077E+00  0.84928682522E+01 -0.89446737991E+01  0.12353929521E+02  0.51100000000E-03 0.  1.
        -12    1    3    3    0    0 -0.48275897039E+01  0.31837048478E+02 -0.91228152854E+01  0.33468328863E+02  0.00000000000E+00 0.  1.
</event>
<event>
 7    1  0.1978681E-015  0.9000769E+02  0.7816164E-02  0.1186339E+00
        -11   -1    0    0    0    0  0.00000000000E+00  0.00000000000E+00  0.45593999997E+02  0.45594000000E+02  0.51100000000E-03 0. -1.
         11   -1    0    0    0    0 -0.00000000000E+00 -0.00000000000E+00 -0.45593999997E+02  0.45594000000E+02  0.51100000000E-03 0.  1.
    9900012    2    1    2    0    0  0.16868399355E-01 -0.11693923547E+01 -0.15925444750E+00  0.90007692836E+02  0.89999953582E+02 0.  0.
        -12    1    1    2    0    0 -0.16868399355E-01  0.11693923547E+01  0.15925444750E+00  0.11803071639E+01  0.00000000000E+00 0.  1.
         11    1    3    3    0    0  0.55790716954E+01 -0.12702596775E+02  0.83224392778E+00  0.13898727857E+02  0.51100000000E-03 0. -1.
        -11    1    3    3    0    0 -0.38749245808E+02 -0.45474208438E+01  0.23117854036E+01  0.39083595524E+02  0.51100000000E-03 0.  1.
         12    1    3    3    0    0  0.33187042512E+02  0.16080625264E+02 -0.33032837789E+01  0.37025369456E+02  0.00000000000E+00 0. -1.
</event>
<event>
 7    1  0.1978681E-015  0.9000765E+02  0.7816164E-02  0.1186339E+00
        -11   -1    0    0    0    0  0.00000000000E+00  0.00000000000E+00  0.45593999997E+02  0.45594000000E+02  0.51100000000E-03 0. -1.
         11   -1    0    0    0    0 -0.00000000000E+00 -0.00000000000E+00 -0.45593999997E+02  0.45594000000E+02  0.51100000000E-03 0.  1.
    9900012    2    1    2    0    0  0.64523679909E+00  0.74831360781E+00 -0.64569968775E+00  0.90007647566E+02  0.89999907713E+02 0.  0.
        -12    1    1    2    0    0 -0.64523679909E+00 -0.74831360781E+00  0.64569968775E+00  0.11803524344E+01  0.00000000000E+00 0.  1.
         11    1    3    3    0    0  0.89096466526E+01  0.26655872283E+02  0.32632252980E+02  0.43067171552E+02  0.51100000000E-03 0. -1.
        -11    1    3    3    0    0 -0.71338457155E+01  0.43729927717E-02 -0.63075413557E+01  0.95224393950E+01  0.51100000000E-03 0.  1.
        -12    1    3    3    0    0 -0.11305641379E+01 -0.25911931668E+02 -0.26970411312E+02  0.37418036619E+02  0.00000000000E+00 0.  1.
</event>
<event>
 7    1  0.1978681E-015  0.9000767E+02  0.7816164E-02  0.1186339E+00
        -11   -1    0    0    0    0  0.00000000000E+00  0.00000000000E+00  0.45593999997E+02  0.45594000000E+02  0.51100000000E-03 0. -1.
         11   -1    0    0    0    0 -0.00000000000E+00 -0.00000000000E+00 -0.45593999997E+02  0.45594000000E+02  0.51100000000E-03 0.  1.
    9900012    2    1    2    0    0 -0.70010490636E+00  0.59065948695E+00  0.74440751867E+00  0.90007674594E+02  0.89999935099E+02 0.  0.
        -12    1    1    2    0    0  0.70010490636E+00 -0.59065948695E+00 -0.74440751867E+00  0.11803254057E+01  0.00000000000E+00 0.  1.
         11    1    3    3    0    0 -0.65388597664E+01 -0.58968687431E+01  0.15615313464E+01  0.89424900573E+01  0.51100000000E-03 0. -1.
        -11    1    3    3    0    0  0.36704544948E+02 -0.15879579094E+02 -0.11251266151E+02  0.41544863007E+02  0.51100000000E-03 0.  1.
         12    1    3    3    0    0 -0.30865790088E+02  0.22367107324E+02  0.10434142323E+02  0.39520321530E+02  0.00000000000E+00 0. -1.
</event>
<event>
 7    1  0.1978681E-015  0.9000772E+02  0.7816164E-02  0.1186339E+00
        -11   -1    0    0    0    0  0.00000000000E+00  0.00000000000E+00  0.45593999997E+02  0.45594000000E+02  0.51100000000E-03 0. -1.
         11   -1    0    0    0    0 -0.00000000000E+00 -0.00000000000E+00 -0.45593999997E+02  0.45594000000E+02  0.51100000000E-03 0.  1.
    9900012    2    1    2    0    0  0.68908184443E+00  0.52748227240E+00  0.80000065021E+00  0.90007715129E+02  0.89999976169E+02 0.  0.
        -12    1    1    2    0    0 -0.68908184443E+00 -0.52748227240E+00 -0.80000065021E+00  0.11802848709E+01  0.00000000000E+00 0.  1.
         11    1    3    3    0    0 -0.23917650139E+02  0.89886973165E+01  0.13261721460E+02  0.28787565440E+02  0.51100000000E-03 0. -1.
        -11    1    3    3    0    0 -0.15667093666E+02  0.19911159658E+01 -0.11613434945E+02  0.19603424146E+02  0.51100000000E-03 0.  1.
        -12    1    3    3    0    0  0.40273825650E+02 -0.10452331010E+02 -0.84828586425E+00  0.41616725543E+02  0.00000000000E+00 0.  1.
</event>
<event>
 7    1  0.1978681E-015  0.9000762E+02  0.7816164E-02  0.1186339E+00
        -11   -1    0    0    0    0  0.00000000000E+00  0.00000000000E+00  0.45593999997E+02  0.45594000000E+02  0.51100000000E-03 0.  1.
         11   -1    0    0    0    0 -0.00000000000E+00 -0.00000000000E+00 -0.45593999997E+02  0.45594000000E+02  0.51100000000E-03 0. -1.
    9900012    2    1    2    0    0 -0.70935994561E+00  0.31917967970E-01 -0.94291971581E+00  0.90007615368E+02  0.89999875091E+02 0.  0.
        -12    1    1    2    0    0  0.70935994561E+00 -0.31917967970E-01  0.94291971581E+00  0.11803846321E+01  0.00000000000E+00 0.  1.
         11    1    3    3    0    0 -0.57726700952E+00 -0.68998160201E+01  0.64675433527E+01  0.94746934300E+01  0.51100000000E-03 0. -1.
        -11    1    3    3    0    0  0.11346880857E+02  0.13471203150E+01  0.34698520178E+02  0.36531544467E+02  0.51100000000E-03 0.  1.
         12    1    3    3    0    0 -0.11478973793E+02  0.55846136730E+01 -0.42108983247E+02  0.44001377471E+02  0.00000000000E+00 0. -1.
</event>
<event>
 7    1  0.1978681E-015  0.9000769E+02  0.7816164E-02  0.1186339E+00
        -11   -1    0    0    0    0  0.00000000000E+00  0.00000000000E+00  0.45593999997E+02  0.45594000000E+02  0.51100000000E-03 0.  1.
         11   -1    0    0    0    0 -0.00000000000E+00 -0.00000000000E+00 -0.45593999997E+02  0.45594000000E+02  0.51100000000E-03 0. -1.
    9900012    2    1    2    0    0  0.11104259411E+01  0.39753119470E+00 -0.45316499130E-01  0.90007690546E+02  0.89999951262E+02 0.  0.
        -12    1    1    2    0    0 -0.11104259411E+01 -0.39753119470E+00  0.45316499130E-01  0.11803094537E+01  0.00000000000E+00 0.  1.
         11    1    3    3    0    0 -0.22711501743E+02 -0.30901854210E+02  0.60568587023E+00  0.38354970482E+02  0.51100000000E-03 0. -1.
        -11    1    3    3    0    0  0.42815105695E+01 -0.57014843689E+01  0.59562725047E+01  0.92906102693E+01  0.51100000000E-03 0.  1.
        -12    1    3    3    0    0  0.19540417114E+02  0.37000869774E+02 -0.66072748740E+01  0.42362109795E+02  0.00000000000E+00 0.  1.
</event>
<event>
 7    1  0.1978681E-015  0.9000779E+02  0.7816164E-02  0.1186339E+00
        -11   -1    0    0    0    0  0.00000000000E+00  0.00000000000E+00  0.45593999997E+02  0.45594000000E+02  0.51100000000E-03 0. -1.
         11   -1    0    0    0    0 -0.00000000000E+00 -0.00000000000E+00 -0.45593999997E+02  0.45594000000E+02  0.51100000000E-03 0.  1.
    9900012    2    1    2    0    0 -0.10817769714E+01  0.41270549521E+00 -0.22874060355E+00  0.90007792601E+02  0.90000054663E+02 0.  0.
        -12    1    1    2    0    0  0.10817769714E+01 -0.41270549521E+00  0.22874060355E+00  0.11802073993E+01  0.00000000000E+00 0.  1.
         11    1    3    3    0    0 -0.47792039519E+01  0.34743538335E+02  0.19395833957E+02  0.40076833977E+02  0.51100000000E-03 0. -1.
        -11    1    3    3    0    0  0.14705561785E+01  0.44867974836E+01 -0.81030877311E+01  0.93783750283E+01  0.51100000000E-03 0.  1.
        -12    1    3    3    0    0  0.22268708020E+01 -0.38817630323E+02 -0.11521486830E+02  0.40552583595E+02  0.00000000000E+00 0.  1.
</event>
<event>
 7    1  0.1978681E-015  0.9000775E+02  0.7816164E-02  0.1186339E+00
        -11   -1    0    0    0    0  0.00000000000E+00  0.00000000000E+00  0.45593999997E+02  0.45594000000E+02  0.51100000000E-03 0.  1.
         11   -1    0    0    0    0 -0.00000000000E+00 -0.00000000000E+00 -0.45593999997E+02  0.45594000000E+02  0.51100000000E-03 0. -1.
    9900012    2    1    2    0    0  0.67083771567E+00  0.89720956146E+00 -0.37146220564E+00  0.90007749006E+02  0.90000010493E+02 0.  0.
        -12    1    1    2    0    0 -0.67083771567E+00 -0.89720956146E+00  0.37146220564E+00  0.11802509937E+01  0.00000000000E+00 0.  1.
         11    1    3    3    0    0  0.27311706445E+02  0.23786122684E+02 -0.62662203891E+01  0.36755604463E+02  0.51100000000E-03 0. -1.
        -11    1    3    3    0    0  0.10323880302E+02 -0.31505263894E+01 -0.76784521663E+00  0.10821178659E+02  0.51100000000E-03 0.  1.
        -12    1    3    3    0    0 -0.36964749032E+02 -0.19738386733E+02  0.66626034001E+01  0.42430965884E+02  0.00000000000E+00 0.  1.
</event>
<event>
 7    1  0.1978681E-015  0.9000771E+02  0.7816164E-02  0.1186339E+00
        -11   -1    0    0    0    0  0.00000000000E+00  0.00000000000E+00  0.45593999997E+02  0.45594000000E+02  0.51100000000E-03 0. -1.
         11   -1    0    0    0    0 -0.00000000000E+00 -0.00000000000E+00 -0.45593999997E+02  0.45594000000E+02  0.51100000000E-03 0.  1.
    9900012    2    1    2    0    0 -0.25706687100E+00 -0.10822219137E+01 -0.39472329021E+00  0.90007705917E+02  0.89999966835E+02 0.  0.
        -12    1    1    2    0    0  0.25706687100E+00  0.10822219137E+01  0.39472329021E+00  0.11802940831E+01  0.00000000000E+00 0.  1.
         11    1    3    3    0    0 -0.29932061713E+02 -0.23615839330E+02  0.15811529809E+02  0.41275182142E+02  0.51100000000E-03 0. -1.
        -11    1    3    3    0    0  0.51893190526E+01 -0.31641860624E+01  0.45694425618E+01  0.76040062634E+01  0.51100000000E-03 0.  1.
        -12    1    3    3    0    0  0.24485675790E+02  0.25697803479E+02 -0.20775695661E+02  0.41128517512E+02  0.00000000000E+00 0.  1.
</event>
<event>
 7    1  0.1978681E-015  0.9000731E+02  0.7816164E-02  0.1186340E+00
        -11   -1    0    0    0    0  0.00000000000E+00  0.00000000000E+00  0.45593999997E+02  0.45594000000E+02  0.51100000000E-03 0.  1.
         11   -1    0    0    0    0 -0.00000000000E+00 -0.00000000000E+00 -0.45593999997E+02  0.45594000000E+02  0.51100000000E-03 0. -1.
    9900012    2    1    2    0    0 -0.70233154545E+00 -0.11703537264E+00 -0.94183803829E+00  0.90007311316E+02  0.89999567024E+02 0.  0.
        -12    1    1    2    0    0  0.70233154545E+00  0.11703537264E+00  0.94183803829E+00  0.11806886840E+01  0.00000000000E+00 0.  1.
         11    1    3    3    0    0 -0.19852391255E+02  0.14843986781E+02 -0.27923132876E+02  0.37338488614E+02  0.51100000000E-03 0. -1.
        -11    1    3    3    0    0 -0.11113258467E+02  0.55244215057E+00  0.81760230825E+01  0.13807862246E+02  0.51100000000E-03 0.  1.
        -12    1    3    3    0    0  0.30263318177E+02 -0.15513464304E+02  0.18805271755E+02  0.38860960456E+02  0.00000000000E+00 0.  1.
</event>
<event>
 7    1  0.1978681E-015  0.9000776E+02  0.7816164E-02  0.1186339E+00
        -11   -1    0    0    0    0  0.00000000000E+00  0.00000000000E+00  0.45593999997E+02  0.45594000000E+02  0.51100000000E-03 0. -1.
         11   -1    0    0    0    0 -0.00000000000E+00 -0.00000000000E+00 -0.45593999997E+02  0.45594000000E+02  0.51100000000E-03 0.  1.
    9900012    2    1    2    0    0 -0.59646994518E+00 -0.52511706099E+00  0.87260473890E+00  0.90007761315E+02  0.90000022964E+02 0.  0.
        -12    1    1    2    0    0  0.59646994518E+00  0.52511706099E+00 -0.87260473890E+00  0.11802386850E+01  0.00000000000E+00 0.  1.
         11    1    3    3    0    0 -0.86633351733E+01 -0.27622640836E+01  0.28765496265E+01  0.95371912640E+01  0.51100000000E-03 0. -1.
        -11    1    3    3    0    0  0.14838937625E+02  0.38124871128E+02  0.98388102917E+01  0.42077334238E+02  0.51100000000E-03 0.  1.
         12    1    3    3    0    0 -0.67720723969E+01 -0.35887724105E+02 -0.11842755179E+02  0.38393235813E+02  0.00000000000E+00 0. -1.
</event>
<event>
 7    1  0.1978681E-015  0.9000774E+02  0.7816164E-02  0.1186339E+00
        -11   -1    0    0    0    0  0.00000000000E+00  0.00000000000E+00  0.45593999997E+02  0.45594000000E+02  0.51100000000E-03 0. -1.
         11   -1    0    0    0    0 -0.00000000000E+00 -0.00000000000E+00 -0.45593999997E+02  0.45594000000E+02  0.51100000000E-03 0.  1.
    9900012    2    1    2    0    0 -0.25413628519E+00  0.24902816012E-01  0.11523105351E+01  0.90007735211E+02  0.89999996516E+02 0.  0.
        -12    1    1    2    0    0  0.25413628519E+00 -0.24902816012E-01 -0.11523105351E+01  0.11802647885E+01  0.00000000000E+00 0.  1.
         11    1    3    3    0    0 -0.96775276209E+01 -0.23239029284E+00 -0.42543805730E+01  0.10573944412E+02  0.51100000000E-03 0. -1.
        -11    1    3    3    0    0 -0.32047539950E+02 -0.49154362757E+01 -0.11429200859E+02  0.34377797532E+02  0.51100000000E-03 0.  1.
         12    1    3    3    0    0  0.41470931286E+02  0.51727293845E+01  0.16835891967E+02  0.45055993268E+02  0.00000000000E+00 0. -1.
</event>
<event>
 7    1  0.1978681E-015  0.9000770E+02  0.7816164E-02  0.1186339E+00
        -11   -1    0    0    0    0  0.00000000000E+00  0.00000000000E+00  0.45593999997E+02  0.45594000000E+02  0.51100000000E-03 0.  1.
         11   -1    0    0    0    0 -0.00000000000E+00 -0.00000000000E+00 -0.45593999997E+02  0.45594000000E+02  0.51100000000E-03 0. -1.
    9900012    2    1    2    0    0  0.83849763869E+00 -0.42240493798E+00 -0.71527215299E+00  0.90007695601E+02  0.89999956383E+02 0.  0.
        -12    1    1    2    0    0 -0.83849763869E+00  0.42240493798E+00  0.71527215299E+00  0.11803043991E+01  0.00000000000E+00 0.  1.
         11    1    3    3    0    0 -0.79646385085E+01 -0.14288833395E+01 -0.39245697935E+01  0.89932987548E+01  0.51100000000E-03 0. -1.
        -11    1    3    3    0    0 -0.12349275778E+02 -0.13765011519E+02  0.35292879310E+02  0.39844290489E+02  0.51100000000E-03 0.  1.
         12    1    3    3    0    0  0.21152411925E+02  0.14771489920E+02 -0.32083581669E+02  0.41170106357E+02  0.00000000000E+00 0. -1.
</event>
<event>
 7    1  0.1978681E-015  0.9000778E+02  0.7816164E-02  0.1186339E+00
        -11   -1    0    0    0    0  0.00000000000E+00  0.00000000000E+00  0.45593999997E+02  0.45594000000E+02  0.51100000000E-03 0.  1.
         11   -1    0    0    0    0 -0.00000000000E+00 -0.00000000000E+00 -0.45593999997E+02  0.45594000000E+02  0.51100000000E-03 0. -1.
    9900012    2    1    2    0    0 -0.33723914840E+00  0.56943776816E+00 -0.97720111272E+00  0.90007783228E+02  0.90000045166E+02 0.  0.
        -12    1    1    2    0    0  0.33723914840E+00 -0.56943776816E+00  0.97720111272E+00  0.11802167723E+01  0.00000000000E+00 0.  1.
         11    1    3    3    0    0  0.10699975641E+02 -0.31677910759E+01 -0.57113709474E+00  0.11173655484E+02  0.51100000000E-03 0. -1.
        -11    1    3    3    0    0  0.37925072299E+01  0.12912958848E+02  0.36018189472E+02  0.38450456309E+02  0.51100000000E-03 0.  1.
         12    1    3    3    0    0 -0.14829722019E+02 -0.91757300035E+01 -0.36424253490E+02  0.40383671435E+02  0.00000000000E+00 0. -1.
</event>
<event>
 7    1  0.1978681E-015  0.9000776E+02  0.7816164E-02  0.1186339E+00
        -11   -1    0    0    0    0  0.00000000000E+00  0.00000000000E+00  0.45593999997E+02  0.45594000000E+02  0.51100000000E-03 0. -1.
         11   -1    0    0    0    0 -0.00000000000E+00 -0.00000000000E+00 -0.45593999997E+02  0.45594000000E+02  0.51100000000E-03 0.  1.
    9900012    2    1    2    0    0 -0.66545476087E+00  0.93870507640E+00  0.26261564557E+00  0.90007760941E+02  0.90000022585E+02 0.  0.
        -12    1    1    2    0    0  0.66545476087E+00 -0.93870507640E+00 -0.26261564557E+00  0.11802390591E+01  0.00000000000E+00 0.  1.
         11    1    3    3    0    0  0.14983492622E+01  0.72554075735E+01  0.43837172368E+01  0.86083080012E+01  0.51100000000E-03 0. -1.
        -11    1    3    3    0    0  0.24662449349E+02  0.10737958502E+02 -0.30084030546E+02  0.40355780934E+02  0.51100000000E-03 0.  1.
         12    1    3    3    0    0 -0.26826253372E+02 -0.17054661000E+02  0.25962928955E+02  0.41043672005E+02  0.00000000000E+00 0. -1.
</event>
<event>
 7    1  0.1978681E-015  0.9000733E+02  0.7816164E-02  0.1186340E+00
        -11   -1    0    0    0    0  0.00000000000E+00  0.00000000000E+00  0.45593999997E+02  0.45594000000E+02  0.51100000000E-03 0.  1.
         11   -1    0    0    0    0 -0.00000000000E+00 -0.00000000000E+00 -0.45593999997E+02  0.45594000000E+02  0.51100000000E-03 0. -1.
    9900012    2    1    2    0    0 -0.71298726088E+00  0.14943742153E+00 -0.92913387835E+00  0.90007334026E+02  0.89999590035E+02 0.  0.
        -12    1    1    2    0    0  0.71298726088E+00 -0.14943742153E+00  0.92913387835E+00  0.11806659735E+01  0.00000000000E+00 0.  1.
         11    1    3    3    0    0  0.29293615378E+02  0.56512472645E+01 -0.23455809086E+02  0.37950329086E+02  0.51100000000E-03 0. -1.
        -11    1    3    3    0    0 -0.52896973234E+01  0.14298047624E+02  0.66884072862E+01  0.16647818353E+02  0.51100000000E-03 0.  1.
        -12    1    3    3    0    0 -0.24716905316E+02 -0.19799857467E+02  0.15838267921E+02  0.35409186588E+02  0.00000000000E+00 0.  1.
</event>
<event>
 7    1  0.1978681E-015  0.9000760E+02  0.7816164E-02  0.1186339E+00
        -11   -1    0    0    0    0  0.00000000000E+00  0.00000000000E+00  0.45593999997E+02  0.45594000000E+02  0.51100000000E-03 0. -1.
         11   -1    0    0    0    0 -0.00000000000E+00 -0.00000000000E+00 -0.45593999997E+02  0.45594000000E+02  0.51100000000E-03 0.  1.
    9900012    2    1    2    0    0 -0.25196865881E+00 -0.32705223998E+00  0.11058474402E+01  0.90007597554E+02  0.89999857042E+02 0.  0.
        -12    1    1    2    0    0  0.25196865881E+00  0.32705223998E+00 -0.11058474402E+01  0.11804024456E+01  0.00000000000E+00 0.  1.
         11    1    3    3    0    0  0.29629315804E+02 -0.24612217095E+02  0.15814174758E+01  0.38550725893E+02  0.51100000000E-03 0. -1.
        -11    1    3    3    0    0  0.66471348757E+01 -0.54357410744E+00 -0.27879999451E+01  0.72286111267E+01  0.51100000000E-03 0.  1.
        -12    1    3    3    0    0 -0.36528419339E+02  0.24828738962E+02  0.23124299094E+01  0.44228260535E+02  0.00000000000E+00 0.  1.
</event>
<event>
 7    1  0.1978681E-015  0.9000784E+02  0.7816164E-02  0.1186339E+00
        -11   -1    0    0    0    0  0.00000000000E+00  0.00000000000E+00  0.45593999997E+02  0.45594000000E+02  0.51100000000E-03 0.  1.
         11   -1    0    0    0    0 -0.00000000000E+00 -0.00000000000E+00 -0.45593999997E+02  0.45594000000E+02  0.51100000000E-03 0. -1.
    9900012    2    1    2    0    0 -0.29663088368E+00  0.11306762505E+01  0.16232456300E+00  0.90007844108E+02  0.90000106851E+02 0.  0.
        -12    1    1    2    0    0  0.29663088368E+00 -0.11306762505E+01 -0.16232456300E+00  0.11801558916E+01  0.00000000000E+00 0.  1.
         11    1    3    3    0    0  0.52711627320E+01  0.29541999443E+02  0.16962020350E+01  0.30056479987E+02  0.51100000000E-03 0. -1.
        -11    1    3    3    0    0  0.45376688785E+01  0.11874390785E+02 -0.11606673649E+02  0.17213554799E+02  0.51100000000E-03 0.  1.
        -12    1    3    3    0    0 -0.10105462494E+02 -0.40285713977E+02  0.10072796177E+02  0.42737809322E+02  0.00000000000E+00 0.  1.
</event>
<event>
 7    1  0.1978681E-015  0.9000776E+02  0.7816164E-02  0.1186339E+00
        -11   -1    0    0    0    0  0.00000000000E+00  0.00000000000E+00  0.45593999997E+02  0.45594000000E+02  0.51100000000E-03 0.  1.
         11   -1    0    0    0    0 -0.00000000000E+00 -0.00000000000E+00 -0.45593999997E+02  0.45594000000E+02  0.51100000000E-03 0. -1.
    9900012    2    1    2    0    0  0.83848863186E+00 -0.80754488952E+00 -0.19435643045E+00  0.90007760043E+02  0.90000021675E+02 0.  0.
        -12    1    1    2    0    0 -0.83848863186E+00  0.80754488952E+00  0.19435643045E+00  0.11802399571E+01  0.00000000000E+00 0.  1.
         11    1    3    3    0    0  0.10414410185E+02  0.35249007762E+02 -0.22035185716E+02  0.42854426814E+02  0.51100000000E-03 0. -1.
        -11    1    3    3    0    0 -0.68020197720E+01 -0.82303774709E+01 -0.14304804001E+01  0.10772783332E+02  0.51100000000E-03 0.  1.
        -12    1    3    3    0    0 -0.27739017816E+01 -0.27826175181E+02  0.23271309686E+02  0.36380549897E+02  0.00000000000E+00 0.  1.
</event>
<event>
 7    1  0.1978681E-015  0.9000776E+02  0.7816164E-02  0.1186339E+00
        -11   -1    0    0    0    0  0.00000000000E+00  0.00000000000E+00  0.45593999997E+02  0.45594000000E+02  0.51100000000E-03 0. -1.
         11   -1    0    0    0    0 -0.00000000000E+00 -0.00000000000E+00 -0.45593999997E+02  0.45594000000E+02  0.51100000000E-03 0.  1.
    9900012    2    1    2    0    0  0.99914742427E+00 -0.12462865985E+00  0.61574366718E+00  0.90007759286E+02  0.90000020909E+02 0.  0.
        -12    1    1    2    0    0 -0.99914742427E+00  0.12462865985E+00 -0.61574366718E+00  0.11802407136E+01  0.00000000000E+00 0.  1.
         11    1    3    3    0    0 -0.16118722557E+02 -0.25742655145E+02  0.20897359125E+02  0.36867290780E+02  0.51100000000E-03 0. -1.
        -11    1    3    3    0    0 -0.16317487866E+01 -0.90581575993E+01 -0.10036579033E+01  0.92585178427E+01  0.51100000000E-03 0.  1.
        -12    1    3    3    0    0  0.18749618768E+02  0.34676184084E+02 -0.19277957555E+02  0.43881950664E+02  0.00000000000E+00 0.  1.
</event>
<event>
 7    1  0.1978681E-015  0.9000781E+02  0.7816164E-02  0.1186339E+00
        -11   -1    0    0    0    0  0.00000000000E+00  0.00000000000E+00  0.45593999997E+02  0.45594000000E+02  0.51100000000E-03 0.  1.
         11   -1    0    0    0    0 -0.00000000000E+00 -0.00000000000E+00 -0.45593999997E+02  0.45594000000E+02  0.51100000000E-03 0. -1.
    9900012    2    1    2    0    0 -0.25840468238E+00  0.25391671924E+00 -0.11232098587E+01  0.90007810580E+02  0.90000072880E+02 0.  0.
        -12    1    1    2    0    0  0.25840468238E+00 -0.25391671924E+00  0.11232098587E+01  0.11801894199E+01  0.00000000000E+00 0.  1.
         11    1    3    3    0    0 -0.35737823864E+02  0.11951219509E+01  0.14234908899E+02  0.38487049804E+02  0.51100000000E-03 0. -1.
        -11    1    3    3    0    0 -0.17690621961E+01  0.64025969136E+01  0.51179760269E+01  0.83854938533E+01  0.51100000000E-03 0.  1.
         12    1    3    3    0    0  0.37248481377E+02 -0.73438021453E+01 -0.20476094785E+02  0.43135266923E+02  0.00000000000E+00 0. -1.
</event>
<event>
 7    1  0.1978681E-015  0.9000779E+02  0.7816164E-02  0.1186339E+00
        -11   -1    0    0    0    0  0.00000000000E+00  0.00000000000E+00  0.45593999997E+02  0.45594000000E+02  0.51100000000E-03 0. -1.
         11   -1    0    0    0    0 -0.00000000000E+00 -0.00000000000E+00 -0.45593999997E+02  0.45594000000E+02  0.51100000000E-03 0.  1.
    9900012    2    1    2    0    0 -0.10350416816E+01 -0.53615932139E+00  0.18467777839E+00  0.90007794940E+02  0.90000057034E+02 0.  0.
        -12    1    1    2    0    0  0.10350416816E+01  0.53615932139E+00 -0.18467777839E+00  0.11802050595E+01  0.00000000000E+00 0.  1.
         11    1    3    3    0    0  0.10779196835E+02 -0.84678681672E+00  0.42223012582E+02  0.43585443947E+02  0.51100000000E-03 0. -1.
        -11    1    3    3    0    0 -0.64533983385E+01  0.45464113489E+01 -0.64785275328E+01  0.10212126396E+02  0.51100000000E-03 0.  1.
        -12    1    3    3    0    0 -0.53608401785E+01 -0.42357838536E+01 -0.35559807271E+02  0.36210224598E+02  0.00000000000E+00 0.  1.
</event>
<event>
 7    1  0.1978681E-015  0.9000775E+02  0.7816164E-02  0.1186339E+00
        -11   -1    0    0    0    0  0.00000000000E+00  0.00000000000E+00  0.45593999997E+02  0.45594000000E+02  0.51100000000E-03 0.  1.
         11   -1    0    0    0    0 -0.00000000000E+00 -0.00000000000E+00 -0.45593999997E+02  0.45594000000E+02  0.51100000000E-03 0. -1.
    9900012    2    1    2    0    0 -0.95677373719E+00  0.58999253967E+00  0.35984662777E+00  0.90007747156E+02  0.90000008618E+02 0.  0.
        -12    1    1    2    0    0  0.95677373719E+00 -0.58999253967E+00 -0.35984662777E+00  0.11802528443E+01  0.00000000000E+00 0.  1.
         11    1    3    3    0    0 -0.49285024912E+01  0.79126928030E+01  0.42293856316E+01  0.10236627730E+02  0.51100000000E-03 0. -1.
        -11    1    3    3    0    0 -0.22002568732E+02  0.12812294122E+02  0.25252418599E+02  0.35860180658E+02  0.51100000000E-03 0.  1.
         12    1    3    3    0    0  0.25974297486E+02 -0.20134994385E+02 -0.29121957603E+02  0.43910938767E+02  0.00000000000E+00 0. -1.
</event>
<event>
 7    1  0.1978681E-015  0.9000770E+02  0.7816164E-02  0.1186339E+00
        -11   -1    0    0    0    0  0.00000000000E+00  0.00000000000E+00  0.45593999997E+02  0.45594000000E+02  0.51100000000E-03 0. -1.
         11   -1    0    0    0    0 -0.00000000000E+00 -0.00000000000E+00 -0.45593999997E+02  0.45594000000E+02  0.51100000000E-03 0.  1.
    9900012    2    1    2    0    0  0.71920533147E+00 -0.60282649032E+00 -0.71585561082E+00  0.90007701164E+02  0.89999962020E+02 0.  0.
        -12    1    1    2    0    0 -0.71920533147E+00  0.60282649032E+00  0.71585561082E+00  0.11802988358E+01  0.00000000000E+00 0.  1.
         11    1    3    3    0    0 -0.73955333381E+01 -0.26638989150E+02  0.23742127739E+02  0.36441985211E+02  0.51100000000E-03 0. -1.
        -11    1    3    3    0    0  0.84666560556E+01 -0.90790790059E+01 -0.47159541857E+01  0.13279840530E+02  0.51100000000E-03 0.  1.
        -12    1    3    3    0    0 -0.35191738598E+00  0.35115241666E+02 -0.19742029164E+02  0.40285875423E+02  0.00000000000E+00 0.  1.
</event>
<event>
 7    1  0.1978681E-015  0.9000776E+02  0.7816164E-02  0.1186339E+00
        -11   -1    0    0    0    0  0.00000000000E+00  0.00000000000E+00  0.45593999997E+02  0.45594000000E+02  0.51100000000E-03 0.  1.
         11   -1    0    0    0    0 -0.00000000000E+00 -0.00000000000E+00 -0.45593999997E+02  0.45594000000E+02  0.51100000000E-03 0. -1.
    9900012    2    1    2    0    0 -0.28957465193E+00 -0.24151764407E+00 -0.11183794623E+01  0.90007764060E+02  0.90000025746E+02 0.  0.
        -12    1    1    2    0    0  0.28957465193E+00  0.24151764407E+00  0.11183794623E+01  0.11802359396E+01  0.00000000000E+00 0.  1.
         11    1    3    3    0    0  0.22572473535E+01  0.75581899539E+01 -0.45167984359E+01  0.90897122817E+01  0.51100000000E-03 0. -1.
        -11    1    3    3    0    0 -0.49591968656E+00 -0.14571678428E+02  0.40553697564E+02  0.43095036082E+02  0.51100000000E-03 0.  1.
         12    1    3    3    0    0 -0.20509023189E+01  0.67719708298E+01 -0.37155278591E+02  0.37823015697E+02  0.00000000000E+00 0. -1.
</event>
<event>
 7    1  0.1978681E-015  0.9000762E+02  0.7816164E-02  0.1186339E+00
        -11   -1    0    0    0    0  0.00000000000E+00  0.00000000000E+00  0.45593999997E+02  0.45594000000E+02  0.51100000000E-03 0.  1.
         11   -1    0    0    0    0 -0.00000000000E+00 -0.00000000000E+00 -0.45593999997E+02  0.45594000000E+02  0.51100000000E-03 0. -1.
    9900012    2    1    2    0    0 -0.90150456730E+00  0.71496310153E+00 -0.26346539126E+00  0.90007620089E+02  0.89999879874E+02 0.  0.
        -12    1    1    2    0    0  0.90150456730E+00 -0.71496310153E+00  0.26346539126E+00  0.11803799108E+01  0.00000000000E+00 0.  1.
         11    1    3    3    0    0  0.32719356649E+02 -0.20620916180E+02 -0.34711502045E+01  0.38830752860E+02  0.51100000000E-03 0. -1.
        -11    1    3    3    0    0  0.12821780827E+00 -0.61762566547E+01  0.44557519055E+01  0.76168439249E+01  0.51100000000E-03 0.  1.
        -12    1    3    3    0    0 -0.33749079025E+02  0.27512135936E+02 -0.12480670923E+01  0.43560023304E+02  0.00000000000E+00 0.  1.
</event>
<event>
 7    1  0.1978681E-015  0.9000787E+02  0.7816164E-02  0.1186339E+00
        -11   -1    0    0    0    0  0.00000000000E+00  0.00000000000E+00  0.45593999997E+02  0.45594000000E+02  0.51100000000E-03 0.  1.
         11   -1    0    0    0    0 -0.00000000000E+00 -0.00000000000E+00 -0.45593999997E+02  0.45594000000E+02  0.51100000000E-03 0. -1.
    9900012    2    1    2    0    0 -0.40738896551E+00  0.11056544554E+01  0.65311332835E-01  0.90007871569E+02  0.90000134673E+02 0.  0.
        -12    1    1    2    0    0  0.40738896551E+00 -0.11056544554E+01 -0.65311332835E-01  0.11801284312E+01  0.00000000000E+00 0.  1.
         11    1    3    3    0    0 -0.17423933777E+02 -0.11420940728E+02  0.31300046363E+02  0.37599524704E+02  0.51100000000E-03 0. -1.
        -11    1    3    3    0    0 -0.54018976641E+01  0.12152536490E+02  0.78117359291E+00  0.13321969598E+02  0.51100000000E-03 0.  1.
        -12    1    3    3    0    0  0.22418442475E+02  0.37405869291E+00 -0.32015908623E+02  0.39086377267E+02  0.00000000000E+00 0.  1.
</event>
<event>
 7    1  0.1978681E-015  0.9000711E+02  0.7816164E-02  0.1186340E+00
        -11   -1    0    0    0    0  0.00000000000E+00  0.00000000000E+00  0.45593999997E+02  0.45594000000E+02  0.51100000000E-03 0. -1.
         11   -1    0    0    0    0 -0.00000000000E+00 -0.00000000000E+00 -0.45593999997E+02  0.45594000000E+02  0.51100000000E-03 0.  1.
    9900012    2    1    2    0    0  0.98946350959E+00 -0.63351471198E+00  0.11887258419E+00  0.90007106432E+02  0.89999359435E+02 0.  0.
        -12    1    1    2    0    0 -0.98946350959E+00  0.63351471198E+00 -0.11887258419E+00  0.11808935678E+01  0.00000000000E+00 0.  1.
         11    1    3    3    0    0 -0.85001576923E+01  0.70943290131E+01 -0.14821488747E+01  0.11170449878E+02  0.51100000000E-03 0. -1.
        -11    1    3    3    0    0 -0.32112946476E+02 -0.14179832243E+02  0.86411879558E+01  0.36152165957E+02  0.51100000000E-03 0.  1.
         12    1    3    3    0    0  0.41602567678E+02  0.64519885184E+01 -0.70401664970E+01  0.42684490597E+02  0.00000000000E+00 0. -1.
</event>
<event>
 7    1  0.1978681E-015  0.9000774E+02  0.7816164E-02  0.1186339E+00
        -11   -1    0    0    0    0  0.00000000000E+00  0.00000000000E+00  0.45593999997E+02  0.45594000000E+02  0.51100000000E-03 0. -1.
         11   -1    0    0    0    0 -0.00000000000E+00 -0.00000000000E+00 -0.45593999997E+02  0.45594000000E+02  0.51100000000E-03 0.  1.
    9900012    2    1    2    0    0  0.73699846475E+00 -0.48025428282E+00  0.78689250455E+00  0.90007741246E+02  0.90000002630E+02 0.  0.
        -12    1    1    2    0    0 -0.73699846475E+00  0.48025428282E+00 -0.78689250455E+00  0.11802587542E+01  0.00000000000E+00 0.  1.
         11    1    3    3    0    0 -0.33343483835E+02  0.23241463835E+02  0.74992241954E+01  0.41330278480E+02  0.51100000000E-03 0. -1.
        -11    1    3    3    0    0  0.12829854548E+01 -0.11312553382E+02 -0.74450411547E+01  0.13603255263E+02  0.51100000000E-03 0.  1.
        -12    1    3    3    0    0  0.32797496845E+02 -0.12409164736E+02  0.73270946390E+00  0.35074207502E+02  0.00000000000E+00 0.  1.
</event>
<event>
 7    1  0.1978681E-015  0.9000788E+02  0.7816164E-02  0.1186339E+00
        -11   -1    0    0    0    0  0.00000000000E+00  0.00000000000E+00  0.45593999997E+02  0.45594000000E+02  0.51100000000E-03 0. -1.
         11   -1    0    0    0    0 -0.00000000000E+00 -0.00000000000E+00 -0.45593999997E+02  0.45594000000E+02  0.51100000000E-03 0.  1.
    9900012    2    1    2    0    0  0.13819052080E+00 -0.11712245744E+01 -0.42699890755E-01  0.90007878437E+02  0.90000141632E+02 0.  0.
        -12    1    1    2    0    0 -0.13819052080E+00  0.11712245744E+01  0.42699890755E-01  0.11801215634E+01  0.00000000000E+00 0.  1.
         11    1    3    3    0    0 -0.55574355712E+01 -0.41063678343E+01 -0.48100584564E+01  0.84192641919E+01  0.51100000000E-03 0. -1.
        -11    1    3    3    0    0 -0.11994602057E+02  0.15428256607E+02 -0.32826354675E+02  0.38203025298E+02  0.51100000000E-03 0.  1.
         12    1    3    3    0    0  0.17690228149E+02 -0.12493113347E+02  0.37593713240E+02  0.43385588947E+02  0.00000000000E+00 0. -1.
</event>
<event>
 7    1  0.1978681E-015  0.9000773E+02  0.7816164E-02  0.1186339E+00
        -11   -1    0    0    0    0  0.00000000000E+00  0.00000000000E+00  0.45593999997E+02  0.45594000000E+02  0.51100000000E-03 0. -1.
         11   -1    0    0    0    0 -0.00000000000E+00 -0.00000000000E+00 -0.45593999997E+02  0.45594000000E+02  0.51100000000E-03 0.  1.
    9900012    2    1    2    0    0  0.97514455214E-02 -0.10025986147E+01  0.62269170748E+00  0.90007727135E+02  0.89999988333E+02 0.  0.
        -12    1    1    2    0    0 -0.97514455214E-02  0.10025986147E+01 -0.62269170748E+00  0.11802728648E+01  0.00000000000E+00 0.  1.
         11    1    3    3    0    0  0.30814307629E+02  0.13492208001E+02  0.18022070386E+02  0.38162235950E+02  0.51100000000E-03 0. -1.
        -11    1    3    3    0    0  0.59474042260E+00 -0.13837095347E+01  0.87831448697E+01  0.89113412184E+01  0.51100000000E-03 0.  1.
        -12    1    3    3    0    0 -0.31399296606E+02 -0.13111097081E+02 -0.26182523548E+02  0.42934149967E+02  0.00000000000E+00 0.  1.
</event>
<event>
 7    1  0.1978681E-015  0.9000771E+02  0.7816164E-02  0.1186339E+00
        -11   -1    0    0    0    0  0.00000000000E+00  0.00000000000E+00  0.45593999997E+02  0.45594000000E+02  0.51100000000E-03 0.  1.
         11   -1    0    0    0    0 -0.00000000000E+00 -0.00000000000E+00 -0.45593999997E+02  0.45594000000E+02  0.51100000000E-03 0. -1.
    9900012    2    1    2    0    0 -0.48711807033E+00 -0.86016792913E+00 -0.64490947528E+00  0.90007711428E+02  0.89999972419E+02 0.  0.
        -12    1    1    2    0    0  0.48711807033E+00  0.86016792913E+00  0.64490947528E+00  0.11802885715E+01  0.00000000000E+00 0.  1.
         11    1    3    3    0    0  0.11494442784E+02  0.24026712329E+02 -0.29240355675E+02  0.39552541265E+02  0.51100000000E-03 0. -1.
        -11    1    3    3    0    0 -0.82274680855E+01 -0.38027564496E+01 -0.51970897064E+01  0.10448058642E+02  0.51100000000E-03 0.  1.
        -12    1    3    3    0    0 -0.37540927690E+01 -0.21084123808E+02  0.33792535907E+02  0.40007111521E+02  0.00000000000E+00 0.  1.
</event>
<event>
 7    1  0.1978681E-015  0.9000774E+02  0.7816164E-02  0.1186339E+00
        -11   -1    0    0    0    0  0.00000000000E+00  0.00000000000E+00  0.45593999997E+02  0.45594000000E+02  0.51100000000E-03 0.  1.
         11   -1    0    0    0    0 -0.00000000000E+00 -0.00000000000E+00 -0.45593999997E+02  0.45594000000E+02  0.51100000000E-03 0. -1.
    9900012    2    1    2    0    0  0.10522191799E+01 -0.42524967449E+00 -0.32405103785E+00  0.90007740891E+02  0.90000002271E+02 0.  0.
        -12    1    1    2    0    0 -0.10522191799E+01  0.42524967449E+00  0.32405103785E+00  0.11802591086E+01  0.00000000000E+00 0.  1.
         11    1    3    3    0    0  0.41974516434E+01 -0.12446625954E+02  0.12758507017E+02  0.18311652014E+02  0.51100000000E-03 0. -1.
        -11    1    3    3    0    0  0.11514958118E+02 -0.19332727869E+02  0.15068285936E+02  0.27081393403E+02  0.51100000000E-03 0.  1.
         12    1    3    3    0    0 -0.14660190582E+02  0.31354104149E+02 -0.28150843991E+02  0.44614695474E+02  0.00000000000E+00 0. -1.
</event>
<event>
 7    1  0.1978681E-015  0.9000780E+02  0.7816164E-02  0.1186339E+00
        -11   -1    0    0    0    0  0.00000000000E+00  0.00000000000E+00  0.45593999997E+02  0.45594000000E+02  0.51100000000E-03 0.  1.
         11   -1    0    0    0    0 -0.00000000000E+00 -0.00000000000E+00 -0.45593999997E+02  0.45594000000E+02  0.51100000000E-03 0. -1.
    9900012    2    1    2    0    0  0.14781763701E+00 -0.72145926754E+00 -0.92223002520E+00  0.90007804360E+02  0.90000066578E+02 0.  0.
        -12    1    1    2    0    0 -0.14781763701E+00  0.72145926754E+00  0.92223002520E+00  0.11801956397E+01  0.00000000000E+00 0.  1.
         11    1    3    3    0    0  0.82294946703E+01  0.14415346406E+01  0.24719979437E+01  0.87128284009E+01  0.51100000000E-03 0. -1.
        -11    1    3    3    0    0  0.33774939127E+02  0.11494395044E+02  0.62554453725E+01  0.36221516086E+02  0.51100000000E-03 0.  1.
         12    1    3    3    0    0 -0.41856616160E+02 -0.13657388952E+02 -0.96496733414E+01  0.45073459874E+02  0.00000000000E+00 0. -1.
</event>
<event>
 7    1  0.1978681E-015  0.9000779E+02  0.7816164E-02  0.1186339E+00
        -11   -1    0    0    0    0  0.00000000000E+00  0.00000000000E+00  0.45593999997E+02  0.45594000000E+02  0.51100000000E-03 0.  1.
         11   -1    0    0    0    0 -0.00000000000E+00 -0.00000000000E+00 -0.45593999997E+02  0.45594000000E+02  0.51100000000E-03 0. -1.
    9900012    2    1    2    0    0 -0.11068267461E+01  0.22737799077E-01  0.40904513499E+00  0.90007787995E+02  0.90000049997E+02 0.  0.
        -12    1    1    2    0    0  0.11068267461E+01 -0.22737799077E-01 -0.40904513499E+00  0.11802120046E+01  0.00000000000E+00 0.  1.
         11    1    3    3    0    0 -0.98495947417E+01  0.36258728578E+02 -0.41901411611E+01  0.37805650344E+02  0.51100000000E-03 0. -1.
        -11    1    3    3    0    0 -0.10109420654E+02  0.97247208237E+00 -0.56543817460E+00  0.10171814416E+02  0.51100000000E-03 0.  1.
        -12    1    3    3    0    0  0.18852188650E+02 -0.37208462862E+02  0.51646244707E+01  0.42030323236E+02  0.00000000000E+00 0.  1.
</event>
<event>
 7    1  0.1978681E-015  0.9000770E+02  0.7816164E-02  0.1186339E+00
        -11   -1    0    0    0    0  0.00000000000E+00  0.00000000000E+00  0.45593999997E+02  0.45594000000E+02  0.51100000000E-03 0.  1.
         11   -1    0    0    0    0 -0.00000000000E+00 -0.00000000000E+00 -0.45593999997E+02  0.45594000000E+02  0.51100000000E-03 0. -1.
    9900012    2    1    2    0    0 -0.10282829687E+01  0.17878478453E+00 -0.55116848260E+00  0.90007696412E+02  0.89999957205E+02 0.  0.
        -12    1    1    2    0    0  0.10282829687E+01 -0.17878478453E+00  0.55116848260E+00  0.11803035877E+01  0.00000000000E+00 0.  1.
         11    1    3    3    0    0 -0.83775273926E+01 -0.72311934996E+01  0.28121042702E+01  0.11418452405E+02  0.51100000000E-03 0. -1.
        -11    1    3    3    0    0 -0.24598619280E+02 -0.94587792044E+01  0.22096197131E+02  0.34391895883E+02  0.51100000000E-03 0.  1.
         12    1    3    3    0    0  0.31947863704E+02  0.16868757489E+02 -0.25459469884E+02  0.44197348124E+02  0.00000000000E+00 0. -1.
</event>
<event>
 7    1  0.1978681E-015  0.9000766E+02  0.7816164E-02  0.1186339E+00
        -11   -1    0    0    0    0  0.00000000000E+00  0.00000000000E+00  0.45593999997E+02  0.45594000000E+02  0.51100000000E-03 0.  1.
         11   -1    0    0    0    0 -0.00000000000E+00 -0.00000000000E+00 -0.45593999997E+02  0.45594000000E+02  0.51100000000E-03 0. -1.
    9900012    2    1    2    0    0  0.49132037045E+00  0.86393400622E+00  0.63672925055E+00  0.90007660298E+02  0.89999920614E+02 0.  0.
        -12    1    1    2    0    0 -0.49132037045E+00 -0.86393400622E+00 -0.63672925055E+00  0.11803397020E+01  0.00000000000E+00 0.  1.
         11    1    3    3    0    0  0.13169855821E+02  0.23531200474E+02 -0.27395334900E+02  0.38440432784E+02  0.51100000000E-03 0. -1.
        -11    1    3    3    0    0  0.72517718411E+01  0.49707498181E+01  0.30124692054E+01  0.92936279011E+01  0.51100000000E-03 0.  1.
        -12    1    3    3    0    0 -0.19930307292E+02 -0.27638016286E+02  0.25019594945E+02  0.42273599613E+02  0.00000000000E+00 0.  1.
</event>
<event>
 7    1  0.1978681E-015  0.9000746E+02  0.7816164E-02  0.1186340E+00
        -11   -1    0    0    0    0  0.00000000000E+00  0.00000000000E+00  0.45593999997E+02  0.45594000000E+02  0.51100000000E-03 0. -1.
         11   -1    0    0    0    0 -0.00000000000E+00 -0.00000000000E+00 -0.45593999997E+02  0.45594000000E+02  0.51100000000E-03 0.  1.
    9900012    2    1    2    0    0 -0.10352481663E+00  0.92820021812E+00 -0.72207551445E+00  0.90007463647E+02  0.89999721367E+02 0.  0.
        -12    1    1    2    0    0  0.10352481663E+00 -0.92820021812E+00  0.72207551445E+00  0.11805363532E+01  0.00000000000E+00 0.  1.
         11    1    3    3    0    0 -0.31388942527E+01  0.11392533290E+02  0.24520587655E+01  0.12068763994E+02  0.51100000000E-03 0. -1.
        -11    1    3    3    0    0 -0.19225089698E+01 -0.13009629171E+01 -0.39796005741E+02  0.39863650340E+02  0.51100000000E-03 0.  1.
         12    1    3    3    0    0  0.49578784059E+01 -0.91633701548E+01  0.36621871461E+02  0.38075049313E+02  0.00000000000E+00 0. -1.
</event>
<event>
 7    1  0.1978681E-015  0.9000769E+02  0.7816164E-02  0.1186339E+00
        -11   -1    0    0    0    0  0.00000000000E+00  0.00000000000E+00  0.45593999997E+02  0.45594000000E+02  0.51100000000E-03 0.  1.
         11   -1    0    0    0    0 -0.00000000000E+00 -0.00000000000E+00 -0.45593999997E+02  0.45594000000E+02  0.51100000000E-03 0. -1.
    9900012    2    1    2    0    0  0.10029710875E+01 -0.35322148576E+00 -0.51226923699E+00  0.90007688096E+02  0.89999948779E+02 0.  0.
        -12    1    1    2    0    0 -0.10029710875E+01  0.35322148576E+00  0.51226923699E+00  0.11803119043E+01  0.00000000000E+00 0.  1.
         11    1    3    3    0    0  0.26249496506E+02  0.11123007134E+02 -0.28314298032E+02  0.40180303979E+02  0.51100000000E-03 0. -1.
        -11    1    3    3    0    0  0.60443035289E+01 -0.76033549408E+01  0.50627513377E+01  0.10953358520E+02  0.51100000000E-03 0.  1.
        -12    1    3    3    0    0 -0.31290828948E+02 -0.38728736787E+01  0.22739277457E+02  0.38874025596E+02  0.00000000000E+00 0.  1.
</event>
<event>
 7    1  0.1978681E-015  0.9000776E+02  0.7816164E-02  0.1186339E+00
        -11   -1    0    0    0    0  0.00000000000E+00  0.00000000000E+00  0.45593999997E+02  0.45594000000E+02  0.51100000000E-03 0.  1.
         11   -1    0    0    0    0 -0.00000000000E+00 -0.00000000000E+00 -0.45593999997E+02  0.45594000000E+02  0.51100000000E-03 0. -1.
    9900012    2    1    2    0    0 -0.92233474763E+00 -0.72174482706E+00  0.14612588813E+00  0.90007758602E+02  0.90000020216E+02 0.  0.
        -12    1    1    2    0    0  0.92233474763E+00  0.72174482706E+00 -0.14612588813E+00  0.11802413979E+01  0.00000000000E+00 0.  1.
         11    1    3    3    0    0  0.56460372036E+01  0.34712032001E+02  0.44166223076E+01  0.35444455908E+02  0.51100000000E-03 0. -1.
        -11    1    3    3    0    0 -0.43845918469E+01  0.89291863753E+01 -0.15026651390E+01  0.10060468069E+02  0.51100000000E-03 0.  1.
        -12    1    3    3    0    0 -0.21837801044E+01 -0.44362963203E+02 -0.27678312805E+01  0.44502834625E+02  0.00000000000E+00 0.  1.
</event>
<event>
 7    1  0.1978681E-015  0.9000776E+02  0.7816164E-02  0.1186339E+00
        -11   -1    0    0    0    0  0.00000000000E+00  0.00000000000E+00  0.45593999997E+02  0.45594000000E+02  0.51100000000E-03 0.  1.
         11   -1    0    0    0    0 -0.00000000000E+00 -0.00000000000E+00 -0.45593999997E+02  0.45594000000E+02  0.51100000000E-03 0. -1.
    9900012    2    1    2    0    0  0.87764106118E+00  0.71015932204E+00 -0.34408139432E+00  0.90007757609E+02  0.90000019210E+02 0.  0.
        -12    1    1    2    0    0 -0.87764106118E+00 -0.71015932204E+00  0.34408139432E+00  0.11802423907E+01  0.00000000000E+00 0.  1.
         11    1    3    3    0    0  0.20309631641E+02  0.74274955349E+01 -0.29259740832E+02  0.36383804929E+02  0.51100000000E-03 0. -1.
        -11    1    3    3    0    0  0.11226735488E+02 -0.46635758545E+01  0.11517416607E+01  0.12211266870E+02  0.51100000000E-03 0.  1.
        -12    1    3    3    0    0 -0.30658726067E+02 -0.20537603583E+01  0.27763917777E+02  0.41412685810E+02  0.00000000000E+00 0.  1.
</event>
<event>
 7    1  0.1978681E-015  0.9000773E+02  0.7816164E-02  0.1186339E+00
        -11   -1    0    0    0    0  0.00000000000E+00  0.00000000000E+00  0.45593999997E+02  0.45594000000E+02  0.51100000000E-03 0.  1.
         11   -1    0    0    0    0 -0.00000000000E+00 -0.00000000000E+00 -0.45593999997E+02  0.45594000000E+02  0.51100000000E-03 0. -1.
    9900012    2    1    2    0    0  0.80755756426E+00  0.62857408348E+00 -0.58803024190E+00  0.90007731317E+02  0.89999992571E+02 0.  0.
        -12    1    1    2    0    0 -0.80755756426E+00 -0.62857408348E+00  0.58803024190E+00  0.11802686827E+01  0.00000000000E+00 0.  1.
         11    1    3    3    0    0  0.18972162811E+02  0.14380625618E+02 -0.33897016350E+02  0.41421649805E+02  0.51100000000E-03 0. -1.
        -11    1    3    3    0    0 -0.21464027268E+01 -0.10981605221E+02 -0.36315231834E+00  0.11195292661E+02  0.51100000000E-03 0.  1.
        -12    1    3    3    0    0 -0.16018202520E+02 -0.27704463139E+01  0.33672138426E+02  0.37390788852E+02  0.00000000000E+00 0.  1.
</event>
<event>
 7    1  0.1978681E-015  0.9000756E+02  0.7816164E-02  0.1186339E+00
        -11   -1    0    0    0    0  0.00000000000E+00  0.00000000000E+00  0.45593999997E+02  0.45594000000E+02  0.51100000000E-03 0.  1.
         11   -1    0    0    0    0 -0.00000000000E+00 -0.00000000000E+00 -0.45593999997E+02  0.45594000000E+02  0.51100000000E-03 0. -1.
    9900012    2    1    2    0    0  0.96269513850E+00 -0.97790897301E-01 -0.67609470135E+00  0.90007555578E+02  0.89999814511E+02 0.  0.
        -12    1    1    2    0    0 -0.96269513850E+00  0.97790897301E-01  0.67609470135E+00  0.11804444224E+01  0.00000000000E+00 0.  1.
         11    1    3    3    0    0  0.16933384037E+02  0.61511774787E+01  0.15959254469E+02  0.24068117558E+02  0.51100000000E-03 0. -1.
        -11    1    3    3    0    0  0.14462026173E+02 -0.11421712353E+02  0.13465414733E+02  0.22823740015E+02  0.51100000000E-03 0.  1.
         12    1    3    3    0    0 -0.30432715071E+02  0.51727439773E+01 -0.30100763903E+02  0.43115698004E+02  0.00000000000E+00 0. -1.
</event>
<event>
 7    1  0.1978681E-015  0.9000776E+02  0.7816164E-02  0.1186339E+00
        -11   -1    0    0    0    0  0.00000000000E+00  0.00000000000E+00  0.45593999997E+02  0.45594000000E+02  0.51100000000E-03 0. -1.
         11   -1    0    0    0    0 -0.00000000000E+00 -0.00000000000E+00 -0.45593999997E+02  0.45594000000E+02  0.51100000000E-03 0.  1.
    9900012    2    1    2    0    0  0.81407377117E-01  0.85314096471E+00  0.81147203590E+00  0.90007761240E+02  0.90000022888E+02 0.  0.
        -12    1    1    2    0    0 -0.81407377117E-01 -0.85314096471E+00 -0.81147203590E+00  0.11802387605E+01  0.00000000000E+00 0.  1.
         11    1    3    3    0    0 -0.13429507715E+01  0.19398812922E+02 -0.11798912914E+01  0.19481006218E+02  0.51100000000E-03 0. -1.
        -11    1    3    3    0    0  0.30048769456E+02  0.89208994807E+00 -0.13082703055E+02  0.32785385308E+02  0.51100000000E-03 0.  1.
         12    1    3    3    0    0 -0.28624411307E+02 -0.19437761905E+02  0.15074066382E+02  0.37741369714E+02  0.00000000000E+00 0. -1.
</event>
<event>
 7    1  0.1978681E-015  0.9000773E+02  0.7816164E-02  0.1186339E+00
        -11   -1    0    0    0    0  0.00000000000E+00  0.00000000000E+00  0.45593999997E+02  0.45594000000E+02  0.51100000000E-03 0.  1.
         11   -1    0    0    0    0 -0.00000000000E+00 -0.00000000000E+00 -0.45593999997E+02  0.45594000000E+02  0.51100000000E-03 0. -1.
    9900012    2    1    2    0    0 -0.36621191584E+00 -0.46296468658E-01 -0.11210604939E+01  0.90007732589E+02  0.89999993859E+02 0.  0.
        -12    1    1    2    0    0  0.36621191584E+00  0.46296468658E-01  0.11210604939E+01  0.11802674109E+01  0.00000000000E+00 0.  1.
         11    1    3    3    0    0 -0.38072613393E+01 -0.13945834607E+02 -0.20311064339E+01  0.14598182606E+02  0.51100000000E-03 0. -1.
        -11    1    3    3    0    0  0.20281836602E+02 -0.21686476166E+02  0.15411485591E+02  0.33453998757E+02  0.51100000000E-03 0.  1.
         12    1    3    3    0    0 -0.16840787179E+02  0.35586014304E+02 -0.14501439650E+02  0.41955551227E+02  0.00000000000E+00 0. -1.
</event>
<event>
 7    1  0.1978681E-015  0.9000769E+02  0.7816164E-02  0.1186339E+00
        -11   -1    0    0    0    0  0.00000000000E+00  0.00000000000E+00  0.45593999997E+02  0.45594000000E+02  0.51100000000E-03 0.  1.
         11   -1    0    0    0    0 -0.00000000000E+00 -0.00000000000E+00 -0.45593999997E+02  0.45594000000E+02  0.51100000000E-03 0. -1.
    9900012    2    1    2    0    0  0.87911073208E+00  0.38330125366E+00 -0.68801738782E+00  0.90007693491E+02  0.89999954245E+02 0.  0.
        -12    1    1    2    0    0 -0.87911073208E+00 -0.38330125366E+00  0.68801738782E+00  0.11803065095E+01  0.00000000000E+00 0.  1.
         11    1    3    3    0    0  0.37318014901E+02  0.34543386567E+01  0.29458084503E+00  0.37478706886E+02  0.51100000000E-03 0. -1.
        -11    1    3    3    0    0  0.45101184097E+01  0.48355240760E+01 -0.78480492754E+01  0.10262326191E+02  0.51100000000E-03 0.  1.
        -12    1    3    3    0    0 -0.40949022578E+02 -0.79065614791E+01  0.68654510425E+01  0.42266660414E+02  0.00000000000E+00 0.  1.
</event>
<event>
 7    1  0.1978681E-015  0.9000776E+02  0.7816164E-02  0.1186339E+00
        -11   -1    0    0    0    0  0.00000000000E+00  0.00000000000E+00  0.45593999997E+02  0.45594000000E+02  0.51100000000E-03 0.  1.
         11   -1    0    0    0    0 -0.00000000000E+00 -0.00000000000E+00 -0.45593999997E+02  0.45594000000E+02  0.51100000000E-03 0. -1.
    9900012    2    1    2    0    0 -0.11694329980E+01 -0.29827104947E-01 -0.15651675558E+00  0.90007762444E+02  0.90000024109E+02 0.  0.
        -12    1    1    2    0    0  0.11694329980E+01  0.29827104947E-01  0.15651675558E+00  0.11802375557E+01  0.00000000000E+00 0.  1.
         11    1    3    3    0    0 -0.27441055650E+02 -0.21640685897E+02 -0.14568090595E+02  0.37862383511E+02  0.51100000000E-03 0. -1.
        -11    1    3    3    0    0  0.20089237878E+00 -0.44265366681E+01 -0.79091838082E+01  0.90658575653E+01  0.51100000000E-03 0.  1.
        -12    1    3    3    0    0  0.26070730273E+02  0.26037395461E+02  0.22320757647E+02  0.43079521368E+02  0.00000000000E+00 0.  1.
</event>
<event>
 7    1  0.1978681E-015  0.9000769E+02  0.7816164E-02  0.1186339E+00
        -11   -1    0    0    0    0  0.00000000000E+00  0.00000000000E+00  0.45593999997E+02  0.45594000000E+02  0.51100000000E-03 0.  1.
         11   -1    0    0    0    0 -0.00000000000E+00 -0.00000000000E+00 -0.45593999997E+02  0.45594000000E+02  0.51100000000E-03 0. -1.
    9900012    2    1    2    0    0 -0.24337882179E-01  0.11280509130E+01  0.34647443390E+00  0.90007688292E+02  0.89999948977E+02 0.  0.
        -12    1    1    2    0    0  0.24337882179E-01 -0.11280509130E+01 -0.34647443390E+00  0.11803117080E+01  0.00000000000E+00 0.  1.
         11    1    3    3    0    0  0.40308985150E+01  0.64128453499E+01 -0.99601951758E+01  0.12513121774E+02  0.51100000000E-03 0. -1.
        -11    1    3    3    0    0  0.19604454873E+02  0.23597001924E+02  0.22691740075E+02  0.38158461952E+02  0.51100000000E-03 0.  1.
         12    1    3    3    0    0 -0.23659691270E+02 -0.28881796361E+02 -0.12385070465E+02  0.39336104566E+02  0.00000000000E+00 0. -1.
</event>
<event>
 7    1  0.1978681E-015  0.9000771E+02  0.7816164E-02  0.1186339E+00
        -11   -1    0    0    0    0  0.00000000000E+00  0.00000000000E+00  0.45593999997E+02  0.45594000000E+02  0.51100000000E-03 0. -1.
         11   -1    0    0    0    0 -0.00000000000E+00 -0.00000000000E+00 -0.45593999997E+02  0.45594000000E+02  0.51100000000E-03 0.  1.
    9900012    2    1    2    0    0  0.21217431513E+00  0.29935258101E+00  0.11218057545E+01  0.90007712722E+02  0.89999973730E+02 0.  0.
        -12    1    1    2    0    0 -0.21217431513E+00 -0.29935258101E+00 -0.11218057545E+01  0.11802872780E+01  0.00000000000E+00 0.  1.
         11    1    3    3    0    0  0.66888963768E+01 -0.27482486437E+01  0.83094403440E+01  0.11015489296E+02  0.51100000000E-03 0. -1.
        -11    1    3    3    0    0  0.34955533319E+02 -0.59115868974E+01 -0.89555451238E+01  0.36565529642E+02  0.51100000000E-03 0.  1.
         12    1    3    3    0    0 -0.41432255381E+02  0.89591881221E+01  0.17679105343E+01  0.42426693784E+02  0.00000000000E+00 0. -1.
</event>
<event>
 7    1  0.1978681E-015  0.9000769E+02  0.7816164E-02  0.1186339E+00
        -11   -1    0    0    0    0  0.00000000000E+00  0.00000000000E+00  0.45593999997E+02  0.45594000000E+02  0.51100000000E-03 0. -1.
         11   -1    0    0    0    0 -0.00000000000E+00 -0.00000000000E+00 -0.45593999997E+02  0.45594000000E+02  0.51100000000E-03 0.  1.
    9900012    2    1    2    0    0 -0.33654378224E+00  0.99718391362E+00 -0.53431081556E+00  0.90007692615E+02  0.89999953358E+02 0.  0.
        -12    1    1    2    0    0  0.33654378224E+00 -0.99718391362E+00  0.53431081556E+00  0.11803073848E+01  0.00000000000E+00 0.  1.
         11    1    3    3    0    0 -0.75439318825E+00  0.20488721354E+00  0.10770639828E+02  0.10798970803E+02  0.51100000000E-03 0. -1.
        -11    1    3    3    0    0  0.38715056987E+02  0.58563457678E+01 -0.75212680583E+00  0.39162713367E+02  0.51100000000E-03 0.  1.
         12    1    3    3    0    0 -0.38297207581E+02 -0.50640490678E+01 -0.10552823838E+02  0.40046008445E+02  0.00000000000E+00 0. -1.
</event>
<event>
 7    1  0.1978681E-015  0.9000764E+02  0.7816164E-02  0.1186339E+00
        -11   -1    0    0    0    0  0.00000000000E+00  0.00000000000E+00  0.45593999997E+02  0.45594000000E+02  0.51100000000E-03 0. -1.
         11   -1    0    0    0    0 -0.00000000000E+00 -0.00000000000E+00 -0.45593999997E+02  0.45594000000E+02  0.51100000000E-03 0.  1.
    9900012    2    1    2    0    0  0.28328924203E+00  0.10680989423E+01 -0.41492399738E+00  0.90007639856E+02  0.89999899902E+02 0.  0.
        -12    1    1    2    0    0 -0.28328924203E+00 -0.10680989423E+01  0.41492399738E+00  0.11803601437E+01  0.00000000000E+00 0.  1.
         11    1    3    3    0    0  0.52367654799E+01  0.17642581594E+00 -0.39643497182E+01  0.65704571918E+01  0.51100000000E-03 0. -1.
        -11    1    3    3    0    0 -0.57962834184E+01 -0.28954311586E+02 -0.27507146866E+02  0.40355819777E+02  0.51100000000E-03 0.  1.
         12    1    3    3    0    0  0.84280718051E+00  0.29845984712E+02  0.31056572587E+02  0.43081362888E+02  0.00000000000E+00 0. -1.
</event>
<event>
 7    1  0.1978681E-015  0.9000788E+02  0.7816164E-02  0.1186339E+00
        -11   -1    0    0    0    0  0.00000000000E+00  0.00000000000E+00  0.45593999997E+02  0.45594000000E+02  0.51100000000E-03 0.  1.
         11   -1    0    0    0    0 -0.00000000000E+00 -0.00000000000E+00 -0.45593999997E+02  0.45594000000E+02  0.51100000000E-03 0. -1.
    9900012    2    1    2    0    0 -0.11540448076E+01  0.11904621003E+00 -0.21606149040E+00  0.90007883910E+02  0.90000147178E+02 0.  0.
        -12    1    1    2    0    0  0.11540448076E+01 -0.11904621003E+00  0.21606149040E+00  0.11801160899E+01  0.00000000000E+00 0.  1.
         11    1    3    3    0    0  0.14507118247E+02 -0.23022943043E+02 -0.29016852065E+02  0.39780524006E+02  0.51100000000E-03 0. -1.
        -11    1    3    3    0    0  0.78903423294E+01  0.21604497141E+01  0.11113817245E+01  0.82559199755E+01  0.51100000000E-03 0.  1.
        -12    1    3    3    0    0 -0.23551505384E+02  0.20981539539E+02  0.27689408850E+02  0.41971439929E+02  0.00000000000E+00 0.  1.
</event>
<event>
 7    1  0.1978681E-015  0.9000711E+02  0.7816164E-02  0.1186340E+00
        -11   -1    0    0    0    0  0.00000000000E+00  0.00000000000E+00  0.45593999997E+02  0.45594000000E+02  0.51100000000E-03 0.  1.
         11   -1    0    0    0    0 -0.00000000000E+00 -0.00000000000E+00 -0.45593999997E+02  0.45594000000E+02  0.51100000000E-03 0. -1.
    9900012    2    1    2    0    0 -0.10239450378E+00 -0.11334925912E+01 -0.31497690206E+00  0.90007110277E+02  0.89999363331E+02 0.  0.
        -12    1    1    2    0    0  0.10239450378E+00  0.11334925912E+01  0.31497690206E+00  0.11808897229E+01  0.00000000000E+00 0.  1.
         11    1    3    3    0    0  0.36290412452E+02  0.94962276926E+01  0.14546678321E+02  0.40234043132E+02  0.51100000000E-03 0. -1.
        -11    1    3    3    0    0 -0.40184415607E+01  0.56261876952E+01  0.49311232906E+01  0.84922221902E+01  0.51100000000E-03 0.  1.
        -12    1    3    3    0    0 -0.32374365395E+02 -0.16255907979E+02 -0.19792778513E+02  0.41280844955E+02  0.00000000000E+00 0.  1.
</event>
<event>
 7    1  0.2775651E-015  0.9000774E+02  0.7816164E-02  0.1186339E+00
        -11   -1    0    0    0    0  0.00000000000E+00  0.00000000000E+00  0.45593999997E+02  0.45594000000E+02  0.51100000000E-03 0. -1.
         11   -1    0    0    0    0 -0.00000000000E+00 -0.00000000000E+00 -0.45593999997E+02  0.45594000000E+02  0.51100000000E-03 0.  1.
    9900012    2    1    2    0    0 -0.62008347988E-01 -0.99885661989E+00  0.62566275635E+00  0.90007740085E+02  0.90000001454E+02 0.  0.
        -12    1    1    2    0    0  0.62008347988E-01  0.99885661989E+00 -0.62566275635E+00  0.11802599150E+01  0.00000000000E+00 0.  1.
         11    1    3    3    0    0 -0.23808888601E+01  0.76473384701E+01  0.53923425031E+01  0.96554531417E+01  0.51100000000E-03 0. -1.
        -11    1    3    3    0    0  0.40566251512E+02  0.78043669584E+00 -0.55564378501E+01  0.40952458351E+02  0.51100000000E-03 0.  1.
         12    1    3    3    0    0 -0.38247371000E+02 -0.94266317858E+01  0.78975810340E+00  0.39399828592E+02  0.00000000000E+00 0. -1.
</event>
<event>
 7    1  0.1978681E-015  0.9000781E+02  0.7816164E-02  0.1186339E+00
        -11   -1    0    0    0    0  0.00000000000E+00  0.00000000000E+00  0.45593999997E+02  0.45594000000E+02  0.51100000000E-03 0.  1.
         11   -1    0    0    0    0 -0.00000000000E+00 -0.00000000000E+00 -0.45593999997E+02  0.45594000000E+02  0.51100000000E-03 0. -1.
    9900012    2    1    2    0    0 -0.40968981777E+00  0.86163414631E+00 -0.69469343652E+00  0.90007805897E+02  0.90000068135E+02 0.  0.
        -12    1    1    2    0    0  0.40968981777E+00 -0.86163414631E+00  0.69469343652E+00  0.11801941025E+01  0.00000000000E+00 0.  1.
         11    1    3    3    0    0 -0.20896988377E+01  0.19836821649E+02  0.46545309910E+00  0.19952016971E+02  0.51100000000E-03 0. -1.
        -11    1    3    3    0    0  0.12551924956E+02  0.16137087946E+02  0.19191742880E+02  0.28040674430E+02  0.51100000000E-03 0.  1.
         12    1    3    3    0    0 -0.10871915936E+02 -0.35112275449E+02 -0.20351889415E+02  0.42015114496E+02  0.00000000000E+00 0. -1.
</event>
<event>
 7    1  0.1978681E-015  0.9000755E+02  0.7816164E-02  0.1186339E+00
        -11   -1    0    0    0    0  0.00000000000E+00  0.00000000000E+00  0.45593999997E+02  0.45594000000E+02  0.51100000000E-03 0. -1.
         11   -1    0    0    0    0 -0.00000000000E+00 -0.00000000000E+00 -0.45593999997E+02  0.45594000000E+02  0.51100000000E-03 0.  1.
    9900012    2    1    2    0    0 -0.11274842169E+01  0.30616380195E+00  0.16881826329E+00  0.90007552399E+02  0.89999811290E+02 0.  0.
        -12    1    1    2    0    0  0.11274842169E+01 -0.30616380195E+00 -0.16881826329E+00  0.11804476011E+01  0.00000000000E+00 0.  1.
         11    1    3    3    0    0 -0.37551102881E+02  0.79764529987E+01 -0.39221652082E+00  0.38390922939E+02  0.51100000000E-03 0. -1.
        -11    1    3    3    0    0 -0.57195567636E+01 -0.75458523997E+01  0.26426530950E+00  0.94722254209E+01  0.51100000000E-03 0.  1.
        -12    1    3    3    0    0  0.42143175428E+02 -0.12443679710E+00  0.29676947461E+00  0.42144404039E+02  0.00000000000E+00 0.  1.
</event>
<event>
 7    1  0.1978681E-015  0.9000770E+02  0.7816164E-02  0.1186339E+00
        -11   -1    0    0    0    0  0.00000000000E+00  0.00000000000E+00  0.45593999997E+02  0.45594000000E+02  0.51100000000E-03 0. -1.
         11   -1    0    0    0    0 -0.00000000000E+00 -0.00000000000E+00 -0.45593999997E+02  0.45594000000E+02  0.51100000000E-03 0.  1.
    9900012    2    1    2    0    0 -0.95211866651E+00 -0.15265517817E+00  0.68063701894E+00  0.90007703296E+02  0.89999964179E+02 0.  0.
        -12    1    1    2    0    0  0.95211866651E+00  0.15265517817E+00 -0.68063701894E+00  0.11802967043E+01  0.00000000000E+00 0.  1.
         11    1    3    3    0    0 -0.32244106156E+02 -0.22600809467E+02 -0.11586228719E+02  0.41045336721E+02  0.51100000000E-03 0. -1.
        -11    1    3    3    0    0  0.50760220643E+01 -0.39157266819E+01 -0.48431171155E+01  0.80345938977E+01  0.51100000000E-03 0.  1.
        -12    1    3    3    0    0  0.26215965425E+02  0.26363880971E+02  0.17109982854E+02  0.40927772677E+02  0.00000000000E+00 0.  1.
</event>
<event>
 7    1  0.1978681E-015  0.9000773E+02  0.7816164E-02  0.1186339E+00
        -11   -1    0    0    0    0  0.00000000000E+00  0.00000000000E+00  0.45593999997E+02  0.45594000000E+02  0.51100000000E-03 0.  1.
         11   -1    0    0    0    0 -0.00000000000E+00 -0.00000000000E+00 -0.45593999997E+02  0.45594000000E+02  0.51100000000E-03 0. -1.
    9900012    2    1    2    0    0 -0.36818297148E+00 -0.33621356586E+00 -0.10697885866E+01  0.90007726353E+02  0.89999987541E+02 0.  0.
        -12    1    1    2    0    0  0.36818297148E+00  0.33621356586E+00  0.10697885866E+01  0.11802736472E+01  0.00000000000E+00 0.  1.
         11    1    3    3    0    0  0.23755601897E+02  0.21641560343E+02 -0.22670353036E+02  0.39327225463E+02  0.51100000000E-03 0. -1.
        -11    1    3    3    0    0  0.27564730100E+01 -0.56734704027E+01 -0.61034421459E+01  0.87771530780E+01  0.51100000000E-03 0.  1.
        -12    1    3    3    0    0 -0.26880257878E+02 -0.16304303506E+02  0.27704006596E+02  0.41903347812E+02  0.00000000000E+00 0.  1.
</event>
<event>
 7    1  0.1978681E-015  0.9000862E+02  0.7816164E-02  0.1186337E+00
        -11   -1    0    0    0    0  0.00000000000E+00  0.00000000000E+00  0.45593999997E+02  0.45594000000E+02  0.51100000000E-03 0. -1.
         11   -1    0    0    0    0 -0.00000000000E+00 -0.00000000000E+00 -0.45593999997E+02  0.45594000000E+02  0.51100000000E-03 0.  1.
    9900012    2    1    2    0    0 -0.49406863571E+00 -0.52696172578E+00  0.93227959988E+00  0.90008619769E+02  0.90000892745E+02 0.  0.
        -12    1    1    2    0    0  0.49406863571E+00  0.52696172578E+00 -0.93227959988E+00  0.11793802311E+01  0.00000000000E+00 0.  1.
         11    1    3    3    0    0 -0.70560630105E+00  0.17442057488E+02  0.31916910027E+02  0.36378735487E+02  0.51100000000E-03 0. -1.
        -11    1    3    3    0    0 -0.28031619503E+01 -0.18871679796E+01  0.94362028427E+01  0.10023025703E+02  0.51100000000E-03 0.  1.
        -12    1    3    3    0    0  0.30146996157E+01 -0.16081851234E+02 -0.40420833270E+02  0.43606858579E+02  0.00000000000E+00 0.  1.
</event>
<event>
 7    1  0.1978681E-015  0.9000785E+02  0.7816164E-02  0.1186339E+00
        -11   -1    0    0    0    0  0.00000000000E+00  0.00000000000E+00  0.45593999997E+02  0.45594000000E+02  0.51100000000E-03 0.  1.
         11   -1    0    0    0    0 -0.00000000000E+00 -0.00000000000E+00 -0.45593999997E+02  0.45594000000E+02  0.51100000000E-03 0. -1.
    9900012    2    1    2    0    0 -0.28836734326E-01 -0.10027932545E+01 -0.62155718362E+00  0.90007847806E+02  0.90000110597E+02 0.  0.
        -12    1    1    2    0    0  0.28836734326E-01  0.10027932545E+01  0.62155718362E+00  0.11801521940E+01  0.00000000000E+00 0.  1.
         11    1    3    3    0    0 -0.30400516705E+02  0.38595074586E+01 -0.52594941196E+01  0.31092595460E+02  0.51100000000E-03 0. -1.
        -11    1    3    3    0    0  0.73244291826E+01  0.18266634265E+02  0.14904969448E+02  0.24687553640E+02  0.51100000000E-03 0.  1.
         12    1    3    3    0    0  0.23047250788E+02 -0.23128934978E+02 -0.10267032512E+02  0.34227698706E+02  0.00000000000E+00 0. -1.
</event>
<event>
 7    1  0.1978681E-015  0.9000778E+02  0.7816164E-02  0.1186339E+00
        -11   -1    0    0    0    0  0.00000000000E+00  0.00000000000E+00  0.45593999997E+02  0.45594000000E+02  0.51100000000E-03 0.  1.
         11   -1    0    0    0    0 -0.00000000000E+00 -0.00000000000E+00 -0.45593999997E+02  0.45594000000E+02  0.51100000000E-03 0. -1.
    9900012    2    1    2    0    0  0.10593452809E+01 -0.51451284020E+00 -0.77283213697E-01  0.90007784519E+02  0.90000046474E+02 0.  0.
        -12    1    1    2    0    0 -0.10593452809E+01  0.51451284020E+00  0.77283213697E-01  0.11802154812E+01  0.00000000000E+00 0.  1.
         11    1    3    3    0    0  0.26534240612E+01  0.70077653949E+01  0.71839559933E+01  0.10380686829E+02  0.51100000000E-03 0. -1.
        -11    1    3    3    0    0  0.20577868340E+02  0.20695172834E+02 -0.26050239006E+02  0.39119736663E+02  0.51100000000E-03 0.  1.
         12    1    3    3    0    0 -0.22171947120E+02 -0.28217451069E+02  0.18788999799E+02  0.40507361027E+02  0.00000000000E+00 0. -1.
</event>
<event>
 7    1  0.1978681E-015  0.9000773E+02  0.7816164E-02  0.1186339E+00
        -11   -1    0    0    0    0  0.00000000000E+00  0.00000000000E+00  0.45593999997E+02  0.45594000000E+02  0.51100000000E-03 0.  1.
         11   -1    0    0    0    0 -0.00000000000E+00 -0.00000000000E+00 -0.45593999997E+02  0.45594000000E+02  0.51100000000E-03 0. -1.
    9900012    2    1    2    0    0 -0.98424625566E+00 -0.63415456336E+00  0.14879500731E+00  0.90007731956E+02  0.89999993218E+02 0.  0.
        -12    1    1    2    0    0  0.98424625566E+00  0.63415456336E+00 -0.14879500731E+00  0.11802680442E+01  0.00000000000E+00 0.  1.
         11    1    3    3    0    0  0.24010765542E+02 -0.16523158589E+02 -0.12929872018E+02  0.31885940826E+02  0.51100000000E-03 0. -1.
        -11    1    3    3    0    0  0.88381027678E+01 -0.63635926827E+01 -0.69753970031E+01  0.12933040477E+02  0.51100000000E-03 0.  1.
        -12    1    3    3    0    0 -0.33833114566E+02  0.22252596709E+02  0.20054064028E+02  0.45188750653E+02  0.00000000000E+00 0.  1.
</event>
<event>
 7    1  0.1978681E-015  0.9000757E+02  0.7816164E-02  0.1186339E+00
        -11   -1    0    0    0    0  0.00000000000E+00  0.00000000000E+00  0.45593999997E+02  0.45594000000E+02  0.51100000000E-03 0.  1.
         11   -1    0    0    0    0 -0.00000000000E+00 -0.00000000000E+00 -0.45593999997E+02  0.45594000000E+02  0.51100000000E-03 0. -1.
    9900012    2    1    2    0    0  0.90294563675E+00  0.75617375244E+00  0.79341534100E-01  0.90007574379E+02  0.89999833561E+02 0.  0.
        -12    1    1    2    0    0 -0.90294563675E+00 -0.75617375244E+00 -0.79341534100E-01  0.11804256206E+01  0.00000000000E+00 0.  1.
         11    1    3    3    0    0  0.14367943121E+02 -0.11522569364E+02  0.47564520095E+01  0.19021861903E+02  0.51100000000E-03 0. -1.
        -11    1    3    3    0    0  0.18683737306E+02  0.11564147609E+02  0.20572566299E+02  0.30100532123E+02  0.51100000000E-03 0.  1.
         12    1    3    3    0    0 -0.32148734790E+02  0.71459550702E+00 -0.25249676775E+02  0.40885180354E+02  0.00000000000E+00 0. -1.
</event>
<event>
 7    1  0.1978681E-015  0.9000774E+02  0.7816164E-02  0.1186339E+00
        -11   -1    0    0    0    0  0.00000000000E+00  0.00000000000E+00  0.45593999997E+02  0.45594000000E+02  0.51100000000E-03 0. -1.
         11   -1    0    0    0    0 -0.00000000000E+00 -0.00000000000E+00 -0.45593999997E+02  0.45594000000E+02  0.51100000000E-03 0.  1.
    9900012    2    1    2    0    0 -0.10555692311E+01  0.34706355185E+00 -0.39790590970E+00  0.90007742137E+02  0.90000003533E+02 0.  0.
        -12    1    1    2    0    0  0.10555692311E+01 -0.34706355185E+00  0.39790590970E+00  0.11802578632E+01  0.00000000000E+00 0.  1.
         11    1    3    3    0    0  0.19707965353E+01  0.48239106817E+01 -0.80022690208E+01  0.95493697693E+01  0.51100000000E-03 0. -1.
        -11    1    3    3    0    0 -0.10620795680E+02 -0.19966537079E+02 -0.30884935061E+02  0.38279800388E+02  0.51100000000E-03 0.  1.
         12    1    3    3    0    0  0.75944299139E+01  0.15489689949E+02  0.38489298172E+02  0.42178571979E+02  0.00000000000E+00 0. -1.
</event>
<event>
 7    1  0.1978681E-015  0.9000763E+02  0.7816164E-02  0.1186339E+00
        -11   -1    0    0    0    0  0.00000000000E+00  0.00000000000E+00  0.45593999997E+02  0.45594000000E+02  0.51100000000E-03 0.  1.
         11   -1    0    0    0    0 -0.00000000000E+00 -0.00000000000E+00 -0.45593999997E+02  0.45594000000E+02  0.51100000000E-03 0. -1.
    9900012    2    1    2    0    0  0.59288289467E+00 -0.15106294226E+00 -0.10094319324E+01  0.90007625921E+02  0.89999885783E+02 0.  0.
        -12    1    1    2    0    0 -0.59288289467E+00  0.15106294226E+00  0.10094319324E+01  0.11803740787E+01  0.00000000000E+00 0.  1.
         11    1    3    3    0    0 -0.10185513578E+02 -0.20023530358E+02 -0.33889476486E+02  0.40659354048E+02  0.51100000000E-03 0. -1.
        -11    1    3    3    0    0 -0.96735638534E+01  0.31629248370E+01  0.68603536810E+01  0.12273808864E+02  0.51100000000E-03 0.  1.
        -12    1    3    3    0    0  0.20451960326E+02  0.16709542579E+02  0.26019690872E+02  0.37074463009E+02  0.00000000000E+00 0.  1.
</event>
<event>
 7    1  0.1978681E-015  0.9000734E+02  0.7816164E-02  0.1186340E+00
        -11   -1    0    0    0    0  0.00000000000E+00  0.00000000000E+00  0.45593999997E+02  0.45594000000E+02  0.51100000000E-03 0. -1.
         11   -1    0    0    0    0 -0.00000000000E+00 -0.00000000000E+00 -0.45593999997E+02  0.45594000000E+02  0.51100000000E-03 0.  1.
    9900012    2    1    2    0    0  0.18743327201E-01 -0.39404793893E+00  0.11128085190E+01  0.90007335827E+02  0.89999591859E+02 0.  0.
        -12    1    1    2    0    0 -0.18743327201E-01  0.39404793893E+00 -0.11128085190E+01  0.11806641734E+01  0.00000000000E+00 0.  1.
         11    1    3    3    0    0 -0.31636739245E+02  0.15719290062E+02  0.79830712159E+01  0.36217520296E+02  0.51100000000E-03 0. -1.
        -11    1    3    3    0    0 -0.60186888208E+01  0.32909595938E+01 -0.90501666147E+01  0.11356079701E+02  0.51100000000E-03 0.  1.
        -12    1    3    3    0    0  0.37674171393E+02 -0.19404297595E+02  0.21799039178E+01  0.42433735829E+02  0.00000000000E+00 0.  1.
</event>
<event>
 7    1  0.1978681E-015  0.9000766E+02  0.7816164E-02  0.1186339E+00
        -11   -1    0    0    0    0  0.00000000000E+00  0.00000000000E+00  0.45593999997E+02  0.45594000000E+02  0.51100000000E-03 0.  1.
         11   -1    0    0    0    0 -0.00000000000E+00 -0.00000000000E+00 -0.45593999997E+02  0.45594000000E+02  0.51100000000E-03 0. -1.
    9900012    2    1    2    0    0 -0.23460208409E+00 -0.11104806318E+01 -0.32404186243E+00  0.90007657465E+02  0.89999917743E+02 0.  0.
        -12    1    1    2    0    0  0.23460208409E+00  0.11104806318E+01  0.32404186243E+00  0.11803425351E+01  0.00000000000E+00 0.  1.
         11    1    3    3    0    0  0.91921325998E+01  0.22812569632E+02 -0.31826799964E+02  0.40222553762E+02  0.51100000000E-03 0. -1.
        -11    1    3    3    0    0  0.52040480742E+01 -0.81165467552E+01 -0.21041877912E+01  0.98685386005E+01  0.51100000000E-03 0.  1.
        -12    1    3    3    0    0 -0.14630782758E+02 -0.15806503509E+02  0.33606945893E+02  0.39916565102E+02  0.00000000000E+00 0.  1.
</event>
<event>
 7    1  0.1978681E-015  0.9000777E+02  0.7816164E-02  0.1186339E+00
        -11   -1    0    0    0    0  0.00000000000E+00  0.00000000000E+00  0.45593999997E+02  0.45594000000E+02  0.51100000000E-03 0.  1.
         11   -1    0    0    0    0 -0.00000000000E+00 -0.00000000000E+00 -0.45593999997E+02  0.45594000000E+02  0.51100000000E-03 0. -1.
    9900012    2    1    2    0    0  0.68072272274E+00 -0.62475113476E+00 -0.73433033512E+00  0.90007771867E+02  0.90000033655E+02 0.  0.
        -12    1    1    2    0    0 -0.68072272274E+00  0.62475113476E+00  0.73433033512E+00  0.11802281333E+01  0.00000000000E+00 0.  1.
         11    1    3    3    0    0 -0.31579298718E+01  0.14287825575E+01  0.90048099757E+01  0.96488622972E+01  0.51100000000E-03 0. -1.
        -11    1    3    3    0    0 -0.63480706696E+01  0.37712478402E+02 -0.90679414232E+01  0.39303391588E+02  0.51100000000E-03 0.  1.
         12    1    3    3    0    0  0.10186723264E+02 -0.39766012094E+02 -0.67119888760E+00  0.41055517981E+02  0.00000000000E+00 0. -1.
</event>
<event>
 7    1  0.1978681E-015  0.9000771E+02  0.7816164E-02  0.1186339E+00
        -11   -1    0    0    0    0  0.00000000000E+00  0.00000000000E+00  0.45593999997E+02  0.45594000000E+02  0.51100000000E-03 0. -1.
         11   -1    0    0    0    0 -0.00000000000E+00 -0.00000000000E+00 -0.45593999997E+02  0.45594000000E+02  0.51100000000E-03 0.  1.
    9900012    2    1    2    0    0  0.12346390646E+00 -0.26132720968E+00  0.11443509941E+01  0.90007714253E+02  0.89999975281E+02 0.  0.
        -12    1    1    2    0    0 -0.12346390646E+00  0.26132720968E+00 -0.11443509941E+01  0.11802857469E+01  0.00000000000E+00 0.  1.
         11    1    3    3    0    0 -0.65716410995E+01  0.50358337477E+01  0.23653744698E+01  0.86105217564E+01  0.51100000000E-03 0. -1.
        -11    1    3    3    0    0 -0.12277478830E+02 -0.38640720675E+02  0.93408853340E+01  0.41606416810E+02  0.51100000000E-03 0.  1.
         12    1    3    3    0    0  0.18972583836E+02  0.33343559717E+02 -0.10561908810E+02  0.39790775687E+02  0.00000000000E+00 0. -1.
</event>
<event>
 7    1  0.1978681E-015  0.9000779E+02  0.7816164E-02  0.1186339E+00
        -11   -1    0    0    0    0  0.00000000000E+00  0.00000000000E+00  0.45593999997E+02  0.45594000000E+02  0.51100000000E-03 0. -1.
         11   -1    0    0    0    0 -0.00000000000E+00 -0.00000000000E+00 -0.45593999997E+02  0.45594000000E+02  0.51100000000E-03 0.  1.
    9900012    2    1    2    0    0  0.54932891467E+00  0.23593765630E+00  0.10175740826E+01  0.90007794150E+02  0.90000056233E+02 0.  0.
        -12    1    1    2    0    0 -0.54932891467E+00 -0.23593765630E+00 -0.10175740826E+01  0.11802058497E+01  0.00000000000E+00 0.  1.
         11    1    3    3    0    0 -0.21685233651E+01 -0.14070904063E+01  0.76328816984E+01  0.80587393728E+01  0.51100000000E-03 0. -1.
        -11    1    3    3    0    0 -0.11579876168E+02 -0.33828659001E+02  0.14122433935E+02  0.38443658026E+02  0.51100000000E-03 0.  1.
         12    1    3    3    0    0  0.14297728448E+02  0.35471687063E+02 -0.20737741551E+02  0.43505396752E+02  0.00000000000E+00 0. -1.
</event>
<event>
 7    1  0.1978681E-015  0.9000808E+02  0.7816164E-02  0.1186338E+00
        -11   -1    0    0    0    0  0.00000000000E+00  0.00000000000E+00  0.45593999997E+02  0.45594000000E+02  0.51100000000E-03 0. -1.
         11   -1    0    0    0    0 -0.00000000000E+00 -0.00000000000E+00 -0.45593999997E+02  0.45594000000E+02  0.51100000000E-03 0.  1.
    9900012    2    1    2    0    0 -0.47166528398E+00  0.63505886924E+00  0.87547157163E+00  0.90008076960E+02  0.90000342775E+02 0.  0.
        -12    1    1    2    0    0  0.47166528398E+00 -0.63505886924E+00 -0.87547157163E+00  0.11799230400E+01  0.00000000000E+00 0.  1.
         11    1    3    3    0    0 -0.13777978359E+02  0.11432894703E+02  0.31853792647E+02  0.36540496374E+02  0.51100000000E-03 0. -1.
        -11    1    3    3    0    0 -0.86039352241E+01 -0.36748868495E+01  0.51037321414E+01  0.10657418859E+02  0.51100000000E-03 0.  1.
        -12    1    3    3    0    0  0.21910248300E+02 -0.71229489845E+01 -0.36082053217E+02  0.42810161728E+02  0.00000000000E+00 0.  1.
</event>
<event>
 7    1  0.1978681E-015  0.9000780E+02  0.7816164E-02  0.1186339E+00
        -11   -1    0    0    0    0  0.00000000000E+00  0.00000000000E+00  0.45593999997E+02  0.45594000000E+02  0.51100000000E-03 0.  1.
         11   -1    0    0    0    0 -0.00000000000E+00 -0.00000000000E+00 -0.45593999997E+02  0.45594000000E+02  0.51100000000E-03 0. -1.
    9900012    2    1    2    0    0  0.10371698861E+01  0.21625495420E+00 -0.51997444472E+00  0.90007804677E+02  0.90000066899E+02 0.  0.
        -12    1    1    2    0    0 -0.10371698861E+01 -0.21625495420E+00  0.51997444472E+00  0.11801953232E+01  0.00000000000E+00 0.  1.
         11    1    3    3    0    0  0.22294186630E+02 -0.28926370692E+02 -0.83290016825E+01  0.37458482994E+02  0.51100000000E-03 0. -1.
        -11    1    3    3    0    0 -0.33289286551E+01 -0.86211558556E+01 -0.23367480032E+01  0.95323913983E+01  0.51100000000E-03 0.  1.
        -12    1    3    3    0    0 -0.17928088089E+02  0.37763781502E+02  0.10145775241E+02  0.43016930285E+02  0.00000000000E+00 0.  1.
</event>
<event>
 7    1  0.1978681E-015  0.9000795E+02  0.7816164E-02  0.1186339E+00
        -11   -1    0    0    0    0  0.00000000000E+00  0.00000000000E+00  0.45593999997E+02  0.45594000000E+02  0.51100000000E-03 0. -1.
         11   -1    0    0    0    0 -0.00000000000E+00 -0.00000000000E+00 -0.45593999997E+02  0.45594000000E+02  0.51100000000E-03 0.  1.
    9900012    2    1    2    0    0  0.37317253538E+00 -0.74776623357E+00  0.83313304514E+00  0.90007947988E+02  0.90000212101E+02 0.  0.
        -12    1    1    2    0    0 -0.37317253538E+00  0.74776623357E+00 -0.83313304514E+00  0.11800520125E+01  0.00000000000E+00 0.  1.
         11    1    3    3    0    0 -0.29978133383E+02 -0.17472324729E+02  0.11954986819E+02  0.36700031644E+02  0.51100000000E-03 0. -1.
        -11    1    3    3    0    0 -0.60342441680E+01  0.31750324202E+01  0.75939695939E+01  0.10205944738E+02  0.51100000000E-03 0.  1.
        -12    1    3    3    0    0  0.36385550086E+02  0.13549526075E+02 -0.18715823368E+02  0.43101971605E+02  0.00000000000E+00 0.  1.
</event>
<event>
 7    1  0.1978681E-015  0.9000766E+02  0.7816164E-02  0.1186339E+00
        -11   -1    0    0    0    0  0.00000000000E+00  0.00000000000E+00  0.45593999997E+02  0.45594000000E+02  0.51100000000E-03 0.  1.
         11   -1    0    0    0    0 -0.00000000000E+00 -0.00000000000E+00 -0.45593999997E+02  0.45594000000E+02  0.51100000000E-03 0. -1.
    9900012    2    1    2    0    0  0.10026087987E+01 -0.60390768613E+00 -0.15252545139E+00  0.90007664069E+02  0.89999924435E+02 0.  0.
        -12    1    1    2    0    0 -0.10026087987E+01  0.60390768613E+00  0.15252545139E+00  0.11803359309E+01  0.00000000000E+00 0.  1.
         11    1    3    3    0    0 -0.34023426728E+00  0.24188312536E+01 -0.91170614821E+01  0.94386076473E+01  0.51100000000E-03 0. -1.
        -11    1    3    3    0    0 -0.31017389475E+02  0.15397518252E+02  0.22105078630E+02  0.41082800776E+02  0.51100000000E-03 0.  1.
         12    1    3    3    0    0  0.32360232541E+02 -0.18420257192E+02 -0.13140542599E+02  0.39486255645E+02  0.00000000000E+00 0. -1.
</event>
<event>
 7    1  0.1978681E-015  0.9000782E+02  0.7816164E-02  0.1186339E+00
        -11   -1    0    0    0    0  0.00000000000E+00  0.00000000000E+00  0.45593999997E+02  0.45594000000E+02  0.51100000000E-03 0.  1.
         11   -1    0    0    0    0 -0.00000000000E+00 -0.00000000000E+00 -0.45593999997E+02  0.45594000000E+02  0.51100000000E-03 0. -1.
    9900012    2    1    2    0    0  0.42244672639E+00  0.10850845419E+01 -0.19225788014E+00  0.90007816628E+02  0.90000079007E+02 0.  0.
        -12    1    1    2    0    0 -0.42244672639E+00 -0.10850845419E+01  0.19225788014E+00  0.11801833723E+01  0.00000000000E+00 0.  1.
         11    1    3    3    0    0  0.11900072589E+02  0.42687304719E+01 -0.26424483509E+01  0.12915739275E+02  0.51100000000E-03 0. -1.
        -11    1    3    3    0    0 -0.75598487966E+00 -0.32984784207E+02  0.22200632771E+02  0.39767267923E+02  0.51100000000E-03 0.  1.
         12    1    3    3    0    0 -0.10721640983E+02  0.29801138277E+02 -0.19750442300E+02  0.37324809431E+02  0.00000000000E+00 0. -1.
</event>
<event>
 7    1  0.1978681E-015  0.9000781E+02  0.7816164E-02  0.1186339E+00
        -11   -1    0    0    0    0  0.00000000000E+00  0.00000000000E+00  0.45593999997E+02  0.45594000000E+02  0.51100000000E-03 0.  1.
         11   -1    0    0    0    0 -0.00000000000E+00 -0.00000000000E+00 -0.45593999997E+02  0.45594000000E+02  0.51100000000E-03 0. -1.
    9900012    2    1    2    0    0  0.24076704353E+00 -0.11427334439E+01 -0.17043227578E+00  0.90007806942E+02  0.90000069194E+02 0.  0.
        -12    1    1    2    0    0 -0.24076704353E+00  0.11427334439E+01  0.17043227578E+00  0.11801930578E+01  0.00000000000E+00 0.  1.
         11    1    3    3    0    0  0.11009389464E+02  0.26791170383E+02 -0.29900711760E+02  0.41629629243E+02  0.51100000000E-03 0. -1.
        -11    1    3    3    0    0  0.35457215972E+01 -0.97519015282E+01 -0.40352072831E+00  0.10384341785E+02  0.51100000000E-03 0.  1.
        -12    1    3    3    0    0 -0.14314344018E+02 -0.18182002298E+02  0.30133800213E+02  0.37993835915E+02  0.00000000000E+00 0.  1.
</event>
<event>
 7    1  0.1978681E-015  0.9000777E+02  0.7816164E-02  0.1186339E+00
        -11   -1    0    0    0    0  0.00000000000E+00  0.00000000000E+00  0.45593999997E+02  0.45594000000E+02  0.51100000000E-03 0. -1.
         11   -1    0    0    0    0 -0.00000000000E+00 -0.00000000000E+00 -0.45593999997E+02  0.45594000000E+02  0.51100000000E-03 0.  1.
    9900012    2    1    2    0    0 -0.95682530640E+00 -0.37693858262E+00  0.57909414959E+00  0.90007768075E+02  0.90000029814E+02 0.  0.
        -12    1    1    2    0    0  0.95682530640E+00  0.37693858262E+00 -0.57909414959E+00  0.11802319247E+01  0.00000000000E+00 0.  1.
         11    1    3    3    0    0 -0.29269944141E+02 -0.13681286733E+01 -0.24879444449E+02  0.38439408976E+02  0.51100000000E-03 0. -1.
        -11    1    3    3    0    0 -0.45110184342E+01  0.78308312829E+01 -0.66802030490E+00  0.90618683109E+01  0.51100000000E-03 0.  1.
        -12    1    3    3    0    0  0.32824137268E+02 -0.68396411922E+01  0.26126558903E+02  0.42506490789E+02  0.00000000000E+00 0.  1.
</event>
<event>
 7    1  0.1978681E-015  0.9000780E+02  0.7816164E-02  0.1186339E+00
        -11   -1    0    0    0    0  0.00000000000E+00  0.00000000000E+00  0.45593999997E+02  0.45594000000E+02  0.51100000000E-03 0. -1.
         11   -1    0    0    0    0 -0.00000000000E+00 -0.00000000000E+00 -0.45593999997E+02  0.45594000000E+02  0.51100000000E-03 0.  1.
    9900012    2    1    2    0    0 -0.52058214834E+00 -0.35173777519E+00  0.99907731989E+00  0.90007796320E+02  0.90000058431E+02 0.  0.
        -12    1    1    2    0    0  0.52058214834E+00  0.35173777519E+00 -0.99907731989E+00  0.11802036802E+01  0.00000000000E+00 0.  1.
         11    1    3    3    0    0 -0.27090411770E+01  0.54095019285E+01 -0.14408436220E+02  0.15627048659E+02  0.51100000000E-03 0. -1.
        -11    1    3    3    0    0 -0.42129253532E+01 -0.16657246559E+02 -0.25957260171E+02  0.31128635672E+02  0.51100000000E-03 0.  1.
         12    1    3    3    0    0  0.64013843818E+01  0.10896006856E+02  0.41364773711E+02  0.43252111989E+02  0.00000000000E+00 0. -1.
</event>
<event>
 7    1  0.1978681E-015  0.9000777E+02  0.7816164E-02  0.1186339E+00
        -11   -1    0    0    0    0  0.00000000000E+00  0.00000000000E+00  0.45593999997E+02  0.45594000000E+02  0.51100000000E-03 0.  1.
         11   -1    0    0    0    0 -0.00000000000E+00 -0.00000000000E+00 -0.45593999997E+02  0.45594000000E+02  0.51100000000E-03 0. -1.
    9900012    2    1    2    0    0  0.19843692735E+00  0.20719073255E+00 -0.11448291112E+01  0.90007771671E+02  0.90000033457E+02 0.  0.
        -12    1    1    2    0    0 -0.19843692735E+00 -0.20719073255E+00  0.11448291112E+01  0.11802283286E+01  0.00000000000E+00 0.  1.
         11    1    3    3    0    0  0.86993074196E+01  0.29461285824E+01 -0.31739551009E+02  0.33041742111E+02  0.51100000000E-03 0. -1.
        -11    1    3    3    0    0 -0.28370139343E+00 -0.66538930414E+01 -0.11830012390E+02  0.13575859918E+02  0.51100000000E-03 0.  1.
        -12    1    3    3    0    0 -0.82171690988E+01  0.39149551916E+01  0.42424734289E+02  0.43390169642E+02  0.00000000000E+00 0.  1.
</event>
<event>
 7    1  0.1978681E-015  0.9000780E+02  0.7816164E-02  0.1186339E+00
        -11   -1    0    0    0    0  0.00000000000E+00  0.00000000000E+00  0.45593999997E+02  0.45594000000E+02  0.51100000000E-03 0. -1.
         11   -1    0    0    0    0 -0.00000000000E+00 -0.00000000000E+00 -0.45593999997E+02  0.45594000000E+02  0.51100000000E-03 0.  1.
    9900012    2    1    2    0    0  0.10865725831E+01 -0.33394614722E+00  0.31735187062E+00  0.90007799925E+02  0.90000062084E+02 0.  0.
        -12    1    1    2    0    0 -0.10865725831E+01  0.33394614722E+00 -0.31735187062E+00  0.11802000751E+01  0.00000000000E+00 0.  1.
         11    1    3    3    0    0 -0.27471631401E+02 -0.32852701541E+01  0.23793048622E+02  0.36490994708E+02  0.51100000000E-03 0. -1.
        -11    1    3    3    0    0 -0.25825871034E+01 -0.40285394226E+01  0.75946846661E+01  0.89765317057E+01  0.51100000000E-03 0.  1.
        -12    1    3    3    0    0  0.31140791087E+02  0.69798634294E+01 -0.31070381417E+02  0.44540273511E+02  0.00000000000E+00 0.  1.
</event>
<event>
 7    1  0.1978681E-015  0.9000776E+02  0.7816164E-02  0.1186339E+00
        -11   -1    0    0    0    0  0.00000000000E+00  0.00000000000E+00  0.45593999997E+02  0.45594000000E+02  0.51100000000E-03 0.  1.
         11   -1    0    0    0    0 -0.00000000000E+00 -0.00000000000E+00 -0.45593999997E+02  0.45594000000E+02  0.51100000000E-03 0. -1.
    9900012    2    1    2    0    0 -0.11457360297E+01  0.25612866749E+00  0.12103839233E+00  0.90007761365E+02  0.90000023015E+02 0.  0.
        -12    1    1    2    0    0  0.11457360297E+01 -0.25612866749E+00 -0.12103839233E+00  0.11802386354E+01  0.00000000000E+00 0.  1.
         11    1    3    3    0    0  0.17707066201E+02  0.73951718431E+00 -0.10266158494E+02  0.20481237501E+02  0.51100000000E-03 0. -1.
        -11    1    3    3    0    0 -0.56420715968E+01 -0.32502038282E+02 -0.11798803658E+01  0.33009204509E+02  0.51100000000E-03 0.  1.
         12    1    3    3    0    0 -0.13210730634E+02  0.32018649765E+02  0.11567077252E+02  0.36517319354E+02  0.00000000000E+00 0. -1.
</event>
<event>
 7    1  0.1978681E-015  0.9000773E+02  0.7816164E-02  0.1186339E+00
        -11   -1    0    0    0    0  0.00000000000E+00  0.00000000000E+00  0.45593999997E+02  0.45594000000E+02  0.51100000000E-03 0. -1.
         11   -1    0    0    0    0 -0.00000000000E+00 -0.00000000000E+00 -0.45593999997E+02  0.45594000000E+02  0.51100000000E-03 0.  1.
    9900012    2    1    2    0    0  0.44549085905E-02 -0.85157494847E+00  0.81721763541E+00  0.90007726980E+02  0.89999988176E+02 0.  0.
        -12    1    1    2    0    0 -0.44549085905E-02  0.85157494847E+00 -0.81721763541E+00  0.11802730204E+01  0.00000000000E+00 0.  1.
         11    1    3    3    0    0  0.65260517768E+00  0.10690393806E+02 -0.34556211717E+01  0.11253965132E+02  0.51100000000E-03 0. -1.
        -11    1    3    3    0    0  0.36761286247E+02 -0.61852460031E+01 -0.96043894655E+01  0.38495372864E+02  0.51100000000E-03 0.  1.
         12    1    3    3    0    0 -0.37409436516E+02 -0.53567227512E+01  0.13877228273E+02  0.40258388984E+02  0.00000000000E+00 0. -1.
</event>
<event>
 7    1  0.1978681E-015  0.9000781E+02  0.7816164E-02  0.1186339E+00
        -11   -1    0    0    0    0  0.00000000000E+00  0.00000000000E+00  0.45593999997E+02  0.45594000000E+02  0.51100000000E-03 0. -1.
         11   -1    0    0    0    0 -0.00000000000E+00 -0.00000000000E+00 -0.45593999997E+02  0.45594000000E+02  0.51100000000E-03 0.  1.
    9900012    2    1    2    0    0  0.91785951865E+00  0.27386752858E+00  0.68946910108E+00  0.90007814777E+02  0.90000077132E+02 0.  0.
        -12    1    1    2    0    0 -0.91785951865E+00 -0.27386752858E+00 -0.68946910108E+00  0.11801852230E+01  0.00000000000E+00 0.  1.
         11    1    3    3    0    0  0.31729065940E+01  0.27627300383E+01 -0.85997915103E+01  0.95737363552E+01  0.51100000000E-03 0. -1.
        -11    1    3    3    0    0  0.25749792388E+02  0.26913362346E+02 -0.45749185853E+01  0.37527466756E+02  0.51100000000E-03 0.  1.
         12    1    3    3    0    0 -0.28004839464E+02 -0.29402224855E+02  0.13864179197E+02  0.42906611666E+02  0.00000000000E+00 0. -1.
</event>
<event>
 7    1  0.1978681E-015  0.9000667E+02  0.7816164E-02  0.1186341E+00
        -11   -1    0    0    0    0  0.00000000000E+00  0.00000000000E+00  0.45593999997E+02  0.45594000000E+02  0.51100000000E-03 0.  1.
         11   -1    0    0    0    0 -0.00000000000E+00 -0.00000000000E+00 -0.45593999997E+02  0.45594000000E+02  0.51100000000E-03 0. -1.
    9900012    2    1    2    0    0 -0.76196256926E+00  0.61841676552E+00 -0.65766648365E+00  0.90006665392E+02  0.89998912568E+02 0.  0.
        -12    1    1    2    0    0  0.76196256926E+00 -0.61841676552E+00  0.65766648365E+00  0.11813346082E+01  0.00000000000E+00 0.  1.
         11    1    3    3    0    0  0.30598858238E+02 -0.11394601759E+02 -0.15946872131E+02  0.36337718774E+02  0.51100000000E-03 0. -1.
        -11    1    3    3    0    0  0.90362127293E+01  0.23528124665E+01  0.60242291099E+01  0.11112164669E+02  0.51100000000E-03 0.  1.
        -12    1    3    3    0    0 -0.40397033536E+02  0.96602060577E+01  0.92649765376E+01  0.42556781949E+02  0.00000000000E+00 0.  1.
</event>
<event>
 7    1  0.1978681E-015  0.9000779E+02  0.7816164E-02  0.1186339E+00
        -11   -1    0    0    0    0  0.00000000000E+00  0.00000000000E+00  0.45593999997E+02  0.45594000000E+02  0.51100000000E-03 0.  1.
         11   -1    0    0    0    0 -0.00000000000E+00 -0.00000000000E+00 -0.45593999997E+02  0.45594000000E+02  0.51100000000E-03 0. -1.
    9900012    2    1    2    0    0 -0.18744051737E+00 -0.95208943528E+00 -0.67178452960E+00  0.90007787013E+02  0.90000049002E+02 0.  0.
        -12    1    1    2    0    0  0.18744051737E+00  0.95208943528E+00  0.67178452960E+00  0.11802129869E+01  0.00000000000E+00 0.  1.
         11    1    3    3    0    0  0.20959529347E+02  0.26910525451E+02 -0.91141142227E+01  0.35306448827E+02  0.51100000000E-03 0. -1.
        -11    1    3    3    0    0  0.26544677295E+01  0.94206669826E+01  0.21796697197E+01  0.10027269103E+02  0.51100000000E-03 0.  1.
        -12    1    3    3    0    0 -0.23801437593E+02 -0.37283281869E+02  0.62626599734E+01  0.44674069082E+02  0.00000000000E+00 0.  1.
</event>
<event>
 7    1  0.1978681E-015  0.9000769E+02  0.7816164E-02  0.1186339E+00
        -11   -1    0    0    0    0  0.00000000000E+00  0.00000000000E+00  0.45593999997E+02  0.45594000000E+02  0.51100000000E-03 0. -1.
         11   -1    0    0    0    0 -0.00000000000E+00 -0.00000000000E+00 -0.45593999997E+02  0.45594000000E+02  0.51100000000E-03 0.  1.
    9900012    2    1    2    0    0 -0.26322462453E+00 -0.80208465745E+00  0.82493208818E+00  0.90007686503E+02  0.89999947165E+02 0.  0.
        -12    1    1    2    0    0  0.26322462453E+00  0.80208465745E+00 -0.82493208818E+00  0.11803134968E+01  0.00000000000E+00 0.  1.
         11    1    3    3    0    0 -0.51010341376E+01 -0.12461752079E+02 -0.60924293582E+01  0.14779496267E+02  0.51100000000E-03 0. -1.
        -11    1    3    3    0    0  0.34646783289E+02 -0.12254449180E+00  0.20675603412E+02  0.40347183125E+02  0.51100000000E-03 0.  1.
         12    1    3    3    0    0 -0.29808973776E+02  0.11782211913E+02 -0.13758241966E+02  0.34881007112E+02  0.00000000000E+00 0. -1.
</event>
<event>
 7    1  0.1978681E-015  0.9000773E+02  0.7816164E-02  0.1186339E+00
        -11   -1    0    0    0    0  0.00000000000E+00  0.00000000000E+00  0.45593999997E+02  0.45594000000E+02  0.51100000000E-03 0. -1.
         11   -1    0    0    0    0 -0.00000000000E+00 -0.00000000000E+00 -0.45593999997E+02  0.45594000000E+02  0.51100000000E-03 0.  1.
    9900012    2    1    2    0    0  0.67446636150E+00 -0.32484473696E+00  0.91247692647E+00  0.90007727524E+02  0.89999988727E+02 0.  0.
        -12    1    1    2    0    0 -0.67446636150E+00  0.32484473696E+00 -0.91247692647E+00  0.11802724759E+01  0.00000000000E+00 0.  1.
         11    1    3    3    0    0  0.35219255795E+01  0.69354893449E+01  0.37039443582E+02  0.37847395596E+02  0.51100000000E-03 0. -1.
        -11    1    3    3    0    0  0.22238076016E+01  0.86985868498E+01  0.31082332805E+01  0.95011498157E+01  0.51100000000E-03 0.  1.
        -12    1    3    3    0    0 -0.50712668196E+01 -0.15958920932E+02 -0.39235199936E+02  0.42659182113E+02  0.00000000000E+00 0.  1.
</event>
<event>
 7    1  0.1978681E-015  0.9000782E+02  0.7816164E-02  0.1186339E+00
        -11   -1    0    0    0    0  0.00000000000E+00  0.00000000000E+00  0.45593999997E+02  0.45594000000E+02  0.51100000000E-03 0. -1.
         11   -1    0    0    0    0 -0.00000000000E+00 -0.00000000000E+00 -0.45593999997E+02  0.45594000000E+02  0.51100000000E-03 0.  1.
    9900012    2    1    2    0    0 -0.49206571890E+00 -0.21887424162E+00  0.10501338348E+01  0.90007823879E+02  0.90000086354E+02 0.  0.
        -12    1    1    2    0    0  0.49206571890E+00  0.21887424162E+00 -0.10501338348E+01  0.11801761209E+01  0.00000000000E+00 0.  1.
         11    1    3    3    0    0 -0.71899250501E+01  0.49822775772E+01 -0.17160551430E+01  0.89141997733E+01  0.51100000000E-03 0. -1.
        -11    1    3    3    0    0  0.17292978510E+02  0.15838032799E+02 -0.31648315580E+02  0.39389164347E+02  0.51100000000E-03 0.  1.
         12    1    3    3    0    0 -0.10595119179E+02 -0.21039184618E+02  0.34414504558E+02  0.41704459758E+02  0.00000000000E+00 0. -1.
</event>
<event>
 7    1  0.1978681E-015  0.9000776E+02  0.7816164E-02  0.1186339E+00
        -11   -1    0    0    0    0  0.00000000000E+00  0.00000000000E+00  0.45593999997E+02  0.45594000000E+02  0.51100000000E-03 0.  1.
         11   -1    0    0    0    0 -0.00000000000E+00 -0.00000000000E+00 -0.45593999997E+02  0.45594000000E+02  0.51100000000E-03 0. -1.
    9900012    2    1    2    0    0  0.43825556827E-01  0.45870966522E+00 -0.10865676540E+01  0.90007760828E+02  0.90000022471E+02 0.  0.
        -12    1    1    2    0    0 -0.43825556827E-01 -0.45870966522E+00  0.10865676540E+01  0.11802391720E+01  0.00000000000E+00 0.  1.
         11    1    3    3    0    0 -0.26915550749E+01 -0.57215683178E+01  0.68557779345E+01  0.93264411265E+01  0.51100000000E-03 0. -1.
        -11    1    3    3    0    0  0.32020671666E+02  0.72102944094E+01  0.21423891850E+02  0.39195597988E+02  0.51100000000E-03 0.  1.
         12    1    3    3    0    0 -0.29285291034E+02 -0.10300164263E+01 -0.29366237438E+02  0.41485721713E+02  0.00000000000E+00 0. -1.
</event>
<event>
 7    1  0.1978681E-015  0.9000776E+02  0.7816164E-02  0.1186339E+00
        -11   -1    0    0    0    0  0.00000000000E+00  0.00000000000E+00  0.45593999997E+02  0.45594000000E+02  0.51100000000E-03 0. -1.
         11   -1    0    0    0    0 -0.00000000000E+00 -0.00000000000E+00 -0.45593999997E+02  0.45594000000E+02  0.51100000000E-03 0.  1.
    9900012    2    1    2    0    0 -0.10143164081E+01 -0.30708381325E+00 -0.51945085129E+00  0.90007759588E+02  0.90000021214E+02 0.  0.
        -12    1    1    2    0    0  0.10143164081E+01  0.30708381325E+00  0.51945085129E+00  0.11802404124E+01  0.00000000000E+00 0.  1.
         11    1    3    3    0    0 -0.13961113286E+02 -0.28662021557E+02  0.18175334629E+02  0.36698323573E+02  0.51100000000E-03 0. -1.
        -11    1    3    3    0    0 -0.91128147182E+01 -0.39600684464E+01  0.23127035033E-01  0.99360993005E+01  0.51100000000E-03 0.  1.
        -12    1    3    3    0    0  0.22059611596E+02  0.32315006190E+02 -0.18717912515E+02  0.43373336715E+02  0.00000000000E+00 0.  1.
</event>
<event>
 7    1  0.1978681E-015  0.9000836E+02  0.7816164E-02  0.1186338E+00
        -11   -1    0    0    0    0  0.00000000000E+00  0.00000000000E+00  0.45593999997E+02  0.45594000000E+02  0.51100000000E-03 0.  1.
         11   -1    0    0    0    0 -0.00000000000E+00 -0.00000000000E+00 -0.45593999997E+02  0.45594000000E+02  0.51100000000E-03 0. -1.
    9900012    2    1    2    0    0 -0.21095031558E-01 -0.43149363815E+00 -0.10976921991E+01  0.90008356018E+02  0.90000625515E+02 0.  0.
        -12    1    1    2    0    0  0.21095031558E-01  0.43149363815E+00  0.10976921991E+01  0.11796439819E+01  0.00000000000E+00 0.  1.
         11    1    3    3    0    0  0.10093962866E+02  0.28440923325E+02 -0.17362900187E+02  0.34817301864E+02  0.51100000000E-03 0. -1.
        -11    1    3    3    0    0  0.35513557363E+01  0.96200967370E+01 -0.19979219585E+01  0.10447491623E+02  0.51100000000E-03 0.  1.
        -12    1    3    3    0    0 -0.13666413634E+02 -0.38492513700E+02  0.18263129947E+02  0.44743562531E+02  0.00000000000E+00 0.  1.
</event>
<event>
 7    1  0.1978681E-015  0.9000771E+02  0.7816164E-02  0.1186339E+00
        -11   -1    0    0    0    0  0.00000000000E+00  0.00000000000E+00  0.45593999997E+02  0.45594000000E+02  0.51100000000E-03 0. -1.
         11   -1    0    0    0    0 -0.00000000000E+00 -0.00000000000E+00 -0.45593999997E+02  0.45594000000E+02  0.51100000000E-03 0.  1.
    9900012    2    1    2    0    0 -0.42762661556E+00  0.66073602883E+00  0.87957390707E+00  0.90007708985E+02  0.89999969944E+02 0.  0.
        -12    1    1    2    0    0  0.42762661556E+00 -0.66073602883E+00 -0.87957390707E+00  0.11802910150E+01  0.00000000000E+00 0.  1.
         11    1    3    3    0    0 -0.22181233511E+01 -0.37404044659E+02  0.86251244803E+01  0.38449647600E+02  0.51100000000E-03 0. -1.
        -11    1    3    3    0    0  0.38263754859E+01 -0.29510832657E+01  0.64926183966E+01  0.80934625288E+01  0.51100000000E-03 0.  1.
        -12    1    3    3    0    0 -0.20358787504E+01  0.41015863953E+02 -0.14238168970E+02  0.43464598856E+02  0.00000000000E+00 0.  1.
</event>
<event>
 7    1  0.1978681E-015  0.9000774E+02  0.7816164E-02  0.1186339E+00
        -11   -1    0    0    0    0  0.00000000000E+00  0.00000000000E+00  0.45593999997E+02  0.45594000000E+02  0.51100000000E-03 0.  1.
         11   -1    0    0    0    0 -0.00000000000E+00 -0.00000000000E+00 -0.45593999997E+02  0.45594000000E+02  0.51100000000E-03 0. -1.
    9900012    2    1    2    0    0 -0.69122744003E+00  0.66699078231E+00 -0.68581157608E+00  0.90007741725E+02  0.90000003116E+02 0.  0.
        -12    1    1    2    0    0  0.69122744003E+00 -0.66699078231E+00  0.68581157608E+00  0.11802582749E+01  0.00000000000E+00 0.  1.
         11    1    3    3    0    0  0.94513716590E+01 -0.38757855110E+01 -0.19984521155E+01  0.10408840026E+02  0.51100000000E-03 0. -1.
        -11    1    3    3    0    0  0.26471710484E+02  0.13865041444E+02  0.21450604871E+02  0.36784769672E+02  0.51100000000E-03 0.  1.
         12    1    3    3    0    0 -0.36614309583E+02 -0.93222651510E+01 -0.20137964332E+02  0.42814132027E+02  0.00000000000E+00 0. -1.
</event>
<event>
 7    1  0.1978681E-015  0.9000787E+02  0.7816164E-02  0.1186339E+00
        -11   -1    0    0    0    0  0.00000000000E+00  0.00000000000E+00  0.45593999997E+02  0.45594000000E+02  0.51100000000E-03 0.  1.
         11   -1    0    0    0    0 -0.00000000000E+00 -0.00000000000E+00 -0.45593999997E+02  0.45594000000E+02  0.51100000000E-03 0. -1.
    9900012    2    1    2    0    0  0.94280216121E+00  0.70529593960E+00 -0.79978554296E-01  0.90007866598E+02  0.90000129637E+02 0.  0.
        -12    1    1    2    0    0 -0.94280216121E+00 -0.70529593960E+00  0.79978554296E-01  0.11801334021E+01  0.00000000000E+00 0.  1.
         11    1    3    3    0    0  0.49060344081E+01  0.12816041454E+02 -0.67470041127E+01  0.15291898408E+02  0.51100000000E-03 0. -1.
        -11    1    3    3    0    0  0.24607550234E+02 -0.14912491912E+02 -0.20391058891E+02  0.35266261873E+02  0.51100000000E-03 0.  1.
         12    1    3    3    0    0 -0.28570782481E+02  0.28017463974E+01  0.27058084449E+02  0.39449706317E+02  0.00000000000E+00 0. -1.
</event>
<event>
 7    1  0.1978681E-015  0.9000857E+02  0.7816164E-02  0.1186337E+00
        -11   -1    0    0    0    0  0.00000000000E+00  0.00000000000E+00  0.45593999997E+02  0.45594000000E+02  0.51100000000E-03 0.  1.
         11   -1    0    0    0    0 -0.00000000000E+00 -0.00000000000E+00 -0.45593999997E+02  0.45594000000E+02  0.51100000000E-03 0. -1.
    9900012    2    1    2    0    0 -0.10840885025E+01 -0.43614597309E+00  0.15996866594E+00  0.90008567439E+02  0.90000839726E+02 0.  0.
        -12    1    1    2    0    0  0.10840885025E+01  0.43614597309E+00 -0.15996866594E+00  0.11794325607E+01  0.00000000000E+00 0.  1.
         11    1    3    3    0    0  0.21361002052E+02  0.21351002809E+02 -0.24299329501E+02  0.38763580125E+02  0.51100000000E-03 0. -1.
        -11    1    3    3    0    0 -0.17811116899E+01 -0.74620925635E+01 -0.73999732498E+01  0.10659023813E+02  0.51100000000E-03 0.  1.
        -12    1    3    3    0    0 -0.20663978865E+02 -0.14325056218E+02  0.31859271417E+02  0.40585963502E+02  0.00000000000E+00 0.  1.
</event>
<event>
 7    1  0.1978681E-015  0.9000770E+02  0.7816164E-02  0.1186339E+00
        -11   -1    0    0    0    0  0.00000000000E+00  0.00000000000E+00  0.45593999997E+02  0.45594000000E+02  0.51100000000E-03 0. -1.
         11   -1    0    0    0    0 -0.00000000000E+00 -0.00000000000E+00 -0.45593999997E+02  0.45594000000E+02  0.51100000000E-03 0.  1.
    9900012    2    1    2    0    0  0.12590353751E+00  0.47723146635E+00 -0.10721556442E+01  0.90007695252E+02  0.89999956029E+02 0.  0.
        -12    1    1    2    0    0 -0.12590353751E+00 -0.47723146635E+00  0.10721556442E+01  0.11803047482E+01  0.00000000000E+00 0.  1.
         11    1    3    3    0    0  0.82699936871E+01 -0.14762720983E+01 -0.28101653646E+01  0.88582845139E+01  0.51100000000E-03 0. -1.
        -11    1    3    3    0    0 -0.54329424289E+01 -0.58916960975E+01 -0.38877224887E+02  0.39694679260E+02  0.51100000000E-03 0.  1.
         12    1    3    3    0    0 -0.27111477207E+01  0.78451996621E+01  0.40615234608E+02  0.41454731478E+02  0.00000000000E+00 0. -1.
</event>
<event>
 7    1  0.1978681E-015  0.9000768E+02  0.7816164E-02  0.1186339E+00
        -11   -1    0    0    0    0  0.00000000000E+00  0.00000000000E+00  0.45593999997E+02  0.45594000000E+02  0.51100000000E-03 0. -1.
         11   -1    0    0    0    0 -0.00000000000E+00 -0.00000000000E+00 -0.45593999997E+02  0.45594000000E+02  0.51100000000E-03 0.  1.
    9900012    2    1    2    0    0 -0.28964315200E+00  0.11184892996E+01  0.24131583022E+00  0.90007684450E+02  0.89999945084E+02 0.  0.
        -12    1    1    2    0    0  0.28964315200E+00 -0.11184892996E+01 -0.24131583022E+00  0.11803155505E+01  0.00000000000E+00 0.  1.
         11    1    3    3    0    0 -0.13367499471E+02 -0.28882785046E+02  0.24927355208E+02  0.40426208727E+02  0.51100000000E-03 0. -1.
        -11    1    3    3    0    0  0.21947359772E+01  0.61171057708E+01  0.62464272260E+01  0.90140835569E+01  0.51100000000E-03 0.  1.
        -12    1    3    3    0    0  0.10883120342E+02  0.23884168575E+02 -0.30932466604E+02  0.40567392165E+02  0.00000000000E+00 0.  1.
</event>
<event>
 7    1  0.1978681E-015  0.9000761E+02  0.7816164E-02  0.1186339E+00
        -11   -1    0    0    0    0  0.00000000000E+00  0.00000000000E+00  0.45593999997E+02  0.45594000000E+02  0.51100000000E-03 0.  1.
         11   -1    0    0    0    0 -0.00000000000E+00 -0.00000000000E+00 -0.45593999997E+02  0.45594000000E+02  0.51100000000E-03 0. -1.
    9900012    2    1    2    0    0  0.11492840363E+01  0.26402864800E+00  0.52579152940E-01  0.90007606214E+02  0.89999865816E+02 0.  0.
        -12    1    1    2    0    0 -0.11492840363E+01 -0.26402864800E+00 -0.52579152940E-01  0.11803937861E+01  0.00000000000E+00 0.  1.
         11    1    3    3    0    0 -0.51173954120E+01  0.31499738644E+01  0.41027582108E+01  0.72761731938E+01  0.51100000000E-03 0. -1.
        -11    1    3    3    0    0 -0.36453179180E+01 -0.24460855248E+02  0.31458790781E+02  0.40015963063E+02  0.51100000000E-03 0.  1.
         12    1    3    3    0    0  0.99119973663E+01  0.21574910032E+02 -0.35508969838E+02  0.42715469957E+02  0.00000000000E+00 0. -1.
</event>
<event>
 7    1  0.1978681E-015  0.9000761E+02  0.7816164E-02  0.1186339E+00
        -11   -1    0    0    0    0  0.00000000000E+00  0.00000000000E+00  0.45593999997E+02  0.45594000000E+02  0.51100000000E-03 0.  1.
         11   -1    0    0    0    0 -0.00000000000E+00 -0.00000000000E+00 -0.45593999997E+02  0.45594000000E+02  0.51100000000E-03 0. -1.
    9900012    2    1    2    0    0 -0.62868399686E+00 -0.52258976358E+00 -0.85144940553E+00  0.90007614589E+02  0.89999874301E+02 0.  0.
        -12    1    1    2    0    0  0.62868399686E+00  0.52258976358E+00  0.85144940553E+00  0.11803854112E+01  0.00000000000E+00 0.  1.
         11    1    3    3    0    0 -0.33553186235E+02  0.68298843156E+01 -0.20477211225E+02  0.39897115260E+02  0.51100000000E-03 0. -1.
        -11    1    3    3    0    0  0.17280725357E+01 -0.65926626229E+01 -0.64956318648E+01  0.94150235652E+01  0.51100000000E-03 0.  1.
        -12    1    3    3    0    0  0.31196429702E+02 -0.75981145622E+00  0.26121393684E+02  0.40695475764E+02  0.00000000000E+00 0.  1.
</event>
<event>
 7    1  0.1978681E-015  0.9000768E+02  0.7816164E-02  0.1186339E+00
        -11   -1    0    0    0    0  0.00000000000E+00  0.00000000000E+00  0.45593999997E+02  0.45594000000E+02  0.51100000000E-03 0. -1.
         11   -1    0    0    0    0 -0.00000000000E+00 -0.00000000000E+00 -0.45593999997E+02  0.45594000000E+02  0.51100000000E-03 0.  1.
    9900012    2    1    2    0    0 -0.10865521285E+01 -0.49429650835E-01  0.45838923340E+00  0.90007678219E+02  0.89999938771E+02 0.  0.
        -12    1    1    2    0    0  0.10865521285E+01  0.49429650835E-01 -0.45838923340E+00  0.11803217814E+01  0.00000000000E+00 0.  1.
         11    1    3    3    0    0 -0.25057291436E+02 -0.18167423332E+02  0.21029427647E+02  0.37418711256E+02  0.51100000000E-03 0. -1.
        -11    1    3    3    0    0  0.57706266090E+01  0.11245895537E+01  0.10944531202E+02  0.12423670819E+02  0.51100000000E-03 0.  1.
        -12    1    3    3    0    0  0.18200112699E+02  0.16993404127E+02 -0.31515569616E+02  0.40165296143E+02  0.00000000000E+00 0.  1.
</event>
<event>
 7    1  0.1978681E-015  0.9000768E+02  0.7816164E-02  0.1186339E+00
        -11   -1    0    0    0    0  0.00000000000E+00  0.00000000000E+00  0.45593999997E+02  0.45594000000E+02  0.51100000000E-03 0.  1.
         11   -1    0    0    0    0 -0.00000000000E+00 -0.00000000000E+00 -0.45593999997E+02  0.45594000000E+02  0.51100000000E-03 0. -1.
    9900012    2    1    2    0    0 -0.99405807256E+00 -0.57387476700E+00 -0.27507573598E+00  0.90007682094E+02  0.89999942697E+02 0.  0.
        -12    1    1    2    0    0  0.99405807256E+00  0.57387476700E+00  0.27507573598E+00  0.11803179065E+01  0.00000000000E+00 0.  1.
         11    1    3    3    0    0  0.34709071649E+02  0.17661568239E+02  0.17751668525E+02  0.42799210075E+02  0.51100000000E-03 0. -1.
        -11    1    3    3    0    0 -0.74030823151E+01 -0.47747792435E+01  0.31839102025E+01  0.93670395018E+01  0.51100000000E-03 0.  1.
        -12    1    3    3    0    0 -0.28300047406E+02 -0.13460663762E+02 -0.21210654464E+02  0.37841432516E+02  0.00000000000E+00 0.  1.
</event>
<event>
 7    1  0.1978681E-015  0.9000774E+02  0.7816164E-02  0.1186339E+00
        -11   -1    0    0    0    0  0.00000000000E+00  0.00000000000E+00  0.45593999997E+02  0.45594000000E+02  0.51100000000E-03 0.  1.
         11   -1    0    0    0    0 -0.00000000000E+00 -0.00000000000E+00 -0.45593999997E+02  0.45594000000E+02  0.51100000000E-03 0. -1.
    9900012    2    1    2    0    0  0.98275099844E+00  0.38723291861E-01 -0.65247249472E+00  0.90007737582E+02  0.89999998918E+02 0.  0.
        -12    1    1    2    0    0 -0.98275099844E+00 -0.38723291861E-01  0.65247249472E+00  0.11802624177E+01  0.00000000000E+00 0.  1.
         11    1    3    3    0    0  0.83078525894E+01 -0.74865956282E+01  0.40009586895E+02  0.41543189243E+02  0.51100000000E-03 0.  1.
        -11    1    3    3    0    0 -0.70411219481E+01  0.61508595563E+01 -0.17310635764E+01  0.95082623511E+01  0.51100000000E-03 0. -1.
        -12    1    3    3    0    0 -0.28397964277E+00  0.13744593637E+01 -0.38930995813E+02  0.38956285988E+02  0.00000000000E+00 0.  1.
</event>
<event>
 7    1  0.1978681E-015  0.9000769E+02  0.7816164E-02  0.1186339E+00
        -11   -1    0    0    0    0  0.00000000000E+00  0.00000000000E+00  0.45593999997E+02  0.45594000000E+02  0.51100000000E-03 0. -1.
         11   -1    0    0    0    0 -0.00000000000E+00 -0.00000000000E+00 -0.45593999997E+02  0.45594000000E+02  0.51100000000E-03 0.  1.
    9900012    2    1    2    0    0 -0.83729996084E+00 -0.83177073686E+00 -0.14964855892E-01  0.90007687444E+02  0.89999948118E+02 0.  0.
        -12    1    1    2    0    0  0.83729996084E+00  0.83177073686E+00  0.14964855892E-01  0.11803125561E+01  0.00000000000E+00 0.  1.
         11    1    3    3    0    0 -0.24544824434E+01 -0.71558829613E+01 -0.74434816448E+01  0.10613037467E+02  0.51100000000E-03 0. -1.
        -11    1    3    3    0    0 -0.30892147321E+02 -0.14665304336E+02  0.18850300461E+02  0.39047787967E+02  0.51100000000E-03 0.  1.
         12    1    3    3    0    0  0.32509329803E+02  0.20989416561E+02 -0.11421783672E+02  0.40346862010E+02  0.00000000000E+00 0. -1.
</event>
<event>
 7    1  0.1978681E-015  0.9000849E+02  0.7816164E-02  0.1186338E+00
        -11   -1    0    0    0    0  0.00000000000E+00  0.00000000000E+00  0.45593999997E+02  0.45594000000E+02  0.51100000000E-03 0.  1.
         11   -1    0    0    0    0 -0.00000000000E+00 -0.00000000000E+00 -0.45593999997E+02  0.45594000000E+02  0.51100000000E-03 0. -1.
    9900012    2    1    2    0    0  0.11171104343E+01 -0.35555077459E+00 -0.12994740742E+00  0.90008492304E+02  0.90000763599E+02 0.  0.
        -12    1    1    2    0    0 -0.11171104343E+01  0.35555077459E+00  0.12994740742E+00  0.11795076958E+01  0.00000000000E+00 0.  1.
         11    1    3    3    0    0 -0.78177121461E+01  0.32467336172E+01 -0.82046461461E+01  0.11788728558E+02  0.51100000000E-03 0. -1.
        -11    1    3    3    0    0 -0.31748591870E+02  0.13230935858E+01  0.17347865025E+02  0.36203205432E+02  0.51100000000E-03 0.  1.
         12    1    3    3    0    0  0.40683414450E+02 -0.49253779776E+01 -0.92731662866E+01  0.42016558314E+02  0.00000000000E+00 0. -1.
</event>
<event>
 7    1  0.1978681E-015  0.9000775E+02  0.7816164E-02  0.1186339E+00
        -11   -1    0    0    0    0  0.00000000000E+00  0.00000000000E+00  0.45593999997E+02  0.45594000000E+02  0.51100000000E-03 0.  1.
         11   -1    0    0    0    0 -0.00000000000E+00 -0.00000000000E+00 -0.45593999997E+02  0.45594000000E+02  0.51100000000E-03 0. -1.
    9900012    2    1    2    0    0 -0.43581463197E-02  0.44655533112E+00 -0.10924975987E+01  0.90007753559E+02  0.90000015106E+02 0.  0.
        -12    1    1    2    0    0  0.43581463197E-02 -0.44655533112E+00  0.10924975987E+01  0.11802464405E+01  0.00000000000E+00 0.  1.
         11    1    3    3    0    0  0.16414166748E+02 -0.32022983978E+02 -0.81491070149E+00  0.35993894657E+02  0.51100000000E-03 0. -1.
        -11    1    3    3    0    0 -0.59420844181E+01 -0.92303298900E+01  0.77831232399E+00  0.11005140955E+02  0.51100000000E-03 0.  1.
        -12    1    3    3    0    0 -0.10476440477E+02  0.41699869199E+02 -0.10558992212E+01  0.43008717947E+02  0.00000000000E+00 0.  1.
</event>
<event>
 7    1  0.1978681E-015  0.9000777E+02  0.7816164E-02  0.1186339E+00
        -11   -1    0    0    0    0  0.00000000000E+00  0.00000000000E+00  0.45593999997E+02  0.45594000000E+02  0.51100000000E-03 0. -1.
         11   -1    0    0    0    0 -0.00000000000E+00 -0.00000000000E+00 -0.45593999997E+02  0.45594000000E+02  0.51100000000E-03 0.  1.
    9900012    2    1    2    0    0  0.95609259535E+00 -0.36796481071E+00 -0.58603883061E+00  0.90007765844E+02  0.90000027553E+02 0.  0.
        -12    1    1    2    0    0 -0.95609259535E+00  0.36796481071E+00  0.58603883061E+00  0.11802341563E+01  0.00000000000E+00 0.  1.
         11    1    3    3    0    0  0.15592881644E+02 -0.93275242959E+01 -0.33067557145E+01  0.18468224091E+02  0.51100000000E-03 0. -1.
        -11    1    3    3    0    0 -0.76726864999E+01 -0.27350580973E+01 -0.32644523360E+02  0.33645439016E+02  0.51100000000E-03 0.  1.
         12    1    3    3    0    0 -0.69641025484E+01  0.11694617582E+02  0.35365240244E+02  0.37894102737E+02  0.00000000000E+00 0. -1.
</event>
<event>
 7    1  0.1978681E-015  0.9000785E+02  0.7816164E-02  0.1186339E+00
        -11   -1    0    0    0    0  0.00000000000E+00  0.00000000000E+00  0.45593999997E+02  0.45594000000E+02  0.51100000000E-03 0. -1.
         11   -1    0    0    0    0 -0.00000000000E+00 -0.00000000000E+00 -0.45593999997E+02  0.45594000000E+02  0.51100000000E-03 0.  1.
    9900012    2    1    2    0    0  0.36664578664E+00  0.10274813620E+01  0.45012885065E+00  0.90007846169E+02  0.90000108939E+02 0.  0.
        -12    1    1    2    0    0 -0.36664578664E+00 -0.10274813620E+01 -0.45012885065E+00  0.11801538308E+01  0.00000000000E+00 0.  1.
         11    1    3    3    0    0 -0.19491470170E+02  0.23549256509E+02  0.27139821180E+02  0.40878536978E+02  0.51100000000E-03 0. -1.
        -11    1    3    3    0    0  0.21326012208E+01  0.56077501119E+01 -0.10628039907E+02  0.12204510716E+02  0.51100000000E-03 0.  1.
        -12    1    3    3    0    0  0.17725514736E+02 -0.28129525259E+02 -0.16061652422E+02  0.36924798475E+02  0.00000000000E+00 0.  1.
</event>
<event>
 7    1  0.2059769E-015  0.9000768E+02  0.7816164E-02  0.1186339E+00
        -11   -1    0    0    0    0  0.00000000000E+00  0.00000000000E+00  0.45593999997E+02  0.45594000000E+02  0.51100000000E-03 0.  1.
         11   -1    0    0    0    0 -0.00000000000E+00 -0.00000000000E+00 -0.45593999997E+02  0.45594000000E+02  0.51100000000E-03 0. -1.
    9900012    2    1    2    0    0  0.10102553937E+01 -0.44629293738E+00 -0.41637152443E+00  0.90007678606E+02  0.89999939164E+02 0.  0.
        -12    1    1    2    0    0 -0.10102553937E+01  0.44629293738E+00  0.41637152443E+00  0.11803213938E+01  0.00000000000E+00 0.  1.
         11    1    3    3    0    0  0.13549263922E+01 -0.64812998693E+01  0.66232918451E+01  0.93654187654E+01  0.51100000000E-03 0. -1.
        -11    1    3    3    0    0  0.23247508328E+02 -0.50716307304E+01  0.28140582847E+02  0.36851872204E+02  0.51100000000E-03 0.  1.
         12    1    3    3    0    0 -0.23592179326E+02  0.11106637662E+02 -0.35180246216E+02  0.43790387637E+02  0.00000000000E+00 0. -1.
</event>
<event>
 7    1  0.1978681E-015  0.9000768E+02  0.7816164E-02  0.1186339E+00
        -11   -1    0    0    0    0  0.00000000000E+00  0.00000000000E+00  0.45593999997E+02  0.45594000000E+02  0.51100000000E-03 0.  1.
         11   -1    0    0    0    0 -0.00000000000E+00 -0.00000000000E+00 -0.45593999997E+02  0.45594000000E+02  0.51100000000E-03 0. -1.
    9900012    2    1    2    0    0  0.51170099154E+00 -0.65948205601E+00 -0.83451278842E+00  0.90007675434E+02  0.89999935950E+02 0.  0.
        -12    1    1    2    0    0 -0.51170099154E+00  0.65948205601E+00  0.83451278842E+00  0.11803245659E+01  0.00000000000E+00 0.  1.
         11    1    3    3    0    0  0.68048729906E+01  0.20247671962E+01  0.51811454903E+01  0.87892119937E+01  0.51100000000E-03 0. -1.
        -11    1    3    3    0    0  0.29656053066E+02 -0.12746731365E+02  0.17874150618E+02  0.36897776417E+02  0.51100000000E-03 0.  1.
         12    1    3    3    0    0 -0.35949225065E+02  0.10062482113E+02 -0.23889808897E+02  0.44320687023E+02  0.00000000000E+00 0. -1.
</event>
<event>
 7    1  0.1978681E-015  0.9000769E+02  0.7816164E-02  0.1186339E+00
        -11   -1    0    0    0    0  0.00000000000E+00  0.00000000000E+00  0.45593999997E+02  0.45594000000E+02  0.51100000000E-03 0. -1.
         11   -1    0    0    0    0 -0.00000000000E+00 -0.00000000000E+00 -0.45593999997E+02  0.45594000000E+02  0.51100000000E-03 0.  1.
    9900012    2    1    2    0    0 -0.58764440341E+00  0.55804686631E-01  0.10221028636E+01  0.90007688867E+02  0.89999949560E+02 0.  0.
        -12    1    1    2    0    0  0.58764440341E+00 -0.55804686631E-01 -0.10221028636E+01  0.11803111334E+01  0.00000000000E+00 0.  1.
         11    1    3    3    0    0 -0.27215893843E+02 -0.20817889103E+02 -0.60395083307E+01  0.34793175272E+02  0.51100000000E-03 0. -1.
        -11    1    3    3    0    0 -0.54333824109E+01 -0.58895914323E+01 -0.75093615463E+01  0.10981777759E+02  0.51100000000E-03 0.  1.
        -12    1    3    3    0    0  0.32061631851E+02  0.26763285222E+02  0.14570972741E+02  0.44232735835E+02  0.00000000000E+00 0.  1.
</event>
<event>
 7    1  0.1978681E-015  0.9000778E+02  0.7816164E-02  0.1186339E+00
        -11   -1    0    0    0    0  0.00000000000E+00  0.00000000000E+00  0.45593999997E+02  0.45594000000E+02  0.51100000000E-03 0.  1.
         11   -1    0    0    0    0 -0.00000000000E+00 -0.00000000000E+00 -0.45593999997E+02  0.45594000000E+02  0.51100000000E-03 0. -1.
    9900012    2    1    2    0    0 -0.35195855301E+00  0.73191240020E+00 -0.85636382355E+00  0.90007775622E+02  0.90000037460E+02 0.  0.
        -12    1    1    2    0    0  0.35195855301E+00 -0.73191240020E+00  0.85636382355E+00  0.11802243782E+01  0.00000000000E+00 0.  1.
         11    1    3    3    0    0  0.48505968358E+01 -0.39911919246E+00 -0.15334869916E+02  0.16088686130E+02  0.51100000000E-03 0. -1.
        -11    1    3    3    0    0  0.16592846504E+02 -0.25383842563E+02  0.23574437524E+02  0.38411145820E+02  0.51100000000E-03 0.  1.
         12    1    3    3    0    0 -0.21795401893E+02  0.26514874156E+02 -0.90959314312E+01  0.35507943672E+02  0.00000000000E+00 0. -1.
</event>
<event>
 7    1  0.1978681E-015  0.9000680E+02  0.7816164E-02  0.1186341E+00
        -11   -1    0    0    0    0  0.00000000000E+00  0.00000000000E+00  0.45593999997E+02  0.45594000000E+02  0.51100000000E-03 0.  1.
         11   -1    0    0    0    0 -0.00000000000E+00 -0.00000000000E+00 -0.45593999997E+02  0.45594000000E+02  0.51100000000E-03 0. -1.
    9900012    2    1    2    0    0 -0.97241610795E+00  0.12410119907E+00 -0.65897266227E+00  0.90006797577E+02  0.89999046500E+02 0.  0.
        -12    1    1    2    0    0  0.97241610795E+00 -0.12410119907E+00  0.65897266227E+00  0.11812024231E+01  0.00000000000E+00 0.  1.
         11    1    3    3    0    0 -0.60485019568E+01 -0.23354967928E+01 -0.29032136888E+01  0.71040531512E+01  0.51100000000E-03 0. -1.
        -11    1    3    3    0    0 -0.25473712260E+02  0.17579666485E+02  0.26760251532E+02  0.40915348616E+02  0.51100000000E-03 0.  1.
         12    1    3    3    0    0  0.30549798109E+02 -0.15120068493E+02 -0.24516010506E+02  0.41987395810E+02  0.00000000000E+00 0. -1.
</event>
<event>
 7    1  0.1978681E-015  0.9000778E+02  0.7816164E-02  0.1186339E+00
        -11   -1    0    0    0    0  0.00000000000E+00  0.00000000000E+00  0.45593999997E+02  0.45594000000E+02  0.51100000000E-03 0.  1.
         11   -1    0    0    0    0 -0.00000000000E+00 -0.00000000000E+00 -0.45593999997E+02  0.45594000000E+02  0.51100000000E-03 0. -1.
    9900012    2    1    2    0    0  0.53031041701E+00  0.50873638112E+00 -0.92351469236E+00  0.90007779160E+02  0.90000041045E+02 0.  0.
        -12    1    1    2    0    0 -0.53031041701E+00 -0.50873638112E+00  0.92351469236E+00  0.11802208399E+01  0.00000000000E+00 0.  1.
         11    1    3    3    0    0 -0.38110922668E+01 -0.90111872538E+01 -0.51368058873E+01  0.11050461301E+02  0.51100000000E-03 0. -1.
        -11    1    3    3    0    0  0.98109514513E+00 -0.34295477379E+02  0.66406865594E+01  0.34946259236E+02  0.51100000000E-03 0.  1.
         12    1    3    3    0    0  0.33603075387E+01  0.43815401014E+02 -0.24273953645E+01  0.44011058622E+02  0.00000000000E+00 0. -1.
</event>
<event>
 7    1  0.1978681E-015  0.9000762E+02  0.7816164E-02  0.1186339E+00
        -11   -1    0    0    0    0  0.00000000000E+00  0.00000000000E+00  0.45593999997E+02  0.45594000000E+02  0.51100000000E-03 0. -1.
         11   -1    0    0    0    0 -0.00000000000E+00 -0.00000000000E+00 -0.45593999997E+02  0.45594000000E+02  0.51100000000E-03 0.  1.
    9900012    2    1    2    0    0 -0.77081486410E+00  0.77259794642E+00  0.44970815708E+00  0.90007618465E+02  0.89999878229E+02 0.  0.
        -12    1    1    2    0    0  0.77081486410E+00 -0.77259794642E+00 -0.44970815708E+00  0.11803815350E+01  0.00000000000E+00 0.  1.
         11    1    3    3    0    0  0.82277192980E+01 -0.22048774195E+01  0.38107089726E+02  0.39047498472E+02  0.51100000000E-03 0. -1.
        -11    1    3    3    0    0  0.74139172017E+01  0.64144372446E+01 -0.72098180382E-01  0.98038957485E+01  0.51100000000E-03 0.  1.
        -12    1    3    3    0    0 -0.16412451364E+02 -0.34369618786E+01 -0.37585283388E+02  0.41156224245E+02  0.00000000000E+00 0.  1.
</event>
<event>
 7    1  0.1978681E-015  0.9000776E+02  0.7816164E-02  0.1186339E+00
        -11   -1    0    0    0    0  0.00000000000E+00  0.00000000000E+00  0.45593999997E+02  0.45594000000E+02  0.51100000000E-03 0.  1.
         11   -1    0    0    0    0 -0.00000000000E+00 -0.00000000000E+00 -0.45593999997E+02  0.45594000000E+02  0.51100000000E-03 0. -1.
    9900012    2    1    2    0    0 -0.13694354263E+00 -0.81246095889E+00 -0.84505436338E+00  0.90007761371E+02  0.90000023021E+02 0.  0.
        -12    1    1    2    0    0  0.13694354263E+00  0.81246095889E+00  0.84505436338E+00  0.11802386287E+01  0.00000000000E+00 0.  1.
         11    1    3    3    0    0  0.17998803352E+02 -0.22057902929E+02 -0.24776570813E+02  0.37741044835E+02  0.51100000000E-03 0. -1.
        -11    1    3    3    0    0  0.87834090445E+01  0.16390486209E+01 -0.30127551708E+01  0.94292867601E+01  0.51100000000E-03 0.  1.
        -12    1    3    3    0    0 -0.26919155939E+02  0.19606393349E+02  0.26944271620E+02  0.42837429776E+02  0.00000000000E+00 0.  1.
</event>
<event>
 7    1  0.1978681E-015  0.9000763E+02  0.7816164E-02  0.1186339E+00
        -11   -1    0    0    0    0  0.00000000000E+00  0.00000000000E+00  0.45593999997E+02  0.45594000000E+02  0.51100000000E-03 0. -1.
         11   -1    0    0    0    0 -0.00000000000E+00 -0.00000000000E+00 -0.45593999997E+02  0.45594000000E+02  0.51100000000E-03 0.  1.
    9900012    2    1    2    0    0  0.10705874660E+01  0.94066883872E-01  0.48813264578E+00  0.90007627355E+02  0.89999887236E+02 0.  0.
        -12    1    1    2    0    0 -0.10705874660E+01 -0.94066883872E-01 -0.48813264578E+00  0.11803726449E+01  0.00000000000E+00 0.  1.
         11    1    3    3    0    0  0.25125372868E+02 -0.16979909760E+02  0.29660642015E+02  0.42418809298E+02  0.51100000000E-03 0. -1.
        -11    1    3    3    0    0 -0.24872868448E+01 -0.55988514883E+01 -0.31431100693E+01  0.68857007635E+01  0.51100000000E-03 0.  1.
        -12    1    3    3    0    0 -0.21567498557E+02  0.22672828132E+02 -0.26029399300E+02  0.40703117294E+02  0.00000000000E+00 0.  1.
</event>
<event>
 7    1  0.1978681E-015  0.9000743E+02  0.7816164E-02  0.1186340E+00
        -11   -1    0    0    0    0  0.00000000000E+00  0.00000000000E+00  0.45593999997E+02  0.45594000000E+02  0.51100000000E-03 0. -1.
         11   -1    0    0    0    0 -0.00000000000E+00 -0.00000000000E+00 -0.45593999997E+02  0.45594000000E+02  0.51100000000E-03 0.  1.
    9900012    2    1    2    0    0  0.47103261938E+00 -0.55072807285E+00  0.93197462533E+00  0.90007428172E+02  0.89999685423E+02 0.  0.
        -12    1    1    2    0    0 -0.47103261938E+00  0.55072807285E+00 -0.93197462533E+00  0.11805718280E+01  0.00000000000E+00 0.  1.
         11    1    3    3    0    0  0.15137942155E+02 -0.94160524602E+01  0.13255127390E+02  0.22215259148E+02  0.51100000000E-03 0. -1.
        -11    1    3    3    0    0  0.63647925806E+01  0.31778320624E+02 -0.16573084827E+02  0.36401090467E+02  0.51100000000E-03 0.  1.
         12    1    3    3    0    0 -0.21031702117E+02 -0.22912996236E+02  0.42499320618E+01  0.31391078557E+02  0.00000000000E+00 0. -1.
</event>
<event>
 7    1  0.1978681E-015  0.9000769E+02  0.7816164E-02  0.1186339E+00
        -11   -1    0    0    0    0  0.00000000000E+00  0.00000000000E+00  0.45593999997E+02  0.45594000000E+02  0.51100000000E-03 0.  1.
         11   -1    0    0    0    0 -0.00000000000E+00 -0.00000000000E+00 -0.45593999997E+02  0.45594000000E+02  0.51100000000E-03 0. -1.
    9900012    2    1    2    0    0  0.19084831422E+00  0.11642270141E+01  0.35823195642E-01  0.90007690328E+02  0.89999951041E+02 0.  0.
        -12    1    1    2    0    0 -0.19084831422E+00 -0.11642270141E+01 -0.35823195642E-01  0.11803096716E+01  0.00000000000E+00 0.  1.
         11    1    3    3    0    0  0.77465506202E+01 -0.33437573472E+01  0.55262974936E+01  0.10086115405E+02  0.51100000000E-03 0. -1.
        -11    1    3    3    0    0  0.13228479524E+02  0.33557788066E+02 -0.20142464128E+02  0.41313879893E+02  0.51100000000E-03 0.  1.
         12    1    3    3    0    0 -0.20784181830E+02 -0.29049803704E+02  0.14651989830E+02  0.38607695031E+02  0.00000000000E+00 0. -1.
</event>
<event>
 7    1  0.1978681E-015  0.9000800E+02  0.7816164E-02  0.1186339E+00
        -11   -1    0    0    0    0  0.00000000000E+00  0.00000000000E+00  0.45593999997E+02  0.45594000000E+02  0.51100000000E-03 0.  1.
         11   -1    0    0    0    0 -0.00000000000E+00 -0.00000000000E+00 -0.45593999997E+02  0.45594000000E+02  0.51100000000E-03 0. -1.
    9900012    2    1    2    0    0  0.91934675930E-02 -0.32594352933E+00 -0.11340498153E+01  0.90008003098E+02  0.90000267939E+02 0.  0.
        -12    1    1    2    0    0 -0.91934675930E-02  0.32594352933E+00  0.11340498153E+01  0.11799969016E+01  0.00000000000E+00 0.  1.
         11    1    3    3    0    0 -0.29065499697E+01 -0.10831164990E+02  0.26783723578E+01  0.11529780853E+02  0.51100000000E-03 0. -1.
        -11    1    3    3    0    0  0.35764019129E+02 -0.35052040202E+01  0.14005976705E+02  0.38568366613E+02  0.51100000000E-03 0.  1.
         12    1    3    3    0    0 -0.32848275692E+02  0.14010425481E+02 -0.17818398878E+02  0.39909855633E+02  0.00000000000E+00 0. -1.
</event>
<event>
 7    1  0.2157421E-015  0.9000775E+02  0.7816164E-02  0.1186339E+00
        -11   -1    0    0    0    0  0.00000000000E+00  0.00000000000E+00  0.45593999997E+02  0.45594000000E+02  0.51100000000E-03 0.  1.
         11   -1    0    0    0    0 -0.00000000000E+00 -0.00000000000E+00 -0.45593999997E+02  0.45594000000E+02  0.51100000000E-03 0. -1.
    9900012    2    1    2    0    0 -0.10332414199E+01  0.50059132135E+00 -0.27352198437E+00  0.90007748426E+02  0.90000009905E+02 0.  0.
        -12    1    1    2    0    0  0.10332414199E+01 -0.50059132135E+00  0.27352198437E+00  0.11802515744E+01  0.00000000000E+00 0.  1.
         11    1    3    3    0    0 -0.34519139626E+01  0.49599138289E+00  0.86318395745E+01  0.93096923772E+01  0.51100000000E-03 0. -1.
        -11    1    3    3    0    0 -0.20705968154E+02 -0.22915160449E+02  0.20301221506E+02  0.36959184116E+02  0.51100000000E-03 0.  1.
         12    1    3    3    0    0  0.23124640697E+02  0.22919760387E+02 -0.29206583065E+02  0.43738871932E+02  0.00000000000E+00 0. -1.
</event>
<event>
 7    1  0.1978681E-015  0.9000738E+02  0.7816164E-02  0.1186340E+00
        -11   -1    0    0    0    0  0.00000000000E+00  0.00000000000E+00  0.45593999997E+02  0.45594000000E+02  0.51100000000E-03 0.  1.
         11   -1    0    0    0    0 -0.00000000000E+00 -0.00000000000E+00 -0.45593999997E+02  0.45594000000E+02  0.51100000000E-03 0. -1.
    9900012    2    1    2    0    0  0.46410586397E+00 -0.43008311567E+00 -0.99674151090E+00  0.90007381781E+02  0.89999638420E+02 0.  0.
        -12    1    1    2    0    0 -0.46410586397E+00  0.43008311567E+00  0.99674151090E+00  0.11806182189E+01  0.00000000000E+00 0.  1.
         11    1    3    3    0    0  0.20789298816E+02 -0.13283323141E+02 -0.29098255500E+02  0.38149051001E+02  0.51100000000E-03 0. -1.
        -11    1    3    3    0    0  0.95563040685E+01 -0.22631282719E+01  0.40218486547E+01  0.10612255363E+02  0.51100000000E-03 0.  1.
        -12    1    3    3    0    0 -0.29881497021E+02  0.15116368297E+02  0.24079665334E+02  0.41246075417E+02  0.00000000000E+00 0.  1.
</event>
<event>
 7    1  0.1978681E-015  0.9000771E+02  0.7816164E-02  0.1186339E+00
        -11   -1    0    0    0    0  0.00000000000E+00  0.00000000000E+00  0.45593999997E+02  0.45594000000E+02  0.51100000000E-03 0. -1.
         11   -1    0    0    0    0 -0.00000000000E+00 -0.00000000000E+00 -0.45593999997E+02  0.45594000000E+02  0.51100000000E-03 0.  1.
    9900012    2    1    2    0    0  0.81938262596E+00  0.22974849855E+00  0.81787513274E+00  0.90007706819E+02  0.89999967749E+02 0.  0.
        -12    1    1    2    0    0 -0.81938262596E+00 -0.22974849855E+00 -0.81787513274E+00  0.11802931810E+01  0.00000000000E+00 0.  1.
         11    1    3    3    0    0  0.27368362172E+02 -0.30139280561E+00  0.26745972714E+02  0.38268330801E+02  0.51100000000E-03 0. -1.
        -11    1    3    3    0    0  0.36227361735E+01  0.73544178827E+01  0.36192611511E+01  0.89616254841E+01  0.51100000000E-03 0.  1.
        -12    1    3    3    0    0 -0.30171715719E+02 -0.68232765785E+01 -0.29547358732E+02  0.42777750534E+02  0.00000000000E+00 0.  1.
</event>
<event>
 7    1  0.1978681E-015  0.9000770E+02  0.7816164E-02  0.1186339E+00
        -11   -1    0    0    0    0  0.00000000000E+00  0.00000000000E+00  0.45593999997E+02  0.45594000000E+02  0.51100000000E-03 0. -1.
         11   -1    0    0    0    0 -0.00000000000E+00 -0.00000000000E+00 -0.45593999997E+02  0.45594000000E+02  0.51100000000E-03 0.  1.
    9900012    2    1    2    0    0  0.33015553700E+00 -0.83243193927E+00  0.76887722384E+00  0.90007695888E+02  0.89999956673E+02 0.  0.
        -12    1    1    2    0    0 -0.33015553700E+00  0.83243193927E+00 -0.76887722384E+00  0.11803041123E+01  0.00000000000E+00 0.  1.
         11    1    3    3    0    0  0.31767305695E+02  0.16032813160E+02  0.24652186872E+02  0.43289064748E+02  0.51100000000E-03 0. -1.
        -11    1    3    3    0    0 -0.30934155798E+01 -0.97390054618E+01 -0.25411771254E+01  0.10529721211E+02  0.51100000000E-03 0.  1.
        -12    1    3    3    0    0 -0.28343734578E+02 -0.71262396376E+01 -0.21342132523E+02  0.36188909929E+02  0.00000000000E+00 0.  1.
</event>
<event>
 7    1  0.1978681E-015  0.9000758E+02  0.7816164E-02  0.1186339E+00
        -11   -1    0    0    0    0  0.00000000000E+00  0.00000000000E+00  0.45593999997E+02  0.45594000000E+02  0.51100000000E-03 0.  1.
         11   -1    0    0    0    0 -0.00000000000E+00 -0.00000000000E+00 -0.45593999997E+02  0.45594000000E+02  0.51100000000E-03 0. -1.
    9900012    2    1    2    0    0 -0.90951363599E+00  0.71509257377E+00 -0.23415644723E+00  0.90007575634E+02  0.89999834832E+02 0.  0.
        -12    1    1    2    0    0  0.90951363599E+00 -0.71509257377E+00  0.23415644723E+00  0.11804243664E+01  0.00000000000E+00 0.  1.
         11    1    3    3    0    0 -0.14507154918E+02  0.44365155988E+01 -0.86210267887E+01  0.17448848605E+02  0.51100000000E-03 0. -1.
        -11    1    3    3    0    0  0.25835223354E+02 -0.14235143939E+02 -0.22909212642E+02  0.37348763204E+02  0.51100000000E-03 0.  1.
         12    1    3    3    0    0 -0.12237582072E+02  0.10513720914E+02  0.31296082984E+02  0.35209963825E+02  0.00000000000E+00 0. -1.
</event>
<event>
 7    1  0.1978681E-015  0.9000858E+02  0.7816164E-02  0.1186337E+00
        -11   -1    0    0    0    0  0.00000000000E+00  0.00000000000E+00  0.45593999997E+02  0.45594000000E+02  0.51100000000E-03 0.  1.
         11   -1    0    0    0    0 -0.00000000000E+00 -0.00000000000E+00 -0.45593999997E+02  0.45594000000E+02  0.51100000000E-03 0. -1.
    9900012    2    1    2    0    0  0.22268230517E+00  0.82066999503E+00 -0.81727896134E+00  0.90008579994E+02  0.90000852446E+02 0.  0.
        -12    1    1    2    0    0 -0.22268230517E+00 -0.82066999503E+00  0.81727896134E+00  0.11794200060E+01  0.00000000000E+00 0.  1.
         11    1    3    3    0    0 -0.31193203126E+01  0.29335972425E+02  0.61169373585E+01  0.30128829387E+02  0.51100000000E-03 0. -1.
        -11    1    3    3    0    0 -0.14450531610E+02  0.91166719351E+01 -0.64142277506E+01  0.18250312022E+02  0.51100000000E-03 0.  1.
        -12    1    3    3    0    0  0.17792534228E+02 -0.37631974365E+02 -0.51998856928E+00  0.41629438586E+02  0.00000000000E+00 0.  1.
</event>
<event>
 7    1  0.1978681E-015  0.9000800E+02  0.7816164E-02  0.1186339E+00
        -11   -1    0    0    0    0  0.00000000000E+00  0.00000000000E+00  0.45593999997E+02  0.45594000000E+02  0.51100000000E-03 0. -1.
         11   -1    0    0    0    0 -0.00000000000E+00 -0.00000000000E+00 -0.45593999997E+02  0.45594000000E+02  0.51100000000E-03 0.  1.
    9900012    2    1    2    0    0 -0.85535764994E+00 -0.69440614612E+00  0.42256869568E+00  0.90007999615E+02  0.90000264410E+02 0.  0.
        -12    1    1    2    0    0  0.85535764994E+00  0.69440614612E+00 -0.42256869568E+00  0.11800003846E+01  0.00000000000E+00 0.  1.
         11    1    3    3    0    0 -0.16872251242E+02  0.19945378508E+02  0.31402554192E+02  0.40848640074E+02  0.51100000000E-03 0. -1.
        -11    1    3    3    0    0 -0.38198413931E+01 -0.94407291528E+01  0.62172642758E+00  0.10203190639E+02  0.51100000000E-03 0.  1.
        -12    1    3    3    0    0  0.19836734985E+02 -0.11199055502E+02 -0.31601711924E+02  0.38956168902E+02  0.00000000000E+00 0.  1.
</event>
<event>
 7    1  0.1978681E-015  0.9000774E+02  0.7816164E-02  0.1186339E+00
        -11   -1    0    0    0    0  0.00000000000E+00  0.00000000000E+00  0.45593999997E+02  0.45594000000E+02  0.51100000000E-03 0. -1.
         11   -1    0    0    0    0 -0.00000000000E+00 -0.00000000000E+00 -0.45593999997E+02  0.45594000000E+02  0.51100000000E-03 0.  1.
    9900012    2    1    2    0    0 -0.67630972533E+00  0.71648275153E+00 -0.64983071022E+00  0.90007736330E+02  0.89999997650E+02 0.  0.
        -12    1    1    2    0    0  0.67630972533E+00 -0.71648275153E+00  0.64983071022E+00  0.11802636696E+01  0.00000000000E+00 0.  1.
         11    1    3    3    0    0  0.27243946073E+01 -0.32808496434E+02 -0.16829530108E+02  0.36973677774E+02  0.51100000000E-03 0. -1.
        -11    1    3    3    0    0  0.24595338255E+01 -0.40301656161E+01 -0.70522789811E+01  0.84868239419E+01  0.51100000000E-03 0.  1.
        -12    1    3    3    0    0 -0.58602381581E+01  0.37555144802E+02  0.23231978379E+02  0.44547234614E+02  0.00000000000E+00 0.  1.
</event>
<event>
 7    1  0.1978681E-015  0.9000769E+02  0.7816164E-02  0.1186339E+00
        -11   -1    0    0    0    0  0.00000000000E+00  0.00000000000E+00  0.45593999997E+02  0.45594000000E+02  0.51100000000E-03 0.  1.
         11   -1    0    0    0    0 -0.00000000000E+00 -0.00000000000E+00 -0.45593999997E+02  0.45594000000E+02  0.51100000000E-03 0. -1.
    9900012    2    1    2    0    0 -0.78490216750E+00  0.87968647426E+00 -0.56660431889E-01  0.90007690672E+02  0.89999951389E+02 0.  0.
        -12    1    1    2    0    0  0.78490216750E+00 -0.87968647426E+00  0.56660431889E-01  0.11803093281E+01  0.00000000000E+00 0.  1.
         11    1    3    3    0    0 -0.63962327570E+01 -0.33993868105E+01  0.53015956793E+01  0.89763322787E+01  0.51100000000E-03 0. -1.
        -11    1    3    3    0    0 -0.30224463007E+02 -0.83628758260E+01  0.18260472295E+02  0.36289126537E+02  0.51100000000E-03 0.  1.
         12    1    3    3    0    0  0.35835793596E+02  0.12641949111E+02 -0.23618728406E+02  0.44742231856E+02  0.00000000000E+00 0. -1.
</event>
<event>
 7    1  0.1978681E-015  0.9000762E+02  0.7816164E-02  0.1186339E+00
        -11   -1    0    0    0    0  0.00000000000E+00  0.00000000000E+00  0.45593999997E+02  0.45594000000E+02  0.51100000000E-03 0.  1.
         11   -1    0    0    0    0 -0.00000000000E+00 -0.00000000000E+00 -0.45593999997E+02  0.45594000000E+02  0.51100000000E-03 0. -1.
    9900012    2    1    2    0    0 -0.85003181491E+00  0.88285129310E-01 -0.81422101339E+00  0.90007616923E+02  0.89999876666E+02 0.  0.
        -12    1    1    2    0    0  0.85003181491E+00 -0.88285129310E-01  0.81422101339E+00  0.11803830773E+01  0.00000000000E+00 0.  1.
         11    1    3    3    0    0  0.73307168409E+01  0.32451407255E+02 -0.88199217199E+01  0.34418370990E+02  0.51100000000E-03 0. -1.
        -11    1    3    3    0    0 -0.44248708384E+01  0.32882469431E+01 -0.12943213608E+02  0.14068362686E+02  0.51100000000E-03 0.  1.
        -12    1    3    3    0    0 -0.37558778173E+01 -0.35651369068E+02  0.20948914315E+02  0.41520883247E+02  0.00000000000E+00 0.  1.
</event>
<event>
 7    1  0.1978681E-015  0.9000770E+02  0.7816164E-02  0.1186339E+00
        -11   -1    0    0    0    0  0.00000000000E+00  0.00000000000E+00  0.45593999997E+02  0.45594000000E+02  0.51100000000E-03 0. -1.
         11   -1    0    0    0    0 -0.00000000000E+00 -0.00000000000E+00 -0.45593999997E+02  0.45594000000E+02  0.51100000000E-03 0.  1.
    9900012    2    1    2    0    0  0.92657675129E-01  0.11535635795E+01 -0.23198661964E+00  0.90007698272E+02  0.89999959089E+02 0.  0.
        -12    1    1    2    0    0 -0.92657675129E-01 -0.11535635795E+01  0.23198661964E+00  0.11803017277E+01  0.00000000000E+00 0.  1.
         11    1    3    3    0    0 -0.12584196419E+02 -0.92436223768E+01  0.36396601512E+02  0.39604534539E+02  0.51100000000E-03 0. -1.
        -11    1    3    3    0    0  0.53629369570E+01 -0.83214133229E+01 -0.16131775841E+01  0.10030421460E+02  0.51100000000E-03 0.  1.
        -12    1    3    3    0    0  0.73139171372E+01  0.18718599279E+02 -0.35015410547E+02  0.40372742273E+02  0.00000000000E+00 0.  1.
</event>
<event>
 7    1  0.1978681E-015  0.9000778E+02  0.7816164E-02  0.1186339E+00
        -11   -1    0    0    0    0  0.00000000000E+00  0.00000000000E+00  0.45593999997E+02  0.45594000000E+02  0.51100000000E-03 0.  1.
         11   -1    0    0    0    0 -0.00000000000E+00 -0.00000000000E+00 -0.45593999997E+02  0.45594000000E+02  0.51100000000E-03 0. -1.
    9900012    2    1    2    0    0 -0.22293299718E+00 -0.76986977124E+00 -0.86632160281E+00  0.90007783196E+02  0.90000045134E+02 0.  0.
        -12    1    1    2    0    0  0.22293299718E+00  0.76986977124E+00  0.86632160281E+00  0.11802168044E+01  0.00000000000E+00 0.  1.
         11    1    3    3    0    0 -0.30782355503E+02 -0.18211558044E+02  0.43349186618E+01  0.36027847240E+02  0.51100000000E-03 0. -1.
        -11    1    3    3    0    0 -0.57070744443E+01 -0.48318322709E+01  0.64265817954E+01  0.98599318274E+01  0.51100000000E-03 0.  1.
        -12    1    3    3    0    0  0.36266496950E+02  0.22273520543E+02 -0.11627822060E+02  0.44120004128E+02  0.00000000000E+00 0.  1.
</event>
<event>
 7    1  0.1978681E-015  0.9000773E+02  0.7816164E-02  0.1186339E+00
        -11   -1    0    0    0    0  0.00000000000E+00  0.00000000000E+00  0.45593999997E+02  0.45594000000E+02  0.51100000000E-03 0. -1.
         11   -1    0    0    0    0 -0.00000000000E+00 -0.00000000000E+00 -0.45593999997E+02  0.45594000000E+02  0.51100000000E-03 0.  1.
    9900012    2    1    2    0    0 -0.42069192368E-01  0.10103062763E+01  0.60873044924E+00  0.90007728273E+02  0.89999989487E+02 0.  0.
        -12    1    1    2    0    0  0.42069192368E-01 -0.10103062763E+01 -0.60873044924E+00  0.11802717267E+01  0.00000000000E+00 0.  1.
         11    1    3    3    0    0  0.30092911998E+02  0.16272391510E+02  0.19310727638E+02  0.39284580692E+02  0.51100000000E-03 0. -1.
        -11    1    3    3    0    0 -0.64452111567E+01  0.11837046130E+01  0.87337187257E+01  0.10918779534E+02  0.51100000000E-03 0.  1.
        -12    1    3    3    0    0 -0.23689770034E+02 -0.16445789847E+02 -0.27435715914E+02  0.39804368048E+02  0.00000000000E+00 0.  1.
</event>
<event>
 7    1  0.1978681E-015  0.9000771E+02  0.7816164E-02  0.1186339E+00
        -11   -1    0    0    0    0  0.00000000000E+00  0.00000000000E+00  0.45593999997E+02  0.45594000000E+02  0.51100000000E-03 0. -1.
         11   -1    0    0    0    0 -0.00000000000E+00 -0.00000000000E+00 -0.45593999997E+02  0.45594000000E+02  0.51100000000E-03 0.  1.
    9900012    2    1    2    0    0  0.92391374176E+00 -0.26381651269E+00  0.68546126731E+00  0.90007714906E+02  0.89999975943E+02 0.  0.
        -12    1    1    2    0    0 -0.92391374176E+00  0.26381651269E+00 -0.68546126731E+00  0.11802850942E+01  0.00000000000E+00 0.  1.
         11    1    3    3    0    0 -0.25514422320E+01  0.67257866931E+01  0.93888079058E+01  0.11827754574E+02  0.51100000000E-03 0. -1.
        -11    1    3    3    0    0  0.23452918116E+02 -0.35688073034E+02 -0.38539403090E+01  0.42878092090E+02  0.51100000000E-03 0.  1.
         12    1    3    3    0    0 -0.19977562143E+02  0.28698469829E+02 -0.48494063295E+01  0.35301868242E+02  0.00000000000E+00 0. -1.
</event>
<event>
 7    1  0.1978681E-015  0.9000779E+02  0.7816164E-02  0.1186339E+00
        -11   -1    0    0    0    0  0.00000000000E+00  0.00000000000E+00  0.45593999997E+02  0.45594000000E+02  0.51100000000E-03 0.  1.
         11   -1    0    0    0    0 -0.00000000000E+00 -0.00000000000E+00 -0.45593999997E+02  0.45594000000E+02  0.51100000000E-03 0. -1.
    9900012    2    1    2    0    0 -0.92571945955E+00  0.16515259540E+00 -0.71320317220E+00  0.90007792111E+02  0.90000054166E+02 0.  0.
        -12    1    1    2    0    0  0.92571945955E+00 -0.16515259540E+00  0.71320317220E+00  0.11802078895E+01  0.00000000000E+00 0.  1.
         11    1    3    3    0    0  0.22785778863E+02 -0.28300228630E+02 -0.18872252527E+02  0.40942112483E+02  0.51100000000E-03 0. -1.
        -11    1    3    3    0    0 -0.54670176847E+01  0.31114611006E+01 -0.66666021545E+01  0.91658636851E+01  0.51100000000E-03 0.  1.
        -12    1    3    3    0    0 -0.18244480638E+02  0.25353920124E+02  0.24825651509E+02  0.39899815943E+02  0.00000000000E+00 0.  1.
</event>
<event>
 7    1  0.1978681E-015  0.9000774E+02  0.7816164E-02  0.1186339E+00
        -11   -1    0    0    0    0  0.00000000000E+00  0.00000000000E+00  0.45593999997E+02  0.45594000000E+02  0.51100000000E-03 0.  1.
         11   -1    0    0    0    0 -0.00000000000E+00 -0.00000000000E+00 -0.45593999997E+02  0.45594000000E+02  0.51100000000E-03 0. -1.
    9900012    2    1    2    0    0 -0.94975720168E+00 -0.63918339007E+00  0.28710053423E+00  0.90007736951E+02  0.89999998279E+02 0.  0.
        -12    1    1    2    0    0  0.94975720168E+00  0.63918339007E+00 -0.28710053423E+00  0.11802630491E+01  0.00000000000E+00 0.  1.
         11    1    3    3    0    0 -0.19707811828E+02  0.22623016575E+02  0.16915898007E+01  0.30050960090E+02  0.51100000000E-03 0. -1.
        -11    1    3    3    0    0 -0.78391717093E+01  0.10482078235E+02  0.88292945586E+01  0.15788699119E+02  0.51100000000E-03 0.  1.
        -12    1    3    3    0    0  0.26597226336E+02 -0.33744278201E+02 -0.10233783825E+02  0.44168077742E+02  0.00000000000E+00 0.  1.
</event>
<event>
 7    1  0.1978681E-015  0.9000781E+02  0.7816164E-02  0.1186339E+00
        -11   -1    0    0    0    0  0.00000000000E+00  0.00000000000E+00  0.45593999997E+02  0.45594000000E+02  0.51100000000E-03 0. -1.
         11   -1    0    0    0    0 -0.00000000000E+00 -0.00000000000E+00 -0.45593999997E+02  0.45594000000E+02  0.51100000000E-03 0.  1.
    9900012    2    1    2    0    0 -0.70837574549E+00 -0.60718776477E+00  0.72275803374E+00  0.90007808340E+02  0.90000070610E+02 0.  0.
        -12    1    1    2    0    0  0.70837574549E+00  0.60718776477E+00 -0.72275803374E+00  0.11801916598E+01  0.00000000000E+00 0.  1.
         11    1    3    3    0    0  0.49034793615E+01  0.39097070049E+01  0.99593099601E+01  0.11769357410E+02  0.51100000000E-03 0. -1.
        -11    1    3    3    0    0  0.13320659793E+02 -0.16001894720E+02 -0.37163086835E+02  0.42598070793E+02  0.51100000000E-03 0.  1.
         12    1    3    3    0    0 -0.18932514900E+02  0.11484999950E+02  0.27926534908E+02  0.35640380137E+02  0.00000000000E+00 0. -1.
</event>
<event>
 7    1  0.1978681E-015  0.9000780E+02  0.7816164E-02  0.1186339E+00
        -11   -1    0    0    0    0  0.00000000000E+00  0.00000000000E+00  0.45593999997E+02  0.45594000000E+02  0.51100000000E-03 0.  1.
         11   -1    0    0    0    0 -0.00000000000E+00 -0.00000000000E+00 -0.45593999997E+02  0.45594000000E+02  0.51100000000E-03 0. -1.
    9900012    2    1    2    0    0 -0.61018923575E+00  0.49119138889E+00 -0.88276761997E+00  0.90007797240E+02  0.90000059364E+02 0.  0.
        -12    1    1    2    0    0  0.61018923575E+00 -0.49119138889E+00  0.88276761997E+00  0.11802027600E+01  0.00000000000E+00 0.  1.
         11    1    3    3    0    0  0.36464774062E+01  0.22282019533E+01 -0.12319118104E+02  0.13039261963E+02  0.51100000000E-03 0. -1.
        -11    1    3    3    0    0 -0.88688788048E+01  0.20700711859E+02  0.36578910020E+02  0.42955711392E+02  0.51100000000E-03 0.  1.
         12    1    3    3    0    0  0.46122121629E+01 -0.22437722424E+02 -0.25142559536E+02  0.34012823885E+02  0.00000000000E+00 0. -1.
</event>
<event>
 7    1  0.1978681E-015  0.9000760E+02  0.7816164E-02  0.1186339E+00
        -11   -1    0    0    0    0  0.00000000000E+00  0.00000000000E+00  0.45593999997E+02  0.45594000000E+02  0.51100000000E-03 0. -1.
         11   -1    0    0    0    0 -0.00000000000E+00 -0.00000000000E+00 -0.45593999997E+02  0.45594000000E+02  0.51100000000E-03 0.  1.
    9900012    2    1    2    0    0  0.11381658822E+01  0.31188819345E+00  0.25235939831E-01  0.90007604866E+02  0.89999864450E+02 0.  0.
        -12    1    1    2    0    0 -0.11381658822E+01 -0.31188819345E+00 -0.25235939831E-01  0.11803951344E+01  0.00000000000E+00 0.  1.
         11    1    3    3    0    0  0.72037697299E+00  0.78200470644E+01 -0.49875697862E+01  0.93031140865E+01  0.51100000000E-03 0. -1.
        -11    1    3    3    0    0 -0.20211787999E+02  0.99177512768E+01 -0.29356260395E+02  0.36995515798E+02  0.51100000000E-03 0.  1.
         12    1    3    3    0    0  0.20629576908E+02 -0.17425910148E+02  0.34369066121E+02  0.43708974981E+02  0.00000000000E+00 0. -1.
</event>
<event>
 7    1  0.1978681E-015  0.9000783E+02  0.7816164E-02  0.1186339E+00
        -11   -1    0    0    0    0  0.00000000000E+00  0.00000000000E+00  0.45593999997E+02  0.45594000000E+02  0.51100000000E-03 0.  1.
         11   -1    0    0    0    0 -0.00000000000E+00 -0.00000000000E+00 -0.45593999997E+02  0.45594000000E+02  0.51100000000E-03 0. -1.
    9900012    2    1    2    0    0 -0.67091335933E+00  0.96957131433E+00  0.51093444959E-01  0.90007828907E+02  0.90000091448E+02 0.  0.
        -12    1    1    2    0    0  0.67091335933E+00 -0.96957131433E+00 -0.51093444959E-01  0.11801710933E+01  0.00000000000E+00 0.  1.
         11    1    3    3    0    0  0.11800862107E+02  0.87228227561E+01 -0.40842161528E+02  0.43398503913E+02  0.51100000000E-03 0. -1.
        -11    1    3    3    0    0 -0.71595170379E+01  0.39882394301E+01  0.87997057204E+01  0.12024955675E+02  0.51100000000E-03 0.  1.
        -12    1    3    3    0    0 -0.53122584289E+01 -0.11741490872E+02  0.32093549253E+02  0.34584369318E+02  0.00000000000E+00 0.  1.
</event>
<event>
 7    1  0.1978681E-015  0.9000774E+02  0.7816164E-02  0.1186339E+00
        -11   -1    0    0    0    0  0.00000000000E+00  0.00000000000E+00  0.45593999997E+02  0.45594000000E+02  0.51100000000E-03 0. -1.
         11   -1    0    0    0    0 -0.00000000000E+00 -0.00000000000E+00 -0.45593999997E+02  0.45594000000E+02  0.51100000000E-03 0.  1.
    9900012    2    1    2    0    0  0.75971260255E+00  0.82798759804E+00  0.36095719666E+00  0.90007738674E+02  0.90000000024E+02 0.  0.
        -12    1    1    2    0    0 -0.75971260255E+00 -0.82798759804E+00 -0.36095719666E+00  0.11802613265E+01  0.00000000000E+00 0.  1.
         11    1    3    3    0    0  0.12118395467E+02  0.99608222494E+00  0.37730960635E+02  0.39641809737E+02  0.51100000000E-03 0. -1.
        -11    1    3    3    0    0 -0.28800445101E+00  0.13484450898E+02 -0.68042897642E+01  0.15106678061E+02  0.51100000000E-03 0.  1.
        -12    1    3    3    0    0 -0.11070678414E+02 -0.13652545525E+02 -0.30565713674E+02  0.35259250875E+02  0.00000000000E+00 0.  1.
</event>
<event>
 7    1  0.1978681E-015  0.9000800E+02  0.7816164E-02  0.1186339E+00
        -11   -1    0    0    0    0  0.00000000000E+00  0.00000000000E+00  0.45593999997E+02  0.45594000000E+02  0.51100000000E-03 0.  1.
         11   -1    0    0    0    0 -0.00000000000E+00 -0.00000000000E+00 -0.45593999997E+02  0.45594000000E+02  0.51100000000E-03 0. -1.
    9900012    2    1    2    0    0  0.38262971991E+00 -0.23074557949E+00 -0.10921292373E+01  0.90008001993E+02  0.90000266819E+02 0.  0.
        -12    1    1    2    0    0 -0.38262971991E+00  0.23074557949E+00  0.10921292373E+01  0.11799980068E+01  0.00000000000E+00 0.  1.
         11    1    3    3    0    0  0.48010749400E+01 -0.60646107630E+01 -0.24282947535E+00  0.77387848336E+01  0.51100000000E-03 0. -1.
        -11    1    3    3    0    0 -0.15346512928E+02  0.19374763337E+02  0.34750860169E+02  0.42644099195E+02  0.51100000000E-03 0.  1.
         12    1    3    3    0    0  0.10928067708E+02 -0.13540898153E+02 -0.35600159931E+02  0.39625117965E+02  0.00000000000E+00 0. -1.
</event>
<event>
 7    1  0.1978681E-015  0.9000774E+02  0.7816164E-02  0.1186339E+00
        -11   -1    0    0    0    0  0.00000000000E+00  0.00000000000E+00  0.45593999997E+02  0.45594000000E+02  0.51100000000E-03 0. -1.
         11   -1    0    0    0    0 -0.00000000000E+00 -0.00000000000E+00 -0.45593999997E+02  0.45594000000E+02  0.51100000000E-03 0.  1.
    9900012    2    1    2    0    0 -0.11148940101E+01  0.26536033533E+00  0.28215541617E+00  0.90007738825E+02  0.90000000178E+02 0.  0.
        -12    1    1    2    0    0  0.11148940101E+01 -0.26536033533E+00 -0.28215541617E+00  0.11802611745E+01  0.00000000000E+00 0.  1.
         11    1    3    3    0    0 -0.15787727540E+02  0.12534151246E+02  0.28628531857E+02  0.35013570582E+02  0.51100000000E-03 0. -1.
        -11    1    3    3    0    0 -0.95701467551E+01 -0.19409416721E+02 -0.10484947519E+02  0.24046772987E+02  0.51100000000E-03 0.  1.
        -12    1    3    3    0    0  0.24242980285E+02  0.71406258101E+01 -0.17861428921E+02  0.30947395257E+02  0.00000000000E+00 0.  1.
</event>
<event>
 7    1  0.1978681E-015  0.9000769E+02  0.7816164E-02  0.1186339E+00
        -11   -1    0    0    0    0  0.00000000000E+00  0.00000000000E+00  0.45593999997E+02  0.45594000000E+02  0.51100000000E-03 0.  1.
         11   -1    0    0    0    0 -0.00000000000E+00 -0.00000000000E+00 -0.45593999997E+02  0.45594000000E+02  0.51100000000E-03 0. -1.
    9900012    2    1    2    0    0 -0.39730318801E+00  0.10897813897E+01 -0.21828942771E+00  0.90007693440E+02  0.89999954194E+02 0.  0.
        -12    1    1    2    0    0  0.39730318801E+00 -0.10897813897E+01  0.21828942771E+00  0.11803065597E+01  0.00000000000E+00 0.  1.
         11    1    3    3    0    0 -0.18433154219E+02  0.22966257447E+02  0.21478367929E+02  0.36449285929E+02  0.51100000000E-03 0. -1.
        -11    1    3    3    0    0 -0.36416629826E+01  0.91616257986E+01  0.12764024995E+00  0.98596850278E+01  0.51100000000E-03 0.  1.
        -12    1    3    3    0    0  0.21677514014E+02 -0.31038101856E+02 -0.21824297607E+02  0.43698722483E+02  0.00000000000E+00 0.  1.
</event>
<event>
 7    1  0.1978681E-015  0.9000773E+02  0.7816164E-02  0.1186339E+00
        -11   -1    0    0    0    0  0.00000000000E+00  0.00000000000E+00  0.45593999997E+02  0.45594000000E+02  0.51100000000E-03 0.  1.
         11   -1    0    0    0    0 -0.00000000000E+00 -0.00000000000E+00 -0.45593999997E+02  0.45594000000E+02  0.51100000000E-03 0. -1.
    9900012    2    1    2    0    0 -0.77905816628E+00  0.87450947013E+00 -0.14607217707E+00  0.90007730742E+02  0.89999991988E+02 0.  0.
        -12    1    1    2    0    0  0.77905816628E+00 -0.87450947013E+00  0.14607217707E+00  0.11802692577E+01  0.00000000000E+00 0.  1.
         11    1    3    3    0    0  0.21084697991E+02  0.20396875353E+02 -0.31195139345E+02  0.42822117329E+02  0.51100000000E-03 0. -1.
        -11    1    3    3    0    0 -0.29239324376E+01  0.40000442948E+01  0.70210507525E+01  0.85933049050E+01  0.51100000000E-03 0.  1.
        -12    1    3    3    0    0 -0.18939823720E+02 -0.23522410178E+02  0.24028016415E+02  0.38592308508E+02  0.00000000000E+00 0.  1.
</event>
<event>
 7    1  0.1978681E-015  0.9000768E+02  0.7816164E-02  0.1186339E+00
        -11   -1    0    0    0    0  0.00000000000E+00  0.00000000000E+00  0.45593999997E+02  0.45594000000E+02  0.51100000000E-03 0. -1.
         11   -1    0    0    0    0 -0.00000000000E+00 -0.00000000000E+00 -0.45593999997E+02  0.45594000000E+02  0.51100000000E-03 0.  1.
    9900012    2    1    2    0    0  0.16863990440E+00 -0.11218999041E+01 -0.32566970802E+00  0.90007678192E+02  0.89999938744E+02 0.  0.
        -12    1    1    2    0    0 -0.16863990440E+00  0.11218999041E+01  0.32566970802E+00  0.11803218082E+01  0.00000000000E+00 0.  1.
         11    1    3    3    0    0 -0.26991029179E+02  0.13404455803E+02  0.19742244318E+02  0.36027091230E+02  0.51100000000E-03 0. -1.
        -11    1    3    3    0    0 -0.50045844428E+01 -0.21061063803E+01  0.78990134217E+01  0.95851949812E+01  0.51100000000E-03 0.  1.
        -12    1    3    3    0    0  0.32164253526E+02 -0.12420249327E+02 -0.27966927448E+02  0.44395391981E+02  0.00000000000E+00 0.  1.
</event>
<event>
 7    1  0.1978681E-015  0.9000789E+02  0.7816164E-02  0.1186339E+00
        -11   -1    0    0    0    0  0.00000000000E+00  0.00000000000E+00  0.45593999997E+02  0.45594000000E+02  0.51100000000E-03 0.  1.
         11   -1    0    0    0    0 -0.00000000000E+00 -0.00000000000E+00 -0.45593999997E+02  0.45594000000E+02  0.51100000000E-03 0. -1.
    9900012    2    1    2    0    0 -0.82532039724E+00  0.69378610285E+00  0.47975835462E+00  0.90007889415E+02  0.90000152755E+02 0.  0.
        -12    1    1    2    0    0  0.82532039724E+00 -0.69378610285E+00 -0.47975835462E+00  0.11801105853E+01  0.00000000000E+00 0.  1.
         11    1    3    3    0    0  0.85041123147E+01  0.24427551379E+01  0.55840798899E+01  0.10462739957E+02  0.51100000000E-03 0. -1.
        -11    1    3    3    0    0 -0.26606712566E+02 -0.30235934931E+02  0.12092602909E+02  0.42051872254E+02  0.51100000000E-03 0.  1.
         12    1    3    3    0    0  0.17277279854E+02  0.28486965896E+02 -0.17196924444E+02  0.37493277204E+02  0.00000000000E+00 0. -1.
</event>
<event>
 7    1  0.1978681E-015  0.9000773E+02  0.7816164E-02  0.1186339E+00
        -11   -1    0    0    0    0  0.00000000000E+00  0.00000000000E+00  0.45593999997E+02  0.45594000000E+02  0.51100000000E-03 0.  1.
         11   -1    0    0    0    0 -0.00000000000E+00 -0.00000000000E+00 -0.45593999997E+02  0.45594000000E+02  0.51100000000E-03 0. -1.
    9900012    2    1    2    0    0 -0.52611515218E+00  0.34400316425E+00 -0.99895223038E+00  0.90007728468E+02  0.89999989684E+02 0.  0.
        -12    1    1    2    0    0  0.52611515218E+00 -0.34400316425E+00  0.99895223038E+00  0.11802715319E+01  0.00000000000E+00 0.  1.
         11    1    3    3    0    0  0.11614581870E+02  0.21261659322E+02 -0.18969944295E+02  0.30770366523E+02  0.51100000000E-03 0. -1.
        -11    1    3    3    0    0  0.10369070879E+02  0.12436881937E+02  0.45667681260E+01  0.16824061180E+02  0.51100000000E-03 0.  1.
        -12    1    3    3    0    0 -0.22509767900E+02 -0.33354538094E+02  0.13404223939E+02  0.42413300766E+02  0.00000000000E+00 0.  1.
</event>
<event>
 7    1  0.1978681E-015  0.9000775E+02  0.7816164E-02  0.1186339E+00
        -11   -1    0    0    0    0  0.00000000000E+00  0.00000000000E+00  0.45593999997E+02  0.45594000000E+02  0.51100000000E-03 0.  1.
         11   -1    0    0    0    0 -0.00000000000E+00 -0.00000000000E+00 -0.45593999997E+02  0.45594000000E+02  0.51100000000E-03 0. -1.
    9900012    2    1    2    0    0  0.70672764042E+00 -0.91653053595E+00  0.23128564894E+00  0.90007752046E+02  0.90000013573E+02 0.  0.
        -12    1    1    2    0    0 -0.70672764042E+00  0.91653053595E+00 -0.23128564894E+00  0.11802479538E+01  0.00000000000E+00 0.  1.
         11    1    3    3    0    0  0.45787120545E+01  0.94022875238E+01  0.36554362151E+01  0.11078349559E+02  0.51100000000E-03 0. -1.
        -11    1    3    3    0    0  0.32936467114E+02 -0.10460389170E+02  0.15111388742E+02  0.37717166881E+02  0.51100000000E-03 0.  1.
         12    1    3    3    0    0 -0.36808451528E+02  0.14157111040E+00 -0.18535539308E+02  0.41212235607E+02  0.00000000000E+00 0. -1.
</event>
<event>
 7    1  0.1978681E-015  0.9000757E+02  0.7816164E-02  0.1186339E+00
        -11   -1    0    0    0    0  0.00000000000E+00  0.00000000000E+00  0.45593999997E+02  0.45594000000E+02  0.51100000000E-03 0.  1.
         11   -1    0    0    0    0 -0.00000000000E+00 -0.00000000000E+00 -0.45593999997E+02  0.45594000000E+02  0.51100000000E-03 0. -1.
    9900012    2    1    2    0    0 -0.58226069957E+00  0.95523589012E+00 -0.37671744252E+00  0.90007568232E+02  0.89999827332E+02 0.  0.
        -12    1    1    2    0    0  0.58226069957E+00 -0.95523589012E+00  0.37671744252E+00  0.11804317683E+01  0.00000000000E+00 0.  1.
         11    1    3    3    0    0 -0.16533854228E+01 -0.38571541099E+02 -0.53699230121E+01  0.38978629267E+02  0.51100000000E-03 0. -1.
        -11    1    3    3    0    0 -0.56698633990E+01  0.32936811362E+01 -0.94018704233E+01  0.11462584966E+02  0.51100000000E-03 0.  1.
        -12    1    3    3    0    0  0.67409881222E+01  0.36233095853E+02  0.14395075993E+02  0.39566353999E+02  0.00000000000E+00 0.  1.
</event>
<event>
 7    1  0.1978681E-015  0.9000769E+02  0.7816164E-02  0.1186339E+00
        -11   -1    0    0    0    0  0.00000000000E+00  0.00000000000E+00  0.45593999997E+02  0.45594000000E+02  0.51100000000E-03 0.  1.
         11   -1    0    0    0    0 -0.00000000000E+00 -0.00000000000E+00 -0.45593999997E+02  0.45594000000E+02  0.51100000000E-03 0. -1.
    9900012    2    1    2    0    0 -0.41260012809E-01  0.58674555819E+00 -0.10233072212E+01  0.90007690546E+02  0.89999951261E+02 0.  0.
        -12    1    1    2    0    0  0.41260012809E-01 -0.58674555819E+00  0.10233072212E+01  0.11803094542E+01  0.00000000000E+00 0.  1.
         11    1    3    3    0    0 -0.95527589504E+01  0.16122365248E+01 -0.24773486590E+01  0.99995883323E+01  0.51100000000E-03 0. -1.
        -11    1    3    3    0    0  0.49012848672E+01 -0.28081124963E+02  0.29321975606E+02  0.40894381353E+02  0.51100000000E-03 0.  1.
         12    1    3    3    0    0  0.46102140704E+01  0.27055633997E+02 -0.27867934168E+02  0.39113720860E+02  0.00000000000E+00 0. -1.
</event>
<event>
 7    1  0.1978681E-015  0.9000775E+02  0.7816164E-02  0.1186339E+00
        -11   -1    0    0    0    0  0.00000000000E+00  0.00000000000E+00  0.45593999997E+02  0.45594000000E+02  0.51100000000E-03 0.  1.
         11   -1    0    0    0    0 -0.00000000000E+00 -0.00000000000E+00 -0.45593999997E+02  0.45594000000E+02  0.51100000000E-03 0. -1.
    9900012    2    1    2    0    0  0.45382765217E+00  0.60943972466E+00 -0.90310915037E+00  0.90007753224E+02  0.90000014766E+02 0.  0.
        -12    1    1    2    0    0 -0.45382765217E+00 -0.60943972466E+00  0.90310915037E+00  0.11802467765E+01  0.00000000000E+00 0.  1.
         11    1    3    3    0    0  0.83714348424E+01  0.28707239122E+01  0.54621063262E+01  0.10399835714E+02  0.51100000000E-03 0. -1.
        -11    1    3    3    0    0  0.33165751841E+02  0.10713779190E+02 -0.10304381232E+02  0.36344634164E+02  0.51100000000E-03 0.  1.
         12    1    3    3    0    0 -0.41083359031E+02 -0.12975063377E+02  0.39391657554E+01  0.43263283345E+02  0.00000000000E+00 0. -1.
</event>
<event>
 7    1  0.1978681E-015  0.9000775E+02  0.7816164E-02  0.1186339E+00
        -11   -1    0    0    0    0  0.00000000000E+00  0.00000000000E+00  0.45593999997E+02  0.45594000000E+02  0.51100000000E-03 0. -1.
         11   -1    0    0    0    0 -0.00000000000E+00 -0.00000000000E+00 -0.45593999997E+02  0.45594000000E+02  0.51100000000E-03 0.  1.
    9900012    2    1    2    0    0 -0.64452866510E+00  0.71105381758E+00  0.68701232921E+00  0.90007745505E+02  0.90000006946E+02 0.  0.
        -12    1    1    2    0    0  0.64452866510E+00 -0.71105381758E+00 -0.68701232921E+00  0.11802544946E+01  0.00000000000E+00 0.  1.
         11    1    3    3    0    0  0.15716090059E+01  0.55165679640E+01  0.11768018142E+02  0.13091551788E+02  0.51100000000E-03 0. -1.
        -11    1    3    3    0    0  0.17661657434E+02 -0.42222817287E+01 -0.38778048443E+02  0.42819374676E+02  0.51100000000E-03 0.  1.
         12    1    3    3    0    0 -0.19877795105E+02 -0.58323241772E+00  0.27697042630E+02  0.34096819041E+02  0.00000000000E+00 0. -1.
</event>
<event>
 7    1  0.1978681E-015  0.9000765E+02  0.7816164E-02  0.1186339E+00
        -11   -1    0    0    0    0  0.00000000000E+00  0.00000000000E+00  0.45593999997E+02  0.45594000000E+02  0.51100000000E-03 0.  1.
         11   -1    0    0    0    0 -0.00000000000E+00 -0.00000000000E+00 -0.45593999997E+02  0.45594000000E+02  0.51100000000E-03 0. -1.
    9900012    2    1    2    0    0 -0.17174610313E+00 -0.11337102018E+01  0.28005462234E+00  0.90007649994E+02  0.89999910174E+02 0.  0.
        -12    1    1    2    0    0  0.17174610313E+00  0.11337102018E+01 -0.28005462234E+00  0.11803500062E+01  0.00000000000E+00 0.  1.
         11    1    3    3    0    0 -0.18256364775E+02 -0.10032403138E+02  0.90838878074E+01  0.22725777995E+02  0.51100000000E-03 0. -1.
        -11    1    3    3    0    0  0.19873966407E+02  0.35061211961E+02 -0.29304748617E+01  0.40408548701E+02  0.51100000000E-03 0.  1.
         12    1    3    3    0    0 -0.17893477353E+01 -0.26162519025E+02 -0.58733583233E+01  0.26873323298E+02  0.00000000000E+00 0. -1.
</event>
<event>
 7    1  0.1978681E-015  0.9000764E+02  0.7816164E-02  0.1186339E+00
        -11   -1    0    0    0    0  0.00000000000E+00  0.00000000000E+00  0.45593999997E+02  0.45594000000E+02  0.51100000000E-03 0. -1.
         11   -1    0    0    0    0 -0.00000000000E+00 -0.00000000000E+00 -0.45593999997E+02  0.45594000000E+02  0.51100000000E-03 0.  1.
    9900012    2    1    2    0    0  0.72533372175E+00  0.89396587843E+00  0.26068895608E+00  0.90007642964E+02  0.89999903051E+02 0.  0.
        -12    1    1    2    0    0 -0.72533372175E+00 -0.89396587843E+00 -0.26068895608E+00  0.11803570356E+01  0.00000000000E+00 0.  1.
         11    1    3    3    0    0 -0.44595696674E+01  0.47722532075E+01 -0.78469215421E+01  0.10209619985E+02  0.51100000000E-03 0. -1.
        -11    1    3    3    0    0  0.15474090383E+02  0.32253195529E+02 -0.11297082689E+02  0.37514532818E+02  0.51100000000E-03 0.  1.
         12    1    3    3    0    0 -0.10289186994E+02 -0.36131482858E+02  0.19404693187E+02  0.42283490161E+02  0.00000000000E+00 0. -1.
</event>
<event>
 7    1  0.1978681E-015  0.9000773E+02  0.7816164E-02  0.1186339E+00
        -11   -1    0    0    0    0  0.00000000000E+00  0.00000000000E+00  0.45593999997E+02  0.45594000000E+02  0.51100000000E-03 0. -1.
         11   -1    0    0    0    0 -0.00000000000E+00 -0.00000000000E+00 -0.45593999997E+02  0.45594000000E+02  0.51100000000E-03 0.  1.
    9900012    2    1    2    0    0 -0.47453927566E+00 -0.88498598092E+00  0.62019485766E+00  0.90007733347E+02  0.89999994627E+02 0.  0.
        -12    1    1    2    0    0  0.47453927566E+00  0.88498598092E+00 -0.62019485766E+00  0.11802666529E+01  0.00000000000E+00 0.  1.
         11    1    3    3    0    0 -0.88797220782E+01 -0.33447662902E+02 -0.40647153222E+01  0.34844189311E+02  0.51100000000E-03 0. -1.
        -11    1    3    3    0    0 -0.85241093637E+01 -0.65934745750E+01 -0.42401535499E+01  0.11580727516E+02  0.51100000000E-03 0.  1.
        -12    1    3    3    0    0  0.16929292166E+02  0.39156151496E+02  0.89250637298E+01  0.43582816520E+02  0.00000000000E+00 0.  1.
</event>
<event>
 7    1  0.1978681E-015  0.9000794E+02  0.7816164E-02  0.1186339E+00
        -11   -1    0    0    0    0  0.00000000000E+00  0.00000000000E+00  0.45593999997E+02  0.45594000000E+02  0.51100000000E-03 0.  1.
         11   -1    0    0    0    0 -0.00000000000E+00 -0.00000000000E+00 -0.45593999997E+02  0.45594000000E+02  0.51100000000E-03 0. -1.
    9900012    2    1    2    0    0  0.75837549678E+00  0.68525879506E+00 -0.58976302983E+00  0.90007943458E+02  0.90000207512E+02 0.  0.
        -12    1    1    2    0    0 -0.75837549678E+00 -0.68525879506E+00  0.58976302983E+00  0.11800565417E+01  0.00000000000E+00 0.  1.
         11    1    3    3    0    0  0.22862866637E+01  0.16035866552E+01 -0.97727437366E+01  0.10163912498E+02  0.51100000000E-03 0. -1.
        -11    1    3    3    0    0  0.81829151373E+01  0.38166841552E+02  0.40062909408E+01  0.39239243897E+02  0.51100000000E-03 0.  1.
         12    1    3    3    0    0 -0.97108263043E+01 -0.39085169413E+02  0.51766897660E+01  0.40604787063E+02  0.00000000000E+00 0. -1.
</event>
<event>
 7    1  0.1978681E-015  0.9000795E+02  0.7816164E-02  0.1186339E+00
        -11   -1    0    0    0    0  0.00000000000E+00  0.00000000000E+00  0.45593999997E+02  0.45594000000E+02  0.51100000000E-03 0.  1.
         11   -1    0    0    0    0 -0.00000000000E+00 -0.00000000000E+00 -0.45593999997E+02  0.45594000000E+02  0.51100000000E-03 0. -1.
    9900012    2    1    2    0    0 -0.98892038656E+00 -0.26379477096E+00 -0.58734587111E+00  0.90007946448E+02  0.90000210541E+02 0.  0.
        -12    1    1    2    0    0  0.98892038656E+00  0.26379477096E+00  0.58734587111E+00  0.11800535515E+01  0.00000000000E+00 0.  1.
         11    1    3    3    0    0  0.25717537733E+02  0.16438548089E+02 -0.24942146693E+02  0.39417360290E+02  0.51100000000E-03 0. -1.
        -11    1    3    3    0    0  0.53161846097E+01  0.28235276808E+01  0.70926594762E+01  0.93026848853E+01  0.51100000000E-03 0.  1.
        -12    1    3    3    0    0 -0.32022642729E+02 -0.19525870541E+02  0.17262141345E+02  0.41287901273E+02  0.00000000000E+00 0.  1.
</event>
<event>
 7    1  0.1978681E-015  0.9000771E+02  0.7816164E-02  0.1186339E+00
        -11   -1    0    0    0    0  0.00000000000E+00  0.00000000000E+00  0.45593999997E+02  0.45594000000E+02  0.51100000000E-03 0. -1.
         11   -1    0    0    0    0 -0.00000000000E+00 -0.00000000000E+00 -0.45593999997E+02  0.45594000000E+02  0.51100000000E-03 0.  1.
    9900012    2    1    2    0    0 -0.78706029225E+00  0.86575470064E+00  0.15518239584E+00  0.90007713305E+02  0.89999974321E+02 0.  0.
        -12    1    1    2    0    0  0.78706029225E+00 -0.86575470064E+00 -0.15518239584E+00  0.11802866945E+01  0.00000000000E+00 0.  1.
         11    1    3    3    0    0 -0.28203030219E+02 -0.14853380812E+02 -0.18721380036E+02  0.36966524123E+02  0.51100000000E-03 0. -1.
        -11    1    3    3    0    0 -0.91994981153E+01 -0.70169455113E+00  0.16576160592E+01  0.93739443180E+01  0.51100000000E-03 0.  1.
        -12    1    3    3    0    0  0.36615468042E+02  0.16420830063E+02  0.17218946372E+02  0.43667244864E+02  0.00000000000E+00 0.  1.
</event>
<event>
 7    1  0.1978681E-015  0.9000772E+02  0.7816164E-02  0.1186339E+00
        -11   -1    0    0    0    0  0.00000000000E+00  0.00000000000E+00  0.45593999997E+02  0.45594000000E+02  0.51100000000E-03 0. -1.
         11   -1    0    0    0    0 -0.00000000000E+00 -0.00000000000E+00 -0.45593999997E+02  0.45594000000E+02  0.51100000000E-03 0.  1.
    9900012    2    1    2    0    0 -0.54998330581E+00  0.47078638500E+00  0.93216892188E+00  0.90007720221E+02  0.89999981328E+02 0.  0.
        -12    1    1    2    0    0  0.54998330581E+00 -0.47078638500E+00 -0.93216892188E+00  0.11802797787E+01  0.00000000000E+00 0.  1.
         11    1    3    3    0    0 -0.25427808782E+02 -0.10760177725E+02  0.21888971860E+02  0.35234670049E+02  0.51100000000E-03 0. -1.
        -11    1    3    3    0    0 -0.94262071504E+01 -0.58894330295E+01 -0.72662470469E-01  0.11115038585E+02  0.51100000000E-03 0.  1.
        -12    1    3    3    0    0  0.34304032626E+02  0.17120397140E+02 -0.20884140468E+02  0.43658011587E+02  0.00000000000E+00 0.  1.
</event>
<event>
 7    1  0.1978681E-015  0.9000771E+02  0.7816164E-02  0.1186339E+00
        -11   -1    0    0    0    0  0.00000000000E+00  0.00000000000E+00  0.45593999997E+02  0.45594000000E+02  0.51100000000E-03 0. -1.
         11   -1    0    0    0    0 -0.00000000000E+00 -0.00000000000E+00 -0.45593999997E+02  0.45594000000E+02  0.51100000000E-03 0.  1.
    9900012    2    1    2    0    0  0.70156338952E+00 -0.94842726080E+00 -0.36989794483E-01  0.90007714567E+02  0.89999975599E+02 0.  0.
        -12    1    1    2    0    0 -0.70156338952E+00  0.94842726080E+00  0.36989794483E-01  0.11802854330E+01  0.00000000000E+00 0.  1.
         11    1    3    3    0    0  0.11433374137E+01  0.22165956314E+02 -0.30517785887E+02  0.37735554792E+02  0.51100000000E-03 0. -1.
        -11    1    3    3    0    0  0.22235056559E+01 -0.14228120056E+02 -0.52718502533E+01  0.15335442057E+02  0.51100000000E-03 0.  1.
        -12    1    3    3    0    0 -0.26652796801E+01 -0.88862635186E+01  0.35752646346E+02  0.36936717718E+02  0.00000000000E+00 0.  1.
</event>
<event>
 7    1  0.1978681E-015  0.9000736E+02  0.7816164E-02  0.1186340E+00
        -11   -1    0    0    0    0  0.00000000000E+00  0.00000000000E+00  0.45593999997E+02  0.45594000000E+02  0.51100000000E-03 0.  1.
         11   -1    0    0    0    0 -0.00000000000E+00 -0.00000000000E+00 -0.45593999997E+02  0.45594000000E+02  0.51100000000E-03 0. -1.
    9900012    2    1    2    0    0 -0.56508667478E+00  0.49948093176E+00 -0.90835049982E+00  0.90007362553E+02  0.89999618938E+02 0.  0.
        -12    1    1    2    0    0  0.56508667478E+00 -0.49948093176E+00  0.90835049982E+00  0.11806374472E+01  0.00000000000E+00 0.  1.
         11    1    3    3    0    0 -0.67230475717E+01  0.66148686535E+00  0.74401019384E+01  0.10049480118E+02  0.51100000000E-03 0. -1.
        -11    1    3    3    0    0  0.54579317909E+01  0.15011876400E+02  0.32589014661E+02  0.36293103055E+02  0.51100000000E-03 0.  1.
         12    1    3    3    0    0  0.70002910599E+00 -0.15173882333E+02 -0.40937467100E+02  0.43664779380E+02  0.00000000000E+00 0. -1.
</event>
<event>
 7    1  0.1978681E-015  0.9000776E+02  0.7816164E-02  0.1186339E+00
        -11   -1    0    0    0    0  0.00000000000E+00  0.00000000000E+00  0.45593999997E+02  0.45594000000E+02  0.51100000000E-03 0.  1.
         11   -1    0    0    0    0 -0.00000000000E+00 -0.00000000000E+00 -0.45593999997E+02  0.45594000000E+02  0.51100000000E-03 0. -1.
    9900012    2    1    2    0    0  0.37071166508E+00 -0.10945058109E+01 -0.23998982152E+00  0.90007760523E+02  0.90000022162E+02 0.  0.
        -12    1    1    2    0    0 -0.37071166508E+00  0.10945058109E+01  0.23998982152E+00  0.11802394770E+01  0.00000000000E+00 0.  1.
         11    1    3    3    0    0  0.26281281236E+02  0.11287880965E+02  0.25937887242E+02  0.38612122383E+02  0.51100000000E-03 0. -1.
        -11    1    3    3    0    0 -0.10278254382E+01  0.93716069470E+01 -0.32354906068E+00  0.94333517986E+01  0.51100000000E-03 0.  1.
        -12    1    3    3    0    0 -0.24882744133E+02 -0.21753993723E+02 -0.25854328003E+02  0.41962286341E+02  0.00000000000E+00 0.  1.
</event>
<event>
 7    1  0.1978681E-015  0.9000775E+02  0.7816164E-02  0.1186339E+00
        -11   -1    0    0    0    0  0.00000000000E+00  0.00000000000E+00  0.45593999997E+02  0.45594000000E+02  0.51100000000E-03 0.  1.
         11   -1    0    0    0    0 -0.00000000000E+00 -0.00000000000E+00 -0.45593999997E+02  0.45594000000E+02  0.51100000000E-03 0. -1.
    9900012    2    1    2    0    0 -0.10270532432E+00 -0.80668524172E+00 -0.85539943517E+00  0.90007746783E+02  0.90000008240E+02 0.  0.
        -12    1    1    2    0    0  0.10270532432E+00  0.80668524172E+00  0.85539943517E+00  0.11802532171E+01  0.00000000000E+00 0.  1.
         11    1    3    3    0    0 -0.20274654925E+02  0.26221924224E+02 -0.60843718936E+01  0.33699711036E+02  0.51100000000E-03 0. -1.
        -11    1    3    3    0    0 -0.11506056181E+02  0.22266748273E+01 -0.36664692206E+01  0.12279674524E+02  0.51100000000E-03 0.  1.
        -12    1    3    3    0    0  0.31678005781E+02 -0.29255284293E+02  0.88954416790E+01  0.44028361223E+02  0.00000000000E+00 0.  1.
</event>
<event>
 7    1  0.1978681E-015  0.9000775E+02  0.7816164E-02  0.1186339E+00
        -11   -1    0    0    0    0  0.00000000000E+00  0.00000000000E+00  0.45593999997E+02  0.45594000000E+02  0.51100000000E-03 0.  1.
         11   -1    0    0    0    0 -0.00000000000E+00 -0.00000000000E+00 -0.45593999997E+02  0.45594000000E+02  0.51100000000E-03 0. -1.
    9900012    2    1    2    0    0 -0.75265244904E+00  0.12952682550E+00 -0.89984705972E+00  0.90007751027E+02  0.90000012540E+02 0.  0.
        -12    1    1    2    0    0  0.75265244904E+00 -0.12952682550E+00  0.89984705972E+00  0.11802489731E+01  0.00000000000E+00 0.  1.
         11    1    3    3    0    0  0.64393324307E+01 -0.77683814463E+01  0.47063249265E+01  0.11133833438E+02  0.51100000000E-03 0. -1.
        -11    1    3    3    0    0  0.30079209323E+01 -0.30773977797E+01  0.35169903232E+02  0.35432189588E+02  0.51100000000E-03 0.  1.
         12    1    3    3    0    0 -0.10199905812E+02  0.10975306052E+02 -0.40776075218E+02  0.43441728001E+02  0.00000000000E+00 0. -1.
</event>
<event>
 7    1  0.1978681E-015  0.9000744E+02  0.7816164E-02  0.1186340E+00
        -11   -1    0    0    0    0  0.00000000000E+00  0.00000000000E+00  0.45593999997E+02  0.45594000000E+02  0.51100000000E-03 0. -1.
         11   -1    0    0    0    0 -0.00000000000E+00 -0.00000000000E+00 -0.45593999997E+02  0.45594000000E+02  0.51100000000E-03 0.  1.
    9900012    2    1    2    0    0 -0.10911315283E+01  0.53894434165E-01  0.44748304818E+00  0.90007443478E+02  0.89999700932E+02 0.  0.
        -12    1    1    2    0    0  0.10911315283E+01 -0.53894434165E-01 -0.44748304818E+00  0.11805565215E+01  0.00000000000E+00 0.  1.
         11    1    3    3    0    0 -0.23550666501E+02  0.24063127151E+01  0.30408151708E+02  0.38536734736E+02  0.51100000000E-03 0. -1.
        -11    1    3    3    0    0 -0.93739774945E+01 -0.11443847759E+00 -0.34703174738E+01  0.99963820387E+01  0.51100000000E-03 0.  1.
        -12    1    3    3    0    0  0.31833512468E+02 -0.22379798034E+01 -0.26490351186E+02  0.41474326704E+02  0.00000000000E+00 0.  1.
</event>
<event>
 7    1  0.1978681E-015  0.9000775E+02  0.7816164E-02  0.1186339E+00
        -11   -1    0    0    0    0  0.00000000000E+00  0.00000000000E+00  0.45593999997E+02  0.45594000000E+02  0.51100000000E-03 0.  1.
         11   -1    0    0    0    0 -0.00000000000E+00 -0.00000000000E+00 -0.45593999997E+02  0.45594000000E+02  0.51100000000E-03 0. -1.
    9900012    2    1    2    0    0 -0.67815217100E+00  0.78319610672E+00 -0.56541454470E+00  0.90007754214E+02  0.90000015769E+02 0.  0.
        -12    1    1    2    0    0  0.67815217100E+00 -0.78319610672E+00  0.56541454470E+00  0.11802457862E+01  0.00000000000E+00 0.  1.
         11    1    3    3    0    0 -0.11337755062E+02 -0.28591933714E+02 -0.54607008797E+01  0.31238799876E+02  0.51100000000E-03 0. -1.
        -11    1    3    3    0    0 -0.91177330340E+00 -0.98442245514E+01  0.13745312873E+02  0.16931441575E+02  0.51100000000E-03 0.  1.
        -12    1    3    3    0    0  0.11571376194E+02  0.39219354372E+02 -0.88500265381E+01  0.41837512762E+02  0.00000000000E+00 0.  1.
</event>
<event>
 7    1  0.1978681E-015  0.9000774E+02  0.7816164E-02  0.1186339E+00
        -11   -1    0    0    0    0  0.00000000000E+00  0.00000000000E+00  0.45593999997E+02  0.45594000000E+02  0.51100000000E-03 0.  1.
         11   -1    0    0    0    0 -0.00000000000E+00 -0.00000000000E+00 -0.45593999997E+02  0.45594000000E+02  0.51100000000E-03 0. -1.
    9900012    2    1    2    0    0 -0.11521284597E+01  0.11937058187E+00  0.22665404675E+00  0.90007736733E+02  0.89999998057E+02 0.  0.
        -12    1    1    2    0    0  0.11521284597E+01 -0.11937058187E+00 -0.22665404675E+00  0.11802632674E+01  0.00000000000E+00 0.  1.
         11    1    3    3    0    0  0.44861277842E+01  0.65077743319E+01  0.19307964992E+01  0.81366113729E+01  0.51100000000E-03 0. -1.
        -11    1    3    3    0    0  0.20671563345E+02  0.12018564287E+02  0.28902385713E+02  0.37511429176E+02  0.51100000000E-03 0.  1.
         12    1    3    3    0    0 -0.26309819589E+02 -0.18406968037E+02 -0.30606528166E+02  0.44359696184E+02  0.00000000000E+00 0. -1.
</event>
<event>
 7    1  0.1978681E-015  0.9000775E+02  0.7816164E-02  0.1186339E+00
        -11   -1    0    0    0    0  0.00000000000E+00  0.00000000000E+00  0.45593999997E+02  0.45594000000E+02  0.51100000000E-03 0.  1.
         11   -1    0    0    0    0 -0.00000000000E+00 -0.00000000000E+00 -0.45593999997E+02  0.45594000000E+02  0.51100000000E-03 0. -1.
    9900012    2    1    2    0    0  0.89646911261E+00 -0.41353436909E+00 -0.64676990425E+00  0.90007754749E+02  0.90000016311E+02 0.  0.
        -12    1    1    2    0    0 -0.89646911261E+00  0.41353436909E+00  0.64676990425E+00  0.11802452513E+01  0.00000000000E+00 0.  1.
         11    1    3    3    0    0 -0.29911767251E+02 -0.25164859227E+02  0.18307862665E+02  0.43164357931E+02  0.51100000000E-03 0. -1.
        -11    1    3    3    0    0  0.69567593832E+01 -0.11115645429E+01 -0.63108636202E+01  0.94582808555E+01  0.51100000000E-03 0.  1.
        -12    1    3    3    0    0  0.23851476980E+02  0.25862889401E+02 -0.12643768949E+02  0.37385115962E+02  0.00000000000E+00 0.  1.
</event>
<event>
 7    1  0.1978681E-015  0.9000775E+02  0.7816164E-02  0.1186339E+00
        -11   -1    0    0    0    0  0.00000000000E+00  0.00000000000E+00  0.45593999997E+02  0.45594000000E+02  0.51100000000E-03 0.  1.
         11   -1    0    0    0    0 -0.00000000000E+00 -0.00000000000E+00 -0.45593999997E+02  0.45594000000E+02  0.51100000000E-03 0. -1.
    9900012    2    1    2    0    0 -0.71827773107E+00  0.92651251890E+00 -0.13657650797E+00  0.90007745159E+02  0.90000006595E+02 0.  0.
        -12    1    1    2    0    0  0.71827773107E+00 -0.92651251890E+00  0.13657650797E+00  0.11802548408E+01  0.00000000000E+00 0.  1.
         11    1    3    3    0    0 -0.21864048360E+02 -0.32587938445E+02 -0.11148163460E+02  0.40795733742E+02  0.51100000000E-03 0. -1.
        -11    1    3    3    0    0  0.78816290002E+01 -0.35156459743E+01  0.19598694707E+01  0.88499113508E+01  0.51100000000E-03 0.  1.
        -12    1    3    3    0    0  0.13264141629E+02  0.37030096938E+02  0.90517174813E+01  0.40362100066E+02  0.00000000000E+00 0.  1.
</event>
<event>
 7    1  0.1978681E-015  0.9000770E+02  0.7816164E-02  0.1186339E+00
        -11   -1    0    0    0    0  0.00000000000E+00  0.00000000000E+00  0.45593999997E+02  0.45594000000E+02  0.51100000000E-03 0.  1.
         11   -1    0    0    0    0 -0.00000000000E+00 -0.00000000000E+00 -0.45593999997E+02  0.45594000000E+02  0.51100000000E-03 0. -1.
    9900012    2    1    2    0    0  0.73091039276E+00 -0.64988979568E+00 -0.66069330596E+00  0.90007702413E+02  0.89999963285E+02 0.  0.
        -12    1    1    2    0    0 -0.73091039276E+00  0.64988979568E+00  0.66069330596E+00  0.11802975868E+01  0.00000000000E+00 0.  1.
         11    1    3    3    0    0 -0.80466301021E+01  0.36419942043E+02 -0.89838932968E+01  0.38364968049E+02  0.51100000000E-03 0. -1.
        -11    1    3    3    0    0  0.49545318415E+01  0.55949684092E+01 -0.16679823277E+01  0.76572333499E+01  0.51100000000E-03 0.  1.
        -12    1    3    3    0    0  0.38230086533E+01 -0.42664800248E+02  0.99911823186E+01  0.43985501014E+02  0.00000000000E+00 0.  1.
</event>
<event>
 7    1  0.1978681E-015  0.9000771E+02  0.7816164E-02  0.1186339E+00
        -11   -1    0    0    0    0  0.00000000000E+00  0.00000000000E+00  0.45593999997E+02  0.45594000000E+02  0.51100000000E-03 0. -1.
         11   -1    0    0    0    0 -0.00000000000E+00 -0.00000000000E+00 -0.45593999997E+02  0.45594000000E+02  0.51100000000E-03 0.  1.
    9900012    2    1    2    0    0 -0.98329932985E-01 -0.11492283979E+01  0.25035780170E+00  0.90007714562E+02  0.89999975594E+02 0.  0.
        -12    1    1    2    0    0  0.98329932985E-01  0.11492283979E+01 -0.25035780170E+00  0.11802854380E+01  0.00000000000E+00 0.  1.
         11    1    3    3    0    0 -0.20162734919E+01  0.28760100368E+02  0.17097413270E+02  0.33519103102E+02  0.51100000000E-03 0. -1.
        -11    1    3    3    0    0 -0.51029358214E+01  0.31410781602E+01  0.11117350958E+02  0.12629402939E+02  0.51100000000E-03 0.  1.
        -12    1    3    3    0    0  0.70208793803E+01 -0.33050406927E+02 -0.27964406427E+02  0.43859208521E+02  0.00000000000E+00 0.  1.
</event>
<event>
 7    1  0.1978681E-015  0.9000775E+02  0.7816164E-02  0.1186339E+00
        -11   -1    0    0    0    0  0.00000000000E+00  0.00000000000E+00  0.45593999997E+02  0.45594000000E+02  0.51100000000E-03 0.  1.
         11   -1    0    0    0    0 -0.00000000000E+00 -0.00000000000E+00 -0.45593999997E+02  0.45594000000E+02  0.51100000000E-03 0. -1.
    9900012    2    1    2    0    0 -0.93770583331E+00  0.62579242618E+00  0.34941651702E+00  0.90007745666E+02  0.90000007109E+02 0.  0.
        -12    1    1    2    0    0  0.93770583331E+00 -0.62579242618E+00 -0.34941651702E+00  0.11802543340E+01  0.00000000000E+00 0.  1.
         11    1    3    3    0    0 -0.15507694786E+02  0.31817062740E+02 -0.21522603109E+01  0.35460489332E+02  0.51100000000E-03 0. -1.
        -11    1    3    3    0    0 -0.12696123280E+02  0.26245972962E+00 -0.12051130961E+01  0.12755889984E+02  0.51100000000E-03 0.  1.
        -12    1    3    3    0    0  0.27266112232E+02 -0.31453730043E+02  0.37067899240E+01  0.41791366350E+02  0.00000000000E+00 0.  1.
</event>
<event>
 7    1  0.1978681E-015  0.9000684E+02  0.7816164E-02  0.1186341E+00
        -11   -1    0    0    0    0  0.00000000000E+00  0.00000000000E+00  0.45593999997E+02  0.45594000000E+02  0.51100000000E-03 0. -1.
         11   -1    0    0    0    0 -0.00000000000E+00 -0.00000000000E+00 -0.45593999997E+02  0.45594000000E+02  0.51100000000E-03 0.  1.
    9900012    2    1    2    0    0  0.11653188396E+01  0.18859568256E+00 -0.40027387876E-01  0.90006840180E+02  0.89999089665E+02 0.  0.
        -12    1    1    2    0    0 -0.11653188396E+01 -0.18859568256E+00  0.40027387876E-01  0.11811598203E+01  0.00000000000E+00 0.  1.
         11    1    3    3    0    0  0.33228918624E+01 -0.96188579830E+01 -0.10782872205E+02  0.14826812620E+02  0.51100000000E-03 0. -1.
        -11    1    3    3    0    0 -0.20407333446E+02 -0.49808070061E+01 -0.24847472012E+02  0.32537125910E+02  0.51100000000E-03 0.  1.
         12    1    3    3    0    0  0.18249760424E+02  0.14788260672E+02  0.35590316828E+02  0.42642901650E+02  0.00000000000E+00 0. -1.
</event>
<event>
 7    1  0.1978681E-015  0.9000769E+02  0.7816164E-02  0.1186339E+00
        -11   -1    0    0    0    0  0.00000000000E+00  0.00000000000E+00  0.45593999997E+02  0.45594000000E+02  0.51100000000E-03 0.  1.
         11   -1    0    0    0    0 -0.00000000000E+00 -0.00000000000E+00 -0.45593999997E+02  0.45594000000E+02  0.51100000000E-03 0. -1.
    9900012    2    1    2    0    0 -0.88261834211E-01 -0.10617180954E+01 -0.50803037995E+00  0.90007690578E+02  0.89999951293E+02 0.  0.
        -12    1    1    2    0    0  0.88261834211E-01  0.10617180954E+01  0.50803037995E+00  0.11803094223E+01  0.00000000000E+00 0.  1.
         11    1    3    3    0    0  0.57639742968E+01  0.23371505009E+01 -0.70055292418E+01  0.93681968583E+01  0.51100000000E-03 0. -1.
        -11    1    3    3    0    0  0.21626459672E+02 -0.20111034772E+02  0.28997609187E+02  0.41388631487E+02  0.51100000000E-03 0.  1.
         12    1    3    3    0    0 -0.27478695803E+02  0.16712166176E+02 -0.22500110326E+02  0.39250862232E+02  0.00000000000E+00 0. -1.
</event>
<event>
 7    1  0.1978681E-015  0.9000777E+02  0.7816164E-02  0.1186339E+00
        -11   -1    0    0    0    0  0.00000000000E+00  0.00000000000E+00  0.45593999997E+02  0.45594000000E+02  0.51100000000E-03 0.  1.
         11   -1    0    0    0    0 -0.00000000000E+00 -0.00000000000E+00 -0.45593999997E+02  0.45594000000E+02  0.51100000000E-03 0. -1.
    9900012    2    1    2    0    0  0.88698041171E-01  0.11518809680E+01 -0.24132772679E+00  0.90007772827E+02  0.90000034629E+02 0.  0.
        -12    1    1    2    0    0 -0.88698041171E-01 -0.11518809680E+01  0.24132772679E+00  0.11802271725E+01  0.00000000000E+00 0.  1.
         11    1    3    3    0    0  0.34733289205E+01  0.25360739747E+01 -0.27484121549E+01  0.51038666352E+01  0.51100000000E-03 0. -1.
        -11    1    3    3    0    0  0.16269001612E+02 -0.36257484620E+02  0.15739165529E+02  0.42743501684E+02  0.51100000000E-03 0.  1.
         12    1    3    3    0    0 -0.19653632492E+02  0.34873291613E+02 -0.13232081101E+02  0.42160404508E+02  0.00000000000E+00 0. -1.
</event>
<event>
 7    1  0.1978681E-015  0.9000776E+02  0.7816164E-02  0.1186339E+00
        -11   -1    0    0    0    0  0.00000000000E+00  0.00000000000E+00  0.45593999997E+02  0.45594000000E+02  0.51100000000E-03 0. -1.
         11   -1    0    0    0    0 -0.00000000000E+00 -0.00000000000E+00 -0.45593999997E+02  0.45594000000E+02  0.51100000000E-03 0.  1.
    9900012    2    1    2    0    0  0.41660227805E+00  0.60171641740E+00  0.92592603973E+00  0.90007763102E+02  0.90000024775E+02 0.  0.
        -12    1    1    2    0    0 -0.41660227805E+00 -0.60171641740E+00 -0.92592603973E+00  0.11802368983E+01  0.00000000000E+00 0.  1.
         11    1    3    3    0    0  0.14461938109E+02  0.34241310536E+02 -0.74686515462E+01  0.37913002483E+02  0.51100000000E-03 0. -1.
        -11    1    3    3    0    0 -0.55379521410E+01  0.75005513120E+01  0.41233157279E+00  0.93325881451E+01  0.51100000000E-03 0.  1.
        -12    1    3    3    0    0 -0.85073836903E+01 -0.41140145430E+02  0.79822460131E+01  0.42762172474E+02  0.00000000000E+00 0.  1.
</event>
<event>
 7    1  0.1978681E-015  0.9000764E+02  0.7816164E-02  0.1186339E+00
        -11   -1    0    0    0    0  0.00000000000E+00  0.00000000000E+00  0.45593999997E+02  0.45594000000E+02  0.51100000000E-03 0.  1.
         11   -1    0    0    0    0 -0.00000000000E+00 -0.00000000000E+00 -0.45593999997E+02  0.45594000000E+02  0.51100000000E-03 0. -1.
    9900012    2    1    2    0    0 -0.39180340159E+00  0.10252626566E+01 -0.43426409397E+00  0.90007636190E+02  0.89999896188E+02 0.  0.
        -12    1    1    2    0    0  0.39180340159E+00 -0.10252626566E+01  0.43426409397E+00  0.11803638099E+01  0.00000000000E+00 0.  1.
         11    1    3    3    0    0  0.19717377056E+02 -0.36750266697E+02  0.57824161399E+01  0.42104553162E+02  0.51100000000E-03 0. -1.
        -11    1    3    3    0    0 -0.86997659810E+01  0.16203531649E+01  0.20860282579E+01  0.90919187555E+01  0.51100000000E-03 0.  1.
        -12    1    3    3    0    0 -0.11409414477E+02  0.36155176188E+02 -0.83027084917E+01  0.38811164273E+02  0.00000000000E+00 0.  1.
</event>
<event>
 7    1  0.1978681E-015  0.9000766E+02  0.7816164E-02  0.1186339E+00
        -11   -1    0    0    0    0  0.00000000000E+00  0.00000000000E+00  0.45593999997E+02  0.45594000000E+02  0.51100000000E-03 0.  1.
         11   -1    0    0    0    0 -0.00000000000E+00 -0.00000000000E+00 -0.45593999997E+02  0.45594000000E+02  0.51100000000E-03 0. -1.
    9900012    2    1    2    0    0  0.40853882235E-01 -0.11715276471E+01 -0.13800715338E+00  0.90007664437E+02  0.89999924807E+02 0.  0.
        -12    1    1    2    0    0 -0.40853882235E-01  0.11715276471E+01  0.13800715338E+00  0.11803355633E+01  0.00000000000E+00 0.  1.
         11    1    3    3    0    0  0.70529436592E+01  0.31963972513E+01  0.33604043868E+01  0.84411662436E+01  0.51100000000E-03 0. -1.
        -11    1    3    3    0    0  0.16202631212E+02  0.29182259486E+02 -0.18421030696E+02  0.38124321621E+02  0.51100000000E-03 0.  1.
         12    1    3    3    0    0 -0.23214720989E+02 -0.33550184385E+02  0.14922619156E+02  0.43442176572E+02  0.00000000000E+00 0. -1.
</event>
<event>
 7    1  0.1978681E-015  0.9000776E+02  0.7816164E-02  0.1186339E+00
        -11   -1    0    0    0    0  0.00000000000E+00  0.00000000000E+00  0.45593999997E+02  0.45594000000E+02  0.51100000000E-03 0.  1.
         11   -1    0    0    0    0 -0.00000000000E+00 -0.00000000000E+00 -0.45593999997E+02  0.45594000000E+02  0.51100000000E-03 0. -1.
    9900012    2    1    2    0    0  0.32848095116E+00 -0.93948953524E+00 -0.63437680353E+00  0.90007756698E+02  0.90000018287E+02 0.  0.
        -12    1    1    2    0    0 -0.32848095116E+00  0.93948953524E+00  0.63437680353E+00  0.11802433016E+01  0.00000000000E+00 0.  1.
         11    1    3    3    0    0  0.39667166646E+01 -0.55401367751E+01 -0.18365862167E+02  0.19589100285E+02  0.51100000000E-03 0. -1.
        -11    1    3    3    0    0 -0.98578649243E+01 -0.30702430406E+02  0.98321613878E+01  0.33711839634E+02  0.51100000000E-03 0.  1.
         12    1    3    3    0    0  0.62196292108E+01  0.35303077646E+02  0.78993239759E+01  0.36706816779E+02  0.00000000000E+00 0. -1.
</event>
<event>
 7    1  0.1978681E-015  0.9000775E+02  0.7816164E-02  0.1186339E+00
        -11   -1    0    0    0    0  0.00000000000E+00  0.00000000000E+00  0.45593999997E+02  0.45594000000E+02  0.51100000000E-03 0.  1.
         11   -1    0    0    0    0 -0.00000000000E+00 -0.00000000000E+00 -0.45593999997E+02  0.45594000000E+02  0.51100000000E-03 0. -1.
    9900012    2    1    2    0    0 -0.22631872964E+00  0.35173721344E+00 -0.11036549169E+01  0.90007748582E+02  0.90000010063E+02 0.  0.
        -12    1    1    2    0    0  0.22631872964E+00 -0.35173721344E+00  0.11036549169E+01  0.11802514183E+01  0.00000000000E+00 0.  1.
         11    1    3    3    0    0 -0.42443733017E+02 -0.13909376302E+01  0.29033927506E+00  0.42467510842E+02  0.51100000000E-03 0. -1.
        -11    1    3    3    0    0  0.53145804280E+01  0.32906918738E+01 -0.78607130389E+01  0.10043118434E+02  0.51100000000E-03 0.  1.
        -12    1    3    3    0    0  0.36902833860E+02 -0.15480170302E+01  0.64667188470E+01  0.37497119306E+02  0.00000000000E+00 0.  1.
</event>
<event>
 7    1  0.1978681E-015  0.9000777E+02  0.7816164E-02  0.1186339E+00
        -11   -1    0    0    0    0  0.00000000000E+00  0.00000000000E+00  0.45593999997E+02  0.45594000000E+02  0.51100000000E-03 0.  1.
         11   -1    0    0    0    0 -0.00000000000E+00 -0.00000000000E+00 -0.45593999997E+02  0.45594000000E+02  0.51100000000E-03 0. -1.
    9900012    2    1    2    0    0  0.86776587949E+00  0.79985387609E+00 -0.12140670045E-01  0.90007774920E+02  0.90000036748E+02 0.  0.
        -12    1    1    2    0    0 -0.86776587949E+00 -0.79985387609E+00  0.12140670045E-01  0.11802250805E+01  0.00000000000E+00 0.  1.
         11    1    3    3    0    0  0.22655875566E-01 -0.91066751870E+01  0.78085077674E-01  0.91070381459E+01  0.51100000000E-03 0. -1.
        -11    1    3    3    0    0  0.20768972974E+01 -0.27676332140E+02  0.23621891448E+02  0.36445666669E+02  0.51100000000E-03 0.  1.
         12    1    3    3    0    0 -0.12317872935E+01  0.37582861203E+02 -0.23712117196E+02  0.44455070105E+02  0.00000000000E+00 0. -1.
</event>
<event>
 7    1  0.1978681E-015  0.9000777E+02  0.7816164E-02  0.1186339E+00
        -11   -1    0    0    0    0  0.00000000000E+00  0.00000000000E+00  0.45593999997E+02  0.45594000000E+02  0.51100000000E-03 0.  1.
         11   -1    0    0    0    0 -0.00000000000E+00 -0.00000000000E+00 -0.45593999997E+02  0.45594000000E+02  0.51100000000E-03 0. -1.
    9900012    2    1    2    0    0 -0.65179285887E-01  0.24528826444E+00 -0.11526171455E+01  0.90007770804E+02  0.90000032578E+02 0.  0.
        -12    1    1    2    0    0  0.65179285887E-01 -0.24528826444E+00  0.11526171455E+01  0.11802291964E+01  0.00000000000E+00 0.  1.
         11    1    3    3    0    0 -0.33498524337E+01  0.77484708512E+01  0.76114372591E+01  0.11366366582E+02  0.51100000000E-03 0. -1.
        -11    1    3    3    0    0 -0.12476937638E+02 -0.37182935688E+02  0.95546460667E+01  0.40367510957E+02  0.51100000000E-03 0.  1.
         12    1    3    3    0    0  0.15761610786E+02  0.29679753101E+02 -0.18318700471E+02  0.38273893265E+02  0.00000000000E+00 0. -1.
</event>
<event>
 7    1  0.1978681E-015  0.9000765E+02  0.7816164E-02  0.1186339E+00
        -11   -1    0    0    0    0  0.00000000000E+00  0.00000000000E+00  0.45593999997E+02  0.45594000000E+02  0.51100000000E-03 0.  1.
         11   -1    0    0    0    0 -0.00000000000E+00 -0.00000000000E+00 -0.45593999997E+02  0.45594000000E+02  0.51100000000E-03 0. -1.
    9900012    2    1    2    0    0 -0.25274834429E+00 -0.10787517275E+01  0.40698629624E+00  0.90007650535E+02  0.89999910722E+02 0.  0.
        -12    1    1    2    0    0  0.25274834429E+00  0.10787517275E+01 -0.40698629624E+00  0.11803494654E+01  0.00000000000E+00 0.  1.
         11    1    3    3    0    0 -0.42881418812E+01  0.38734027754E+02 -0.18590020673E+02  0.43177562874E+02  0.51100000000E-03 0. -1.
        -11    1    3    3    0    0 -0.49312046786E+00 -0.47706535986E+01  0.88539843757E+01  0.10069525467E+02  0.51100000000E-03 0.  1.
        -12    1    3    3    0    0  0.45285140047E+01 -0.35042125882E+02  0.10143022594E+02  0.36760562194E+02  0.00000000000E+00 0.  1.
</event>
<event>
 7    1  0.1978681E-015  0.9000773E+02  0.7816164E-02  0.1186339E+00
        -11   -1    0    0    0    0  0.00000000000E+00  0.00000000000E+00  0.45593999997E+02  0.45594000000E+02  0.51100000000E-03 0. -1.
         11   -1    0    0    0    0 -0.00000000000E+00 -0.00000000000E+00 -0.45593999997E+02  0.45594000000E+02  0.51100000000E-03 0.  1.
    9900012    2    1    2    0    0  0.58099084729E+00  0.41285552346E+00  0.94076733218E+00  0.90007727480E+02  0.89999988683E+02 0.  0.
        -12    1    1    2    0    0 -0.58099084729E+00 -0.41285552346E+00 -0.94076733218E+00  0.11802725199E+01  0.00000000000E+00 0.  1.
         11    1    3    3    0    0  0.66683611230E+00  0.26633006417E+02  0.33456563590E+02  0.42768017825E+02  0.51100000000E-03 0. -1.
        -11    1    3    3    0    0 -0.76497785013E+01 -0.67805374339E+01 -0.22253532810E+01  0.10461691856E+02  0.51100000000E-03 0.  1.
        -12    1    3    3    0    0  0.75639332363E+01 -0.19439613459E+02 -0.30290442977E+02  0.36778017798E+02  0.00000000000E+00 0.  1.
</event>
<event>
 7    1  0.1978681E-015  0.9000792E+02  0.7816164E-02  0.1186339E+00
        -11   -1    0    0    0    0  0.00000000000E+00  0.00000000000E+00  0.45593999997E+02  0.45594000000E+02  0.51100000000E-03 0.  1.
         11   -1    0    0    0    0 -0.00000000000E+00 -0.00000000000E+00 -0.45593999997E+02  0.45594000000E+02  0.51100000000E-03 0. -1.
    9900012    2    1    2    0    0 -0.55061527300E+00 -0.65937368173E+00 -0.80909430852E+00  0.90007921854E+02  0.90000185622E+02 0.  0.
        -12    1    1    2    0    0  0.55061527300E+00  0.65937368173E+00  0.80909430852E+00  0.11800781462E+01  0.00000000000E+00 0.  1.
         11    1    3    3    0    0 -0.14165253601E+02 -0.17250771056E+02 -0.36643539515E+02  0.42906788508E+02  0.51100000000E-03 0. -1.
        -11    1    3    3    0    0  0.99956573123E+01  0.15423735850E+01  0.26055013650E+01  0.10444171533E+02  0.51100000000E-03 0.  1.
        -12    1    3    3    0    0  0.36189810153E+01  0.15049023789E+02  0.33228943841E+02  0.36656961814E+02  0.00000000000E+00 0.  1.
</event>
<event>
 7    1  0.1978681E-015  0.9000766E+02  0.7816164E-02  0.1186339E+00
        -11   -1    0    0    0    0  0.00000000000E+00  0.00000000000E+00  0.45593999997E+02  0.45594000000E+02  0.51100000000E-03 0. -1.
         11   -1    0    0    0    0 -0.00000000000E+00 -0.00000000000E+00 -0.45593999997E+02  0.45594000000E+02  0.51100000000E-03 0.  1.
    9900012    2    1    2    0    0 -0.85018048462E+00 -0.80793140852E+00  0.13279071194E+00  0.90007663865E+02  0.89999924228E+02 0.  0.
        -12    1    1    2    0    0  0.85018048462E+00  0.80793140852E+00 -0.13279071194E+00  0.11803361345E+01  0.00000000000E+00 0.  1.
         11    1    3    3    0    0  0.96573974356E+01 -0.76954050674E+01  0.95706515841E+01  0.15623122492E+02  0.51100000000E-03 0. -1.
        -11    1    3    3    0    0 -0.20069493199E+02  0.36694149472E+02 -0.10285818440E+02  0.43070212723E+02  0.51100000000E-03 0.  1.
         12    1    3    3    0    0  0.95619152783E+01 -0.29806675813E+02  0.84795756820E+00  0.31314328651E+02  0.00000000000E+00 0. -1.
</event>
<event>
 7    1  0.1978681E-015  0.9000778E+02  0.7816164E-02  0.1186339E+00
        -11   -1    0    0    0    0  0.00000000000E+00  0.00000000000E+00  0.45593999997E+02  0.45594000000E+02  0.51100000000E-03 0.  1.
         11   -1    0    0    0    0 -0.00000000000E+00 -0.00000000000E+00 -0.45593999997E+02  0.45594000000E+02  0.51100000000E-03 0. -1.
    9900012    2    1    2    0    0 -0.10280985373E+01  0.57023259472E+00 -0.10379984891E+00  0.90007777045E+02  0.90000038902E+02 0.  0.
        -12    1    1    2    0    0  0.10280985373E+01 -0.57023259472E+00  0.10379984891E+00  0.11802229548E+01  0.00000000000E+00 0.  1.
         11    1    3    3    0    0 -0.99513044535E+01 -0.23877055850E+02 -0.27472288984E+02  0.37734187664E+02  0.51100000000E-03 0. -1.
        -11    1    3    3    0    0 -0.85596614600E+01 -0.10507807406E+01 -0.28099054903E+01  0.90701440783E+01  0.51100000000E-03 0.  1.
        -12    1    3    3    0    0  0.17482867376E+02  0.25498069185E+02  0.30178394626E+02  0.43203445303E+02  0.00000000000E+00 0.  1.
</event>
<event>
 7    1  0.1978681E-015  0.9000775E+02  0.7816164E-02  0.1186339E+00
        -11   -1    0    0    0    0  0.00000000000E+00  0.00000000000E+00  0.45593999997E+02  0.45594000000E+02  0.51100000000E-03 0.  1.
         11   -1    0    0    0    0 -0.00000000000E+00 -0.00000000000E+00 -0.45593999997E+02  0.45594000000E+02  0.51100000000E-03 0. -1.
    9900012    2    1    2    0    0  0.85893906368E+00 -0.76511306803E+00 -0.26424858017E+00  0.90007745098E+02  0.90000006533E+02 0.  0.
        -12    1    1    2    0    0 -0.85893906368E+00  0.76511306803E+00  0.26424858017E+00  0.11802549022E+01  0.00000000000E+00 0.  1.
         11    1    3    3    0    0 -0.25288545389E+01  0.16085873405E+02  0.80891310245E+01  0.18181982001E+02  0.51100000000E-03 0. -1.
        -11    1    3    3    0    0  0.32764354488E+02  0.66427516738E+01 -0.71716460630E+01  0.34191542556E+02  0.51100000000E-03 0.  1.
         12    1    3    3    0    0 -0.29376560886E+02 -0.23493738147E+02 -0.11817335418E+01  0.37634220541E+02  0.00000000000E+00 0. -1.
</event>
<event>
 7    1  0.1978681E-015  0.9000783E+02  0.7816164E-02  0.1186339E+00
        -11   -1    0    0    0    0  0.00000000000E+00  0.00000000000E+00  0.45593999997E+02  0.45594000000E+02  0.51100000000E-03 0.  1.
         11   -1    0    0    0    0 -0.00000000000E+00 -0.00000000000E+00 -0.45593999997E+02  0.45594000000E+02  0.51100000000E-03 0. -1.
    9900012    2    1    2    0    0  0.72236032881E-01  0.42935564937E+00 -0.10969195585E+01  0.90007831861E+02  0.90000094442E+02 0.  0.
        -12    1    1    2    0    0 -0.72236032881E-01 -0.42935564937E+00  0.10969195585E+01  0.11801681389E+01  0.00000000000E+00 0.  1.
         11    1    3    3    0    0 -0.15006640911E+02  0.66030967427E+01 -0.98472022835E+01  0.19125050356E+02  0.51100000000E-03 0. -1.
        -11    1    3    3    0    0 -0.26556060113E+02  0.34184210385E+00 -0.39924565995E+01  0.26856673187E+02  0.51100000000E-03 0.  1.
        -12    1    3    3    0    0  0.41634937057E+02 -0.65155831971E+01  0.12742739325E+02  0.44026108318E+02  0.00000000000E+00 0.  1.
</event>
<event>
 7    1  0.1978681E-015  0.9000774E+02  0.7816164E-02  0.1186339E+00
        -11   -1    0    0    0    0  0.00000000000E+00  0.00000000000E+00  0.45593999997E+02  0.45594000000E+02  0.51100000000E-03 0.  1.
         11   -1    0    0    0    0 -0.00000000000E+00 -0.00000000000E+00 -0.45593999997E+02  0.45594000000E+02  0.51100000000E-03 0. -1.
    9900012    2    1    2    0    0  0.48205522332E-02 -0.45174619525E+00 -0.10903757060E+01  0.90007738570E+02  0.89999999919E+02 0.  0.
        -12    1    1    2    0    0 -0.48205522332E-02  0.45174619525E+00  0.10903757060E+01  0.11802614299E+01  0.00000000000E+00 0.  1.
         11    1    3    3    0    0  0.47050437672E+01  0.80549595956E+01 -0.22179335025E+01  0.95884847719E+01  0.51100000000E-03 0. -1.
        -11    1    3    3    0    0  0.12990628906E+02 -0.26810189410E+02  0.29758613698E+02  0.42108405160E+02  0.51100000000E-03 0.  1.
         12    1    3    3    0    0 -0.17690852121E+02  0.18303483619E+02 -0.28631055901E+02  0.38310848639E+02  0.00000000000E+00 0. -1.
</event>
<event>
 7    1  0.1978681E-015  0.9000774E+02  0.7816164E-02  0.1186339E+00
        -11   -1    0    0    0    0  0.00000000000E+00  0.00000000000E+00  0.45593999997E+02  0.45594000000E+02  0.51100000000E-03 0.  1.
         11   -1    0    0    0    0 -0.00000000000E+00 -0.00000000000E+00 -0.45593999997E+02  0.45594000000E+02  0.51100000000E-03 0. -1.
    9900012    2    1    2    0    0  0.21968018886E+00  0.82586512368E+00 -0.81406559692E+00  0.90007739273E+02  0.90000000631E+02 0.  0.
        -12    1    1    2    0    0 -0.21968018886E+00 -0.82586512368E+00  0.81406559692E+00  0.11802607271E+01  0.00000000000E+00 0.  1.
         11    1    3    3    0    0  0.84832172783E+01 -0.72497214777E+01 -0.33123579820E+01  0.11640238509E+02  0.51100000000E-03 0. -1.
        -11    1    3    3    0    0  0.23437549156E+02  0.85709814911E+01  0.28125156747E+02  0.37600596757E+02  0.51100000000E-03 0.  1.
         12    1    3    3    0    0 -0.31701086246E+02 -0.49539488973E+00 -0.25626864362E+02  0.40766904007E+02  0.00000000000E+00 0. -1.
</event>
<event>
 7    1  0.1978681E-015  0.9000780E+02  0.7816164E-02  0.1186339E+00
        -11   -1    0    0    0    0  0.00000000000E+00  0.00000000000E+00  0.45593999997E+02  0.45594000000E+02  0.51100000000E-03 0. -1.
         11   -1    0    0    0    0 -0.00000000000E+00 -0.00000000000E+00 -0.45593999997E+02  0.45594000000E+02  0.51100000000E-03 0.  1.
    9900012    2    1    2    0    0  0.23703148789E+00  0.72907620402E+00  0.89729961446E+00  0.90007795511E+02  0.90000057612E+02 0.  0.
        -12    1    1    2    0    0 -0.23703148789E+00 -0.72907620402E+00 -0.89729961446E+00  0.11802044889E+01  0.00000000000E+00 0.  1.
         11    1    3    3    0    0 -0.59913070731E+01 -0.39941198476E+01  0.29154972913E+02  0.30031003973E+02  0.51100000000E-03 0. -1.
        -11    1    3    3    0    0  0.13909116296E+02  0.11610567928E+02  0.97631090395E+01  0.20581231793E+02  0.51100000000E-03 0.  1.
        -12    1    3    3    0    0 -0.76807777352E+01 -0.68873718765E+01 -0.38020782338E+02  0.39395559745E+02  0.00000000000E+00 0.  1.
</event>
<event>
 7    1  0.1978681E-015  0.9000774E+02  0.7816164E-02  0.1186339E+00
        -11   -1    0    0    0    0  0.00000000000E+00  0.00000000000E+00  0.45593999997E+02  0.45594000000E+02  0.51100000000E-03 0. -1.
         11   -1    0    0    0    0 -0.00000000000E+00 -0.00000000000E+00 -0.45593999997E+02  0.45594000000E+02  0.51100000000E-03 0.  1.
    9900012    2    1    2    0    0  0.95333042798E+00 -0.43123409634E+00  0.54609313527E+00  0.90007737545E+02  0.89999998880E+02 0.  0.
        -12    1    1    2    0    0 -0.95333042798E+00  0.43123409634E+00 -0.54609313527E+00  0.11802624552E+01  0.00000000000E+00 0.  1.
         11    1    3    3    0    0 -0.28229541245E+01 -0.14648248464E+02  0.27143652973E+02  0.30972861509E+02  0.51100000000E-03 0. -1.
        -11    1    3    3    0    0  0.74531765200E+00  0.16156196554E+01  0.15184693015E+02  0.15288578335E+02  0.51100000000E-03 0.  1.
        -12    1    3    3    0    0  0.30309669004E+01  0.12601394713E+02 -0.41782252853E+02  0.43746297701E+02  0.00000000000E+00 0.  1.
</event>
<event>
 7    1  0.1978681E-015  0.9000772E+02  0.7816164E-02  0.1186339E+00
        -11   -1    0    0    0    0  0.00000000000E+00  0.00000000000E+00  0.45593999997E+02  0.45594000000E+02  0.51100000000E-03 0. -1.
         11   -1    0    0    0    0 -0.00000000000E+00 -0.00000000000E+00 -0.45593999997E+02  0.45594000000E+02  0.51100000000E-03 0.  1.
    9900012    2    1    2    0    0  0.97973569483E+00 -0.65184907004E+00 -0.90960355400E-01  0.90007719089E+02  0.89999980181E+02 0.  0.
        -12    1    1    2    0    0 -0.97973569483E+00  0.65184907004E+00  0.90960355400E-01  0.11802809107E+01  0.00000000000E+00 0.  1.
         11    1    3    3    0    0  0.19576802785E+02 -0.21380609450E+02 -0.20183613098E+02  0.35323645136E+02  0.51100000000E-03 0. -1.
        -11    1    3    3    0    0  0.36291489934E+01  0.64360050087E+01 -0.11392854898E+02  0.13579028900E+02  0.51100000000E-03 0.  1.
        -12    1    3    3    0    0 -0.22226216083E+02  0.14292755372E+02  0.31485507640E+02  0.41105045053E+02  0.00000000000E+00 0.  1.
</event>
<event>
 7    1  0.1978681E-015  0.9000750E+02  0.7816164E-02  0.1186340E+00
        -11   -1    0    0    0    0  0.00000000000E+00  0.00000000000E+00  0.45593999997E+02  0.45594000000E+02  0.51100000000E-03 0. -1.
         11   -1    0    0    0    0 -0.00000000000E+00 -0.00000000000E+00 -0.45593999997E+02  0.45594000000E+02  0.51100000000E-03 0.  1.
    9900012    2    1    2    0    0 -0.93199606301E+00 -0.70190789692E-01  0.72112933258E+00  0.90007503951E+02  0.89999762202E+02 0.  0.
        -12    1    1    2    0    0  0.93199606301E+00  0.70190789692E-01 -0.72112933258E+00  0.11804960494E+01  0.00000000000E+00 0.  1.
         11    1    3    3    0    0 -0.24034912465E+02  0.13305257103E+02  0.16820770467E+02  0.32212500728E+02  0.51100000000E-03 0. -1.
        -11    1    3    3    0    0 -0.25148149234E+01 -0.12128467704E+02  0.13705692086E+02  0.18473495034E+02  0.51100000000E-03 0.  1.
        -12    1    3    3    0    0  0.25617731326E+02 -0.12469801882E+01 -0.29805333220E+02  0.39321508189E+02  0.00000000000E+00 0.  1.
</event>
<event>
 7    1  0.1978681E-015  0.9000774E+02  0.7816164E-02  0.1186339E+00
        -11   -1    0    0    0    0  0.00000000000E+00  0.00000000000E+00  0.45593999997E+02  0.45594000000E+02  0.51100000000E-03 0.  1.
         11   -1    0    0    0    0 -0.00000000000E+00 -0.00000000000E+00 -0.45593999997E+02  0.45594000000E+02  0.51100000000E-03 0. -1.
    9900012    2    1    2    0    0 -0.88805032052E+00  0.18273128109E+00 -0.75564562346E+00  0.90007735453E+02  0.89999996761E+02 0.  0.
        -12    1    1    2    0    0  0.88805032052E+00 -0.18273128109E+00  0.75564562346E+00  0.11802645471E+01  0.00000000000E+00 0.  1.
         11    1    3    3    0    0 -0.11949311906E+02 -0.57928698472E+01  0.34009067413E+01  0.13708010907E+02  0.51100000000E-03 0. -1.
        -11    1    3    3    0    0  0.11166238254E+02  0.94827064352E+01  0.34501486645E+02  0.37482785102E+02  0.51100000000E-03 0.  1.
         12    1    3    3    0    0 -0.10497666790E+00 -0.35071053069E+01 -0.38658039009E+02  0.38816939444E+02  0.00000000000E+00 0. -1.
</event>
<event>
 7    1  0.1978681E-015  0.9000774E+02  0.7816164E-02  0.1186339E+00
        -11   -1    0    0    0    0  0.00000000000E+00  0.00000000000E+00  0.45593999997E+02  0.45594000000E+02  0.51100000000E-03 0.  1.
         11   -1    0    0    0    0 -0.00000000000E+00 -0.00000000000E+00 -0.45593999997E+02  0.45594000000E+02  0.51100000000E-03 0. -1.
    9900012    2    1    2    0    0 -0.10424430531E+01 -0.28777122179E+00 -0.47276471737E+00  0.90007743133E+02  0.90000004542E+02 0.  0.
        -12    1    1    2    0    0  0.10424430531E+01  0.28777122179E+00  0.47276471737E+00  0.11802568674E+01  0.00000000000E+00 0.  1.
         11    1    3    3    0    0  0.28149503145E+02 -0.22623168525E+02  0.32311281970E+01  0.36257998719E+02  0.51100000000E-03 0. -1.
        -11    1    3    3    0    0  0.22723485732E+01 -0.89573570687E+01 -0.36750922534E+00  0.92483986174E+01  0.51100000000E-03 0.  1.
        -12    1    3    3    0    0 -0.31464294771E+02  0.31292754372E+02 -0.33363836890E+01  0.44501345797E+02  0.00000000000E+00 0.  1.
</event>
<event>
 7    1  0.2246159E-015  0.9000776E+02  0.7816164E-02  0.1186339E+00
        -11   -1    0    0    0    0  0.00000000000E+00  0.00000000000E+00  0.45593999997E+02  0.45594000000E+02  0.51100000000E-03 0. -1.
         11   -1    0    0    0    0 -0.00000000000E+00 -0.00000000000E+00 -0.45593999997E+02  0.45594000000E+02  0.51100000000E-03 0.  1.
    9900012    2    1    2    0    0 -0.20325775588E+00 -0.86998203441E+00  0.77121791128E+00  0.90007762938E+02  0.90000024609E+02 0.  0.
        -12    1    1    2    0    0  0.20325775588E+00  0.86998203441E+00 -0.77121791128E+00  0.11802370619E+01  0.00000000000E+00 0.  1.
         11    1    3    3    0    0  0.48991609098E+01  0.21656020168E+01  0.71431888909E+01  0.89284241334E+01  0.51100000000E-03 0. -1.
        -11    1    3    3    0    0  0.23034769538E+02  0.12186709267E+02 -0.31151174785E+02  0.40614186944E+02  0.51100000000E-03 0.  1.
         12    1    3    3    0    0 -0.28137188204E+02 -0.15222293318E+02  0.24779203805E+02  0.40465151860E+02  0.00000000000E+00 0. -1.
</event>
<event>
 7    1  0.1978681E-015  0.9000775E+02  0.7816164E-02  0.1186339E+00
        -11   -1    0    0    0    0  0.00000000000E+00  0.00000000000E+00  0.45593999997E+02  0.45594000000E+02  0.51100000000E-03 0.  1.
         11   -1    0    0    0    0 -0.00000000000E+00 -0.00000000000E+00 -0.45593999997E+02  0.45594000000E+02  0.51100000000E-03 0. -1.
    9900012    2    1    2    0    0  0.61086427974E+00 -0.79128665847E+00 -0.62744766523E+00  0.90007754129E+02  0.90000015683E+02 0.  0.
        -12    1    1    2    0    0 -0.61086427974E+00  0.79128665847E+00  0.62744766523E+00  0.11802458713E+01  0.00000000000E+00 0.  1.
         11    1    3    3    0    0  0.16986959458E+02 -0.18954598332E+02 -0.29892052504E+02  0.39260264806E+02  0.51100000000E-03 0. -1.
        -11    1    3    3    0    0  0.14833268825E+01  0.21133060597E+01 -0.68831036865E+01  0.73514241996E+01  0.51100000000E-03 0.  1.
        -12    1    3    3    0    0 -0.17859422060E+02  0.16050005613E+02  0.36147708525E+02  0.43396065123E+02  0.00000000000E+00 0.  1.
</event>
<event>
 7    1  0.1978681E-015  0.9000767E+02  0.7816164E-02  0.1186339E+00
        -11   -1    0    0    0    0  0.00000000000E+00  0.00000000000E+00  0.45593999997E+02  0.45594000000E+02  0.51100000000E-03 0.  1.
         11   -1    0    0    0    0 -0.00000000000E+00 -0.00000000000E+00 -0.45593999997E+02  0.45594000000E+02  0.51100000000E-03 0. -1.
    9900012    2    1    2    0    0 -0.18998527200E+00  0.89265460582E+00  0.74850455025E+00  0.90007667119E+02  0.89999927525E+02 0.  0.
        -12    1    1    2    0    0  0.18998527200E+00 -0.89265460582E+00 -0.74850455025E+00  0.11803328813E+01  0.00000000000E+00 0.  1.
         11    1    3    3    0    0 -0.43153015612E+01  0.30055670006E+01 -0.89040245810E+01  0.10341030633E+02  0.51100000000E-03 0. -1.
        -11    1    3    3    0    0 -0.15185717366E+02  0.28596386781E+02  0.24363534890E+02  0.40520873405E+02  0.51100000000E-03 0.  1.
         12    1    3    3    0    0  0.19311033656E+02 -0.30709299176E+02 -0.14711005759E+02  0.39145763081E+02  0.00000000000E+00 0. -1.
</event>
<event>
 7    1  0.1978681E-015  0.9000808E+02  0.7816164E-02  0.1186338E+00
        -11   -1    0    0    0    0  0.00000000000E+00  0.00000000000E+00  0.45593999997E+02  0.45594000000E+02  0.51100000000E-03 0.  1.
         11   -1    0    0    0    0 -0.00000000000E+00 -0.00000000000E+00 -0.45593999997E+02  0.45594000000E+02  0.51100000000E-03 0. -1.
    9900012    2    1    2    0    0 -0.22870585062E+00 -0.82160802573E+00 -0.81539520493E+00  0.90008078200E+02  0.90000344032E+02 0.  0.
        -12    1    1    2    0    0  0.22870585062E+00  0.82160802573E+00  0.81539520493E+00  0.11799218001E+01  0.00000000000E+00 0.  1.
         11    1    3    3    0    0 -0.32606346095E+01  0.35496518693E+02 -0.47152259329E+01  0.35956472758E+02  0.51100000000E-03 0. -1.
        -11    1    3    3    0    0  0.67107994768E+01  0.73314979550E+01  0.23839477230E+01  0.10221002832E+02  0.51100000000E-03 0.  1.
        -12    1    3    3    0    0 -0.36788707179E+01 -0.43649624673E+02  0.15158830050E+01  0.43830602610E+02  0.00000000000E+00 0.  1.
</event>
<event>
 7    1  0.1978681E-015  0.9000763E+02  0.7816164E-02  0.1186339E+00
        -11   -1    0    0    0    0  0.00000000000E+00  0.00000000000E+00  0.45593999997E+02  0.45594000000E+02  0.51100000000E-03 0. -1.
         11   -1    0    0    0    0 -0.00000000000E+00 -0.00000000000E+00 -0.45593999997E+02  0.45594000000E+02  0.51100000000E-03 0.  1.
    9900012    2    1    2    0    0 -0.45792941316E+00  0.10584928153E+01  0.25131784874E+00  0.90007632664E+02  0.89999892615E+02 0.  0.
        -12    1    1    2    0    0  0.45792941316E+00 -0.10584928153E+01 -0.25131784874E+00  0.11803673363E+01  0.00000000000E+00 0.  1.
         11    1    3    3    0    0  0.38350400234E+01 -0.79341793740E+01  0.34376172929E+01  0.94591726505E+01  0.51100000000E-03 0. -1.
        -11    1    3    3    0    0 -0.13493598550E+02 -0.17747508268E+02  0.29724961276E+02  0.37156756784E+02  0.51100000000E-03 0.  1.
         12    1    3    3    0    0  0.92006291133E+01  0.26740180457E+02 -0.32911260721E+02  0.43391703230E+02  0.00000000000E+00 0. -1.
</event>
<event>
 7    1  0.1978681E-015  0.9000772E+02  0.7816164E-02  0.1186339E+00
        -11   -1    0    0    0    0  0.00000000000E+00  0.00000000000E+00  0.45593999997E+02  0.45594000000E+02  0.51100000000E-03 0.  1.
         11   -1    0    0    0    0 -0.00000000000E+00 -0.00000000000E+00 -0.45593999997E+02  0.45594000000E+02  0.51100000000E-03 0. -1.
    9900012    2    1    2    0    0 -0.31632088785E+00 -0.10522132371E+01 -0.43109122153E+00  0.90007724082E+02  0.89999985240E+02 0.  0.
        -12    1    1    2    0    0  0.31632088785E+00  0.10522132371E+01  0.43109122153E+00  0.11802759176E+01  0.00000000000E+00 0.  1.
         11    1    3    3    0    0  0.18419074755E+01 -0.48662004583E+01 -0.61685085789E+01  0.80698840387E+01  0.51100000000E-03 0. -1.
        -11    1    3    3    0    0 -0.38885218002E+01 -0.95608336696E+01  0.41999480331E+02  0.43249121270E+02  0.51100000000E-03 0.  1.
         12    1    3    3    0    0  0.17302934368E+01  0.13374820891E+02 -0.36262062974E+02  0.38688718774E+02  0.00000000000E+00 0. -1.
</event>
<event>
 7    1  0.1978681E-015  0.9000773E+02  0.7816164E-02  0.1186339E+00
        -11   -1    0    0    0    0  0.00000000000E+00  0.00000000000E+00  0.45593999997E+02  0.45594000000E+02  0.51100000000E-03 0.  1.
         11   -1    0    0    0    0 -0.00000000000E+00 -0.00000000000E+00 -0.45593999997E+02  0.45594000000E+02  0.51100000000E-03 0. -1.
    9900012    2    1    2    0    0 -0.20455987933E+00  0.13255299191E+00 -0.11548286653E+01  0.90007727029E+02  0.89999988226E+02 0.  0.
        -12    1    1    2    0    0  0.20455987933E+00 -0.13255299191E+00  0.11548286653E+01  0.11802729710E+01  0.00000000000E+00 0.  1.
         11    1    3    3    0    0 -0.91731488383E+01  0.29166778046E+01  0.52650608799E+01  0.10971532954E+02  0.51100000000E-03 0. -1.
        -11    1    3    3    0    0 -0.19665007922E+02  0.16167083819E-02 -0.33939156181E+02  0.39224722583E+02  0.51100000000E-03 0.  1.
         12    1    3    3    0    0  0.28633596881E+02 -0.27857415210E+01  0.27519266636E+02  0.39811471492E+02  0.00000000000E+00 0. -1.
</event>
<event>
 7    1  0.1978681E-015  0.9000790E+02  0.7816164E-02  0.1186339E+00
        -11   -1    0    0    0    0  0.00000000000E+00  0.00000000000E+00  0.45593999997E+02  0.45594000000E+02  0.51100000000E-03 0.  1.
         11   -1    0    0    0    0 -0.00000000000E+00 -0.00000000000E+00 -0.45593999997E+02  0.45594000000E+02  0.51100000000E-03 0. -1.
    9900012    2    1    2    0    0  0.11443972373E+01  0.28205172741E+00 -0.58615286200E-01  0.90007900866E+02  0.90000164358E+02 0.  0.
        -12    1    1    2    0    0 -0.11443972373E+01 -0.28205172741E+00  0.58615286200E-01  0.11800991337E+01  0.00000000000E+00 0.  1.
         11    1    3    3    0    0 -0.29487021165E+01 -0.35707494750E+01 -0.10297074013E+02  0.11290475166E+02  0.51100000000E-03 0. -1.
        -11    1    3    3    0    0 -0.95728565615E+01 -0.34852540944E+02 -0.10085557491E+01  0.36157383450E+02  0.51100000000E-03 0.  1.
         12    1    3    3    0    0  0.13665955915E+02  0.38705342146E+02  0.11247014476E+02  0.42560042250E+02  0.00000000000E+00 0. -1.
</event>
<event>
 7    1  0.2528953E-015  0.9000770E+02  0.7816164E-02  0.1186339E+00
        -11   -1    0    0    0    0  0.00000000000E+00  0.00000000000E+00  0.45593999997E+02  0.45594000000E+02  0.51100000000E-03 0. -1.
         11   -1    0    0    0    0 -0.00000000000E+00 -0.00000000000E+00 -0.45593999997E+02  0.45594000000E+02  0.51100000000E-03 0.  1.
    9900012    2    1    2    0    0 -0.38720195254E+00 -0.64610981620E+00  0.90869121957E+00  0.90007702165E+02  0.89999963034E+02 0.  0.
        -12    1    1    2    0    0  0.38720195254E+00  0.64610981620E+00 -0.90869121957E+00  0.11802978349E+01  0.00000000000E+00 0.  1.
         11    1    3    3    0    0 -0.38669551368E+01  0.37065034135E+01  0.74910773988E+01  0.92091123590E+01  0.51100000000E-03 0. -1.
        -11    1    3    3    0    0 -0.22109920414E+02  0.27458818605E+02 -0.16287453810E+02  0.38834475042E+02  0.51100000000E-03 0.  1.
         12    1    3    3    0    0  0.25589673598E+02 -0.31811431835E+02  0.97050676306E+01  0.41964114764E+02  0.00000000000E+00 0. -1.
</event>
<event>
 7    1  0.1978681E-015  0.9000765E+02  0.7816164E-02  0.1186339E+00
        -11   -1    0    0    0    0  0.00000000000E+00  0.00000000000E+00  0.45593999997E+02  0.45594000000E+02  0.51100000000E-03 0. -1.
         11   -1    0    0    0    0 -0.00000000000E+00 -0.00000000000E+00 -0.45593999997E+02  0.45594000000E+02  0.51100000000E-03 0.  1.
    9900012    2    1    2    0    0  0.11285498630E+01 -0.13159135351E+00 -0.31983482688E+00  0.90007646073E+02  0.89999906201E+02 0.  0.
        -12    1    1    2    0    0 -0.11285498630E+01  0.13159135351E+00  0.31983482688E+00  0.11803539275E+01  0.00000000000E+00 0.  1.
         11    1    3    3    0    0  0.93651092374E+01  0.21887988264E+02 -0.32353967294E+02  0.40169248203E+02  0.51100000000E-03 0. -1.
        -11    1    3    3    0    0  0.46691861395E+01  0.30608412693E+01 -0.17281266542E+01  0.58443537261E+01  0.51100000000E-03 0.  1.
        -12    1    3    3    0    0 -0.12905745514E+02 -0.25080420887E+02  0.33762259121E+02  0.43994044143E+02  0.00000000000E+00 0.  1.
</event>
<event>
 7    1  0.1978681E-015  0.9000784E+02  0.7816164E-02  0.1186339E+00
        -11   -1    0    0    0    0  0.00000000000E+00  0.00000000000E+00  0.45593999997E+02  0.45594000000E+02  0.51100000000E-03 0.  1.
         11   -1    0    0    0    0 -0.00000000000E+00 -0.00000000000E+00 -0.45593999997E+02  0.45594000000E+02  0.51100000000E-03 0. -1.
    9900012    2    1    2    0    0 -0.34993846832E+00 -0.79300611390E+00 -0.80090682257E+00  0.90007844346E+02  0.90000107092E+02 0.  0.
        -12    1    1    2    0    0  0.34993846832E+00  0.79300611390E+00  0.80090682257E+00  0.11801556536E+01  0.00000000000E+00 0.  1.
         11    1    3    3    0    0 -0.99272415936E+01  0.30780288690E+01 -0.23220877696E+01  0.10649717332E+02  0.51100000000E-03 0. -1.
        -11    1    3    3    0    0 -0.11738856609E+02 -0.20379621481E+02  0.31323441030E+02  0.39169984484E+02  0.51100000000E-03 0.  1.
         12    1    3    3    0    0  0.21316159735E+02  0.16508586499E+02 -0.29802260083E+02  0.40188142531E+02  0.00000000000E+00 0. -1.
</event>
<event>
 7    1  0.1978681E-015  0.9000776E+02  0.7816164E-02  0.1186339E+00
        -11   -1    0    0    0    0  0.00000000000E+00  0.00000000000E+00  0.45593999997E+02  0.45594000000E+02  0.51100000000E-03 0. -1.
         11   -1    0    0    0    0 -0.00000000000E+00 -0.00000000000E+00 -0.45593999997E+02  0.45594000000E+02  0.51100000000E-03 0.  1.
    9900012    2    1    2    0    0  0.13473882648E+00  0.11613160553E+01  0.16173509248E+00  0.90007759443E+02  0.90000021068E+02 0.  0.
        -12    1    1    2    0    0 -0.13473882648E+00 -0.11613160553E+01 -0.16173509248E+00  0.11802405567E+01  0.00000000000E+00 0.  1.
         11    1    3    3    0    0 -0.33241164320E+01  0.18319004996E+01 -0.10890948652E+02  0.11533359107E+02  0.51100000000E-03 0. -1.
        -11    1    3    3    0    0 -0.38622104503E+01 -0.38495990377E+02  0.98722920347E+01  0.39928938065E+02  0.51100000000E-03 0.  1.
         12    1    3    3    0    0  0.73210657088E+01  0.37825405933E+02  0.11803917096E+01  0.38545462271E+02  0.00000000000E+00 0. -1.
</event>
<event>
 7    1  0.1978681E-015  0.9000770E+02  0.7816164E-02  0.1186339E+00
        -11   -1    0    0    0    0  0.00000000000E+00  0.00000000000E+00  0.45593999997E+02  0.45594000000E+02  0.51100000000E-03 0.  1.
         11   -1    0    0    0    0 -0.00000000000E+00 -0.00000000000E+00 -0.45593999997E+02  0.45594000000E+02  0.51100000000E-03 0. -1.
    9900012    2    1    2    0    0 -0.19726220163E+00  0.11291808314E+01  0.28131764465E+00  0.90007702858E+02  0.89999963736E+02 0.  0.
        -12    1    1    2    0    0  0.19726220163E+00 -0.11291808314E+01 -0.28131764465E+00  0.11802971420E+01  0.00000000000E+00 0.  1.
         11    1    3    3    0    0  0.15000444284E+02 -0.38777489965E+01 -0.35429193623E+02  0.38668825001E+02  0.51100000000E-03 0. -1.
        -11    1    3    3    0    0  0.89988925930E+01  0.22117183842E+01  0.15679648995E+01  0.93984190319E+01  0.51100000000E-03 0.  1.
        -12    1    3    3    0    0 -0.24196599078E+02  0.27952114438E+01  0.34142546368E+02  0.41940458825E+02  0.00000000000E+00 0.  1.
</event>
<event>
 7    1  0.1978681E-015  0.9000777E+02  0.7816164E-02  0.1186339E+00
        -11   -1    0    0    0    0  0.00000000000E+00  0.00000000000E+00  0.45593999997E+02  0.45594000000E+02  0.51100000000E-03 0.  1.
         11   -1    0    0    0    0 -0.00000000000E+00 -0.00000000000E+00 -0.45593999997E+02  0.45594000000E+02  0.51100000000E-03 0. -1.
    9900012    2    1    2    0    0  0.57526075140E-02 -0.11207617964E+01 -0.36988007540E+00  0.90007766393E+02  0.90000028109E+02 0.  0.
        -12    1    1    2    0    0 -0.57526075140E-02  0.11207617964E+01  0.36988007540E+00  0.11802336069E+01  0.00000000000E+00 0.  1.
         11    1    3    3    0    0  0.16444251699E+02  0.31080624499E+02 -0.10410380508E+02  0.36671441964E+02  0.51100000000E-03 0. -1.
        -11    1    3    3    0    0  0.88318726842E+01  0.14914403168E+01 -0.26652109801E+01  0.93450371405E+01  0.51100000000E-03 0.  1.
        -12    1    3    3    0    0 -0.25270371776E+02 -0.33692826612E+02  0.12705711413E+02  0.43991287288E+02  0.00000000000E+00 0.  1.
</event>
<event>
 7    1  0.1978681E-015  0.9000772E+02  0.7816164E-02  0.1186339E+00
        -11   -1    0    0    0    0  0.00000000000E+00  0.00000000000E+00  0.45593999997E+02  0.45594000000E+02  0.51100000000E-03 0. -1.
         11   -1    0    0    0    0 -0.00000000000E+00 -0.00000000000E+00 -0.45593999997E+02  0.45594000000E+02  0.51100000000E-03 0.  1.
    9900012    2    1    2    0    0 -0.72920824957E+00  0.40339326711E+00  0.83581734254E+00  0.90007719767E+02  0.89999980868E+02 0.  0.
        -12    1    1    2    0    0  0.72920824957E+00 -0.40339326711E+00 -0.83581734254E+00  0.11802802334E+01  0.00000000000E+00 0.  1.
         11    1    3    3    0    0 -0.35457784151E+01  0.41149973473E+01  0.52635785114E+01  0.75637957894E+01  0.51100000000E-03 0. -1.
        -11    1    3    3    0    0  0.10581664199E+02 -0.86341536379E+01 -0.41791080681E+02  0.43966062492E+02  0.51100000000E-03 0.  1.
         12    1    3    3    0    0 -0.77650940336E+01  0.49225495577E+01  0.37363319512E+02  0.38477861485E+02  0.00000000000E+00 0. -1.
</event>
<event>
 7    1  0.1978681E-015  0.9000770E+02  0.7816164E-02  0.1186339E+00
        -11   -1    0    0    0    0  0.00000000000E+00  0.00000000000E+00  0.45593999997E+02  0.45594000000E+02  0.51100000000E-03 0.  1.
         11   -1    0    0    0    0 -0.00000000000E+00 -0.00000000000E+00 -0.45593999997E+02  0.45594000000E+02  0.51100000000E-03 0. -1.
    9900012    2    1    2    0    0  0.27140874454E-01 -0.45893411545E+00 -0.10870809514E+01  0.90007702519E+02  0.89999963392E+02 0.  0.
        -12    1    1    2    0    0 -0.27140874454E-01  0.45893411545E+00  0.10870809514E+01  0.11802974813E+01  0.00000000000E+00 0.  1.
         11    1    3    3    0    0  0.36555201075E+02  0.13330176669E+02  0.86559894801E+01  0.39861039748E+02  0.51100000000E-03 0. -1.
        -11    1    3    3    0    0  0.14023227259E+01 -0.89006502264E+01  0.35119384101E+01  0.96706667370E+01  0.51100000000E-03 0.  1.
        -12    1    3    3    0    0 -0.37930382926E+02 -0.48884605577E+01 -0.13255008842E+02  0.40475996034E+02  0.00000000000E+00 0.  1.
</event>
<event>
 7    1  0.1978681E-015  0.9000779E+02  0.7816164E-02  0.1186339E+00
        -11   -1    0    0    0    0  0.00000000000E+00  0.00000000000E+00  0.45593999997E+02  0.45594000000E+02  0.51100000000E-03 0. -1.
         11   -1    0    0    0    0 -0.00000000000E+00 -0.00000000000E+00 -0.45593999997E+02  0.45594000000E+02  0.51100000000E-03 0.  1.
    9900012    2    1    2    0    0  0.90616390399E+00  0.75283785932E+00 -0.70701231594E-01  0.90007789626E+02  0.90000051649E+02 0.  0.
        -12    1    1    2    0    0 -0.90616390399E+00 -0.75283785932E+00  0.70701231594E-01  0.11802103742E+01  0.00000000000E+00 0.  1.
         11    1    3    3    0    0 -0.17226793653E+02 -0.29148127836E+02  0.27257103890E+02  0.43466371928E+02  0.51100000000E-03 0. -1.
        -11    1    3    3    0    0 -0.15946164056E+01  0.41651596045E+01 -0.69016832859E+01  0.82173346318E+01  0.51100000000E-03 0.  1.
        -12    1    3    3    0    0  0.19727573962E+02  0.25735806091E+02 -0.20426121836E+02  0.38324083066E+02  0.00000000000E+00 0.  1.
</event>
<event>
 7    1  0.1978681E-015  0.9000770E+02  0.7816164E-02  0.1186339E+00
        -11   -1    0    0    0    0  0.00000000000E+00  0.00000000000E+00  0.45593999997E+02  0.45594000000E+02  0.51100000000E-03 0. -1.
         11   -1    0    0    0    0 -0.00000000000E+00 -0.00000000000E+00 -0.45593999997E+02  0.45594000000E+02  0.51100000000E-03 0.  1.
    9900012    2    1    2    0    0  0.68393709011E+00  0.86217286038E+00  0.42661136798E+00  0.90007699511E+02  0.89999960345E+02 0.  0.
        -12    1    1    2    0    0 -0.68393709011E+00 -0.86217286038E+00 -0.42661136798E+00  0.11803004887E+01  0.00000000000E+00 0.  1.
         11    1    3    3    0    0  0.20201165803E+02  0.30113441350E+02  0.99387382428E+01  0.37599002219E+02  0.51100000000E-03 0. -1.
        -11    1    3    3    0    0 -0.28442839036E+01  0.91613901558E+01 -0.71341620901E+00  0.96192506704E+01  0.51100000000E-03 0.  1.
        -12    1    3    3    0    0 -0.16672944809E+02 -0.38412658646E+02 -0.87987106658E+01  0.42789446622E+02  0.00000000000E+00 0.  1.
</event>
<event>
 7    1  0.1978681E-015  0.9000877E+02  0.7816164E-02  0.1186337E+00
        -11   -1    0    0    0    0  0.00000000000E+00  0.00000000000E+00  0.45593999997E+02  0.45594000000E+02  0.51100000000E-03 0.  1.
         11   -1    0    0    0    0 -0.00000000000E+00 -0.00000000000E+00 -0.45593999997E+02  0.45594000000E+02  0.51100000000E-03 0. -1.
    9900012    2    1    2    0    0 -0.39698135122E+00  0.98490999410E+00 -0.51276977048E+00  0.90008773674E+02  0.90001048681E+02 0.  0.
        -12    1    1    2    0    0  0.39698135122E+00 -0.98490999410E+00  0.51276977048E+00  0.11792263257E+01  0.00000000000E+00 0.  1.
         11    1    3    3    0    0 -0.12535804784E+02  0.38809278403E+02 -0.24847882077E+01  0.40859278804E+02  0.51100000000E-03 0. -1.
        -11    1    3    3    0    0 -0.91171695225E+01 -0.63078050969E+01  0.57083077095E-01  0.11086678672E+02  0.51100000000E-03 0.  1.
        -12    1    3    3    0    0  0.21255992955E+02 -0.31516563312E+02  0.19149353602E+01  0.38062816198E+02  0.00000000000E+00 0.  1.
</event>
<event>
 7    1  0.1978681E-015  0.9000759E+02  0.7816164E-02  0.1186339E+00
        -11   -1    0    0    0    0  0.00000000000E+00  0.00000000000E+00  0.45593999997E+02  0.45594000000E+02  0.51100000000E-03 0. -1.
         11   -1    0    0    0    0 -0.00000000000E+00 -0.00000000000E+00 -0.45593999997E+02  0.45594000000E+02  0.51100000000E-03 0.  1.
    9900012    2    1    2    0    0  0.98461027885E+00 -0.40209006155E+00  0.51207686059E+00  0.90007594760E+02  0.89999854211E+02 0.  0.
        -12    1    1    2    0    0 -0.98461027885E+00  0.40209006155E+00 -0.51207686059E+00  0.11804052397E+01  0.00000000000E+00 0.  1.
         11    1    3    3    0    0 -0.71291542917E+01  0.22708547630E+02  0.78467494198E+01  0.25061413629E+02  0.51100000000E-03 0. -1.
        -11    1    3    3    0    0 -0.10698449811E+02 -0.10619363545E+02  0.22773628320E+02  0.27310544806E+02  0.51100000000E-03 0.  1.
        -12    1    3    3    0    0  0.18812214381E+02 -0.12491274146E+02 -0.30108300880E+02  0.37635636325E+02  0.00000000000E+00 0.  1.
</event>
<event>
 7    1  0.1978681E-015  0.9000772E+02  0.7816164E-02  0.1186339E+00
        -11   -1    0    0    0    0  0.00000000000E+00  0.00000000000E+00  0.45593999997E+02  0.45594000000E+02  0.51100000000E-03 0. -1.
         11   -1    0    0    0    0 -0.00000000000E+00 -0.00000000000E+00 -0.45593999997E+02  0.45594000000E+02  0.51100000000E-03 0.  1.
    9900012    2    1    2    0    0  0.81364878241E+00 -0.15035155100E+00  0.84168054408E+00  0.90007722038E+02  0.89999983169E+02 0.  0.
        -12    1    1    2    0    0 -0.81364878241E+00  0.15035155100E+00 -0.84168054408E+00  0.11802779623E+01  0.00000000000E+00 0.  1.
         11    1    3    3    0    0 -0.59173556607E+01 -0.51179865579E+01 -0.57736299159E+01  0.97233578093E+01  0.51100000000E-03 0. -1.
        -11    1    3    3    0    0 -0.21163053957E+02 -0.24867189225E+02 -0.12785349710E+02  0.35067322684E+02  0.51100000000E-03 0.  1.
         12    1    3    3    0    0  0.27894058401E+02  0.29834824232E+02  0.19400660170E+02  0.45217041544E+02  0.00000000000E+00 0. -1.
</event>
<event>
 7    1  0.1978681E-015  0.9000748E+02  0.7816164E-02  0.1186340E+00
        -11   -1    0    0    0    0  0.00000000000E+00  0.00000000000E+00  0.45593999997E+02  0.45594000000E+02  0.51100000000E-03 0.  1.
         11   -1    0    0    0    0 -0.00000000000E+00 -0.00000000000E+00 -0.45593999997E+02  0.45594000000E+02  0.51100000000E-03 0. -1.
    9900012    2    1    2    0    0  0.95565631284E+00 -0.52004528378E+00 -0.45814498480E+00  0.90007481930E+02  0.89999739892E+02 0.  0.
        -12    1    1    2    0    0 -0.95565631284E+00  0.52004528378E+00  0.45814498480E+00  0.11805180696E+01  0.00000000000E+00 0.  1.
         11    1    3    3    0    0 -0.39277386160E+01 -0.69524887096E+00 -0.35845911786E+02  0.36067158103E+02  0.51100000000E-03 0. -1.
        -11    1    3    3    0    0  0.86413967852E+01 -0.12045893160E+02 -0.14989769254E+01  0.14900476922E+02  0.51100000000E-03 0.  1.
        -12    1    3    3    0    0 -0.37580018563E+01  0.12221096747E+02  0.36886743726E+02  0.39039846905E+02  0.00000000000E+00 0.  1.
</event>
<event>
 7    1  0.1978681E-015  0.9000777E+02  0.7816164E-02  0.1186339E+00
        -11   -1    0    0    0    0  0.00000000000E+00  0.00000000000E+00  0.45593999997E+02  0.45594000000E+02  0.51100000000E-03 0.  1.
         11   -1    0    0    0    0 -0.00000000000E+00 -0.00000000000E+00 -0.45593999997E+02  0.45594000000E+02  0.51100000000E-03 0. -1.
    9900012    2    1    2    0    0  0.22809080801E+00 -0.19921538191E+00 -0.11407131490E+01  0.90007771771E+02  0.90000033558E+02 0.  0.
        -12    1    1    2    0    0 -0.22809080801E+00  0.19921538191E+00  0.11407131490E+01  0.11802282294E+01  0.00000000000E+00 0.  1.
         11    1    3    3    0    0 -0.55894842370E+01  0.71072279046E+01  0.42846957758E+01  0.10005680420E+02  0.51100000000E-03 0. -1.
        -11    1    3    3    0    0  0.35159275337E+02 -0.14687555140E+02  0.17608889594E+02  0.41975849142E+02  0.51100000000E-03 0.  1.
         12    1    3    3    0    0 -0.29341700292E+02  0.73811118540E+01 -0.23034298518E+02  0.38026242208E+02  0.00000000000E+00 0. -1.
</event>
<event>
 7    1  0.1978681E-015  0.9000779E+02  0.7816164E-02  0.1186339E+00
        -11   -1    0    0    0    0  0.00000000000E+00  0.00000000000E+00  0.45593999997E+02  0.45594000000E+02  0.51100000000E-03 0.  1.
         11   -1    0    0    0    0 -0.00000000000E+00 -0.00000000000E+00 -0.45593999997E+02  0.45594000000E+02  0.51100000000E-03 0. -1.
    9900012    2    1    2    0    0  0.67098544562E+00 -0.54853041106E+00  0.80111119957E+00  0.90007793987E+02  0.90000056067E+02 0.  0.
        -12    1    1    2    0    0 -0.67098544562E+00  0.54853041106E+00 -0.80111119957E+00  0.11802060134E+01  0.00000000000E+00 0.  1.
         11    1    3    3    0    0  0.75156837108E+01 -0.10492018527E+02 -0.35564845887E+02  0.37834193763E+02  0.51100000000E-03 0. -1.
        -11    1    3    3    0    0  0.10386293331E+02  0.87801637640E+01  0.20459685687E+01  0.13753266977E+02  0.51100000000E-03 0.  1.
        -12    1    3    3    0    0 -0.17230991596E+02  0.11633243523E+01  0.34319988518E+02  0.38420333247E+02  0.00000000000E+00 0.  1.
</event>
<event>
 7    1  0.1978681E-015  0.9000775E+02  0.7816164E-02  0.1186339E+00
        -11   -1    0    0    0    0  0.00000000000E+00  0.00000000000E+00  0.45593999997E+02  0.45594000000E+02  0.51100000000E-03 0.  1.
         11   -1    0    0    0    0 -0.00000000000E+00 -0.00000000000E+00 -0.45593999997E+02  0.45594000000E+02  0.51100000000E-03 0. -1.
    9900012    2    1    2    0    0 -0.95519051220E+00  0.63109291209E+00 -0.28692276464E+00  0.90007749242E+02  0.90000010732E+02 0.  0.
        -12    1    1    2    0    0  0.95519051220E+00 -0.63109291209E+00  0.28692276464E+00  0.11802507577E+01  0.00000000000E+00 0.  1.
         11    1    3    3    0    0 -0.32535964501E+02  0.70575089747E+01 -0.22628176673E+02  0.40254587301E+02  0.51100000000E-03 0. -1.
        -11    1    3    3    0    0  0.47869385842E+01  0.17702155153E+01 -0.73371587760E+01  0.89376922718E+01  0.51100000000E-03 0.  1.
        -12    1    3    3    0    0  0.26793835405E+02 -0.81966315779E+01  0.29678412684E+02  0.40815469670E+02  0.00000000000E+00 0.  1.
</event>
<event>
 7    1  0.1978681E-015  0.9000742E+02  0.7816164E-02  0.1186340E+00
        -11   -1    0    0    0    0  0.00000000000E+00  0.00000000000E+00  0.45593999997E+02  0.45594000000E+02  0.51100000000E-03 0. -1.
         11   -1    0    0    0    0 -0.00000000000E+00 -0.00000000000E+00 -0.45593999997E+02  0.45594000000E+02  0.51100000000E-03 0.  1.
    9900012    2    1    2    0    0 -0.10617235445E+01  0.66628833814E-01  0.51191943666E+00  0.90007424803E+02  0.89999682010E+02 0.  0.
        -12    1    1    2    0    0  0.10617235445E+01 -0.66628833814E-01 -0.51191943666E+00  0.11805751971E+01  0.00000000000E+00 0.  1.
         11    1    3    3    0    0  0.33873693624E+02 -0.13081674395E+02  0.17332011943E+02  0.40236251850E+02  0.51100000000E-03 0. -1.
        -11    1    3    3    0    0  0.28575878960E+01  0.72457748961E+01 -0.65196610874E+01  0.10157413223E+02  0.51100000000E-03 0.  1.
        -12    1    3    3    0    0 -0.37793005064E+02  0.59025283326E+01 -0.10300431419E+02  0.39613759730E+02  0.00000000000E+00 0.  1.
</event>
<event>
 7    1  0.1978681E-015  0.9000779E+02  0.7816164E-02  0.1186339E+00
        -11   -1    0    0    0    0  0.00000000000E+00  0.00000000000E+00  0.45593999997E+02  0.45594000000E+02  0.51100000000E-03 0.  1.
         11   -1    0    0    0    0 -0.00000000000E+00 -0.00000000000E+00 -0.45593999997E+02  0.45594000000E+02  0.51100000000E-03 0. -1.
    9900012    2    1    2    0    0  0.88640664989E+00  0.29466395094E+00 -0.72135036427E+00  0.90007792416E+02  0.90000054476E+02 0.  0.
        -12    1    1    2    0    0 -0.88640664989E+00 -0.29466395094E+00  0.72135036427E+00  0.11802075839E+01  0.00000000000E+00 0.  1.
         11    1    3    3    0    0 -0.17454276979E+01 -0.45754135758E+01  0.10060600690E+02  0.11189129267E+02  0.51100000000E-03 0. -1.
        -11    1    3    3    0    0 -0.31417473382E+02 -0.12000943653E+02  0.10541440388E+02  0.35244889671E+02  0.51100000000E-03 0.  1.
         12    1    3    3    0    0  0.34049307729E+02  0.16871021179E+02 -0.21323391443E+02  0.43573773478E+02  0.00000000000E+00 0. -1.
</event>
<event>
 7    1  0.1978681E-015  0.9000773E+02  0.7816164E-02  0.1186339E+00
        -11   -1    0    0    0    0  0.00000000000E+00  0.00000000000E+00  0.45593999997E+02  0.45594000000E+02  0.51100000000E-03 0.  1.
         11   -1    0    0    0    0 -0.00000000000E+00 -0.00000000000E+00 -0.45593999997E+02  0.45594000000E+02  0.51100000000E-03 0. -1.
    9900012    2    1    2    0    0  0.96574497356E+00 -0.25353275185E+00  0.62935463301E+00  0.90007733308E+02  0.89999994588E+02 0.  0.
        -12    1    1    2    0    0 -0.96574497356E+00  0.25353275185E+00 -0.62935463301E+00  0.11802666920E+01  0.00000000000E+00 0.  1.
         11    1    3    3    0    0 -0.29390851725E+01 -0.93540025797E+01  0.17946348606E+01  0.99677630618E+01  0.51100000000E-03 0. -1.
        -11    1    3    3    0    0 -0.34549030824E+02  0.17820383394E+02  0.76904949429E+01  0.39627582665E+02  0.51100000000E-03 0.  1.
         12    1    3    3    0    0  0.38453860970E+02 -0.87199135663E+01 -0.88557751704E+01  0.40412387581E+02  0.00000000000E+00 0. -1.
</event>
<event>
 7    1  0.1978681E-015  0.9000764E+02  0.7816164E-02  0.1186339E+00
        -11   -1    0    0    0    0  0.00000000000E+00  0.00000000000E+00  0.45593999997E+02  0.45594000000E+02  0.51100000000E-03 0.  1.
         11   -1    0    0    0    0 -0.00000000000E+00 -0.00000000000E+00 -0.45593999997E+02  0.45594000000E+02  0.51100000000E-03 0. -1.
    9900012    2    1    2    0    0  0.11246434082E+01 -0.35775118202E+00  0.21049954337E-01  0.90007639121E+02  0.89999899157E+02 0.  0.
        -12    1    1    2    0    0 -0.11246434082E+01  0.35775118202E+00 -0.21049954337E-01  0.11803608789E+01  0.00000000000E+00 0.  1.
         11    1    3    3    0    0 -0.29491861000E+01  0.38088177874E+01  0.11395463558E+02  0.12371797830E+02  0.51100000000E-03 0. -1.
        -11    1    3    3    0    0 -0.29910054582E+00 -0.35742516693E+02  0.12438491893E+02  0.37846176049E+02  0.51100000000E-03 0.  1.
         12    1    3    3    0    0  0.43729300541E+01  0.31575947724E+02 -0.23812905496E+02  0.39789665242E+02  0.00000000000E+00 0. -1.
</event>
<event>
 7    1  0.1978681E-015  0.9000767E+02  0.7816164E-02  0.1186339E+00
        -11   -1    0    0    0    0  0.00000000000E+00  0.00000000000E+00  0.45593999997E+02  0.45594000000E+02  0.51100000000E-03 0.  1.
         11   -1    0    0    0    0 -0.00000000000E+00 -0.00000000000E+00 -0.45593999997E+02  0.45594000000E+02  0.51100000000E-03 0. -1.
    9900012    2    1    2    0    0  0.60086861061E+00 -0.20429009319E-02 -0.10159367643E+01  0.90007671753E+02  0.89999932221E+02 0.  0.
        -12    1    1    2    0    0 -0.60086861061E+00  0.20429009319E-02  0.10159367643E+01  0.11803282466E+01  0.00000000000E+00 0.  1.
         11    1    3    3    0    0 -0.11989302011E+02  0.34344205524E+02 -0.98464473429E+01  0.37685810875E+02  0.51100000000E-03 0. -1.
        -11    1    3    3    0    0  0.93071674425E-01  0.24455784201E+01 -0.91754834421E+01  0.94962630967E+01  0.51100000000E-03 0.  1.
        -12    1    3    3    0    0  0.12497098947E+02 -0.36791826845E+02  0.18005994021E+02  0.42825597782E+02  0.00000000000E+00 0.  1.
</event>
<event>
 7    1  0.1978681E-015  0.9000774E+02  0.7816164E-02  0.1186339E+00
        -11   -1    0    0    0    0  0.00000000000E+00  0.00000000000E+00  0.45593999997E+02  0.45594000000E+02  0.51100000000E-03 0.  1.
         11   -1    0    0    0    0 -0.00000000000E+00 -0.00000000000E+00 -0.45593999997E+02  0.45594000000E+02  0.51100000000E-03 0. -1.
    9900012    2    1    2    0    0 -0.21526609595E+00  0.50748649124E-01 -0.11593481946E+01  0.90007744454E+02  0.90000005881E+02 0.  0.
        -12    1    1    2    0    0  0.21526609595E+00 -0.50748649124E-01  0.11593481946E+01  0.11802555460E+01  0.00000000000E+00 0.  1.
         11    1    3    3    0    0 -0.43400540782E+01  0.50601913740E+01  0.59416926677E+01  0.89300234133E+01  0.51100000000E-03 0. -1.
        -11    1    3    3    0    0 -0.20260655187E+02  0.27515662346E+02  0.11928943097E+02  0.36192616742E+02  0.51100000000E-03 0.  1.
         12    1    3    3    0    0  0.24385443170E+02 -0.32525105071E+02 -0.19029983960E+02  0.44885104299E+02  0.00000000000E+00 0. -1.
</event>
<event>
 7    1  0.1978681E-015  0.9000775E+02  0.7816164E-02  0.1186339E+00
        -11   -1    0    0    0    0  0.00000000000E+00  0.00000000000E+00  0.45593999997E+02  0.45594000000E+02  0.51100000000E-03 0. -1.
         11   -1    0    0    0    0 -0.00000000000E+00 -0.00000000000E+00 -0.45593999997E+02  0.45594000000E+02  0.51100000000E-03 0.  1.
    9900012    2    1    2    0    0 -0.45148663763E+00  0.70582300585E+00 -0.83124887622E+00  0.90007745369E+02  0.90000006808E+02 0.  0.
        -12    1    1    2    0    0  0.45148663763E+00 -0.70582300585E+00  0.83124887622E+00  0.11802546309E+01  0.00000000000E+00 0.  1.
         11    1    3    3    0    0 -0.88120780941E+01  0.34729467592E+00  0.36799138603E+01  0.95558934804E+01  0.51100000000E-03 0. -1.
        -11    1    3    3    0    0 -0.11591755474E+02  0.24192449016E+02 -0.30006984871E+02  0.40250000319E+02  0.51100000000E-03 0.  1.
         12    1    3    3    0    0  0.19952346931E+02 -0.23833920686E+02  0.25495822134E+02  0.40201851570E+02  0.00000000000E+00 0. -1.
</event>
<event>
 7    1  0.1978681E-015  0.9000778E+02  0.7816164E-02  0.1186339E+00
        -11   -1    0    0    0    0  0.00000000000E+00  0.00000000000E+00  0.45593999997E+02  0.45594000000E+02  0.51100000000E-03 0.  1.
         11   -1    0    0    0    0 -0.00000000000E+00 -0.00000000000E+00 -0.45593999997E+02  0.45594000000E+02  0.51100000000E-03 0. -1.
    9900012    2    1    2    0    0 -0.55932698069E+00 -0.38699211367E-01 -0.10385459103E+01  0.90007778873E+02  0.90000040754E+02 0.  0.
        -12    1    1    2    0    0  0.55932698069E+00  0.38699211367E-01  0.10385459103E+01  0.11802211268E+01  0.00000000000E+00 0.  1.
         11    1    3    3    0    0 -0.40774349437E+01  0.88291817983E+01 -0.25748573471E+02  0.27523970699E+02  0.51100000000E-03 0. -1.
        -11    1    3    3    0    0  0.21173790466E+02  0.24226153715E+01 -0.87208742291E+01  0.23027203814E+02  0.51100000000E-03 0.  1.
        -12    1    3    3    0    0 -0.17655682503E+02 -0.11290496381E+02  0.33430901790E+02  0.39456604360E+02  0.00000000000E+00 0.  1.
</event>
<event>
 7    1  0.1978681E-015  0.9000775E+02  0.7816164E-02  0.1186339E+00
        -11   -1    0    0    0    0  0.00000000000E+00  0.00000000000E+00  0.45593999997E+02  0.45594000000E+02  0.51100000000E-03 0.  1.
         11   -1    0    0    0    0 -0.00000000000E+00 -0.00000000000E+00 -0.45593999997E+02  0.45594000000E+02  0.51100000000E-03 0. -1.
    9900012    2    1    2    0    0 -0.61274228317E+00  0.87201531270E+00 -0.50708747993E+00  0.90007745145E+02  0.90000006581E+02 0.  0.
        -12    1    1    2    0    0  0.61274228317E+00 -0.87201531270E+00  0.50708747993E+00  0.11802548553E+01  0.00000000000E+00 0.  1.
         11    1    3    3    0    0  0.24390232341E+02 -0.15706516423E+02 -0.27674333975E+02  0.40092977602E+02  0.51100000000E-03 0. -1.
        -11    1    3    3    0    0  0.66912882952E+01  0.38419497488E+01  0.49198487339E+01  0.91508922378E+01  0.51100000000E-03 0.  1.
        -12    1    3    3    0    0 -0.31694262919E+02  0.12736581987E+02  0.22247397762E+02  0.40763875305E+02  0.00000000000E+00 0.  1.
</event>
<event>
 7    1  0.1978681E-015  0.9000777E+02  0.7816164E-02  0.1186339E+00
        -11   -1    0    0    0    0  0.00000000000E+00  0.00000000000E+00  0.45593999997E+02  0.45594000000E+02  0.51100000000E-03 0.  1.
         11   -1    0    0    0    0 -0.00000000000E+00 -0.00000000000E+00 -0.45593999997E+02  0.45594000000E+02  0.51100000000E-03 0. -1.
    9900012    2    1    2    0    0 -0.53115554778E+00 -0.83610878756E+00 -0.64166236673E+00  0.90007773448E+02  0.90000035258E+02 0.  0.
        -12    1    1    2    0    0  0.53115554778E+00  0.83610878756E+00  0.64166236673E+00  0.11802265517E+01  0.00000000000E+00 0.  1.
         11    1    3    3    0    0 -0.10829528776E+02  0.25460561958E+02 -0.25898947309E+02  0.37898210785E+02  0.51100000000E-03 0. -1.
        -11    1    3    3    0    0  0.12390642784E+02  0.56037773663E+01  0.80743576095E+01  0.15815359637E+02  0.51100000000E-03 0.  1.
        -12    1    3    3    0    0 -0.20922695566E+01 -0.31900448112E+02  0.17182927332E+02  0.36294203027E+02  0.00000000000E+00 0.  1.
</event>
<event>
 7    1  0.1978681E-015  0.9000738E+02  0.7816164E-02  0.1186340E+00
        -11   -1    0    0    0    0  0.00000000000E+00  0.00000000000E+00  0.45593999997E+02  0.45594000000E+02  0.51100000000E-03 0. -1.
         11   -1    0    0    0    0 -0.00000000000E+00 -0.00000000000E+00 -0.45593999997E+02  0.45594000000E+02  0.51100000000E-03 0.  1.
    9900012    2    1    2    0    0 -0.86461880025E+00  0.56704761025E+00  0.56988044764E+00  0.90007376272E+02  0.89999632838E+02 0.  0.
        -12    1    1    2    0    0  0.86461880025E+00 -0.56704761025E+00 -0.56988044764E+00  0.11806237278E+01  0.00000000000E+00 0.  1.
         11    1    3    3    0    0 -0.38931738471E+01 -0.21364267999E+01  0.77889741069E+01  0.89660046829E+01  0.51100000000E-03 0. -1.
        -11    1    3    3    0    0 -0.24107406474E+02 -0.29553900519E+02  0.72478296347E+00  0.38146105874E+02  0.51100000000E-03 0.  1.
         12    1    3    3    0    0  0.27135961521E+02  0.32257374929E+02 -0.79438766228E+01  0.42895265715E+02  0.00000000000E+00 0. -1.
</event>
<event>
 7    1  0.1978681E-015  0.9000775E+02  0.7816164E-02  0.1186339E+00
        -11   -1    0    0    0    0  0.00000000000E+00  0.00000000000E+00  0.45593999997E+02  0.45594000000E+02  0.51100000000E-03 0.  1.
         11   -1    0    0    0    0 -0.00000000000E+00 -0.00000000000E+00 -0.45593999997E+02  0.45594000000E+02  0.51100000000E-03 0. -1.
    9900012    2    1    2    0    0 -0.71662688324E+00  0.72935248632E+00  0.58947810503E+00  0.90007748512E+02  0.90000009992E+02 0.  0.
        -12    1    1    2    0    0  0.71662688324E+00 -0.72935248632E+00 -0.58947810503E+00  0.11802514882E+01  0.00000000000E+00 0.  1.
         11    1    3    3    0    0  0.19967613369E+02 -0.35321931427E+02  0.73849559238E+01  0.41241750662E+02  0.51100000000E-03 0. -1.
        -11    1    3    3    0    0  0.51614154551E+01  0.83950951387E+01  0.16240671509E+01  0.99877638268E+01  0.51100000000E-03 0.  1.
        -12    1    3    3    0    0 -0.25845655707E+02  0.27656188774E+02 -0.84195449696E+01  0.38778234023E+02  0.00000000000E+00 0.  1.
</event>
<event>
 7    1  0.2884042E-015  0.9000774E+02  0.7816164E-02  0.1186339E+00
        -11   -1    0    0    0    0  0.00000000000E+00  0.00000000000E+00  0.45593999997E+02  0.45594000000E+02  0.51100000000E-03 0.  1.
         11   -1    0    0    0    0 -0.00000000000E+00 -0.00000000000E+00 -0.45593999997E+02  0.45594000000E+02  0.51100000000E-03 0. -1.
    9900012    2    1    2    0    0 -0.40072504437E+00  0.66100887216E+00 -0.89191058337E+00  0.90007738258E+02  0.89999999603E+02 0.  0.
        -12    1    1    2    0    0  0.40072504437E+00 -0.66100887216E+00  0.89191058337E+00  0.11802617417E+01  0.00000000000E+00 0.  1.
         11    1    3    3    0    0 -0.46444341816E+01 -0.78986354191E+01  0.18335535481E+01  0.93445775306E+01  0.51100000000E-03 0. -1.
        -11    1    3    3    0    0 -0.15644120563E+02 -0.20055169559E+02  0.25351903102E+02  0.35911938480E+02  0.51100000000E-03 0.  1.
         12    1    3    3    0    0  0.19887829700E+02  0.28614813850E+02 -0.28077367234E+02  0.44751222248E+02  0.00000000000E+00 0. -1.
</event>
<event>
 7    1  0.1978681E-015  0.9000768E+02  0.7816164E-02  0.1186339E+00
        -11   -1    0    0    0    0  0.00000000000E+00  0.00000000000E+00  0.45593999997E+02  0.45594000000E+02  0.51100000000E-03 0.  1.
         11   -1    0    0    0    0 -0.00000000000E+00 -0.00000000000E+00 -0.45593999997E+02  0.45594000000E+02  0.51100000000E-03 0. -1.
    9900012    2    1    2    0    0 -0.48140574767E+00  0.62041590238E+00 -0.88117908976E+00  0.90007684799E+02  0.89999945438E+02 0.  0.
        -12    1    1    2    0    0  0.48140574767E+00 -0.62041590238E+00  0.88117908976E+00  0.11803152011E+01  0.00000000000E+00 0.  1.
         11    1    3    3    0    0  0.36584052032E+01 -0.66823465089E+00 -0.80627557344E+01  0.88791044860E+01  0.51100000000E-03 0. -1.
        -11    1    3    3    0    0  0.70396967824E+01  0.19034850812E+02  0.38449900413E+02  0.43477324184E+02  0.51100000000E-03 0.  1.
         12    1    3    3    0    0 -0.11179507733E+02 -0.17746200259E+02 -0.31268323768E+02  0.37651256128E+02  0.00000000000E+00 0. -1.
</event>
<event>
 7    1  0.1978681E-015  0.9000785E+02  0.7816164E-02  0.1186339E+00
        -11   -1    0    0    0    0  0.00000000000E+00  0.00000000000E+00  0.45593999997E+02  0.45594000000E+02  0.51100000000E-03 0.  1.
         11   -1    0    0    0    0 -0.00000000000E+00 -0.00000000000E+00 -0.45593999997E+02  0.45594000000E+02  0.51100000000E-03 0. -1.
    9900012    2    1    2    0    0  0.35204036301E+00  0.80269223334E+00 -0.79025863642E+00  0.90007849183E+02  0.90000111992E+02 0.  0.
        -12    1    1    2    0    0 -0.35204036301E+00 -0.80269223334E+00  0.79025863642E+00  0.11801508171E+01  0.00000000000E+00 0.  1.
         11    1    3    3    0    0  0.21012928919E-01 -0.25085909127E+01  0.49015253818E+01  0.55062165995E+01  0.51100000000E-03 0. -1.
        -11    1    3    3    0    0  0.33609480940E+02  0.20828598723E+02  0.14131470521E+02  0.41989596249E+02  0.51100000000E-03 0.  1.
         12    1    3    3    0    0 -0.33278453506E+02 -0.17517315577E+02 -0.19823254539E+02  0.42512036334E+02  0.00000000000E+00 0. -1.
</event>
<event>
 7    1  0.1978681E-015  0.9000775E+02  0.7816164E-02  0.1186339E+00
        -11   -1    0    0    0    0  0.00000000000E+00  0.00000000000E+00  0.45593999997E+02  0.45594000000E+02  0.51100000000E-03 0.  1.
         11   -1    0    0    0    0 -0.00000000000E+00 -0.00000000000E+00 -0.45593999997E+02  0.45594000000E+02  0.51100000000E-03 0. -1.
    9900012    2    1    2    0    0 -0.63961373496E+00 -0.67415379648E+00 -0.72759402000E+00  0.90007753361E+02  0.90000014905E+02 0.  0.
        -12    1    1    2    0    0  0.63961373496E+00  0.67415379648E+00  0.72759402000E+00  0.11802466391E+01  0.00000000000E+00 0.  1.
         11    1    3    3    0    0 -0.42858323531E+02  0.16754110922E+01 -0.80285685935E+01  0.43636003623E+02  0.51100000000E-03 0. -1.
        -11    1    3    3    0    0  0.60643844939E+01 -0.89795866489E+00 -0.52520883040E+01  0.80726402662E+01  0.51100000000E-03 0.  1.
        -12    1    3    3    0    0  0.36154325303E+02 -0.14516062238E+01  0.12553062878E+02  0.38299109472E+02  0.00000000000E+00 0.  1.
</event>
<event>
 7    1  0.1978681E-015  0.9000780E+02  0.7816164E-02  0.1186339E+00
        -11   -1    0    0    0    0  0.00000000000E+00  0.00000000000E+00  0.45593999997E+02  0.45594000000E+02  0.51100000000E-03 0.  1.
         11   -1    0    0    0    0 -0.00000000000E+00 -0.00000000000E+00 -0.45593999997E+02  0.45594000000E+02  0.51100000000E-03 0. -1.
    9900012    2    1    2    0    0  0.72061889874E-01 -0.12650842341E+00 -0.11711823574E+01  0.90007802808E+02  0.90000065005E+02 0.  0.
        -12    1    1    2    0    0 -0.72061889874E-01  0.12650842341E+00  0.11711823574E+01  0.11801971918E+01  0.00000000000E+00 0.  1.
         11    1    3    3    0    0 -0.26100280844E+01 -0.79823080105E+01 -0.39715679064E+01  0.92899321672E+01  0.51100000000E-03 0. -1.
        -11    1    3    3    0    0 -0.28006477940E+02  0.95037649229E+01 -0.25416711343E+02  0.38996071214E+02  0.51100000000E-03 0.  1.
         12    1    3    3    0    0  0.30688567915E+02 -0.16479653358E+01  0.28217096892E+02  0.41721799427E+02  0.00000000000E+00 0. -1.
</event>
<event>
 7    1  0.1978681E-015  0.9000774E+02  0.7816164E-02  0.1186339E+00
        -11   -1    0    0    0    0  0.00000000000E+00  0.00000000000E+00  0.45593999997E+02  0.45594000000E+02  0.51100000000E-03 0. -1.
         11   -1    0    0    0    0 -0.00000000000E+00 -0.00000000000E+00 -0.45593999997E+02  0.45594000000E+02  0.51100000000E-03 0.  1.
    9900012    2    1    2    0    0 -0.10876839087E+01  0.36781840357E+00 -0.27324562777E+00  0.90007741623E+02  0.90000003012E+02 0.  0.
        -12    1    1    2    0    0  0.10876839087E+01 -0.36781840357E+00  0.27324562777E+00  0.11802583769E+01  0.00000000000E+00 0.  1.
         11    1    3    3    0    0  0.72335167469E+01 -0.36525496991E+02 -0.18724183289E+02  0.41677700693E+02  0.51100000000E-03 0. -1.
        -11    1    3    3    0    0 -0.72289075940E+01  0.33829522773E+01 -0.30005689614E+01  0.85267159837E+01  0.51100000000E-03 0.  1.
        -12    1    3    3    0    0 -0.10922930616E+01  0.33510363117E+02  0.21451506623E+02  0.39803324946E+02  0.00000000000E+00 0.  1.
</event>
<event>
 7    1  0.1978681E-015  0.9000777E+02  0.7816164E-02  0.1186339E+00
        -11   -1    0    0    0    0  0.00000000000E+00  0.00000000000E+00  0.45593999997E+02  0.45594000000E+02  0.51100000000E-03 0.  1.
         11   -1    0    0    0    0 -0.00000000000E+00 -0.00000000000E+00 -0.45593999997E+02  0.45594000000E+02  0.51100000000E-03 0. -1.
    9900012    2    1    2    0    0  0.57343375080E+00  0.69075008116E+00 -0.76613973326E+00  0.90007774584E+02  0.90000036409E+02 0.  0.
        -12    1    1    2    0    0 -0.57343375080E+00 -0.69075008116E+00  0.76613973326E+00  0.11802254158E+01  0.00000000000E+00 0.  1.
         11    1    3    3    0    0 -0.59601340244E+01  0.19899354717E+01 -0.59695673853E+01  0.86671088489E+01  0.51100000000E-03 0. -1.
        -11    1    3    3    0    0  0.96121910251E+01  0.36885989448E+02 -0.11108280607E+02  0.39703454915E+02  0.51100000000E-03 0.  1.
         12    1    3    3    0    0 -0.30786232499E+01 -0.38185174839E+02  0.16311708259E+02  0.41637210820E+02  0.00000000000E+00 0. -1.
</event>
<event>
 7    1  0.1978681E-015  0.9000773E+02  0.7816164E-02  0.1186339E+00
        -11   -1    0    0    0    0  0.00000000000E+00  0.00000000000E+00  0.45593999997E+02  0.45594000000E+02  0.51100000000E-03 0. -1.
         11   -1    0    0    0    0 -0.00000000000E+00 -0.00000000000E+00 -0.45593999997E+02  0.45594000000E+02  0.51100000000E-03 0.  1.
    9900012    2    1    2    0    0 -0.10252155533E+01  0.84190026364E-01  0.57868666513E+00  0.90007731748E+02  0.89999993007E+02 0.  0.
        -12    1    1    2    0    0  0.10252155533E+01 -0.84190026364E-01 -0.57868666513E+00  0.11802682524E+01  0.00000000000E+00 0.  1.
         11    1    3    3    0    0  0.85795363577E+00  0.75740843461E+01 -0.91909615716E+01  0.11940544920E+02  0.51100000000E-03 0. -1.
        -11    1    3    3    0    0  0.78639215533E+01  0.19882181809E+02 -0.24907876993E+02  0.32825976790E+02  0.51100000000E-03 0.  1.
         12    1    3    3    0    0 -0.97470907424E+01 -0.27372076129E+02  0.34677525230E+02  0.45241210037E+02  0.00000000000E+00 0. -1.
</event>
<event>
 7    1  0.1978681E-015  0.9000772E+02  0.7816164E-02  0.1186339E+00
        -11   -1    0    0    0    0  0.00000000000E+00  0.00000000000E+00  0.45593999997E+02  0.45594000000E+02  0.51100000000E-03 0.  1.
         11   -1    0    0    0    0 -0.00000000000E+00 -0.00000000000E+00 -0.45593999997E+02  0.45594000000E+02  0.51100000000E-03 0. -1.
    9900012    2    1    2    0    0  0.64737620714E+00  0.98417153786E+00 -0.73237621173E-01  0.90007723203E+02  0.89999984349E+02 0.  0.
        -12    1    1    2    0    0 -0.64737620714E+00 -0.98417153786E+00  0.73237621173E-01  0.11802767975E+01  0.00000000000E+00 0.  1.
         11    1    3    3    0    0 -0.12012132213E+02 -0.11873915884E+02 -0.63655151061E+01  0.18049957937E+02  0.51100000000E-03 0. -1.
        -11    1    3    3    0    0 -0.18957163011E+02  0.23105771475E+02  0.20047087436E+02  0.35988003832E+02  0.51100000000E-03 0.  1.
         12    1    3    3    0    0  0.31616671430E+02 -0.10247684053E+02 -0.13754809951E+02  0.35969761434E+02  0.00000000000E+00 0. -1.
</event>
<event>
 7    1  0.1978681E-015  0.9000766E+02  0.7816164E-02  0.1186339E+00
        -11   -1    0    0    0    0  0.00000000000E+00  0.00000000000E+00  0.45593999997E+02  0.45594000000E+02  0.51100000000E-03 0. -1.
         11   -1    0    0    0    0 -0.00000000000E+00 -0.00000000000E+00 -0.45593999997E+02  0.45594000000E+02  0.51100000000E-03 0.  1.
    9900012    2    1    2    0    0 -0.11504433386E+01  0.79636226753E-01  0.25166485033E+00  0.90007662336E+02  0.89999922679E+02 0.  0.
        -12    1    1    2    0    0  0.11504433386E+01 -0.79636226753E-01 -0.25166485033E+00  0.11803376639E+01  0.00000000000E+00 0.  1.
         11    1    3    3    0    0  0.27853512922E+01 -0.71350293311E+01 -0.14489694033E+01  0.77952766449E+01  0.51100000000E-03 0. -1.
        -11    1    3    3    0    0 -0.23949471502E+01  0.34118451551E+02 -0.26454448926E+02  0.43239361424E+02  0.51100000000E-03 0.  1.
         12    1    3    3    0    0 -0.15408474806E+01 -0.26903785993E+02  0.28155083179E+02  0.38973024268E+02  0.00000000000E+00 0. -1.
</event>
<event>
 7    1  0.1978681E-015  0.9000764E+02  0.7816164E-02  0.1186339E+00
        -11   -1    0    0    0    0  0.00000000000E+00  0.00000000000E+00  0.45593999997E+02  0.45594000000E+02  0.51100000000E-03 0.  1.
         11   -1    0    0    0    0 -0.00000000000E+00 -0.00000000000E+00 -0.45593999997E+02  0.45594000000E+02  0.51100000000E-03 0. -1.
    9900012    2    1    2    0    0 -0.49776263912E-01 -0.12103847331E-01 -0.11792466567E+01  0.90007641217E+02  0.89999901281E+02 0.  0.
        -12    1    1    2    0    0  0.49776263912E-01  0.12103847331E-01  0.11792466567E+01  0.11803587831E+01  0.00000000000E+00 0.  1.
         11    1    3    3    0    0  0.33050763624E+02  0.14706807360E+02 -0.13262124973E+02  0.38529561611E+02  0.51100000000E-03 0. -1.
        -11    1    3    3    0    0  0.27051106976E+01 -0.16468685118E+01  0.12969472913E+02  0.13350544096E+02  0.51100000000E-03 0.  1.
        -12    1    3    3    0    0 -0.35805650585E+02 -0.13072042696E+02 -0.88659459578E+00  0.38127535510E+02  0.00000000000E+00 0.  1.
</event>
<event>
 7    1  0.1978681E-015  0.9000754E+02  0.7816164E-02  0.1186339E+00
        -11   -1    0    0    0    0  0.00000000000E+00  0.00000000000E+00  0.45593999997E+02  0.45594000000E+02  0.51100000000E-03 0.  1.
         11   -1    0    0    0    0 -0.00000000000E+00 -0.00000000000E+00 -0.45593999997E+02  0.45594000000E+02  0.51100000000E-03 0. -1.
    9900012    2    1    2    0    0 -0.10644798005E-01 -0.94220388027E+00  0.71107883065E+00  0.90007536291E+02  0.89999794970E+02 0.  0.
        -12    1    1    2    0    0  0.10644798005E-01  0.94220388027E+00 -0.71107883065E+00  0.11804637085E+01  0.00000000000E+00 0.  1.
         11    1    3    3    0    0 -0.64489794243E+01 -0.11737117104E+02 -0.39766381581E+00  0.13398036808E+02  0.51100000000E-03 0. -1.
        -11    1    3    3    0    0 -0.26354350751E+02 -0.17544094413E+02  0.81695510675E+01  0.32696920607E+02  0.51100000000E-03 0.  1.
         12    1    3    3    0    0  0.32792685377E+02  0.28339007637E+02 -0.70608084210E+01  0.43912578877E+02  0.00000000000E+00 0. -1.
</event>
<event>
 7    1  0.1978681E-015  0.9000747E+02  0.7816164E-02  0.1186340E+00
        -11   -1    0    0    0    0  0.00000000000E+00  0.00000000000E+00  0.45593999997E+02  0.45594000000E+02  0.51100000000E-03 0. -1.
         11   -1    0    0    0    0 -0.00000000000E+00 -0.00000000000E+00 -0.45593999997E+02  0.45594000000E+02  0.51100000000E-03 0.  1.
    9900012    2    1    2    0    0  0.13509191187E+00  0.86344870127E+00 -0.79364299262E+00  0.90007465086E+02  0.89999722824E+02 0.  0.
        -12    1    1    2    0    0 -0.13509191187E+00 -0.86344870127E+00  0.79364299262E+00  0.11805349144E+01  0.00000000000E+00 0.  1.
         11    1    3    3    0    0  0.40327585275E+01 -0.27137479575E+01  0.39886443003E+02  0.40181536867E+02  0.51100000000E-03 0. -1.
        -11    1    3    3    0    0  0.45624249235E+01  0.84557668687E+01 -0.18474486786E+01  0.97841086155E+01  0.51100000000E-03 0.  1.
        -12    1    3    3    0    0 -0.84600915391E+01 -0.48785702099E+01 -0.38832637317E+02  0.40041819603E+02  0.00000000000E+00 0.  1.
</event>
<event>
 7    1  0.1978681E-015  0.9000776E+02  0.7816164E-02  0.1186339E+00
        -11   -1    0    0    0    0  0.00000000000E+00  0.00000000000E+00  0.45593999997E+02  0.45594000000E+02  0.51100000000E-03 0. -1.
         11   -1    0    0    0    0 -0.00000000000E+00 -0.00000000000E+00 -0.45593999997E+02  0.45594000000E+02  0.51100000000E-03 0.  1.
    9900012    2    1    2    0    0  0.47706862455E+00 -0.93875429343E+00  0.53301198419E+00  0.90007764485E+02  0.90000026176E+02 0.  0.
        -12    1    1    2    0    0 -0.47706862455E+00  0.93875429343E+00 -0.53301198419E+00  0.11802355152E+01  0.00000000000E+00 0.  1.
         11    1    3    3    0    0  0.31001471674E+02 -0.93038507935E+01 -0.87081617324E+01  0.33518427268E+02  0.51100000000E-03 0. -1.
        -11    1    3    3    0    0  0.37729130298E+01 -0.10942833825E+02 -0.74204253361E+01  0.13749298065E+02  0.51100000000E-03 0.  1.
        -12    1    3    3    0    0 -0.34297316079E+02  0.19307930325E+02  0.16661599053E+02  0.42740039151E+02  0.00000000000E+00 0.  1.
</event>
<event>
 7    1  0.1978681E-015  0.9000773E+02  0.7816164E-02  0.1186339E+00
        -11   -1    0    0    0    0  0.00000000000E+00  0.00000000000E+00  0.45593999997E+02  0.45594000000E+02  0.51100000000E-03 0.  1.
         11   -1    0    0    0    0 -0.00000000000E+00 -0.00000000000E+00 -0.45593999997E+02  0.45594000000E+02  0.51100000000E-03 0. -1.
    9900012    2    1    2    0    0  0.69971829081E+00 -0.74916408845E+00 -0.58496706671E+00  0.90007729274E+02  0.89999990500E+02 0.  0.
        -12    1    1    2    0    0 -0.69971829081E+00  0.74916408845E+00  0.58496706671E+00  0.11802707262E+01  0.00000000000E+00 0.  1.
         11    1    3    3    0    0 -0.46419115970E+01  0.18156620449E+01  0.10727852665E+02  0.11829234760E+02  0.51100000000E-03 0. -1.
        -11    1    3    3    0    0 -0.28116660553E+02  0.11256487128E+02  0.14637007384E+02  0.33637733106E+02  0.51100000000E-03 0.  1.
         12    1    3    3    0    0  0.33458290441E+02 -0.13821313261E+02 -0.25949827116E+02  0.44540761408E+02  0.00000000000E+00 0. -1.
</event>
<event>
 7    1  0.1978681E-015  0.9000775E+02  0.7816164E-02  0.1186339E+00
        -11   -1    0    0    0    0  0.00000000000E+00  0.00000000000E+00  0.45593999997E+02  0.45594000000E+02  0.51100000000E-03 0.  1.
         11   -1    0    0    0    0 -0.00000000000E+00 -0.00000000000E+00 -0.45593999997E+02  0.45594000000E+02  0.51100000000E-03 0. -1.
    9900012    2    1    2    0    0  0.67778277819E+00 -0.41149075832E+00 -0.87422545887E+00  0.90007752445E+02  0.90000013977E+02 0.  0.
        -12    1    1    2    0    0 -0.67778277819E+00  0.41149075832E+00  0.87422545887E+00  0.11802475552E+01  0.00000000000E+00 0.  1.
         11    1    3    3    0    0  0.71364352214E+01 -0.39529488345E+01 -0.34134948122E+01  0.88434415954E+01  0.51100000000E-03 0. -1.
        -11    1    3    3    0    0  0.11612328521E+02 -0.31034510761E+02  0.19693052001E+02  0.38546119509E+02  0.51100000000E-03 0.  1.
         12    1    3    3    0    0 -0.18070980964E+02  0.34575968837E+02 -0.17153782648E+02  0.42618191340E+02  0.00000000000E+00 0. -1.
</event>
<event>
 7    1  0.1978681E-015  0.9000763E+02  0.7816164E-02  0.1186339E+00
        -11   -1    0    0    0    0  0.00000000000E+00  0.00000000000E+00  0.45593999997E+02  0.45594000000E+02  0.51100000000E-03 0.  1.
         11   -1    0    0    0    0 -0.00000000000E+00 -0.00000000000E+00 -0.45593999997E+02  0.45594000000E+02  0.51100000000E-03 0. -1.
    9900012    2    1    2    0    0  0.13876953459E+00 -0.75636813290E+00  0.89549879490E+00  0.90007632334E+02  0.89999892280E+02 0.  0.
        -12    1    1    2    0    0 -0.13876953459E+00  0.75636813290E+00 -0.89549879490E+00  0.11803676664E+01  0.00000000000E+00 0.  1.
         11    1    3    3    0    0  0.21401785447E+01 -0.41903256485E+01 -0.85898084109E+01  0.97940799486E+01  0.51100000000E-03 0. -1.
        -11    1    3    3    0    0  0.31881631055E+02 -0.14416122283E+02 -0.11134012840E+02  0.36718241006E+02  0.51100000000E-03 0.  1.
         12    1    3    3    0    0 -0.33883040065E+02  0.17850079798E+02  0.20619320046E+02  0.43495311379E+02  0.00000000000E+00 0. -1.
</event>
<event>
 7    1  0.1978681E-015  0.9000776E+02  0.7816164E-02  0.1186339E+00
        -11   -1    0    0    0    0  0.00000000000E+00  0.00000000000E+00  0.45593999997E+02  0.45594000000E+02  0.51100000000E-03 0.  1.
         11   -1    0    0    0    0 -0.00000000000E+00 -0.00000000000E+00 -0.45593999997E+02  0.45594000000E+02  0.51100000000E-03 0. -1.
    9900012    2    1    2    0    0  0.27036016573E+00 -0.86248678884E+00 -0.75893693447E+00  0.90007761316E+02  0.90000022966E+02 0.  0.
        -12    1    1    2    0    0 -0.27036016573E+00  0.86248678884E+00  0.75893693447E+00  0.11802386838E+01  0.00000000000E+00 0.  1.
         11    1    3    3    0    0 -0.15060463357E+02 -0.22360255327E+02 -0.26330139826E+02  0.37683880352E+02  0.51100000000E-03 0. -1.
        -11    1    3    3    0    0  0.35917309416E+01 -0.17210444004E+01 -0.85399069050E+01  0.94229791038E+01  0.51100000000E-03 0.  1.
        -12    1    3    3    0    0  0.11739092581E+02  0.23218812939E+02  0.34111109797E+02  0.42900901861E+02  0.00000000000E+00 0.  1.
</event>
<event>
 7    1  0.1978681E-015  0.9000769E+02  0.7816164E-02  0.1186339E+00
        -11   -1    0    0    0    0  0.00000000000E+00  0.00000000000E+00  0.45593999997E+02  0.45594000000E+02  0.51100000000E-03 0.  1.
         11   -1    0    0    0    0 -0.00000000000E+00 -0.00000000000E+00 -0.45593999997E+02  0.45594000000E+02  0.51100000000E-03 0. -1.
    9900012    2    1    2    0    0  0.11766237690E+01 -0.72195299244E-01 -0.58997277683E-01  0.90007688035E+02  0.89999948717E+02 0.  0.
        -12    1    1    2    0    0 -0.11766237690E+01  0.72195299244E-01  0.58997277683E-01  0.11803119646E+01  0.00000000000E+00 0.  1.
         11    1    3    3    0    0 -0.66496954440E+01  0.19634195717E+02 -0.31289562292E+02  0.37533409113E+02  0.51100000000E-03 0. -1.
        -11    1    3    3    0    0 -0.97440698874E+01  0.22034515916E+01 -0.62078915150E+00  0.10009369427E+02  0.51100000000E-03 0.  1.
        -12    1    3    3    0    0  0.17570389100E+02 -0.21909842608E+02  0.31851354166E+02  0.42464909496E+02  0.00000000000E+00 0.  1.
</event>
<event>
 7    1  0.1978681E-015  0.9000770E+02  0.7816164E-02  0.1186339E+00
        -11   -1    0    0    0    0  0.00000000000E+00  0.00000000000E+00  0.45593999997E+02  0.45594000000E+02  0.51100000000E-03 0.  1.
         11   -1    0    0    0    0 -0.00000000000E+00 -0.00000000000E+00 -0.45593999997E+02  0.45594000000E+02  0.51100000000E-03 0. -1.
    9900012    2    1    2    0    0 -0.45586223434E+00  0.10213806132E+01 -0.37692615168E+00  0.90007702555E+02  0.89999963429E+02 0.  0.
        -12    1    1    2    0    0  0.45586223434E+00 -0.10213806132E+01  0.37692615168E+00  0.11802974445E+01  0.00000000000E+00 0.  1.
         11    1    3    3    0    0 -0.17934173825E+01  0.11576059636E+02  0.71762264035E+01  0.13737529918E+02  0.51100000000E-03 0. -1.
        -11    1    3    3    0    0  0.34497215354E+02  0.19698765293E+01  0.11000010297E+02  0.36262080849E+02  0.51100000000E-03 0.  1.
         12    1    3    3    0    0 -0.33159660206E+02 -0.12524555552E+02 -0.18553162853E+02  0.40008091788E+02  0.00000000000E+00 0. -1.
</event>
<event>
 7    1  0.1989698E-015  0.9000767E+02  0.7816164E-02  0.1186339E+00
        -11   -1    0    0    0    0  0.00000000000E+00  0.00000000000E+00  0.45593999997E+02  0.45594000000E+02  0.51100000000E-03 0. -1.
         11   -1    0    0    0    0 -0.00000000000E+00 -0.00000000000E+00 -0.45593999997E+02  0.45594000000E+02  0.51100000000E-03 0.  1.
    9900012    2    1    2    0    0 -0.20538518029E+00  0.75770232649E+00  0.88141385193E+00  0.90007666883E+02  0.89999927286E+02 0.  0.
        -12    1    1    2    0    0  0.20538518029E+00 -0.75770232649E+00 -0.88141385193E+00  0.11803331166E+01  0.00000000000E+00 0.  1.
         11    1    3    3    0    0  0.14132467253E+01  0.41732966007E+01 -0.81486235073E+01  0.92635703781E+01  0.51100000000E-03 0. -1.
        -11    1    3    3    0    0  0.36522281524E+02  0.46119800723E+01 -0.88513703657E+01  0.37861512985E+02  0.51100000000E-03 0.  1.
         12    1    3    3    0    0 -0.38140913430E+02 -0.80275743465E+01  0.17881407725E+02  0.42882583520E+02  0.00000000000E+00 0. -1.
</event>
<event>
 7    1  0.1978681E-015  0.9000775E+02  0.7816164E-02  0.1186339E+00
        -11   -1    0    0    0    0  0.00000000000E+00  0.00000000000E+00  0.45593999997E+02  0.45594000000E+02  0.51100000000E-03 0.  1.
         11   -1    0    0    0    0 -0.00000000000E+00 -0.00000000000E+00 -0.45593999997E+02  0.45594000000E+02  0.51100000000E-03 0. -1.
    9900012    2    1    2    0    0 -0.57447935810E+00 -0.95652107606E+00  0.38475532683E+00  0.90007747585E+02  0.90000009053E+02 0.  0.
        -12    1    1    2    0    0  0.57447935810E+00  0.95652107606E+00 -0.38475532683E+00  0.11802524151E+01  0.00000000000E+00 0.  1.
         11    1    3    3    0    0 -0.88740480667E+01  0.22807191198E+00 -0.78251784981E+01  0.11833603199E+02  0.51100000000E-03 0. -1.
        -11    1    3    3    0    0  0.27387357557E+02  0.22656780729E+02  0.24873387946E+02  0.43382974715E+02  0.51100000000E-03 0.  1.
         12    1    3    3    0    0 -0.19087788848E+02 -0.23841373717E+02 -0.16663454121E+02  0.34791169671E+02  0.00000000000E+00 0. -1.
</event>
<event>
 7    1  0.1978681E-015  0.9000818E+02  0.7816164E-02  0.1186338E+00
        -11   -1    0    0    0    0  0.00000000000E+00  0.00000000000E+00  0.45593999997E+02  0.45594000000E+02  0.51100000000E-03 0.  1.
         11   -1    0    0    0    0 -0.00000000000E+00 -0.00000000000E+00 -0.45593999997E+02  0.45594000000E+02  0.51100000000E-03 0. -1.
    9900012    2    1    2    0    0 -0.68832232774E+00  0.73621098893E+00 -0.61333159971E+00  0.90008182261E+02  0.90000449465E+02 0.  0.
        -12    1    1    2    0    0  0.68832232774E+00 -0.73621098893E+00  0.61333159971E+00  0.11798177394E+01  0.00000000000E+00 0.  1.
         11    1    3    3    0    0  0.39319046170E+01 -0.85926349021E+01  0.35478930023E+01  0.10093601612E+02  0.51100000000E-03 0. -1.
        -11    1    3    3    0    0 -0.69331428165E+01  0.42463346941E+01  0.37250834359E+02  0.38127739093E+02  0.51100000000E-03 0.  1.
         12    1    3    3    0    0  0.23129158718E+01  0.50825111970E+01 -0.41412058961E+02  0.41786841556E+02  0.00000000000E+00 0. -1.
</event>
<event>
 7    1  0.1978681E-015  0.9000780E+02  0.7816164E-02  0.1186339E+00
        -11   -1    0    0    0    0  0.00000000000E+00  0.00000000000E+00  0.45593999997E+02  0.45594000000E+02  0.51100000000E-03 0.  1.
         11   -1    0    0    0    0 -0.00000000000E+00 -0.00000000000E+00 -0.45593999997E+02  0.45594000000E+02  0.51100000000E-03 0. -1.
    9900012    2    1    2    0    0 -0.10871966243E+01  0.44427595797E+00 -0.11617415318E+00  0.90007799144E+02  0.90000061293E+02 0.  0.
        -12    1    1    2    0    0  0.10871966243E+01 -0.44427595797E+00  0.11617415318E+00  0.11802008560E+01  0.00000000000E+00 0.  1.
         11    1    3    3    0    0 -0.84294747524E+01 -0.18458127205E+01  0.31689960318E+01  0.91926930391E+01  0.51100000000E-03 0. -1.
        -11    1    3    3    0    0 -0.20399957714E+02 -0.34069814060E+01  0.30423681954E+02  0.36788126086E+02  0.51100000000E-03 0.  1.
         12    1    3    3    0    0  0.27742235842E+02  0.56970700845E+01 -0.33708852139E+02  0.44026980019E+02  0.00000000000E+00 0. -1.
</event>
<event>
 7    1  0.1978681E-015  0.9000816E+02  0.7816164E-02  0.1186338E+00
        -11   -1    0    0    0    0  0.00000000000E+00  0.00000000000E+00  0.45593999997E+02  0.45594000000E+02  0.51100000000E-03 0.  1.
         11   -1    0    0    0    0 -0.00000000000E+00 -0.00000000000E+00 -0.45593999997E+02  0.45594000000E+02  0.51100000000E-03 0. -1.
    9900012    2    1    2    0    0  0.11040980034E+01 -0.29114159048E+00  0.29701626559E+00  0.90008163364E+02  0.90000430319E+02 0.  0.
        -12    1    1    2    0    0 -0.11040980034E+01  0.29114159048E+00 -0.29701626559E+00  0.11798366365E+01  0.00000000000E+00 0.  1.
         11    1    3    3    0    0 -0.16961097761E+02  0.17677395349E+02  0.25005666628E+02  0.35006463794E+02  0.51100000000E-03 0. -1.
        -11    1    3    3    0    0  0.10637476838E+02  0.41521947211E+01  0.86263191834E+01  0.14311185045E+02  0.51100000000E-03 0.  1.
        -12    1    3    3    0    0  0.74277189264E+01 -0.22120731660E+02 -0.33334969546E+02  0.40690514525E+02  0.00000000000E+00 0.  1.
</event>
<event>
 7    1  0.1978681E-015  0.9000771E+02  0.7816164E-02  0.1186339E+00
        -11   -1    0    0    0    0  0.00000000000E+00  0.00000000000E+00  0.45593999997E+02  0.45594000000E+02  0.51100000000E-03 0. -1.
         11   -1    0    0    0    0 -0.00000000000E+00 -0.00000000000E+00 -0.45593999997E+02  0.45594000000E+02  0.51100000000E-03 0.  1.
    9900012    2    1    2    0    0 -0.50842769302E+00 -0.32836919814E+00  0.10132905996E+01  0.90007710676E+02  0.89999971657E+02 0.  0.
        -12    1    1    2    0    0  0.50842769302E+00  0.32836919814E+00 -0.10132905996E+01  0.11802893241E+01  0.00000000000E+00 0.  1.
         11    1    3    3    0    0  0.16728165262E+02  0.18079423205E+02  0.12275443265E+02  0.27520602538E+02  0.51100000000E-03 0. -1.
        -11    1    3    3    0    0 -0.11980176657E+02  0.19662183850E+02 -0.47143466376E+01  0.23502152475E+02  0.51100000000E-03 0.  1.
        -12    1    3    3    0    0 -0.52564162976E+01 -0.38069976253E+02 -0.65478060277E+01  0.38984955662E+02  0.00000000000E+00 0.  1.
</event>
<event>
 7    1  0.1978681E-015  0.9000826E+02  0.7816164E-02  0.1186338E+00
        -11   -1    0    0    0    0  0.00000000000E+00  0.00000000000E+00  0.45593999997E+02  0.45594000000E+02  0.51100000000E-03 0.  1.
         11   -1    0    0    0    0 -0.00000000000E+00 -0.00000000000E+00 -0.45593999997E+02  0.45594000000E+02  0.51100000000E-03 0. -1.
    9900012    2    1    2    0    0 -0.11599112956E+01  0.10740911418E+00 -0.18670885884E+00  0.90008258024E+02  0.90000526229E+02 0.  0.
        -12    1    1    2    0    0  0.11599112956E+01 -0.10740911418E+00  0.18670885884E+00  0.11797419758E+01  0.00000000000E+00 0.  1.
         11    1    3    3    0    0 -0.10748427038E+02 -0.10435054362E+02  0.22068685263E+01  0.15142302080E+02  0.51100000000E-03 0. -1.
        -11    1    3    3    0    0  0.58228964135E+01  0.47090043142E+01  0.35530703339E+02  0.36311316753E+02  0.51100000000E-03 0.  1.
         12    1    3    3    0    0  0.37656193286E+01  0.58334591617E+01 -0.37924280725E+02  0.38554639192E+02  0.00000000000E+00 0. -1.
</event>
<event>
 7    1  0.1978681E-015  0.9000785E+02  0.7816164E-02  0.1186339E+00
        -11   -1    0    0    0    0  0.00000000000E+00  0.00000000000E+00  0.45593999997E+02  0.45594000000E+02  0.51100000000E-03 0.  1.
         11   -1    0    0    0    0 -0.00000000000E+00 -0.00000000000E+00 -0.45593999997E+02  0.45594000000E+02  0.51100000000E-03 0. -1.
    9900012    2    1    2    0    0 -0.54528800328E+00 -0.10410319775E+01 -0.10803371372E+00  0.90007848371E+02  0.90000111169E+02 0.  0.
        -12    1    1    2    0    0  0.54528800328E+00  0.10410319775E+01  0.10803371372E+00  0.11801516292E+01  0.00000000000E+00 0.  1.
         11    1    3    3    0    0  0.69958207059E+01  0.48171596365E+01  0.10322379395E+01  0.85564040191E+01  0.51100000000E-03 0. -1.
        -11    1    3    3    0    0  0.60294645467E+01 -0.38330766007E+02  0.16403594690E+02  0.42126950808E+02  0.51100000000E-03 0.  1.
         12    1    3    3    0    0 -0.13570573256E+02  0.32472574393E+02 -0.17543866343E+02  0.39324493544E+02  0.00000000000E+00 0. -1.
</event>
<event>
 7    1  0.1978681E-015  0.9000770E+02  0.7816164E-02  0.1186339E+00
        -11   -1    0    0    0    0  0.00000000000E+00  0.00000000000E+00  0.45593999997E+02  0.45594000000E+02  0.51100000000E-03 0.  1.
         11   -1    0    0    0    0 -0.00000000000E+00 -0.00000000000E+00 -0.45593999997E+02  0.45594000000E+02  0.51100000000E-03 0. -1.
    9900012    2    1    2    0    0 -0.21593201922E+00  0.37826844925E+00 -0.10969923464E+01  0.90007700943E+02  0.89999961795E+02 0.  0.
        -12    1    1    2    0    0  0.21593201922E+00 -0.37826844925E+00  0.10969923464E+01  0.11802990573E+01  0.00000000000E+00 0.  1.
         11    1    3    3    0    0  0.28109088780E+02  0.19049187757E+02 -0.23300980977E+02  0.41181648109E+02  0.51100000000E-03 0. -1.
        -11    1    3    3    0    0  0.50561759586E+01 -0.51989659786E-01  0.42103636101E+01  0.65798769168E+01  0.51100000000E-03 0.  1.
        -12    1    3    3    0    0 -0.33381196758E+02 -0.18618929648E+02  0.17993625021E+02  0.42246175917E+02  0.00000000000E+00 0.  1.
</event>
<event>
 7    1  0.1978681E-015  0.9000773E+02  0.7816164E-02  0.1186339E+00
        -11   -1    0    0    0    0  0.00000000000E+00  0.00000000000E+00  0.45593999997E+02  0.45594000000E+02  0.51100000000E-03 0. -1.
         11   -1    0    0    0    0 -0.00000000000E+00 -0.00000000000E+00 -0.45593999997E+02  0.45594000000E+02  0.51100000000E-03 0.  1.
    9900012    2    1    2    0    0  0.96684880819E+00 -0.16201276062E+00 -0.65726370908E+00  0.90007728702E+02  0.89999989921E+02 0.  0.
        -12    1    1    2    0    0 -0.96684880819E+00  0.16201276062E+00  0.65726370908E+00  0.11802712975E+01  0.00000000000E+00 0.  1.
         11    1    3    3    0    0  0.22613423823E+02  0.15239710716E+02 -0.27542191111E+02  0.38758070272E+02  0.51100000000E-03 0. -1.
        -11    1    3    3    0    0 -0.26166643668E+01  0.81177642871E+01 -0.26882841576E+01  0.89427010127E+01  0.51100000000E-03 0.  1.
        -12    1    3    3    0    0 -0.19029910649E+02 -0.23519487764E+02  0.29573211560E+02  0.42306957418E+02  0.00000000000E+00 0.  1.
</event>
<event>
 7    1  0.1978681E-015  0.9000776E+02  0.7816164E-02  0.1186339E+00
        -11   -1    0    0    0    0  0.00000000000E+00  0.00000000000E+00  0.45593999997E+02  0.45594000000E+02  0.51100000000E-03 0.  1.
         11   -1    0    0    0    0 -0.00000000000E+00 -0.00000000000E+00 -0.45593999997E+02  0.45594000000E+02  0.51100000000E-03 0. -1.
    9900012    2    1    2    0    0 -0.37328166321E+00 -0.85642427254E+00 -0.72122356212E+00  0.90007760549E+02  0.90000022188E+02 0.  0.
        -12    1    1    2    0    0  0.37328166321E+00  0.85642427254E+00  0.72122356212E+00  0.11802394508E+01  0.00000000000E+00 0.  1.
         11    1    3    3    0    0 -0.25867558405E+01  0.61282458262E+01  0.76000021823E+01  0.10099838420E+02  0.51100000000E-03 0. -1.
        -11    1    3    3    0    0  0.18802865842E+02  0.31945427967E+02 -0.57596398248E+01  0.37513085490E+02  0.51100000000E-03 0.  1.
         12    1    3    3    0    0 -0.16589391665E+02 -0.38930098065E+02 -0.25615859196E+01  0.42394836638E+02  0.00000000000E+00 0. -1.
</event>
<event>
 7    1  0.1978681E-015  0.9000776E+02  0.7816164E-02  0.1186339E+00
        -11   -1    0    0    0    0  0.00000000000E+00  0.00000000000E+00  0.45593999997E+02  0.45594000000E+02  0.51100000000E-03 0. -1.
         11   -1    0    0    0    0 -0.00000000000E+00 -0.00000000000E+00 -0.45593999997E+02  0.45594000000E+02  0.51100000000E-03 0.  1.
    9900012    2    1    2    0    0  0.21269825011E+00  0.49618180845E+00  0.10495385514E+01  0.90007759303E+02  0.90000020926E+02 0.  0.
        -12    1    1    2    0    0 -0.21269825011E+00 -0.49618180845E+00 -0.10495385514E+01  0.11802406973E+01  0.00000000000E+00 0.  1.
         11    1    3    3    0    0 -0.66695700180E+01 -0.22633013789E+01  0.85700443962E+01  0.11092851688E+02  0.51100000000E-03 0. -1.
        -11    1    3    3    0    0 -0.16741003441E+02 -0.25695550498E+02  0.16491065256E+02  0.34820651130E+02  0.51100000000E-03 0.  1.
         12    1    3    3    0    0  0.23623271709E+02  0.28455033685E+02 -0.24011571101E+02  0.44094256485E+02  0.00000000000E+00 0. -1.
</event>
<event>
 7    1  0.1978681E-015  0.9000780E+02  0.7816164E-02  0.1186339E+00
        -11   -1    0    0    0    0  0.00000000000E+00  0.00000000000E+00  0.45593999997E+02  0.45594000000E+02  0.51100000000E-03 0. -1.
         11   -1    0    0    0    0 -0.00000000000E+00 -0.00000000000E+00 -0.45593999997E+02  0.45594000000E+02  0.51100000000E-03 0.  1.
    9900012    2    1    2    0    0 -0.11423856844E+01 -0.23321439955E+00 -0.18286128392E+00  0.90007799908E+02  0.90000062067E+02 0.  0.
        -12    1    1    2    0    0  0.11423856844E+01  0.23321439955E+00  0.18286128392E+00  0.11802000921E+01  0.00000000000E+00 0.  1.
         11    1    3    3    0    0  0.42016565124E+01  0.30496971883E+01 -0.93272824913E+01  0.10674866244E+02  0.51100000000E-03 0. -1.
        -11    1    3    3    0    0 -0.22423560654E+02 -0.16057191127E+02 -0.26207322227E+02  0.38045672525E+02  0.51100000000E-03 0.  1.
         12    1    3    3    0    0  0.17079518457E+02  0.12774279539E+02  0.35351743435E+02  0.41287261139E+02  0.00000000000E+00 0. -1.
</event>
<event>
 7    1  0.1978681E-015  0.9000788E+02  0.7816164E-02  0.1186339E+00
        -11   -1    0    0    0    0  0.00000000000E+00  0.00000000000E+00  0.45593999997E+02  0.45594000000E+02  0.51100000000E-03 0. -1.
         11   -1    0    0    0    0 -0.00000000000E+00 -0.00000000000E+00 -0.45593999997E+02  0.45594000000E+02  0.51100000000E-03 0.  1.
    9900012    2    1    2    0    0 -0.96271377461E+00  0.22549431651E+00  0.64421346069E+00  0.90007882853E+02  0.90000146106E+02 0.  0.
        -12    1    1    2    0    0  0.96271377461E+00 -0.22549431651E+00 -0.64421346069E+00  0.11801171474E+01  0.00000000000E+00 0.  1.
         11    1    3    3    0    0  0.19984846103E+02  0.28314250756E+02  0.16011809048E+02  0.38176811010E+02  0.51100000000E-03 0. -1.
        -11    1    3    3    0    0 -0.55012362531E+01  0.61078926579E+01  0.45014541205E+01  0.93719284298E+01  0.51100000000E-03 0.  1.
        -12    1    3    3    0    0 -0.15446323624E+02 -0.34196649098E+02 -0.19869049708E+02  0.42459143413E+02  0.00000000000E+00 0.  1.
</event>
<event>
 7    1  0.1978681E-015  0.9000771E+02  0.7816164E-02  0.1186339E+00
        -11   -1    0    0    0    0  0.00000000000E+00  0.00000000000E+00  0.45593999997E+02  0.45594000000E+02  0.51100000000E-03 0.  1.
         11   -1    0    0    0    0 -0.00000000000E+00 -0.00000000000E+00 -0.45593999997E+02  0.45594000000E+02  0.51100000000E-03 0. -1.
    9900012    2    1    2    0    0  0.26565386619E+00 -0.11375545746E+00 -0.11443640587E+01  0.90007711315E+02  0.89999972304E+02 0.  0.
        -12    1    1    2    0    0 -0.26565386619E+00  0.11375545746E+00  0.11443640587E+01  0.11802886849E+01  0.00000000000E+00 0.  1.
         11    1    3    3    0    0 -0.17069707475E+02  0.23588991238E+02 -0.85713377530E+01  0.30352648189E+02  0.51100000000E-03 0. -1.
        -11    1    3    3    0    0 -0.17771065721E+02 -0.56560671239E+01 -0.28497275124E+01  0.18865916870E+02  0.51100000000E-03 0.  1.
        -12    1    3    3    0    0  0.35106427063E+02 -0.18046679572E+02  0.10276701207E+02  0.40789146257E+02  0.00000000000E+00 0.  1.
</event>
<event>
 7    1  0.1978681E-015  0.9000781E+02  0.7816164E-02  0.1186339E+00
        -11   -1    0    0    0    0  0.00000000000E+00  0.00000000000E+00  0.45593999997E+02  0.45594000000E+02  0.51100000000E-03 0. -1.
         11   -1    0    0    0    0 -0.00000000000E+00 -0.00000000000E+00 -0.45593999997E+02  0.45594000000E+02  0.51100000000E-03 0.  1.
    9900012    2    1    2    0    0  0.29181497316E+00  0.99915586491E+00  0.55621841020E+00  0.90007810464E+02  0.90000072762E+02 0.  0.
        -12    1    1    2    0    0 -0.29181497316E+00 -0.99915586491E+00 -0.55621841020E+00  0.11801895360E+01  0.00000000000E+00 0.  1.
         11    1    3    3    0    0  0.85792840291E+01 -0.12060418196E+02  0.30262425239E+02  0.33687864034E+02  0.51100000000E-03 0. -1.
        -11    1    3    3    0    0  0.15811037054E+02  0.65399506805E+01  0.51865727170E+00  0.17118085560E+02  0.51100000000E-03 0.  1.
        -12    1    3    3    0    0 -0.24098506110E+02  0.65196233807E+01 -0.30224864101E+02  0.39201860870E+02  0.00000000000E+00 0.  1.
</event>
<event>
 7    1  0.1978681E-015  0.9000788E+02  0.7816164E-02  0.1186339E+00
        -11   -1    0    0    0    0  0.00000000000E+00  0.00000000000E+00  0.45593999997E+02  0.45594000000E+02  0.51100000000E-03 0.  1.
         11   -1    0    0    0    0 -0.00000000000E+00 -0.00000000000E+00 -0.45593999997E+02  0.45594000000E+02  0.51100000000E-03 0. -1.
    9900012    2    1    2    0    0 -0.22952070637E+00  0.70770547071E+00 -0.91606030955E+00  0.90007875736E+02  0.90000138896E+02 0.  0.
        -12    1    1    2    0    0  0.22952070637E+00 -0.70770547071E+00  0.91606030955E+00  0.11801242641E+01  0.00000000000E+00 0.  1.
         11    1    3    3    0    0  0.33935883134E+01 -0.37321787022E+02  0.13056782237E+02  0.39685158319E+02  0.51100000000E-03 0. -1.
        -11    1    3    3    0    0 -0.52018268022E+01 -0.30240215940E+01 -0.59515529381E+01  0.84631372030E+01  0.51100000000E-03 0.  1.
        -12    1    3    3    0    0  0.15787177825E+01  0.41053514087E+02 -0.80212896089E+01  0.41859580214E+02  0.00000000000E+00 0.  1.
</event>
<event>
 7    1  0.1978681E-015  0.9000780E+02  0.7816164E-02  0.1186339E+00
        -11   -1    0    0    0    0  0.00000000000E+00  0.00000000000E+00  0.45593999997E+02  0.45594000000E+02  0.51100000000E-03 0.  1.
         11   -1    0    0    0    0 -0.00000000000E+00 -0.00000000000E+00 -0.45593999997E+02  0.45594000000E+02  0.51100000000E-03 0. -1.
    9900012    2    1    2    0    0  0.16576956909E+00 -0.81366710845E+00 -0.83865257833E+00  0.90007800076E+02  0.90000062237E+02 0.  0.
        -12    1    1    2    0    0 -0.16576956909E+00  0.81366710845E+00  0.83865257833E+00  0.11801999240E+01  0.00000000000E+00 0.  1.
         11    1    3    3    0    0  0.29257318698E+02 -0.85132528069E+01 -0.23210191817E+02  0.38303774947E+02  0.51100000000E-03 0. -1.
        -11    1    3    3    0    0  0.53128730949E+01  0.65360546447E+01  0.13899942795E+02  0.16252847160E+02  0.51100000000E-03 0.  1.
        -12    1    3    3    0    0 -0.34404422224E+02  0.11635310538E+01  0.84715964437E+01  0.35451177969E+02  0.00000000000E+00 0.  1.
</event>
<event>
 7    1  0.1978681E-015  0.9000752E+02  0.7816164E-02  0.1186339E+00
        -11   -1    0    0    0    0  0.00000000000E+00  0.00000000000E+00  0.45593999997E+02  0.45594000000E+02  0.51100000000E-03 0.  1.
         11   -1    0    0    0    0 -0.00000000000E+00 -0.00000000000E+00 -0.45593999997E+02  0.45594000000E+02  0.51100000000E-03 0. -1.
    9900012    2    1    2    0    0 -0.86285871158E+00  0.76945118920E+00  0.23866559103E+00  0.90007516390E+02  0.89999774806E+02 0.  0.
        -12    1    1    2    0    0  0.86285871158E+00 -0.76945118920E+00 -0.23866559103E+00  0.11804836098E+01  0.00000000000E+00 0.  1.
         11    1    3    3    0    0  0.33590901120E+01  0.51680887526E+00  0.12166047479E+02  0.12631836340E+02  0.51100000000E-03 0. -1.
        -11    1    3    3    0    0  0.26858253878E+01 -0.17857636792E+02  0.27812439592E+02  0.33160829998E+02  0.51100000000E-03 0.  1.
         12    1    3    3    0    0 -0.69077742113E+01  0.18110279106E+02 -0.39739821481E+02  0.44214850052E+02  0.00000000000E+00 0. -1.
</event>
<event>
 7    1  0.1978681E-015  0.9000784E+02  0.7816164E-02  0.1186339E+00
        -11   -1    0    0    0    0  0.00000000000E+00  0.00000000000E+00  0.45593999997E+02  0.45594000000E+02  0.51100000000E-03 0. -1.
         11   -1    0    0    0    0 -0.00000000000E+00 -0.00000000000E+00 -0.45593999997E+02  0.45594000000E+02  0.51100000000E-03 0.  1.
    9900012    2    1    2    0    0  0.83526023708E+00 -0.47730915999E+00 -0.68358960690E+00  0.90007839651E+02  0.90000102335E+02 0.  0.
        -12    1    1    2    0    0 -0.83526023708E+00  0.47730915999E+00  0.68358960690E+00  0.11801603487E+01  0.00000000000E+00 0.  1.
         11    1    3    3    0    0 -0.19084919529E+02  0.24200127194E+02  0.58584628345E+01  0.31371992233E+02  0.51100000000E-03 0. -1.
        -11    1    3    3    0    0 -0.78587882306E+01  0.10690598070E+02 -0.22601762440E+01  0.13459488715E+02  0.51100000000E-03 0.  1.
        -12    1    3    3    0    0  0.27778967996E+02 -0.35368034424E+02 -0.42818761975E+01  0.45176358704E+02  0.00000000000E+00 0.  1.
</event>
<event>
 7    1  0.1978681E-015  0.9000786E+02  0.7816164E-02  0.1186339E+00
        -11   -1    0    0    0    0  0.00000000000E+00  0.00000000000E+00  0.45593999997E+02  0.45594000000E+02  0.51100000000E-03 0.  1.
         11   -1    0    0    0    0 -0.00000000000E+00 -0.00000000000E+00 -0.45593999997E+02  0.45594000000E+02  0.51100000000E-03 0. -1.
    9900012    2    1    2    0    0  0.21186669373E+00  0.89549820146E+00  0.73886115043E+00  0.90007864277E+02  0.90000127286E+02 0.  0.
        -12    1    1    2    0    0 -0.21186669373E+00 -0.89549820146E+00 -0.73886115043E+00  0.11801357228E+01  0.00000000000E+00 0.  1.
         11    1    3    3    0    0 -0.90295603883E+01  0.48296749509E+01 -0.22583851898E+01  0.10486134887E+02  0.51100000000E-03 0. -1.
        -11    1    3    3    0    0 -0.20194597053E+02 -0.28758231969E+02 -0.13481439762E+02  0.37637838333E+02  0.51100000000E-03 0.  1.
         12    1    3    3    0    0  0.29436024135E+02  0.24824055219E+02  0.16478686102E+02  0.41883891057E+02  0.00000000000E+00 0. -1.
</event>
<event>
 7    1  0.1978681E-015  0.9000776E+02  0.7816164E-02  0.1186339E+00
        -11   -1    0    0    0    0  0.00000000000E+00  0.00000000000E+00  0.45593999997E+02  0.45594000000E+02  0.51100000000E-03 0.  1.
         11   -1    0    0    0    0 -0.00000000000E+00 -0.00000000000E+00 -0.45593999997E+02  0.45594000000E+02  0.51100000000E-03 0. -1.
    9900012    2    1    2    0    0  0.39842985579E+00 -0.88859845080E+00 -0.66678962087E+00  0.90007761907E+02  0.90000023565E+02 0.  0.
        -12    1    1    2    0    0 -0.39842985579E+00  0.88859845080E+00  0.66678962087E+00  0.11802380926E+01  0.00000000000E+00 0.  1.
         11    1    3    3    0    0  0.38938631989E+01 -0.10148711267E+02 -0.31577016729E+01  0.11319434222E+02  0.51100000000E-03 0. -1.
        -11    1    3    3    0    0  0.19187849173E+01 -0.48647005765E+01  0.38906234579E+02  0.39256109545E+02  0.51100000000E-03 0.  1.
         12    1    3    3    0    0 -0.54142182604E+01  0.14124813393E+02 -0.36415322526E+02  0.39432218140E+02  0.00000000000E+00 0. -1.
</event>
<event>
 7    1  0.1978681E-015  0.9000745E+02  0.7816164E-02  0.1186340E+00
        -11   -1    0    0    0    0  0.00000000000E+00  0.00000000000E+00  0.45593999997E+02  0.45594000000E+02  0.51100000000E-03 0. -1.
         11   -1    0    0    0    0 -0.00000000000E+00 -0.00000000000E+00 -0.45593999997E+02  0.45594000000E+02  0.51100000000E-03 0.  1.
    9900012    2    1    2    0    0 -0.11230879365E+01  0.90116891367E-01 -0.35250169217E+00  0.90007447159E+02  0.89999704661E+02 0.  0.
        -12    1    1    2    0    0  0.11230879365E+01 -0.90116891367E-01  0.35250169217E+00  0.11805528409E+01  0.00000000000E+00 0.  1.
         11    1    3    3    0    0  0.83686089786E+01 -0.13510577456E+02  0.34746925077E+02  0.38208874911E+02  0.51100000000E-03 0. -1.
        -11    1    3    3    0    0 -0.10209246096E+02 -0.85499277492E+00  0.32989374169E+01  0.10763024985E+02  0.51100000000E-03 0.  1.
        -12    1    3    3    0    0  0.71754918061E+00  0.14455687123E+02 -0.38398364186E+02  0.41035547263E+02  0.00000000000E+00 0.  1.
</event>
<event>
 7    1  0.1992707E-015  0.9000775E+02  0.7816164E-02  0.1186339E+00
        -11   -1    0    0    0    0  0.00000000000E+00  0.00000000000E+00  0.45593999997E+02  0.45594000000E+02  0.51100000000E-03 0.  1.
         11   -1    0    0    0    0 -0.00000000000E+00 -0.00000000000E+00 -0.45593999997E+02  0.45594000000E+02  0.51100000000E-03 0. -1.
    9900012    2    1    2    0    0 -0.54378376017E+00 -0.67834513321E+00 -0.79821524054E+00  0.90007745592E+02  0.90000007034E+02 0.  0.
        -12    1    1    2    0    0  0.54378376017E+00  0.67834513321E+00  0.79821524054E+00  0.11802544081E+01  0.00000000000E+00 0.  1.
         11    1    3    3    0    0  0.78290523928E+01 -0.33281639232E+01  0.19755468759E+01  0.87334713710E+01  0.51100000000E-03 0. -1.
        -11    1    3    3    0    0  0.10857362674E+02  0.41962240075E+01  0.36070962602E+02  0.37902571990E+02  0.51100000000E-03 0.  1.
         12    1    3    3    0    0 -0.19230198827E+02 -0.15464052176E+01 -0.38844724718E+02  0.43371702231E+02  0.00000000000E+00 0. -1.
</event>
<event>
 7    1  0.1978681E-015  0.9000776E+02  0.7816164E-02  0.1186339E+00
        -11   -1    0    0    0    0  0.00000000000E+00  0.00000000000E+00  0.45593999997E+02  0.45594000000E+02  0.51100000000E-03 0. -1.
         11   -1    0    0    0    0 -0.00000000000E+00 -0.00000000000E+00 -0.45593999997E+02  0.45594000000E+02  0.51100000000E-03 0.  1.
    9900012    2    1    2    0    0 -0.52372786299E+00 -0.72393192827E+00  0.77110514974E+00  0.90007757879E+02  0.90000019483E+02 0.  0.
        -12    1    1    2    0    0  0.52372786299E+00  0.72393192827E+00 -0.77110514974E+00  0.11802421206E+01  0.00000000000E+00 0.  1.
         11    1    3    3    0    0  0.53477915891E+01 -0.64888738258E+01 -0.61122718925E+01  0.10395394478E+02  0.51100000000E-03 0. -1.
        -11    1    3    3    0    0 -0.29404900826E+02 -0.26203703340E+02  0.38992533542E+00  0.39388250828E+02  0.51100000000E-03 0.  1.
         12    1    3    3    0    0  0.23533381374E+02  0.31968645237E+02  0.64934517069E+01  0.40224112573E+02  0.00000000000E+00 0. -1.
</event>
<event>
 7    1  0.1978681E-015  0.9000768E+02  0.7816164E-02  0.1186339E+00
        -11   -1    0    0    0    0  0.00000000000E+00  0.00000000000E+00  0.45593999997E+02  0.45594000000E+02  0.51100000000E-03 0. -1.
         11   -1    0    0    0    0 -0.00000000000E+00 -0.00000000000E+00 -0.45593999997E+02  0.45594000000E+02  0.51100000000E-03 0.  1.
    9900012    2    1    2    0    0 -0.43413744861E+00 -0.52997859558E+00  0.96115248417E+00  0.90007675157E+02  0.89999935670E+02 0.  0.
        -12    1    1    2    0    0  0.43413744861E+00  0.52997859558E+00 -0.96115248417E+00  0.11803248425E+01  0.00000000000E+00 0.  1.
         11    1    3    3    0    0 -0.71562262448E+01 -0.26223250909E+01 -0.79672276662E+01  0.11025646462E+02  0.51100000000E-03 0. -1.
        -11    1    3    3    0    0  0.26790012234E-01  0.38799954739E+02 -0.50691932362E+01  0.39129706436E+02  0.51100000000E-03 0.  1.
         12    1    3    3    0    0  0.66952987840E+01 -0.36707608244E+02  0.13997573387E+02  0.39852322260E+02  0.00000000000E+00 0. -1.
</event>
<event>
 7    1  0.1978681E-015  0.9000778E+02  0.7816164E-02  0.1186339E+00
        -11   -1    0    0    0    0  0.00000000000E+00  0.00000000000E+00  0.45593999997E+02  0.45594000000E+02  0.51100000000E-03 0.  1.
         11   -1    0    0    0    0 -0.00000000000E+00 -0.00000000000E+00 -0.45593999997E+02  0.45594000000E+02  0.51100000000E-03 0. -1.
    9900012    2    1    2    0    0 -0.70197058012E+00  0.12559631411E+00 -0.94042178612E+00  0.90007775333E+02  0.90000037167E+02 0.  0.
        -12    1    1    2    0    0  0.70197058012E+00 -0.12559631411E+00  0.94042178612E+00  0.11802246673E+01  0.00000000000E+00 0.  1.
         11    1    3    3    0    0  0.42930685248E+01  0.80053987506E+01 -0.34261065563E+00  0.90903371135E+01  0.51100000000E-03 0. -1.
        -11    1    3    3    0    0  0.21807834110E+02  0.23151978838E+02  0.17266885500E+02  0.36190345229E+02  0.51100000000E-03 0.  1.
         12    1    3    3    0    0 -0.26802873215E+02 -0.31031781274E+02 -0.17864696630E+02  0.44727092990E+02  0.00000000000E+00 0. -1.
</event>
<event>
 7    1  0.1978681E-015  0.9000771E+02  0.7816164E-02  0.1186339E+00
        -11   -1    0    0    0    0  0.00000000000E+00  0.00000000000E+00  0.45593999997E+02  0.45594000000E+02  0.51100000000E-03 0. -1.
         11   -1    0    0    0    0 -0.00000000000E+00 -0.00000000000E+00 -0.45593999997E+02  0.45594000000E+02  0.51100000000E-03 0.  1.
    9900012    2    1    2    0    0  0.61536654507E+00  0.33718240659E+00 -0.94906429341E+00  0.90007707243E+02  0.89999968178E+02 0.  0.
        -12    1    1    2    0    0 -0.61536654507E+00 -0.33718240659E+00  0.94906429341E+00  0.11802927574E+01  0.00000000000E+00 0.  1.
         11    1    3    3    0    0 -0.80205108750E+00  0.62355315425E+01  0.84110317345E+01  0.10500980652E+02  0.51100000000E-03 0. -1.
        -11    1    3    3    0    0 -0.29361142539E+02  0.21611818901E+02  0.25364954726E+01  0.36545604619E+02  0.51100000000E-03 0.  1.
         12    1    3    3    0    0  0.30778560172E+02 -0.27510168037E+02 -0.11896591500E+02  0.42961121971E+02  0.00000000000E+00 0. -1.
</event>
<event>
 7    1  0.1978681E-015  0.9000755E+02  0.7816164E-02  0.1186339E+00
        -11   -1    0    0    0    0  0.00000000000E+00  0.00000000000E+00  0.45593999997E+02  0.45594000000E+02  0.51100000000E-03 0.  1.
         11   -1    0    0    0    0 -0.00000000000E+00 -0.00000000000E+00 -0.45593999997E+02  0.45594000000E+02  0.51100000000E-03 0. -1.
    9900012    2    1    2    0    0  0.13076322336E+00  0.10157985222E+01 -0.58696347991E+00  0.90007545941E+02  0.89999804747E+02 0.  0.
        -12    1    1    2    0    0 -0.13076322336E+00 -0.10157985222E+01  0.58696347991E+00  0.11804540589E+01  0.00000000000E+00 0.  1.
         11    1    3    3    0    0  0.27077378344E+01 -0.76032576116E+01 -0.19331269123E+01  0.82992981877E+01  0.51100000000E-03 0. -1.
        -11    1    3    3    0    0 -0.16904925666E+02  0.83302797637E+01  0.37964886158E+02  0.42385170213E+02  0.51100000000E-03 0.  1.
         12    1    3    3    0    0  0.14327951055E+02  0.28877637010E+00 -0.36618722725E+02  0.39323077541E+02  0.00000000000E+00 0. -1.
</event>
<event>
 7    1  0.1978681E-015  0.9000769E+02  0.7816164E-02  0.1186339E+00
        -11   -1    0    0    0    0  0.00000000000E+00  0.00000000000E+00  0.45593999997E+02  0.45594000000E+02  0.51100000000E-03 0.  1.
         11   -1    0    0    0    0 -0.00000000000E+00 -0.00000000000E+00 -0.45593999997E+02  0.45594000000E+02  0.51100000000E-03 0. -1.
    9900012    2    1    2    0    0  0.97289987135E-01 -0.81368311580E+00 -0.84945759933E+00  0.90007693359E+02  0.89999954111E+02 0.  0.
        -12    1    1    2    0    0 -0.97289987135E-01  0.81368311580E+00  0.84945759933E+00  0.11803066413E+01  0.00000000000E+00 0.  1.
         11    1    3    3    0    0  0.93153245558E+01 -0.34457709085E+01  0.23526222940E+01  0.10207028983E+02  0.51100000000E-03 0. -1.
        -11    1    3    3    0    0 -0.15021813350E+02  0.88336768583E+01 -0.39155065277E+02  0.42857996456E+02  0.51100000000E-03 0.  1.
         12    1    3    3    0    0  0.58037787810E+01 -0.62015890656E+01  0.35952985383E+02  0.36942667920E+02  0.00000000000E+00 0. -1.
</event>
<event>
 7    1  0.1978681E-015  0.9000740E+02  0.7816164E-02  0.1186340E+00
        -11   -1    0    0    0    0  0.00000000000E+00  0.00000000000E+00  0.45593999997E+02  0.45594000000E+02  0.51100000000E-03 0.  1.
         11   -1    0    0    0    0 -0.00000000000E+00 -0.00000000000E+00 -0.45593999997E+02  0.45594000000E+02  0.51100000000E-03 0. -1.
    9900012    2    1    2    0    0 -0.63832606084E+00  0.68508202771E+00 -0.71904009392E+00  0.90007400067E+02  0.89999656947E+02 0.  0.
        -12    1    1    2    0    0  0.63832606084E+00 -0.68508202771E+00  0.71904009392E+00  0.11805999328E+01  0.00000000000E+00 0.  1.
         11    1    3    3    0    0 -0.27591598213E+02  0.13703334825E+02 -0.20902478130E+02  0.37228903684E+02  0.51100000000E-03 0. -1.
        -11    1    3    3    0    0  0.46534052577E+01  0.54882572901E+01 -0.90860695580E+01  0.11590160001E+02  0.51100000000E-03 0.  1.
        -12    1    3    3    0    0  0.22299866894E+02 -0.18506510087E+02  0.29269507595E+02  0.41188336382E+02  0.00000000000E+00 0.  1.
</event>
<event>
 7    1  0.1978681E-015  0.9000778E+02  0.7816164E-02  0.1186339E+00
        -11   -1    0    0    0    0  0.00000000000E+00  0.00000000000E+00  0.45593999997E+02  0.45594000000E+02  0.51100000000E-03 0. -1.
         11   -1    0    0    0    0 -0.00000000000E+00 -0.00000000000E+00 -0.45593999997E+02  0.45594000000E+02  0.51100000000E-03 0.  1.
    9900012    2    1    2    0    0  0.10924665636E+01 -0.28075617141E+00  0.34727810824E+00  0.90007784213E+02  0.90000046164E+02 0.  0.
        -12    1    1    2    0    0 -0.10924665636E+01  0.28075617141E+00 -0.34727810824E+00  0.11802157874E+01  0.00000000000E+00 0.  1.
         11    1    3    3    0    0 -0.62770122599E+01 -0.29922263485E+02  0.20281118906E+02  0.36688779202E+02  0.51100000000E-03 0. -1.
        -11    1    3    3    0    0  0.65371208762E+01 -0.43464069347E+01  0.65493060275E+01  0.10223434467E+02  0.51100000000E-03 0.  1.
        -12    1    3    3    0    0  0.83235794732E+00  0.33987914249E+02 -0.26483146825E+02  0.43095570544E+02  0.00000000000E+00 0.  1.
</event>
<event>
 7    1  0.1978681E-015  0.9000776E+02  0.7816164E-02  0.1186339E+00
        -11   -1    0    0    0    0  0.00000000000E+00  0.00000000000E+00  0.45593999997E+02  0.45594000000E+02  0.51100000000E-03 0. -1.
         11   -1    0    0    0    0 -0.00000000000E+00 -0.00000000000E+00 -0.45593999997E+02  0.45594000000E+02  0.51100000000E-03 0.  1.
    9900012    2    1    2    0    0  0.84856613776E+00 -0.58352159062E+00  0.57654505350E+00  0.90007760136E+02  0.90000021770E+02 0.  0.
        -12    1    1    2    0    0 -0.84856613776E+00  0.58352159062E+00 -0.57654505350E+00  0.11802398636E+01  0.00000000000E+00 0.  1.
         11    1    3    3    0    0 -0.69446811079E+01  0.38093084931E+02 -0.94190068369E+01  0.39850086641E+02  0.51100000000E-03 0. -1.
        -11    1    3    3    0    0 -0.52328542188E+01  0.61097274404E+00  0.68582361289E+01  0.86482052491E+01  0.51100000000E-03 0.  1.
        -12    1    3    3    0    0  0.13026101464E+02 -0.39287579266E+02  0.31373157615E+01  0.41509468246E+02  0.00000000000E+00 0.  1.
</event>
<event>
 7    1  0.1978681E-015  0.9000773E+02  0.7816164E-02  0.1186339E+00
        -11   -1    0    0    0    0  0.00000000000E+00  0.00000000000E+00  0.45593999997E+02  0.45594000000E+02  0.51100000000E-03 0. -1.
         11   -1    0    0    0    0 -0.00000000000E+00 -0.00000000000E+00 -0.45593999997E+02  0.45594000000E+02  0.51100000000E-03 0.  1.
    9900012    2    1    2    0    0 -0.19120837192E+00  0.10225103500E+01  0.55762020239E+00  0.90007733781E+02  0.89999995067E+02 0.  0.
        -12    1    1    2    0    0  0.19120837192E+00 -0.10225103500E+01 -0.55762020239E+00  0.11802662189E+01  0.00000000000E+00 0.  1.
         11    1    3    3    0    0  0.16920430378E+01  0.63771626913E+01  0.79884382030E+01  0.10360808792E+02  0.51100000000E-03 0. -1.
        -11    1    3    3    0    0 -0.17565571215E+02  0.29419563764E+02 -0.19763923724E+02  0.39555943996E+02  0.51100000000E-03 0.  1.
         12    1    3    3    0    0  0.15682319805E+02 -0.34774216106E+02  0.12333105723E+02  0.40090980993E+02  0.00000000000E+00 0. -1.
</event>
<event>
 7    1  0.1978681E-015  0.9000773E+02  0.7816164E-02  0.1186339E+00
        -11   -1    0    0    0    0  0.00000000000E+00  0.00000000000E+00  0.45593999997E+02  0.45594000000E+02  0.51100000000E-03 0. -1.
         11   -1    0    0    0    0 -0.00000000000E+00 -0.00000000000E+00 -0.45593999997E+02  0.45594000000E+02  0.51100000000E-03 0.  1.
    9900012    2    1    2    0    0  0.83203899819E+00  0.81396736902E+00 -0.19546604816E+00  0.90007729375E+02  0.89999990603E+02 0.  0.
        -12    1    1    2    0    0 -0.83203899819E+00 -0.81396736902E+00  0.19546604816E+00  0.11802706250E+01  0.00000000000E+00 0.  1.
         11    1    3    3    0    0 -0.72123229784E+01  0.93848159350E+00 -0.16651638270E+00  0.72750311623E+01  0.51100000000E-03 0. -1.
        -11    1    3    3    0    0 -0.24057568271E+02  0.29013791090E+02 -0.83080347770E+01  0.38595208338E+02  0.51100000000E-03 0.  1.
         12    1    3    3    0    0  0.32101930248E+02 -0.29138305314E+02  0.82790851115E+01  0.44137489875E+02  0.00000000000E+00 0. -1.
</event>
<event>
 7    1  0.1978681E-015  0.9000774E+02  0.7816164E-02  0.1186339E+00
        -11   -1    0    0    0    0  0.00000000000E+00  0.00000000000E+00  0.45593999997E+02  0.45594000000E+02  0.51100000000E-03 0. -1.
         11   -1    0    0    0    0 -0.00000000000E+00 -0.00000000000E+00 -0.45593999997E+02  0.45594000000E+02  0.51100000000E-03 0.  1.
    9900012    2    1    2    0    0 -0.24265325894E+00  0.42157709168E+00  0.10753670420E+01  0.90007736418E+02  0.89999997739E+02 0.  0.
        -12    1    1    2    0    0  0.24265325894E+00 -0.42157709168E+00 -0.10753670420E+01  0.11802635821E+01  0.00000000000E+00 0.  1.
         11    1    3    3    0    0 -0.55365500402E+01  0.69170647088E+01  0.15137130027E+01  0.89883534559E+01  0.51100000000E-03 0. -1.
        -11    1    3    3    0    0  0.34443195946E+02  0.15829079272E+02  0.15551704688E+02  0.40972539786E+02  0.51100000000E-03 0.  1.
         12    1    3    3    0    0 -0.29149299165E+02 -0.22324566889E+02 -0.15990050649E+02  0.40046843176E+02  0.00000000000E+00 0. -1.
</event>
<event>
 7    1  0.1978681E-015  0.9000794E+02  0.7816164E-02  0.1186339E+00
        -11   -1    0    0    0    0  0.00000000000E+00  0.00000000000E+00  0.45593999997E+02  0.45594000000E+02  0.51100000000E-03 0.  1.
         11   -1    0    0    0    0 -0.00000000000E+00 -0.00000000000E+00 -0.45593999997E+02  0.45594000000E+02  0.51100000000E-03 0. -1.
    9900012    2    1    2    0    0 -0.45691083506E+00  0.39688420900E+00 -0.10130478235E+01  0.90007936239E+02  0.90000200197E+02 0.  0.
        -12    1    1    2    0    0  0.45691083506E+00 -0.39688420900E+00  0.10130478235E+01  0.11800637607E+01  0.00000000000E+00 0.  1.
         11    1    3    3    0    0 -0.73802623656E+01 -0.13808941852E+02 -0.34889530187E+02  0.38241789506E+02  0.51100000000E-03 0. -1.
        -11    1    3    3    0    0 -0.29863306840E+01 -0.93630171578E+01  0.66085983915E+00  0.98499237174E+01  0.51100000000E-03 0.  1.
        -12    1    3    3    0    0  0.99096822146E+01  0.23568843218E+02  0.33215622525E+02  0.41916223016E+02  0.00000000000E+00 0.  1.
</event>
<event>
 7    1  0.1978681E-015  0.9000764E+02  0.7816164E-02  0.1186339E+00
        -11   -1    0    0    0    0  0.00000000000E+00  0.00000000000E+00  0.45593999997E+02  0.45594000000E+02  0.51100000000E-03 0. -1.
         11   -1    0    0    0    0 -0.00000000000E+00 -0.00000000000E+00 -0.45593999997E+02  0.45594000000E+02  0.51100000000E-03 0.  1.
    9900012    2    1    2    0    0 -0.72159195336E+00  0.81209052309E+00  0.46158122983E+00  0.90007642767E+02  0.89999902852E+02 0.  0.
        -12    1    1    2    0    0  0.72159195336E+00 -0.81209052309E+00 -0.46158122983E+00  0.11803572326E+01  0.00000000000E+00 0.  1.
         11    1    3    3    0    0 -0.12570328166E+02  0.33483976684E+02  0.18610048659E+02  0.40317784613E+02  0.51100000000E-03 0. -1.
        -11    1    3    3    0    0 -0.74787490128E+01  0.16930751276E+00  0.42232989148E-02  0.74806664093E+01  0.51100000000E-03 0.  1.
        -12    1    3    3    0    0  0.19327485226E+02 -0.32841193673E+02 -0.18152690729E+02  0.42209191745E+02  0.00000000000E+00 0.  1.
</event>
<event>
 7    1  0.1978681E-015  0.9000781E+02  0.7816164E-02  0.1186339E+00
        -11   -1    0    0    0    0  0.00000000000E+00  0.00000000000E+00  0.45593999997E+02  0.45594000000E+02  0.51100000000E-03 0.  1.
         11   -1    0    0    0    0 -0.00000000000E+00 -0.00000000000E+00 -0.45593999997E+02  0.45594000000E+02  0.51100000000E-03 0. -1.
    9900012    2    1    2    0    0  0.54653331819E-01  0.92960413043E+00  0.72505683206E+00  0.90007805848E+02  0.90000068085E+02 0.  0.
        -12    1    1    2    0    0 -0.54653331819E-01 -0.92960413043E+00 -0.72505683206E+00  0.11801941517E+01  0.00000000000E+00 0.  1.
         11    1    3    3    0    0 -0.24576394613E+01  0.23938592349E+01  0.99065398975E+01  0.10483801160E+02  0.51100000000E-03 0. -1.
        -11    1    3    3    0    0  0.25873694850E+02 -0.23228661861E+02  0.16558071634E+02  0.38512187078E+02  0.51100000000E-03 0.  1.
         12    1    3    3    0    0 -0.23361402057E+02  0.21764406756E+02 -0.25739554700E+02  0.41011817610E+02  0.00000000000E+00 0. -1.
</event>
<event>
 7    1  0.1978681E-015  0.9000785E+02  0.7816164E-02  0.1186339E+00
        -11   -1    0    0    0    0  0.00000000000E+00  0.00000000000E+00  0.45593999997E+02  0.45594000000E+02  0.51100000000E-03 0. -1.
         11   -1    0    0    0    0 -0.00000000000E+00 -0.00000000000E+00 -0.45593999997E+02  0.45594000000E+02  0.51100000000E-03 0.  1.
    9900012    2    1    2    0    0 -0.13330405965E+00  0.35495081295E+00  0.11175879267E+01  0.90007846270E+02  0.90000109041E+02 0.  0.
        -12    1    1    2    0    0  0.13330405965E+00 -0.35495081295E+00 -0.11175879267E+01  0.11801537297E+01  0.00000000000E+00 0.  1.
         11    1    3    3    0    0  0.34485576000E+02  0.51117356018E-01  0.39298033387E+01  0.34708801760E+02  0.51100000000E-03 0. -1.
        -11    1    3    3    0    0  0.61141196515E+01 -0.37326901642E-01  0.10749217615E+02  0.12366468049E+02  0.51100000000E-03 0.  1.
        -12    1    3    3    0    0 -0.40732999711E+02  0.34116035857E+00 -0.13561433027E+02  0.42932576462E+02  0.00000000000E+00 0.  1.
</event>
<event>
 7    1  0.1978681E-015  0.9000774E+02  0.7816164E-02  0.1186339E+00
        -11   -1    0    0    0    0  0.00000000000E+00  0.00000000000E+00  0.45593999997E+02  0.45594000000E+02  0.51100000000E-03 0.  1.
         11   -1    0    0    0    0 -0.00000000000E+00 -0.00000000000E+00 -0.45593999997E+02  0.45594000000E+02  0.51100000000E-03 0. -1.
    9900012    2    1    2    0    0 -0.99700841681E+00  0.62274330599E+00 -0.10569343241E+00  0.90007743202E+02  0.90000004612E+02 0.  0.
        -12    1    1    2    0    0  0.99700841681E+00 -0.62274330599E+00  0.10569343241E+00  0.11802567983E+01  0.00000000000E+00 0.  1.
         11    1    3    3    0    0  0.88014204908E+01 -0.19161989642E+02 -0.22216453745E+02  0.30630338996E+02  0.51100000000E-03 0. -1.
        -11    1    3    3    0    0  0.55083211336E+00 -0.31957605522E+01 -0.14539975436E+02  0.14897220797E+02  0.51100000000E-03 0.  1.
        -12    1    3    3    0    0 -0.10349261021E+02  0.22980493501E+02  0.36650735749E+02  0.44480183409E+02  0.00000000000E+00 0.  1.
</event>
<event>
 7    1  0.1978681E-015  0.9000775E+02  0.7816164E-02  0.1186339E+00
        -11   -1    0    0    0    0  0.00000000000E+00  0.00000000000E+00  0.45593999997E+02  0.45594000000E+02  0.51100000000E-03 0.  1.
         11   -1    0    0    0    0 -0.00000000000E+00 -0.00000000000E+00 -0.45593999997E+02  0.45594000000E+02  0.51100000000E-03 0. -1.
    9900012    2    1    2    0    0 -0.46676387006E+00 -0.79472952764E+00  0.73723544560E+00  0.90007754418E+02  0.90000015976E+02 0.  0.
        -12    1    1    2    0    0  0.46676387006E+00  0.79472952764E+00 -0.73723544560E+00  0.11802455824E+01  0.00000000000E+00 0.  1.
         11    1    3    3    0    0 -0.28118310222E+02  0.78790459996E+01  0.21428267253E+02  0.36220013436E+02  0.51100000000E-03 0. -1.
        -11    1    3    3    0    0 -0.67788688893E+01  0.51818636292E+00  0.61550567902E+01  0.91709489627E+01  0.51100000000E-03 0.  1.
        -12    1    3    3    0    0  0.34430415241E+02 -0.91919618901E+01 -0.26846088598E+02  0.44616792019E+02  0.00000000000E+00 0.  1.
</event>
<event>
 7    1  0.1978681E-015  0.9000788E+02  0.7816164E-02  0.1186339E+00
        -11   -1    0    0    0    0  0.00000000000E+00  0.00000000000E+00  0.45593999997E+02  0.45594000000E+02  0.51100000000E-03 0.  1.
         11   -1    0    0    0    0 -0.00000000000E+00 -0.00000000000E+00 -0.45593999997E+02  0.45594000000E+02  0.51100000000E-03 0. -1.
    9900012    2    1    2    0    0 -0.11619698005E+00  0.89469077614E+00 -0.76072231322E+00  0.90007884853E+02  0.90000148133E+02 0.  0.
        -12    1    1    2    0    0  0.11619698005E+00 -0.89469077614E+00  0.76072231322E+00  0.11801151473E+01  0.00000000000E+00 0.  1.
         11    1    3    3    0    0 -0.12397482422E+02  0.13982718994E+01 -0.16585277613E+01  0.12585843210E+02  0.51100000000E-03 0. -1.
        -11    1    3    3    0    0 -0.18725100292E+02 -0.27359357523E+01  0.29586253785E+02  0.35120665407E+02  0.51100000000E-03 0.  1.
         12    1    3    3    0    0  0.31006385734E+02  0.22323546290E+01 -0.28688448337E+02  0.42301376235E+02  0.00000000000E+00 0. -1.
</event>
<event>
 7    1  0.2486846E-015  0.9000773E+02  0.7816164E-02  0.1186339E+00
        -11   -1    0    0    0    0  0.00000000000E+00  0.00000000000E+00  0.45593999997E+02  0.45594000000E+02  0.51100000000E-03 0. -1.
         11   -1    0    0    0    0 -0.00000000000E+00 -0.00000000000E+00 -0.45593999997E+02  0.45594000000E+02  0.51100000000E-03 0.  1.
    9900012    2    1    2    0    0 -0.32515820767E-01  0.11301418078E+01  0.33877668379E+00  0.90007725699E+02  0.89999986878E+02 0.  0.
        -12    1    1    2    0    0  0.32515820767E-01 -0.11301418078E+01 -0.33877668379E+00  0.11802743011E+01  0.00000000000E+00 0.  1.
         11    1    3    3    0    0 -0.17149075477E+01 -0.44642936307E+01 -0.83910645220E+01  0.96581980509E+01  0.51100000000E-03 0. -1.
        -11    1    3    3    0    0 -0.43444101487E+01  0.25151086496E+02 -0.28257719906E+02  0.38078206182E+02  0.51100000000E-03 0.  1.
         12    1    3    3    0    0  0.60268018756E+01 -0.19556651058E+02  0.36987561112E+02  0.42271321466E+02  0.00000000000E+00 0. -1.
</event>
<event>
 7    1  0.1978681E-015  0.9000770E+02  0.7816164E-02  0.1186339E+00
        -11   -1    0    0    0    0  0.00000000000E+00  0.00000000000E+00  0.45593999997E+02  0.45594000000E+02  0.51100000000E-03 0. -1.
         11   -1    0    0    0    0 -0.00000000000E+00 -0.00000000000E+00 -0.45593999997E+02  0.45594000000E+02  0.51100000000E-03 0.  1.
    9900012    2    1    2    0    0  0.10548584598E+01 -0.35596735242E+00 -0.39201538293E+00  0.90007696994E+02  0.89999957794E+02 0.  0.
        -12    1    1    2    0    0 -0.10548584598E+01  0.35596735242E+00  0.39201538293E+00  0.11803030063E+01  0.00000000000E+00 0.  1.
         11    1    3    3    0    0  0.26768290946E+02  0.24158746281E+02 -0.28018297715E+01  0.36166789633E+02  0.51100000000E-03 0. -1.
        -11    1    3    3    0    0 -0.18155914532E+01  0.10876972360E+02 -0.48712179702E+00  0.11038214890E+02  0.51100000000E-03 0.  1.
        -12    1    3    3    0    0 -0.23897841033E+02 -0.35391685994E+02  0.28969361856E+01  0.42802692471E+02  0.00000000000E+00 0.  1.
</event>
<event>
 7    1  0.1978681E-015  0.9000777E+02  0.7816164E-02  0.1186339E+00
        -11   -1    0    0    0    0  0.00000000000E+00  0.00000000000E+00  0.45593999997E+02  0.45594000000E+02  0.51100000000E-03 0. -1.
         11   -1    0    0    0    0 -0.00000000000E+00 -0.00000000000E+00 -0.45593999997E+02  0.45594000000E+02  0.51100000000E-03 0.  1.
    9900012    2    1    2    0    0 -0.29885124675E+00  0.10084412574E+01  0.53542015531E+00  0.90007770963E+02  0.90000032740E+02 0.  0.
        -12    1    1    2    0    0  0.29885124675E+00 -0.10084412574E+01 -0.53542015531E+00  0.11802290371E+01  0.00000000000E+00 0.  1.
         11    1    3    3    0    0  0.50973297343E+01 -0.83986927745E+01 -0.33805665116E+01  0.10389852787E+02  0.51100000000E-03 0. -1.
        -11    1    3    3    0    0  0.29445873797E+01  0.59088424659E+01 -0.37066189726E+02  0.37649534329E+02  0.51100000000E-03 0.  1.
         12    1    3    3    0    0 -0.83407683607E+01  0.34982915659E+01  0.40982176393E+02  0.41968383846E+02  0.00000000000E+00 0. -1.
</event>
<event>
 7    1  0.1978681E-015  0.9000712E+02  0.7816164E-02  0.1186340E+00
        -11   -1    0    0    0    0  0.00000000000E+00  0.00000000000E+00  0.45593999997E+02  0.45594000000E+02  0.51100000000E-03 0. -1.
         11   -1    0    0    0    0 -0.00000000000E+00 -0.00000000000E+00 -0.45593999997E+02  0.45594000000E+02  0.51100000000E-03 0.  1.
    9900012    2    1    2    0    0 -0.10194288528E+01 -0.25812244777E+00  0.53722717790E+00  0.90007120910E+02  0.89999374104E+02 0.  0.
        -12    1    1    2    0    0  0.10194288528E+01  0.25812244777E+00 -0.53722717790E+00  0.11808790898E+01  0.00000000000E+00 0.  1.
         11    1    3    3    0    0  0.10722207599E+02  0.30176485724E+02 -0.16295651080E+02  0.35932356878E+02  0.51100000000E-03 0. -1.
        -11    1    3    3    0    0 -0.71160718894E+00  0.53018755980E+01 -0.76785566270E+01  0.93582317658E+01  0.51100000000E-03 0.  1.
        -12    1    3    3    0    0 -0.11030029263E+02 -0.35736483770E+02  0.24511434885E+02  0.44716532266E+02  0.00000000000E+00 0.  1.
</event>
<event>
 7    1  0.1978681E-015  0.9000760E+02  0.7816164E-02  0.1186339E+00
        -11   -1    0    0    0    0  0.00000000000E+00  0.00000000000E+00  0.45593999997E+02  0.45594000000E+02  0.51100000000E-03 0. -1.
         11   -1    0    0    0    0 -0.00000000000E+00 -0.00000000000E+00 -0.45593999997E+02  0.45594000000E+02  0.51100000000E-03 0.  1.
    9900012    2    1    2    0    0 -0.31377439023E+00  0.11303936582E+01  0.13074400368E+00  0.90007602531E+02  0.89999862084E+02 0.  0.
        -12    1    1    2    0    0  0.31377439023E+00 -0.11303936582E+01 -0.13074400368E+00  0.11803974691E+01  0.00000000000E+00 0.  1.
         11    1    3    3    0    0 -0.30492643673E+02  0.15466800816E+02  0.10829152493E+02  0.35864938166E+02  0.51100000000E-03 0. -1.
        -11    1    3    3    0    0  0.61843085005E+00  0.12598522391E+02  0.46548591242E+00  0.12622277946E+02  0.51100000000E-03 0.  1.
        -12    1    3    3    0    0  0.29560438433E+02 -0.26934929549E+02 -0.11163894402E+02  0.41520386419E+02  0.00000000000E+00 0.  1.
</event>
<event>
 7    1  0.1978681E-015  0.9000781E+02  0.7816164E-02  0.1186339E+00
        -11   -1    0    0    0    0  0.00000000000E+00  0.00000000000E+00  0.45593999997E+02  0.45594000000E+02  0.51100000000E-03 0. -1.
         11   -1    0    0    0    0 -0.00000000000E+00 -0.00000000000E+00 -0.45593999997E+02  0.45594000000E+02  0.51100000000E-03 0.  1.
    9900012    2    1    2    0    0  0.53751747424E+00  0.81034469270E+00 -0.66878351157E+00  0.90007807244E+02  0.90000069500E+02 0.  0.
        -12    1    1    2    0    0 -0.53751747424E+00 -0.81034469270E+00  0.66878351157E+00  0.11801927561E+01  0.00000000000E+00 0.  1.
         11    1    3    3    0    0 -0.30196663860E+02  0.75733162300E+01  0.22516503456E+02  0.38421173266E+02  0.51100000000E-03 0. -1.
        -11    1    3    3    0    0 -0.24321886848E+01 -0.63310354548E+01  0.47014110698E+01  0.82523219785E+01  0.51100000000E-03 0.  1.
        -12    1    3    3    0    0  0.33166370019E+02 -0.43193608258E+00 -0.27886698038E+02  0.43334311999E+02  0.00000000000E+00 0.  1.
</event>
<event>
 7    1  0.1978681E-015  0.9000771E+02  0.7816164E-02  0.1186339E+00
        -11   -1    0    0    0    0  0.00000000000E+00  0.00000000000E+00  0.45593999997E+02  0.45594000000E+02  0.51100000000E-03 0. -1.
         11   -1    0    0    0    0 -0.00000000000E+00 -0.00000000000E+00 -0.45593999997E+02  0.45594000000E+02  0.51100000000E-03 0.  1.
    9900012    2    1    2    0    0  0.60395201766E+00 -0.10080463124E+01  0.11028807296E+00  0.90007712380E+02  0.89999973383E+02 0.  0.
        -12    1    1    2    0    0 -0.60395201766E+00  0.10080463124E+01 -0.11028807296E+00  0.11802876203E+01  0.00000000000E+00 0.  1.
         11    1    3    3    0    0 -0.31462862065E+01  0.10886649597E+02 -0.90868924298E+01  0.14525490375E+02  0.51100000000E-03 0. -1.
        -11    1    3    3    0    0  0.14531892234E+02  0.23560497413E+02 -0.14743795377E+02  0.31363233772E+02  0.51100000000E-03 0.  1.
         12    1    3    3    0    0 -0.10781654010E+02 -0.35455193322E+02  0.23940975879E+02  0.44118988233E+02  0.00000000000E+00 0. -1.
</event>
<event>
 7    1  0.1978681E-015  0.9000820E+02  0.7816164E-02  0.1186338E+00
        -11   -1    0    0    0    0  0.00000000000E+00  0.00000000000E+00  0.45593999997E+02  0.45594000000E+02  0.51100000000E-03 0. -1.
         11   -1    0    0    0    0 -0.00000000000E+00 -0.00000000000E+00 -0.45593999997E+02  0.45594000000E+02  0.51100000000E-03 0.  1.
    9900012    2    1    2    0    0  0.34218545294E+00  0.11293140462E+00  0.11234206804E+01  0.90008204081E+02  0.90000471573E+02 0.  0.
        -12    1    1    2    0    0 -0.34218545294E+00 -0.11293140462E+00 -0.11234206804E+01  0.11797959194E+01  0.00000000000E+00 0.  1.
         11    1    3    3    0    0 -0.41274350720E+01 -0.29122602502E+02  0.26739806080E+02  0.39751464453E+02  0.51100000000E-03 0. -1.
        -11    1    3    3    0    0  0.83327442252E+00 -0.68764161729E+01 -0.46276261343E+01  0.83303282976E+01  0.51100000000E-03 0.  1.
        -12    1    3    3    0    0  0.36363461024E+01  0.36111950079E+02 -0.20988759265E+02  0.41926411330E+02  0.00000000000E+00 0.  1.
</event>
<event>
 7    1  0.1978681E-015  0.9000774E+02  0.7816164E-02  0.1186339E+00
        -11   -1    0    0    0    0  0.00000000000E+00  0.00000000000E+00  0.45593999997E+02  0.45594000000E+02  0.51100000000E-03 0.  1.
         11   -1    0    0    0    0 -0.00000000000E+00 -0.00000000000E+00 -0.45593999997E+02  0.45594000000E+02  0.51100000000E-03 0. -1.
    9900012    2    1    2    0    0 -0.77963460564E+00  0.24202029289E+00 -0.85242084574E+00  0.90007735098E+02  0.89999996401E+02 0.  0.
        -12    1    1    2    0    0  0.77963460564E+00 -0.24202029289E+00  0.85242084574E+00  0.11802649019E+01  0.00000000000E+00 0.  1.
         11    1    3    3    0    0  0.79277637665E+01 -0.52640890789E+01 -0.44413186886E+00  0.95266639253E+01  0.51100000000E-03 0. -1.
        -11    1    3    3    0    0 -0.71303016561E+01  0.25162164179E+02  0.32744665908E+02  0.41906906992E+02  0.51100000000E-03 0.  1.
         12    1    3    3    0    0 -0.15770967160E+01 -0.19656054807E+02 -0.33152954885E+02  0.38574164181E+02  0.00000000000E+00 0. -1.
</event>
<event>
 7    1  0.1978681E-015  0.9000773E+02  0.7816164E-02  0.1186339E+00
        -11   -1    0    0    0    0  0.00000000000E+00  0.00000000000E+00  0.45593999997E+02  0.45594000000E+02  0.51100000000E-03 0. -1.
         11   -1    0    0    0    0 -0.00000000000E+00 -0.00000000000E+00 -0.45593999997E+02  0.45594000000E+02  0.51100000000E-03 0.  1.
    9900012    2    1    2    0    0 -0.11748101847E+01  0.75859595829E-01 -0.84284014660E-01  0.90007729928E+02  0.89999991163E+02 0.  0.
        -12    1    1    2    0    0  0.11748101847E+01 -0.75859595829E-01  0.84284014660E-01  0.11802700723E+01  0.00000000000E+00 0.  1.
         11    1    3    3    0    0 -0.76613341870E+01 -0.48943396322E+01 -0.59122969918E+01  0.10844623458E+02  0.51100000000E-03 0. -1.
        -11    1    3    3    0    0 -0.11537597072E+02  0.27688856063E+02 -0.23358661071E+02  0.38018626271E+02  0.51100000000E-03 0.  1.
         12    1    3    3    0    0  0.18024121074E+02 -0.22718656835E+02  0.29186674048E+02  0.41144480199E+02  0.00000000000E+00 0. -1.
</event>
<event>
 7    1  0.1978681E-015  0.9000785E+02  0.7816164E-02  0.1186339E+00
        -11   -1    0    0    0    0  0.00000000000E+00  0.00000000000E+00  0.45593999997E+02  0.45594000000E+02  0.51100000000E-03 0. -1.
         11   -1    0    0    0    0 -0.00000000000E+00 -0.00000000000E+00 -0.45593999997E+02  0.45594000000E+02  0.51100000000E-03 0.  1.
    9900012    2    1    2    0    0  0.38232332818E+00 -0.96685078199E+00  0.55837676735E+00  0.90007849088E+02  0.90000111895E+02 0.  0.
        -12    1    1    2    0    0 -0.38232332818E+00  0.96685078199E+00 -0.55837676735E+00  0.11801509125E+01  0.00000000000E+00 0.  1.
         11    1    3    3    0    0 -0.30648075652E+02  0.22862409865E+02 -0.33008214909E+01  0.38378245776E+02  0.51100000000E-03 0. -1.
        -11    1    3    3    0    0 -0.67866667446E+01 -0.67423377814E+01  0.33256021736E+01  0.10128059752E+02  0.51100000000E-03 0.  1.
        -12    1    3    3    0    0  0.37817065725E+02 -0.17086922866E+02  0.53359608458E+00  0.41501543560E+02  0.00000000000E+00 0.  1.
</event>
<event>
 7    1  0.1978681E-015  0.9000785E+02  0.7816164E-02  0.1186339E+00
        -11   -1    0    0    0    0  0.00000000000E+00  0.00000000000E+00  0.45593999997E+02  0.45594000000E+02  0.51100000000E-03 0. -1.
         11   -1    0    0    0    0 -0.00000000000E+00 -0.00000000000E+00 -0.45593999997E+02  0.45594000000E+02  0.51100000000E-03 0.  1.
    9900012    2    1    2    0    0 -0.34266688021E+00 -0.73386858391E+00  0.85835500184E+00  0.90007848739E+02  0.90000111542E+02 0.  0.
        -12    1    1    2    0    0  0.34266688021E+00  0.73386858391E+00 -0.85835500184E+00  0.11801512608E+01  0.00000000000E+00 0.  1.
         11    1    3    3    0    0  0.20731871866E+02  0.29350828970E+02  0.95707603243E+01  0.37187109672E+02  0.51100000000E-03 0. -1.
        -11    1    3    3    0    0  0.90188168490E+01 -0.37295566546E+01  0.44254490280E+01  0.10716027695E+02  0.51100000000E-03 0.  1.
        -12    1    3    3    0    0 -0.30093355596E+02 -0.26355140899E+02 -0.13137854351E+02  0.42104711372E+02  0.00000000000E+00 0.  1.
</event>
<event>
 7    1  0.1978681E-015  0.9000765E+02  0.7816164E-02  0.1186339E+00
        -11   -1    0    0    0    0  0.00000000000E+00  0.00000000000E+00  0.45593999997E+02  0.45594000000E+02  0.51100000000E-03 0. -1.
         11   -1    0    0    0    0 -0.00000000000E+00 -0.00000000000E+00 -0.45593999997E+02  0.45594000000E+02  0.51100000000E-03 0.  1.
    9900012    2    1    2    0    0 -0.10630033561E+01  0.19138959002E+00  0.47604812226E+00  0.90007649237E+02  0.89999909406E+02 0.  0.
        -12    1    1    2    0    0  0.10630033561E+01 -0.19138959002E+00 -0.47604812226E+00  0.11803507635E+01  0.00000000000E+00 0.  1.
         11    1    3    3    0    0  0.60518562357E+01 -0.94203361306E+01 -0.75523679557E+01  0.13505775013E+02  0.51100000000E-03 0. -1.
        -11    1    3    3    0    0 -0.15086713354E+02 -0.12182282693E+02 -0.27751656503E+02  0.33855152789E+02  0.51100000000E-03 0.  1.
         12    1    3    3    0    0  0.79718537624E+01  0.21794008413E+02  0.35780072581E+02  0.42646721434E+02  0.00000000000E+00 0. -1.
</event>
<event>
 7    1  0.1978681E-015  0.9000776E+02  0.7816164E-02  0.1186339E+00
        -11   -1    0    0    0    0  0.00000000000E+00  0.00000000000E+00  0.45593999997E+02  0.45594000000E+02  0.51100000000E-03 0. -1.
         11   -1    0    0    0    0 -0.00000000000E+00 -0.00000000000E+00 -0.45593999997E+02  0.45594000000E+02  0.51100000000E-03 0.  1.
    9900012    2    1    2    0    0 -0.94030538816E+00 -0.15475784550E+00  0.69631194598E+00  0.90007756576E+02  0.90000018163E+02 0.  0.
        -12    1    1    2    0    0  0.94030538816E+00  0.15475784550E+00 -0.69631194598E+00  0.11802434240E+01  0.00000000000E+00 0.  1.
         11    1    3    3    0    0 -0.77973379151E+00  0.12029920795E+02  0.59529983794E+01  0.13444893792E+02  0.51100000000E-03 0. -1.
        -11    1    3    3    0    0 -0.30186755767E+02  0.45454173565E+01 -0.22676772787E+02  0.38028108906E+02  0.51100000000E-03 0.  1.
         12    1    3    3    0    0  0.30026184170E+02 -0.16730095997E+02  0.17420086353E+02  0.38534753878E+02  0.00000000000E+00 0. -1.
</event>
<event>
 7    1  0.1978681E-015  0.9000735E+02  0.7816164E-02  0.1186340E+00
        -11   -1    0    0    0    0  0.00000000000E+00  0.00000000000E+00  0.45593999997E+02  0.45594000000E+02  0.51100000000E-03 0.  1.
         11   -1    0    0    0    0 -0.00000000000E+00 -0.00000000000E+00 -0.45593999997E+02  0.45594000000E+02  0.51100000000E-03 0. -1.
    9900012    2    1    2    0    0 -0.62745073190E-01 -0.62151605704E+00 -0.10018574281E+01  0.90007348714E+02  0.89999604916E+02 0.  0.
        -12    1    1    2    0    0  0.62745073190E-01  0.62151605704E+00  0.10018574281E+01  0.11806512862E+01  0.00000000000E+00 0.  1.
         11    1    3    3    0    0  0.37053794302E+00 -0.97045477147E+01 -0.33113342879E+01  0.10260627649E+02  0.51100000000E-03 0. -1.
        -11    1    3    3    0    0 -0.38171768932E+02  0.73805641892E+01 -0.97664686629E+01  0.40086663388E+02  0.51100000000E-03 0.  1.
         12    1    3    3    0    0  0.37738485916E+02  0.17024674685E+01  0.12075945523E+02  0.39660057677E+02  0.00000000000E+00 0. -1.
</event>
<event>
 7    1  0.1978681E-015  0.9000771E+02  0.7816164E-02  0.1186339E+00
        -11   -1    0    0    0    0  0.00000000000E+00  0.00000000000E+00  0.45593999997E+02  0.45594000000E+02  0.51100000000E-03 0.  1.
         11   -1    0    0    0    0 -0.00000000000E+00 -0.00000000000E+00 -0.45593999997E+02  0.45594000000E+02  0.51100000000E-03 0. -1.
    9900012    2    1    2    0    0 -0.37813884434E+00 -0.49718142580E+00 -0.10014479515E+01  0.90007713444E+02  0.89999974461E+02 0.  0.
        -12    1    1    2    0    0  0.37813884434E+00  0.49718142580E+00  0.10014479515E+01  0.11802865564E+01  0.00000000000E+00 0.  1.
         11    1    3    3    0    0 -0.50772738042E+01 -0.83353431878E+01 -0.50550901571E+01  0.10991387178E+02  0.51100000000E-03 0. -1.
        -11    1    3    3    0    0  0.41352804371E+02  0.80748697331E+00  0.51387270722E+01  0.41678687368E+02  0.51100000000E-03 0.  1.
         12    1    3    3    0    0 -0.36653669411E+02  0.70306747887E+01 -0.10850848666E+01  0.37337638897E+02  0.00000000000E+00 0. -1.
</event>
<event>
 7    1  0.1978681E-015  0.9000779E+02  0.7816164E-02  0.1186339E+00
        -11   -1    0    0    0    0  0.00000000000E+00  0.00000000000E+00  0.45593999997E+02  0.45594000000E+02  0.51100000000E-03 0.  1.
         11   -1    0    0    0    0 -0.00000000000E+00 -0.00000000000E+00 -0.45593999997E+02  0.45594000000E+02  0.51100000000E-03 0. -1.
    9900012    2    1    2    0    0  0.85924043296E+00 -0.57503905010E+00 -0.56914862147E+00  0.90007790619E+02  0.90000052655E+02 0.  0.
        -12    1    1    2    0    0 -0.85924043296E+00  0.57503905010E+00  0.56914862147E+00  0.11802093815E+01  0.00000000000E+00 0.  1.
         11    1    3    3    0    0  0.52058331187E+01  0.56449831305E+01 -0.85225719387E+01  0.11471737694E+02  0.51100000000E-03 0. -1.
        -11    1    3    3    0    0 -0.87164094397E+01 -0.41518837444E+02  0.19836195277E+01  0.42470276699E+02  0.51100000000E-03 0.  1.
         12    1    3    3    0    0  0.43698167540E+01  0.35298815263E+02  0.59698037895E+01  0.36065776225E+02  0.00000000000E+00 0. -1.
</event>
<event>
 7    1  0.1978681E-015  0.9000766E+02  0.7816164E-02  0.1186339E+00
        -11   -1    0    0    0    0  0.00000000000E+00  0.00000000000E+00  0.45593999997E+02  0.45594000000E+02  0.51100000000E-03 0. -1.
         11   -1    0    0    0    0 -0.00000000000E+00 -0.00000000000E+00 -0.45593999997E+02  0.45594000000E+02  0.51100000000E-03 0.  1.
    9900012    2    1    2    0    0 -0.96960335306E+00 -0.62468558322E+00  0.25065599930E+00  0.90007664806E+02  0.89999925181E+02 0.  0.
        -12    1    1    2    0    0  0.96960335306E+00  0.62468558322E+00 -0.25065599930E+00  0.11803351940E+01  0.00000000000E+00 0.  1.
         11    1    3    3    0    0 -0.76758203224E+01 -0.77046323024E+01  0.14754750589E+01  0.10975272363E+02  0.51100000000E-03 0. -1.
        -11    1    3    3    0    0 -0.69414458759E+01 -0.12651566632E+02 -0.34853500305E+02  0.37722835164E+02  0.51100000000E-03 0.  1.
         12    1    3    3    0    0  0.13647662845E+02  0.19731513351E+02  0.33628681245E+02  0.41309557278E+02  0.00000000000E+00 0. -1.
</event>
<event>
 7    1  0.1978681E-015  0.9000751E+02  0.7816164E-02  0.1186340E+00
        -11   -1    0    0    0    0  0.00000000000E+00  0.00000000000E+00  0.45593999997E+02  0.45594000000E+02  0.51100000000E-03 0.  1.
         11   -1    0    0    0    0 -0.00000000000E+00 -0.00000000000E+00 -0.45593999997E+02  0.45594000000E+02  0.51100000000E-03 0. -1.
    9900012    2    1    2    0    0 -0.35774391077E+00  0.11196076907E+01  0.10978103767E+00  0.90007511134E+02  0.89999769481E+02 0.  0.
        -12    1    1    2    0    0  0.35774391077E+00 -0.11196076907E+01 -0.10978103767E+00  0.11804888661E+01  0.00000000000E+00 0.  1.
         11    1    3    3    0    0 -0.34734666566E+02 -0.11030652605E+02  0.18252349311E+02  0.40759300950E+02  0.51100000000E-03 0. -1.
        -11    1    3    3    0    0 -0.19236681073E+01  0.91595696430E+01 -0.38789442686E+01  0.10131358445E+02  0.51100000000E-03 0.  1.
        -12    1    3    3    0    0  0.36300590762E+02  0.29906906525E+01 -0.14263624004E+02  0.39116851739E+02  0.00000000000E+00 0.  1.
</event>
<event>
 7    1  0.1978681E-015  0.9000774E+02  0.7816164E-02  0.1186339E+00
        -11   -1    0    0    0    0  0.00000000000E+00  0.00000000000E+00  0.45593999997E+02  0.45594000000E+02  0.51100000000E-03 0. -1.
         11   -1    0    0    0    0 -0.00000000000E+00 -0.00000000000E+00 -0.45593999997E+02  0.45594000000E+02  0.51100000000E-03 0.  1.
    9900012    2    1    2    0    0  0.45299725233E+00  0.74127196104E+00  0.79894547911E+00  0.90007743880E+02  0.90000005299E+02 0.  0.
        -12    1    1    2    0    0 -0.45299725233E+00 -0.74127196104E+00 -0.79894547911E+00  0.11802561203E+01  0.00000000000E+00 0.  1.
         11    1    3    3    0    0  0.15065048748E+02 -0.89278743120E+01 -0.70702068075E+01  0.18885191502E+02  0.51100000000E-03 0. -1.
        -11    1    3    3    0    0 -0.13105477052E+02  0.37283632223E+02 -0.63482116067E+01  0.40026523098E+02  0.51100000000E-03 0.  1.
         12    1    3    3    0    0 -0.15065744445E+01 -0.27614485950E+02  0.14217363893E+02  0.31096029279E+02  0.00000000000E+00 0. -1.
</event>
<event>
 7    1  0.1978681E-015  0.9000788E+02  0.7816164E-02  0.1186339E+00
        -11   -1    0    0    0    0  0.00000000000E+00  0.00000000000E+00  0.45593999997E+02  0.45594000000E+02  0.51100000000E-03 0.  1.
         11   -1    0    0    0    0 -0.00000000000E+00 -0.00000000000E+00 -0.45593999997E+02  0.45594000000E+02  0.51100000000E-03 0. -1.
    9900012    2    1    2    0    0  0.58293676028E+00 -0.20433417833E+00  0.10055452032E+01  0.90007877600E+02  0.90000140784E+02 0.  0.
        -12    1    1    2    0    0 -0.58293676028E+00  0.20433417833E+00 -0.10055452032E+01  0.11801223998E+01  0.00000000000E+00 0.  1.
         11    1    3    3    0    0  0.66413371735E+01  0.90639125358E+00  0.42318004018E+01  0.79269817370E+01  0.51100000000E-03 0. -1.
        -11    1    3    3    0    0  0.13247207405E+02 -0.14395877619E+02  0.33336148620E+02  0.38652666163E+02  0.51100000000E-03 0.  1.
         12    1    3    3    0    0 -0.19305607818E+02  0.13285152187E+02 -0.36562403819E+02  0.43428229700E+02  0.00000000000E+00 0. -1.
</event>
<event>
 7    1  0.1978681E-015  0.9000775E+02  0.7816164E-02  0.1186339E+00
        -11   -1    0    0    0    0  0.00000000000E+00  0.00000000000E+00  0.45593999997E+02  0.45594000000E+02  0.51100000000E-03 0.  1.
         11   -1    0    0    0    0 -0.00000000000E+00 -0.00000000000E+00 -0.45593999997E+02  0.45594000000E+02  0.51100000000E-03 0. -1.
    9900012    2    1    2    0    0 -0.34817887973E+00 -0.46893768120E-01 -0.11267515532E+01  0.90007747222E+02  0.90000008685E+02 0.  0.
        -12    1    1    2    0    0  0.34817887973E+00  0.46893768120E-01  0.11267515532E+01  0.11802527782E+01  0.00000000000E+00 0.  1.
         11    1    3    3    0    0 -0.66311787132E+01 -0.29387729300E+02  0.29568927774E+02  0.42212944158E+02  0.51100000000E-03 0. -1.
        -11    1    3    3    0    0 -0.69420817982E+01  0.40021344698E+01 -0.58221761387E+01  0.99049136926E+01  0.51100000000E-03 0.  1.
        -12    1    3    3    0    0  0.13225081632E+02  0.25338701062E+02 -0.24873503188E+02  0.37889889371E+02  0.00000000000E+00 0.  1.
</event>
<event>
 7    1  0.1978681E-015  0.9000779E+02  0.7816164E-02  0.1186339E+00
        -11   -1    0    0    0    0  0.00000000000E+00  0.00000000000E+00  0.45593999997E+02  0.45594000000E+02  0.51100000000E-03 0.  1.
         11   -1    0    0    0    0 -0.00000000000E+00 -0.00000000000E+00 -0.45593999997E+02  0.45594000000E+02  0.51100000000E-03 0. -1.
    9900012    2    1    2    0    0  0.72041555369E+00 -0.55534551493E+00 -0.75198207266E+00  0.90007794828E+02  0.90000056919E+02 0.  0.
        -12    1    1    2    0    0 -0.72041555369E+00  0.55534551493E+00  0.75198207266E+00  0.11802051722E+01  0.00000000000E+00 0.  1.
         11    1    3    3    0    0  0.26932174145E+02  0.16752407993E+02 -0.26679181252E+02  0.41445915243E+02  0.51100000000E-03 0. -1.
        -11    1    3    3    0    0  0.13398683524E+01 -0.10796743513E+02  0.11500553163E+01  0.10940180309E+02  0.51100000000E-03 0.  1.
        -12    1    3    3    0    0 -0.27551626944E+02 -0.65110099946E+01  0.24777143863E+02  0.37621699276E+02  0.00000000000E+00 0.  1.
</event>
<event>
 7    1  0.1978681E-015  0.9000776E+02  0.7816164E-02  0.1186339E+00
        -11   -1    0    0    0    0  0.00000000000E+00  0.00000000000E+00  0.45593999997E+02  0.45594000000E+02  0.51100000000E-03 0.  1.
         11   -1    0    0    0    0 -0.00000000000E+00 -0.00000000000E+00 -0.45593999997E+02  0.45594000000E+02  0.51100000000E-03 0. -1.
    9900012    2    1    2    0    0  0.55682958673E+00 -0.10064083219E+01 -0.26464778075E+00  0.90007764707E+02  0.90000026401E+02 0.  0.
        -12    1    1    2    0    0 -0.55682958673E+00  0.10064083219E+01  0.26464778075E+00  0.11802352930E+01  0.00000000000E+00 0.  1.
         11    1    3    3    0    0  0.11863284355E+02  0.80780264642E+00  0.53409391910E+01  0.13035171365E+02  0.51100000000E-03 0. -1.
        -11    1    3    3    0    0  0.20657450149E+02  0.20537037984E+02 -0.20069626711E+02  0.35373579016E+02  0.51100000000E-03 0.  1.
         12    1    3    3    0    0 -0.31963904918E+02 -0.22351248952E+02  0.14464039739E+02  0.41599014326E+02  0.00000000000E+00 0. -1.
</event>
<event>
 7    1  0.1978681E-015  0.9000778E+02  0.7816164E-02  0.1186339E+00
        -11   -1    0    0    0    0  0.00000000000E+00  0.00000000000E+00  0.45593999997E+02  0.45594000000E+02  0.51100000000E-03 0.  1.
         11   -1    0    0    0    0 -0.00000000000E+00 -0.00000000000E+00 -0.45593999997E+02  0.45594000000E+02  0.51100000000E-03 0. -1.
    9900012    2    1    2    0    0  0.30438032668E+00  0.74758691454E-01 -0.11378388676E+01  0.90007782421E+02  0.90000044349E+02 0.  0.
        -12    1    1    2    0    0 -0.30438032668E+00 -0.74758691454E-01  0.11378388676E+01  0.11802175791E+01  0.00000000000E+00 0.  1.
         11    1    3    3    0    0  0.39135682287E+01 -0.19436209671E+01  0.60070196443E+01  0.74281871283E+01  0.51100000000E-03 0. -1.
        -11    1    3    3    0    0  0.70651560540E+00  0.19932644657E+02  0.32914145870E+02  0.38485717948E+02  0.51100000000E-03 0.  1.
         12    1    3    3    0    0 -0.43157035074E+01 -0.17914264998E+02 -0.40059004382E+02  0.44093877345E+02  0.00000000000E+00 0. -1.
</event>
<event>
 7    1  0.1978681E-015  0.9000774E+02  0.7816164E-02  0.1186339E+00
        -11   -1    0    0    0    0  0.00000000000E+00  0.00000000000E+00  0.45593999997E+02  0.45594000000E+02  0.51100000000E-03 0.  1.
         11   -1    0    0    0    0 -0.00000000000E+00 -0.00000000000E+00 -0.45593999997E+02  0.45594000000E+02  0.51100000000E-03 0. -1.
    9900012    2    1    2    0    0  0.87750714952E+00 -0.71519916997E+00  0.33390528639E+00  0.90007736728E+02  0.89999998053E+02 0.  0.
        -12    1    1    2    0    0 -0.87750714952E+00  0.71519916997E+00 -0.33390528639E+00  0.11802632717E+01  0.00000000000E+00 0.  1.
         11    1    3    3    0    0 -0.30769004134E+01 -0.99548958719E+01  0.19878336295E+01  0.10607485601E+02  0.51100000000E-03 0. -1.
        -11    1    3    3    0    0 -0.57632659957E+01  0.28990076799E+02  0.29167598567E+02  0.41525758201E+02  0.51100000000E-03 0.  1.
         12    1    3    3    0    0  0.97176735587E+01 -0.19750380097E+02 -0.30821526910E+02  0.37874492926E+02  0.00000000000E+00 0. -1.
</event>
<event>
 7    1  0.1978681E-015  0.9000767E+02  0.7816164E-02  0.1186339E+00
        -11   -1    0    0    0    0  0.00000000000E+00  0.00000000000E+00  0.45593999997E+02  0.45594000000E+02  0.51100000000E-03 0.  1.
         11   -1    0    0    0    0 -0.00000000000E+00 -0.00000000000E+00 -0.45593999997E+02  0.45594000000E+02  0.51100000000E-03 0. -1.
    9900012    2    1    2    0    0 -0.62082805032E+00 -0.92917850483E+00  0.37997120171E+00  0.90007670268E+02  0.89999930716E+02 0.  0.
        -12    1    1    2    0    0  0.62082805032E+00  0.92917850483E+00 -0.37997120171E+00  0.11803297319E+01  0.00000000000E+00 0.  1.
         11    1    3    3    0    0 -0.69002090977E+01  0.36532240624E+01  0.73432722160E+01  0.10718329102E+02  0.51100000000E-03 0. -1.
        -11    1    3    3    0    0  0.93971472439E+01 -0.14939081011E+02  0.33251766654E+02  0.37645218868E+02  0.51100000000E-03 0.  1.
         12    1    3    3    0    0 -0.31177661965E+01  0.10356678444E+02 -0.40215067668E+02  0.41644122298E+02  0.00000000000E+00 0. -1.
</event>
<event>
 7    1  0.1978681E-015  0.9000778E+02  0.7816164E-02  0.1186339E+00
        -11   -1    0    0    0    0  0.00000000000E+00  0.00000000000E+00  0.45593999997E+02  0.45594000000E+02  0.51100000000E-03 0. -1.
         11   -1    0    0    0    0 -0.00000000000E+00 -0.00000000000E+00 -0.45593999997E+02  0.45594000000E+02  0.51100000000E-03 0.  1.
    9900012    2    1    2    0    0 -0.90515160324E+00  0.31565010171E+00  0.68846156773E+00  0.90007782333E+02  0.90000044260E+02 0.  0.
        -12    1    1    2    0    0  0.90515160324E+00 -0.31565010171E+00 -0.68846156773E+00  0.11802176671E+01  0.00000000000E+00 0.  1.
         11    1    3    3    0    0  0.94191526784E+01 -0.17272855830E+01  0.16630185952E+01  0.97195464798E+01  0.51100000000E-03 0. -1.
        -11    1    3    3    0    0 -0.38245327569E+02  0.86788633838E+01  0.20680219136E+02  0.44336206584E+02  0.51100000000E-03 0.  1.
         12    1    3    3    0    0  0.27921023288E+02 -0.66359276991E+01 -0.21654776163E+02  0.35952029269E+02  0.00000000000E+00 0. -1.
</event>
<event>
 7    1  0.1978681E-015  0.9000771E+02  0.7816164E-02  0.1186339E+00
        -11   -1    0    0    0    0  0.00000000000E+00  0.00000000000E+00  0.45593999997E+02  0.45594000000E+02  0.51100000000E-03 0.  1.
         11   -1    0    0    0    0 -0.00000000000E+00 -0.00000000000E+00 -0.45593999997E+02  0.45594000000E+02  0.51100000000E-03 0. -1.
    9900012    2    1    2    0    0 -0.90679327717E+00 -0.40086518503E+00  0.64040964382E+00  0.90007707047E+02  0.89999967980E+02 0.  0.
        -12    1    1    2    0    0  0.90679327717E+00  0.40086518503E+00 -0.64040964382E+00  0.11802929535E+01  0.00000000000E+00 0.  1.
         11    1    3    3    0    0 -0.12052408637E+02 -0.91969379085E+01 -0.13361285207E+02  0.20208121226E+02  0.51100000000E-03 0. -1.
        -11    1    3    3    0    0 -0.10115142645E+02 -0.12658052958E+02  0.31117156912E+02  0.35083042484E+02  0.51100000000E-03 0.  1.
         12    1    3    3    0    0  0.21260758005E+02  0.21454125681E+02 -0.17115462061E+02  0.34716543337E+02  0.00000000000E+00 0. -1.
</event>
<event>
 7    1  0.1978681E-015  0.9000780E+02  0.7816164E-02  0.1186339E+00
        -11   -1    0    0    0    0  0.00000000000E+00  0.00000000000E+00  0.45593999997E+02  0.45594000000E+02  0.51100000000E-03 0.  1.
         11   -1    0    0    0    0 -0.00000000000E+00 -0.00000000000E+00 -0.45593999997E+02  0.45594000000E+02  0.51100000000E-03 0. -1.
    9900012    2    1    2    0    0 -0.78399591120E+00  0.80458183766E+00 -0.36176133205E+00  0.90007799685E+02  0.90000061841E+02 0.  0.
        -12    1    1    2    0    0  0.78399591120E+00 -0.80458183766E+00  0.36176133205E+00  0.11802003150E+01  0.00000000000E+00 0.  1.
         11    1    3    3    0    0 -0.74183945504E+01  0.93860303287E+01 -0.38312844176E+00  0.11969834197E+02  0.51100000000E-03 0. -1.
        -11    1    3    3    0    0 -0.22889669444E+02  0.15473354075E+02 -0.20847649741E+02  0.34611936577E+02  0.51100000000E-03 0.  1.
         12    1    3    3    0    0  0.29524068084E+02 -0.24054802566E+02  0.20869016851E+02  0.43426028911E+02  0.00000000000E+00 0. -1.
</event>
<event>
 7    1  0.1978681E-015  0.9000781E+02  0.7816164E-02  0.1186339E+00
        -11   -1    0    0    0    0  0.00000000000E+00  0.00000000000E+00  0.45593999997E+02  0.45594000000E+02  0.51100000000E-03 0.  1.
         11   -1    0    0    0    0 -0.00000000000E+00 -0.00000000000E+00 -0.45593999997E+02  0.45594000000E+02  0.51100000000E-03 0. -1.
    9900012    2    1    2    0    0  0.57802928887E+00  0.32834797930E+00 -0.97514557084E+00  0.90007813939E+02  0.90000076283E+02 0.  0.
        -12    1    1    2    0    0 -0.57802928887E+00 -0.32834797930E+00  0.97514557084E+00  0.11801860610E+01  0.00000000000E+00 0.  1.
         11    1    3    3    0    0  0.38404341276E+02 -0.59190540103E+01 -0.17007598896E+01  0.38895002425E+02  0.51100000000E-03 0. -1.
        -11    1    3    3    0    0  0.16904823305E+01 -0.68502016570E+01  0.58530947517E+01  0.91674266665E+01  0.51100000000E-03 0.  1.
        -12    1    3    3    0    0 -0.39516794317E+02  0.13097603647E+02 -0.51274804329E+01  0.41945384847E+02  0.00000000000E+00 0.  1.
</event>
<event>
 7    1  0.1978681E-015  0.9000774E+02  0.7816164E-02  0.1186339E+00
        -11   -1    0    0    0    0  0.00000000000E+00  0.00000000000E+00  0.45593999997E+02  0.45594000000E+02  0.51100000000E-03 0.  1.
         11   -1    0    0    0    0 -0.00000000000E+00 -0.00000000000E+00 -0.45593999997E+02  0.45594000000E+02  0.51100000000E-03 0. -1.
    9900012    2    1    2    0    0  0.48209874522E+00 -0.86416739221E+00 -0.64327933775E+00  0.90007740373E+02  0.90000001745E+02 0.  0.
        -12    1    1    2    0    0 -0.48209874522E+00  0.86416739221E+00  0.64327933775E+00  0.11802596275E+01  0.00000000000E+00 0.  1.
         11    1    3    3    0    0 -0.15208574436E+02  0.23524956001E+02 -0.25380493063E+02  0.37800710570E+02  0.51100000000E-03 0. -1.
        -11    1    3    3    0    0 -0.74388965439E+01  0.23401641241E+01 -0.18042492287E+01  0.80043029340E+01  0.51100000000E-03 0.  1.
        -12    1    3    3    0    0  0.23129569725E+02 -0.26729287518E+02  0.26541462954E+02  0.44202726868E+02  0.00000000000E+00 0.  1.
</event>
<event>
 7    1  0.1978681E-015  0.9000767E+02  0.7816164E-02  0.1186339E+00
        -11   -1    0    0    0    0  0.00000000000E+00  0.00000000000E+00  0.45593999997E+02  0.45594000000E+02  0.51100000000E-03 0. -1.
         11   -1    0    0    0    0 -0.00000000000E+00 -0.00000000000E+00 -0.45593999997E+02  0.45594000000E+02  0.51100000000E-03 0.  1.
    9900012    2    1    2    0    0  0.10898327503E+01 -0.45281045960E+00 -0.20291567891E-01  0.90007667638E+02  0.89999928051E+02 0.  0.
        -12    1    1    2    0    0 -0.10898327503E+01  0.45281045960E+00  0.20291567891E-01  0.11803323615E+01  0.00000000000E+00 0.  1.
         11    1    3    3    0    0  0.40896801908E+01 -0.25069301963E+02  0.31174555600E+02  0.40212539115E+02  0.51100000000E-03 0. -1.
        -11    1    3    3    0    0  0.21280966359E+01  0.11723292167E+01  0.54638967541E+01  0.59797423928E+01  0.51100000000E-03 0.  1.
        -12    1    3    3    0    0 -0.51279440763E+01  0.23444162287E+02 -0.36658743922E+02  0.43815386130E+02  0.00000000000E+00 0.  1.
</event>
<event>
 7    1  0.1978681E-015  0.9000775E+02  0.7816164E-02  0.1186339E+00
        -11   -1    0    0    0    0  0.00000000000E+00  0.00000000000E+00  0.45593999997E+02  0.45594000000E+02  0.51100000000E-03 0. -1.
         11   -1    0    0    0    0 -0.00000000000E+00 -0.00000000000E+00 -0.45593999997E+02  0.45594000000E+02  0.51100000000E-03 0.  1.
    9900012    2    1    2    0    0  0.97893297648E+00  0.38709712977E+00  0.53370545009E+00  0.90007747710E+02  0.90000009180E+02 0.  0.
        -12    1    1    2    0    0 -0.97893297648E+00 -0.38709712977E+00 -0.53370545009E+00  0.11802522899E+01  0.00000000000E+00 0.  1.
         11    1    3    3    0    0  0.23294580658E+01 -0.78024416311E+01  0.34253995672E+01  0.88339024640E+01  0.51100000000E-03 0. -1.
        -11    1    3    3    0    0  0.20818956795E+02 -0.24470928691E+02 -0.20328988666E+02  0.38020035422E+02  0.51100000000E-03 0.  1.
         12    1    3    3    0    0 -0.22169481885E+02  0.32660467452E+02  0.17437294548E+02  0.43153809824E+02  0.00000000000E+00 0. -1.
</event>
<event>
 7    1  0.1978681E-015  0.9000772E+02  0.7816164E-02  0.1186339E+00
        -11   -1    0    0    0    0  0.00000000000E+00  0.00000000000E+00  0.45593999997E+02  0.45594000000E+02  0.51100000000E-03 0.  1.
         11   -1    0    0    0    0 -0.00000000000E+00 -0.00000000000E+00 -0.45593999997E+02  0.45594000000E+02  0.51100000000E-03 0. -1.
    9900012    2    1    2    0    0  0.42515015349E+00 -0.91796940208E+00  0.60799005653E+00  0.90007715125E+02  0.89999976165E+02 0.  0.
        -12    1    1    2    0    0 -0.42515015349E+00  0.91796940208E+00 -0.60799005653E+00  0.11802848745E+01  0.00000000000E+00 0.  1.
         11    1    3    3    0    0  0.29048503437E+02 -0.25558065756E+01 -0.22095157392E+02  0.36586113208E+02  0.51100000000E-03 0. -1.
        -11    1    3    3    0    0  0.43229957114E+01  0.11578393599E+02  0.30813368812E+00  0.12362946125E+02  0.51100000000E-03 0.  1.
        -12    1    3    3    0    0 -0.32946348995E+02 -0.99405564256E+01  0.22395013761E+02  0.41058655793E+02  0.00000000000E+00 0.  1.
</event>
<event>
 7    1  0.1978681E-015  0.9000774E+02  0.7816164E-02  0.1186339E+00
        -11   -1    0    0    0    0  0.00000000000E+00  0.00000000000E+00  0.45593999997E+02  0.45594000000E+02  0.51100000000E-03 0. -1.
         11   -1    0    0    0    0 -0.00000000000E+00 -0.00000000000E+00 -0.45593999997E+02  0.45594000000E+02  0.51100000000E-03 0.  1.
    9900012    2    1    2    0    0 -0.35842822472E+00 -0.42344124490E-01  0.11237241164E+01  0.90007737441E+02  0.89999998776E+02 0.  0.
        -12    1    1    2    0    0  0.35842822472E+00  0.42344124490E-01 -0.11237241164E+01  0.11802625585E+01  0.00000000000E+00 0.  1.
         11    1    3    3    0    0 -0.76072471220E+01  0.16655079826E+01 -0.51163438115E+01  0.93177840646E+01  0.51100000000E-03 0. -1.
        -11    1    3    3    0    0 -0.33303967879E+01 -0.35240180886E+02  0.22508194473E+02  0.41947356417E+02  0.51100000000E-03 0.  1.
         12    1    3    3    0    0  0.10579215685E+02  0.33532328779E+02 -0.16268126545E+02  0.38742596960E+02  0.00000000000E+00 0. -1.
</event>
<event>
 7    1  0.1978681E-015  0.9000765E+02  0.7816164E-02  0.1186339E+00
        -11   -1    0    0    0    0  0.00000000000E+00  0.00000000000E+00  0.45593999997E+02  0.45594000000E+02  0.51100000000E-03 0.  1.
         11   -1    0    0    0    0 -0.00000000000E+00 -0.00000000000E+00 -0.45593999997E+02  0.45594000000E+02  0.51100000000E-03 0. -1.
    9900012    2    1    2    0    0 -0.11151594155E+01  0.27614968000E+00  0.27089599683E+00  0.90007650980E+02  0.89999911173E+02 0.  0.
        -12    1    1    2    0    0  0.11151594155E+01 -0.27614968000E+00 -0.27089599683E+00  0.11803490199E+01  0.00000000000E+00 0.  1.
         11    1    3    3    0    0  0.82093000074E+01 -0.78669427852E+00 -0.37926933674E+02  0.38813190962E+02  0.51100000000E-03 0. -1.
        -11    1    3    3    0    0 -0.66236528933E+01 -0.38540547101E+01 -0.39868750119E+01  0.86383845701E+01  0.51100000000E-03 0.  1.
        -12    1    3    3    0    0 -0.27008065295E+01  0.49168986687E+01  0.42184704682E+02  0.42556075448E+02  0.00000000000E+00 0.  1.
</event>
<event>
 7    1  0.1978681E-015  0.9000776E+02  0.7816164E-02  0.1186339E+00
        -11   -1    0    0    0    0  0.00000000000E+00  0.00000000000E+00  0.45593999997E+02  0.45594000000E+02  0.51100000000E-03 0. -1.
         11   -1    0    0    0    0 -0.00000000000E+00 -0.00000000000E+00 -0.45593999997E+02  0.45594000000E+02  0.51100000000E-03 0.  1.
    9900012    2    1    2    0    0  0.11076016533E+01 -0.38436072044E+00  0.13579849329E+00  0.90007764508E+02  0.90000026200E+02 0.  0.
        -12    1    1    2    0    0 -0.11076016533E+01  0.38436072044E+00 -0.13579849329E+00  0.11802354920E+01  0.00000000000E+00 0.  1.
         11    1    3    3    0    0 -0.11836184289E+02  0.24228060298E+02  0.24049549740E+02  0.36131357673E+02  0.51100000000E-03 0. -1.
        -11    1    3    3    0    0 -0.72377981653E+01  0.49753517912E+01  0.27748308476E+01  0.92108378676E+01  0.51100000000E-03 0.  1.
        -12    1    3    3    0    0  0.20181584108E+02 -0.29587772810E+02 -0.26688582094E+02  0.44665568967E+02  0.00000000000E+00 0.  1.
</event>
<event>
 7    1  0.1978681E-015  0.9000740E+02  0.7816164E-02  0.1186340E+00
        -11   -1    0    0    0    0  0.00000000000E+00  0.00000000000E+00  0.45593999997E+02  0.45594000000E+02  0.51100000000E-03 0. -1.
         11   -1    0    0    0    0 -0.00000000000E+00 -0.00000000000E+00 -0.45593999997E+02  0.45594000000E+02  0.51100000000E-03 0.  1.
    9900012    2    1    2    0    0 -0.90242949755E+00  0.44567985769E+00  0.61709570894E+00  0.90007399878E+02  0.89999656756E+02 0.  0.
        -12    1    1    2    0    0  0.90242949755E+00 -0.44567985769E+00 -0.61709570894E+00  0.11806001218E+01  0.00000000000E+00 0.  1.
         11    1    3    3    0    0 -0.42276087471E+01 -0.12227464635E+01  0.96229955747E+01  0.10581579689E+02  0.51100000000E-03 0. -1.
        -11    1    3    3    0    0 -0.93800421453E+01  0.85920747321E+01 -0.41740618315E+02  0.43635858608E+02  0.51100000000E-03 0.  1.
         12    1    3    3    0    0  0.12705221395E+02 -0.69236484109E+01  0.32734718449E+02  0.35789961581E+02  0.00000000000E+00 0. -1.
</event>
<event>
 7    1  0.1978681E-015  0.9000772E+02  0.7816164E-02  0.1186339E+00
        -11   -1    0    0    0    0  0.00000000000E+00  0.00000000000E+00  0.45593999997E+02  0.45594000000E+02  0.51100000000E-03 0. -1.
         11   -1    0    0    0    0 -0.00000000000E+00 -0.00000000000E+00 -0.45593999997E+02  0.45594000000E+02  0.51100000000E-03 0.  1.
    9900012    2    1    2    0    0 -0.13498190354E+00 -0.11509635683E+01  0.22388717537E+00  0.90007719221E+02  0.89999980315E+02 0.  0.
        -12    1    1    2    0    0  0.13498190354E+00  0.11509635683E+01 -0.22388717537E+00  0.11802807789E+01  0.00000000000E+00 0.  1.
         11    1    3    3    0    0  0.10462586991E+01 -0.29403318719E+01 -0.98595836248E+01  0.10341740584E+02  0.51100000000E-03 0. -1.
        -11    1    3    3    0    0  0.12486799042E+02 -0.32982882611E+02 -0.10773822714E+02  0.36876360338E+02  0.51100000000E-03 0.  1.
         12    1    3    3    0    0 -0.13668039644E+02  0.34772250915E+02  0.20857293515E+02  0.42789618299E+02  0.00000000000E+00 0. -1.
</event>
<event>
 7    1  0.1978681E-015  0.9000778E+02  0.7816164E-02  0.1186339E+00
        -11   -1    0    0    0    0  0.00000000000E+00  0.00000000000E+00  0.45593999997E+02  0.45594000000E+02  0.51100000000E-03 0. -1.
         11   -1    0    0    0    0 -0.00000000000E+00 -0.00000000000E+00 -0.45593999997E+02  0.45594000000E+02  0.51100000000E-03 0.  1.
    9900012    2    1    2    0    0 -0.99330198265E+00  0.62001398900E+00 -0.14784478614E+00  0.90007777878E+02  0.90000039746E+02 0.  0.
        -12    1    1    2    0    0  0.99330198265E+00 -0.62001398900E+00  0.14784478614E+00  0.11802221215E+01  0.00000000000E+00 0.  1.
         11    1    3    3    0    0  0.17916254443E+01  0.47562974665E+01 -0.76223502443E+01  0.91614688141E+01  0.51100000000E-03 0. -1.
        -11    1    3    3    0    0 -0.91124147315E+01  0.18247147944E+01 -0.35656645517E+02  0.36847822949E+02  0.51100000000E-03 0.  1.
         12    1    3    3    0    0  0.63274873045E+01 -0.59609982719E+01  0.43131150975E+02  0.43998486115E+02  0.00000000000E+00 0. -1.
</event>
<event>
 7    1  0.1978681E-015  0.9000770E+02  0.7816164E-02  0.1186339E+00
        -11   -1    0    0    0    0  0.00000000000E+00  0.00000000000E+00  0.45593999997E+02  0.45594000000E+02  0.51100000000E-03 0.  1.
         11   -1    0    0    0    0 -0.00000000000E+00 -0.00000000000E+00 -0.45593999997E+02  0.45594000000E+02  0.51100000000E-03 0. -1.
    9900012    2    1    2    0    0  0.40353455119E+00  0.51450896006E+00 -0.98261996895E+00  0.90007702746E+02  0.89999963622E+02 0.  0.
        -12    1    1    2    0    0 -0.40353455119E+00 -0.51450896006E+00  0.98261996895E+00  0.11802972538E+01  0.00000000000E+00 0.  1.
         11    1    3    3    0    0  0.30045361303E+02  0.10404497097E+02 -0.27146636054E+01  0.31911544846E+02  0.51100000000E-03 0. -1.
        -11    1    3    3    0    0 -0.17317603861E+01  0.13537808736E+02 -0.12946129836E+02  0.18811526716E+02  0.51100000000E-03 0.  1.
        -12    1    3    3    0    0 -0.27910066366E+02 -0.23427796872E+02  0.14678173472E+02  0.39284631185E+02  0.00000000000E+00 0.  1.
</event>
<event>
 7    1  0.1978681E-015  0.9000758E+02  0.7816164E-02  0.1186339E+00
        -11   -1    0    0    0    0  0.00000000000E+00  0.00000000000E+00  0.45593999997E+02  0.45594000000E+02  0.51100000000E-03 0.  1.
         11   -1    0    0    0    0 -0.00000000000E+00 -0.00000000000E+00 -0.45593999997E+02  0.45594000000E+02  0.51100000000E-03 0. -1.
    9900012    2    1    2    0    0 -0.88851922668E+00  0.31498171726E+00  0.71043409001E+00  0.90007577832E+02  0.89999837059E+02 0.  0.
        -12    1    1    2    0    0  0.88851922668E+00 -0.31498171726E+00 -0.71043409001E+00  0.11804221680E+01  0.00000000000E+00 0.  1.
         11    1    3    3    0    0 -0.63274088527E+01  0.69997142178E+01 -0.68909831404E+01  0.11684081086E+02  0.51100000000E-03 0. -1.
        -11    1    3    3    0    0 -0.22101777878E+02  0.72210523489E+01  0.31602809000E+02  0.39234802400E+02  0.51100000000E-03 0.  1.
         12    1    3    3    0    0  0.27540667504E+02 -0.13905784849E+02 -0.24001391769E+02  0.39088694347E+02  0.00000000000E+00 0. -1.
</event>
<event>
 7    1  0.1978681E-015  0.9000779E+02  0.7816164E-02  0.1186339E+00
        -11   -1    0    0    0    0  0.00000000000E+00  0.00000000000E+00  0.45593999997E+02  0.45594000000E+02  0.51100000000E-03 0.  1.
         11   -1    0    0    0    0 -0.00000000000E+00 -0.00000000000E+00 -0.45593999997E+02  0.45594000000E+02  0.51100000000E-03 0. -1.
    9900012    2    1    2    0    0  0.41048593364E+00  0.68660597610E+00  0.86773950018E+00  0.90007788871E+02  0.90000050884E+02 0.  0.
        -12    1    1    2    0    0 -0.41048593364E+00 -0.68660597610E+00 -0.86773950018E+00  0.11802111287E+01  0.00000000000E+00 0.  1.
         11    1    3    3    0    0 -0.41838890539E+01 -0.17657082492E+01  0.74900524991E+01  0.87591974482E+01  0.51100000000E-03 0. -1.
        -11    1    3    3    0    0  0.15804708427E+02  0.37922337117E+02 -0.13845840487E+02  0.43354351107E+02  0.51100000000E-03 0.  1.
         12    1    3    3    0    0 -0.11210333439E+02 -0.35470022892E+02  0.72235274886E+01  0.37894240316E+02  0.00000000000E+00 0. -1.
</event>
<event>
 7    1  0.1978681E-015  0.9000777E+02  0.7816164E-02  0.1186339E+00
        -11   -1    0    0    0    0  0.00000000000E+00  0.00000000000E+00  0.45593999997E+02  0.45594000000E+02  0.51100000000E-03 0.  1.
         11   -1    0    0    0    0 -0.00000000000E+00 -0.00000000000E+00 -0.45593999997E+02  0.45594000000E+02  0.51100000000E-03 0. -1.
    9900012    2    1    2    0    0 -0.69059181843E+00 -0.19614485852E+00 -0.93677690132E+00  0.90007770858E+02  0.90000032633E+02 0.  0.
        -12    1    1    2    0    0  0.69059181843E+00  0.19614485852E+00  0.93677690132E+00  0.11802291422E+01  0.00000000000E+00 0.  1.
         11    1    3    3    0    0  0.11588325264E+02 -0.31887070842E+02  0.18053429440E+02  0.38431769203E+02  0.51100000000E-03 0. -1.
        -11    1    3    3    0    0  0.80993509518E+01 -0.21923159433E+01 -0.27279471891E+01  0.88231191290E+01  0.51100000000E-03 0.  1.
        -12    1    3    3    0    0 -0.20378268034E+02  0.33883241926E+02 -0.16262259152E+02  0.42752882526E+02  0.00000000000E+00 0.  1.
</event>
<event>
 7    1  0.1978681E-015  0.9000856E+02  0.7816164E-02  0.1186337E+00
        -11   -1    0    0    0    0  0.00000000000E+00  0.00000000000E+00  0.45593999997E+02  0.45594000000E+02  0.51100000000E-03 0.  1.
         11   -1    0    0    0    0 -0.00000000000E+00 -0.00000000000E+00 -0.45593999997E+02  0.45594000000E+02  0.51100000000E-03 0. -1.
    9900012    2    1    2    0    0 -0.99256484958E+00  0.58354189395E+00  0.25566076297E+00  0.90008564309E+02  0.90000836554E+02 0.  0.
        -12    1    1    2    0    0  0.99256484958E+00 -0.58354189395E+00 -0.25566076297E+00  0.11794356906E+01  0.00000000000E+00 0.  1.
         11    1    3    3    0    0 -0.58354757020E+01 -0.38253150711E+02  0.34576918721E+01  0.38849864212E+02  0.51100000000E-03 0. -1.
        -11    1    3    3    0    0  0.67854297343E+01 -0.35024162865E+01  0.32275997392E+01  0.82901373246E+01  0.51100000000E-03 0.  1.
        -12    1    3    3    0    0 -0.19425188819E+01  0.42339108891E+02 -0.64296308483E+01  0.42868562772E+02  0.00000000000E+00 0.  1.
</event>
<event>
 7    1  0.1978681E-015  0.9000757E+02  0.7816164E-02  0.1186339E+00
        -11   -1    0    0    0    0  0.00000000000E+00  0.00000000000E+00  0.45593999997E+02  0.45594000000E+02  0.51100000000E-03 0.  1.
         11   -1    0    0    0    0 -0.00000000000E+00 -0.00000000000E+00 -0.45593999997E+02  0.45594000000E+02  0.51100000000E-03 0. -1.
    9900012    2    1    2    0    0  0.11221652425E+01 -0.10299858160E+00 -0.35150471528E+00  0.90007568255E+02  0.89999827356E+02 0.  0.
        -12    1    1    2    0    0 -0.11221652425E+01  0.10299858160E+00  0.35150471528E+00  0.11804317448E+01  0.00000000000E+00 0.  1.
         11    1    3    3    0    0 -0.70697030771E+01  0.42094353963E+01  0.31596091768E+01  0.88138061225E+01  0.51100000000E-03 0. -1.
        -11    1    3    3    0    0 -0.30672900453E+02 -0.70635808047E+01  0.18434095776E+02  0.36476525099E+02  0.51100000000E-03 0.  1.
         12    1    3    3    0    0  0.38864768772E+02  0.27511468268E+01 -0.21945209668E+02  0.44717237034E+02  0.00000000000E+00 0. -1.
</event>
<event>
 7    1  0.1978681E-015  0.9000768E+02  0.7816164E-02  0.1186339E+00
        -11   -1    0    0    0    0  0.00000000000E+00  0.00000000000E+00  0.45593999997E+02  0.45594000000E+02  0.51100000000E-03 0. -1.
         11   -1    0    0    0    0 -0.00000000000E+00 -0.00000000000E+00 -0.45593999997E+02  0.45594000000E+02  0.51100000000E-03 0.  1.
    9900012    2    1    2    0    0  0.10267121433E+01 -0.53942741871E+00  0.21915052818E+00  0.90007683636E+02  0.89999944260E+02 0.  0.
        -12    1    1    2    0    0 -0.10267121433E+01  0.53942741871E+00 -0.21915052818E+00  0.11803163641E+01  0.00000000000E+00 0.  1.
         11    1    3    3    0    0 -0.80808486370E+01  0.49646550422E+01  0.23531192185E+01  0.97716469799E+01  0.51100000000E-03 0. -1.
        -11    1    3    3    0    0 -0.60710667850E+01  0.78366795394E+01 -0.37889616235E+02  0.39164964149E+02  0.51100000000E-03 0.  1.
         12    1    3    3    0    0  0.15178627565E+02 -0.13340762000E+02  0.35755647545E+02  0.41071072507E+02  0.00000000000E+00 0. -1.
</event>
<event>
 7    1  0.1978681E-015  0.9000765E+02  0.7816164E-02  0.1186339E+00
        -11   -1    0    0    0    0  0.00000000000E+00  0.00000000000E+00  0.45593999997E+02  0.45594000000E+02  0.51100000000E-03 0.  1.
         11   -1    0    0    0    0 -0.00000000000E+00 -0.00000000000E+00 -0.45593999997E+02  0.45594000000E+02  0.51100000000E-03 0. -1.
    9900012    2    1    2    0    0  0.72128295078E+00 -0.60776970861E+00 -0.70963861725E+00  0.90007652559E+02  0.89999912773E+02 0.  0.
        -12    1    1    2    0    0 -0.72128295078E+00  0.60776970861E+00  0.70963861725E+00  0.11803474407E+01  0.00000000000E+00 0.  1.
         11    1    3    3    0    0 -0.76159012382E+01 -0.80829852632E+01  0.23438834948E+01  0.11350347683E+02  0.51100000000E-03 0. -1.
        -11    1    3    3    0    0 -0.37401264241E+01  0.29365205339E+02  0.26651188172E+02  0.39832018045E+02  0.51100000000E-03 0.  1.
         12    1    3    3    0    0  0.12077310613E+02 -0.21889989785E+02 -0.29704710284E+02  0.38825286831E+02  0.00000000000E+00 0. -1.
</event>
<event>
 7    1  0.1978681E-015  0.9000762E+02  0.7816164E-02  0.1186339E+00
        -11   -1    0    0    0    0  0.00000000000E+00  0.00000000000E+00  0.45593999997E+02  0.45594000000E+02  0.51100000000E-03 0.  1.
         11   -1    0    0    0    0 -0.00000000000E+00 -0.00000000000E+00 -0.45593999997E+02  0.45594000000E+02  0.51100000000E-03 0. -1.
    9900012    2    1    2    0    0 -0.10982309622E+01  0.19982865167E+00 -0.38375213611E+00  0.90007615131E+02  0.89999874851E+02 0.  0.
        -12    1    1    2    0    0  0.10982309622E+01 -0.19982865167E+00  0.38375213611E+00  0.11803848687E+01  0.00000000000E+00 0.  1.
         11    1    3    3    0    0 -0.72914939560E+01 -0.72535978909E+01 -0.44480478341E+01  0.11205610036E+02  0.51100000000E-03 0. -1.
        -11    1    3    3    0    0 -0.33820686097E+02  0.16303153870E+02 -0.65118064697E+00  0.37550707992E+02  0.51100000000E-03 0.  1.
         12    1    3    3    0    0  0.40013949091E+02 -0.88497273278E+01  0.47154763449E+01  0.41251297104E+02  0.00000000000E+00 0. -1.
</event>
<event>
 7    1  0.1978681E-015  0.9000770E+02  0.7816164E-02  0.1186339E+00
        -11   -1    0    0    0    0  0.00000000000E+00  0.00000000000E+00  0.45593999997E+02  0.45594000000E+02  0.51100000000E-03 0.  1.
         11   -1    0    0    0    0 -0.00000000000E+00 -0.00000000000E+00 -0.45593999997E+02  0.45594000000E+02  0.51100000000E-03 0. -1.
    9900012    2    1    2    0    0  0.13036297146E-01 -0.91005592361E+00 -0.75148483495E+00  0.90007702925E+02  0.89999963803E+02 0.  0.
        -12    1    1    2    0    0 -0.13036297146E-01  0.91005592361E+00  0.75148483495E+00  0.11802970754E+01  0.00000000000E+00 0.  1.
         11    1    3    3    0    0  0.27177297687E+02  0.31265207467E+02  0.10875497494E+02  0.42829839523E+02  0.51100000000E-03 0. -1.
        -11    1    3    3    0    0 -0.59571092489E+00 -0.70745618000E+01 -0.76097634749E+01  0.10407343396E+02  0.51100000000E-03 0.  1.
        -12    1    3    3    0    0 -0.26568550465E+02 -0.25100701590E+02 -0.40172188545E+01  0.36770520005E+02  0.00000000000E+00 0.  1.
</event>
<event>
 7    1  0.1978681E-015  0.9000826E+02  0.7816164E-02  0.1186338E+00
        -11   -1    0    0    0    0  0.00000000000E+00  0.00000000000E+00  0.45593999997E+02  0.45594000000E+02  0.51100000000E-03 0.  1.
         11   -1    0    0    0    0 -0.00000000000E+00 -0.00000000000E+00 -0.45593999997E+02  0.45594000000E+02  0.51100000000E-03 0. -1.
    9900012    2    1    2    0    0  0.40133290773E+00  0.84211520242E+00 -0.72219784587E+00  0.90008256025E+02  0.90000524203E+02 0.  0.
        -12    1    1    2    0    0 -0.40133290773E+00 -0.84211520242E+00  0.72219784587E+00  0.11797439746E+01  0.00000000000E+00 0.  1.
         11    1    3    3    0    0  0.20188480621E+02 -0.32754014602E+02 -0.11382087291E+02  0.40124208823E+02  0.51100000000E-03 0. -1.
        -11    1    3    3    0    0  0.59928234990E+01  0.17386465538E+01  0.59681826531E+01  0.86345833582E+01  0.51100000000E-03 0.  1.
        -12    1    3    3    0    0 -0.25779971212E+02  0.31857483251E+02  0.46917067925E+01  0.41249463844E+02  0.00000000000E+00 0.  1.
</event>
<event>
 7    1  0.1978681E-015  0.9000770E+02  0.7816164E-02  0.1186339E+00
        -11   -1    0    0    0    0  0.00000000000E+00  0.00000000000E+00  0.45593999997E+02  0.45594000000E+02  0.51100000000E-03 0.  1.
         11   -1    0    0    0    0 -0.00000000000E+00 -0.00000000000E+00 -0.45593999997E+02  0.45594000000E+02  0.51100000000E-03 0. -1.
    9900012    2    1    2    0    0  0.75931742762E+00 -0.79467232297E+00 -0.43015222643E+00  0.90007704277E+02  0.89999965173E+02 0.  0.
        -12    1    1    2    0    0 -0.75931742762E+00  0.79467232297E+00  0.43015222643E+00  0.11802957234E+01  0.00000000000E+00 0.  1.
         11    1    3    3    0    0 -0.27985330215E+01 -0.70364632682E+01  0.50386505227E+01  0.90956913838E+01  0.51100000000E-03 0. -1.
        -11    1    3    3    0    0  0.17245623054E+02  0.39936013119E+02  0.28866467845E+01  0.43596208417E+02  0.51100000000E-03 0.  1.
         12    1    3    3    0    0 -0.13687772605E+02 -0.33694222174E+02 -0.83554495337E+01  0.37315804476E+02  0.00000000000E+00 0. -1.
</event>
<event>
 7    1  0.1978681E-015  0.9000724E+02  0.7816164E-02  0.1186340E+00
        -11   -1    0    0    0    0  0.00000000000E+00  0.00000000000E+00  0.45593999997E+02  0.45594000000E+02  0.51100000000E-03 0.  1.
         11   -1    0    0    0    0 -0.00000000000E+00 -0.00000000000E+00 -0.45593999997E+02  0.45594000000E+02  0.51100000000E-03 0. -1.
    9900012    2    1    2    0    0 -0.25785295177E+00 -0.92756531858E+00 -0.68361270262E+00  0.90007240968E+02  0.89999495747E+02 0.  0.
        -12    1    1    2    0    0  0.25785295177E+00  0.92756531858E+00  0.68361270262E+00  0.11807590322E+01  0.00000000000E+00 0.  1.
         11    1    3    3    0    0  0.28757013355E+01  0.36935211186E+01  0.42842118930E+01  0.63455676050E+01  0.51100000000E-03 0. -1.
        -11    1    3    3    0    0  0.39099118267E+02 -0.39813072199E+00  0.66371555328E+01  0.39660451222E+02  0.51100000000E-03 0.  1.
         12    1    3    3    0    0 -0.42232672554E+02 -0.42229557152E+01 -0.11604980128E+02  0.44001222140E+02  0.00000000000E+00 0. -1.
</event>
<event>
 7    1  0.1978681E-015  0.9000773E+02  0.7816164E-02  0.1186339E+00
        -11   -1    0    0    0    0  0.00000000000E+00  0.00000000000E+00  0.45593999997E+02  0.45594000000E+02  0.51100000000E-03 0.  1.
         11   -1    0    0    0    0 -0.00000000000E+00 -0.00000000000E+00 -0.45593999997E+02  0.45594000000E+02  0.51100000000E-03 0. -1.
    9900012    2    1    2    0    0  0.11440131855E+01 -0.10509924605E+00 -0.27060459790E+00  0.90007729324E+02  0.89999990551E+02 0.  0.
        -12    1    1    2    0    0 -0.11440131855E+01  0.10509924605E+00  0.27060459790E+00  0.11802706759E+01  0.00000000000E+00 0.  1.
         11    1    3    3    0    0  0.41678224803E+02 -0.97321535752E+01  0.10533285340E+02  0.44076516834E+02  0.51100000000E-03 0. -1.
        -11    1    3    3    0    0 -0.72293893465E+01 -0.17047646699E+01 -0.75661641186E+01  0.10602694593E+02  0.51100000000E-03 0.  1.
        -12    1    3    3    0    0 -0.33304822271E+02  0.11331818999E+02 -0.32377258197E+01  0.35328517897E+02  0.00000000000E+00 0.  1.
</event>
<event>
 7    1  0.1978681E-015  0.9000797E+02  0.7816164E-02  0.1186339E+00
        -11   -1    0    0    0    0  0.00000000000E+00  0.00000000000E+00  0.45593999997E+02  0.45594000000E+02  0.51100000000E-03 0.  1.
         11   -1    0    0    0    0 -0.00000000000E+00 -0.00000000000E+00 -0.45593999997E+02  0.45594000000E+02  0.51100000000E-03 0. -1.
    9900012    2    1    2    0    0 -0.57550063857E+00 -0.90391251686E+00 -0.49417110054E+00  0.90007972924E+02  0.90000237366E+02 0.  0.
        -12    1    1    2    0    0  0.57550063857E+00  0.90391251686E+00  0.49417110054E+00  0.11800270758E+01  0.00000000000E+00 0.  1.
         11    1    3    3    0    0 -0.36671681155E+01 -0.19229696048E+01 -0.85277591177E+01  0.94799055860E+01  0.51100000000E-03 0. -1.
        -11    1    3    3    0    0  0.36786992813E+02 -0.28596735488E+01  0.22973785977E+02  0.43465565859E+02  0.51100000000E-03 0.  1.
         12    1    3    3    0    0 -0.33695325336E+02  0.38787306367E+01 -0.14940197960E+02  0.37062501480E+02  0.00000000000E+00 0. -1.
</event>
<event>
 7    1  0.1978681E-015  0.9000772E+02  0.7816164E-02  0.1186339E+00
        -11   -1    0    0    0    0  0.00000000000E+00  0.00000000000E+00  0.45593999997E+02  0.45594000000E+02  0.51100000000E-03 0.  1.
         11   -1    0    0    0    0 -0.00000000000E+00 -0.00000000000E+00 -0.45593999997E+02  0.45594000000E+02  0.51100000000E-03 0. -1.
    9900012    2    1    2    0    0 -0.69469760917E+00 -0.71990224528E+00  0.62624890774E+00  0.90007723886E+02  0.89999985041E+02 0.  0.
        -12    1    1    2    0    0  0.69469760917E+00  0.71990224528E+00 -0.62624890774E+00  0.11802761140E+01  0.00000000000E+00 0.  1.
         11    1    3    3    0    0 -0.14063503075E+02  0.11114177740E+02 -0.31197885344E+02  0.35980760356E+02  0.51100000000E-03 0. -1.
        -11    1    3    3    0    0 -0.86612904323E+01  0.14673416068E+00 -0.45975710845E+01  0.98069945959E+01  0.51100000000E-03 0.  1.
        -12    1    3    3    0    0  0.22030095898E+02 -0.11980814146E+02  0.36421705337E+02  0.44219968934E+02  0.00000000000E+00 0.  1.
</event>
<event>
 7    1  0.1978681E-015  0.9000764E+02  0.7816164E-02  0.1186339E+00
        -11   -1    0    0    0    0  0.00000000000E+00  0.00000000000E+00  0.45593999997E+02  0.45594000000E+02  0.51100000000E-03 0.  1.
         11   -1    0    0    0    0 -0.00000000000E+00 -0.00000000000E+00 -0.45593999997E+02  0.45594000000E+02  0.51100000000E-03 0. -1.
    9900012    2    1    2    0    0 -0.38226271406E+00 -0.13127801553E+00 -0.11090027149E+01  0.90007641698E+02  0.89999901768E+02 0.  0.
        -12    1    1    2    0    0  0.38226271406E+00  0.13127801553E+00  0.11090027149E+01  0.11803583022E+01  0.00000000000E+00 0.  1.
         11    1    3    3    0    0 -0.14537523262E+02  0.24291581721E+02 -0.22612655847E+02  0.36231929701E+02  0.51100000000E-03 0. -1.
        -11    1    3    3    0    0 -0.40129831174E+00  0.10826028107E+02  0.22903666985E+01  0.11072926659E+02  0.51100000000E-03 0.  1.
        -12    1    3    3    0    0  0.14556558860E+02 -0.35248887844E+02  0.19213286434E+02  0.42702785338E+02  0.00000000000E+00 0.  1.
</event>
<event>
 7    1  0.1978681E-015  0.9000785E+02  0.7816164E-02  0.1186339E+00
        -11   -1    0    0    0    0  0.00000000000E+00  0.00000000000E+00  0.45593999997E+02  0.45594000000E+02  0.51100000000E-03 0.  1.
         11   -1    0    0    0    0 -0.00000000000E+00 -0.00000000000E+00 -0.45593999997E+02  0.45594000000E+02  0.51100000000E-03 0. -1.
    9900012    2    1    2    0    0  0.67150849730E+00 -0.95824944017E+00 -0.15357857971E+00  0.90007850843E+02  0.90000113675E+02 0.  0.
        -12    1    1    2    0    0 -0.67150849730E+00  0.95824944017E+00  0.15357857971E+00  0.11801491565E+01  0.00000000000E+00 0.  1.
         11    1    3    3    0    0 -0.88155835474E+01  0.30299897105E+01  0.15501116718E+01  0.94497723456E+01  0.51100000000E-03 0. -1.
        -11    1    3    3    0    0 -0.21882146716E+02  0.27134855912E+02 -0.84207723189E+01  0.35861374165E+02  0.51100000000E-03 0.  1.
         12    1    3    3    0    0  0.31369238761E+02 -0.31123095063E+02  0.67170820674E+01  0.44696704333E+02  0.00000000000E+00 0. -1.
</event>
<event>
 7    1  0.1978681E-015  0.9000749E+02  0.7816164E-02  0.1186340E+00
        -11   -1    0    0    0    0  0.00000000000E+00  0.00000000000E+00  0.45593999997E+02  0.45594000000E+02  0.51100000000E-03 0.  1.
         11   -1    0    0    0    0 -0.00000000000E+00 -0.00000000000E+00 -0.45593999997E+02  0.45594000000E+02  0.51100000000E-03 0. -1.
    9900012    2    1    2    0    0  0.53114246173E-01 -0.63738506921E+00 -0.99223089219E+00  0.90007490367E+02  0.89999748440E+02 0.  0.
        -12    1    1    2    0    0 -0.53114246173E-01  0.63738506921E+00  0.99223089219E+00  0.11805096327E+01  0.00000000000E+00 0.  1.
         11    1    3    3    0    0  0.30900361800E+02 -0.49754918947E+01 -0.26902409277E+02  0.41271388444E+02  0.51100000000E-03 0. -1.
        -11    1    3    3    0    0 -0.39433477928E+00 -0.36287515214E+01 -0.39290804894E+01  0.53629293558E+01  0.51100000000E-03 0.  1.
        -12    1    3    3    0    0 -0.30452912775E+02  0.79668583470E+01  0.29839258874E+02  0.43373172567E+02  0.00000000000E+00 0.  1.
</event>
<event>
 7    1  0.1978681E-015  0.9000774E+02  0.7816164E-02  0.1186339E+00
        -11   -1    0    0    0    0  0.00000000000E+00  0.00000000000E+00  0.45593999997E+02  0.45594000000E+02  0.51100000000E-03 0.  1.
         11   -1    0    0    0    0 -0.00000000000E+00 -0.00000000000E+00 -0.45593999997E+02  0.45594000000E+02  0.51100000000E-03 0. -1.
    9900012    2    1    2    0    0  0.38601311065E+00 -0.10758415980E+01  0.29424647045E+00  0.90007736364E+02  0.89999997684E+02 0.  0.
        -12    1    1    2    0    0 -0.38601311065E+00  0.10758415980E+01 -0.29424647045E+00  0.11802636362E+01  0.00000000000E+00 0.  1.
         11    1    3    3    0    0  0.67157385857E+01  0.20169853482E+01  0.65111617022E+01  0.95689394197E+01  0.51100000000E-03 0. -1.
        -11    1    3    3    0    0  0.45401354535E+01 -0.40356034191E+02  0.23859803669E+01  0.40680649308E+02  0.51100000000E-03 0.  1.
         12    1    3    3    0    0 -0.10869860928E+02  0.37263207245E+02 -0.86028955986E+01  0.39758147636E+02  0.00000000000E+00 0. -1.
</event>
<event>
 7    1  0.1978681E-015  0.9000777E+02  0.7816164E-02  0.1186339E+00
        -11   -1    0    0    0    0  0.00000000000E+00  0.00000000000E+00  0.45593999997E+02  0.45594000000E+02  0.51100000000E-03 0. -1.
         11   -1    0    0    0    0 -0.00000000000E+00 -0.00000000000E+00 -0.45593999997E+02  0.45594000000E+02  0.51100000000E-03 0.  1.
    9900012    2    1    2    0    0  0.37793055241E+00 -0.42188735338E+00  0.10354282133E+01  0.90007774587E+02  0.90000036411E+02 0.  0.
        -12    1    1    2    0    0 -0.37793055241E+00  0.42188735338E+00 -0.10354282133E+01  0.11802254134E+01  0.00000000000E+00 0.  1.
         11    1    3    3    0    0 -0.31974369626E+02 -0.81236519862E+01  0.23401138274E+02  0.40447092694E+02  0.51100000000E-03 0. -1.
        -11    1    3    3    0    0 -0.13691577778E+01  0.10184489653E+02 -0.35926006671E+01  0.10886009476E+02  0.51100000000E-03 0.  1.
        -12    1    3    3    0    0  0.33721457956E+02 -0.24827250199E+01 -0.18773109393E+02  0.38674672417E+02  0.00000000000E+00 0.  1.
</event>
<event>
 7    1  0.1978681E-015  0.9000752E+02  0.7816164E-02  0.1186339E+00
        -11   -1    0    0    0    0  0.00000000000E+00  0.00000000000E+00  0.45593999997E+02  0.45594000000E+02  0.51100000000E-03 0.  1.
         11   -1    0    0    0    0 -0.00000000000E+00 -0.00000000000E+00 -0.45593999997E+02  0.45594000000E+02  0.51100000000E-03 0. -1.
    9900012    2    1    2    0    0  0.79694722410E+00 -0.11163846774E+00  0.86368393550E+00  0.90007517910E+02  0.89999776346E+02 0.  0.
        -12    1    1    2    0    0 -0.79694722410E+00  0.11163846774E+00 -0.86368393550E+00  0.11804820905E+01  0.00000000000E+00 0.  1.
         11    1    3    3    0    0  0.39843285339E+01  0.13736811605E+02  0.19194607136E+01  0.14431188331E+02  0.51100000000E-03 0. -1.
        -11    1    3    3    0    0 -0.51682717224E+01  0.29721307946E+02 -0.84746825543E+01  0.31335082947E+02  0.51100000000E-03 0.  1.
         12    1    3    3    0    0  0.19808904126E+01 -0.43569758019E+02  0.74189057761E+01  0.44241246632E+02  0.00000000000E+00 0. -1.
</event>
<event>
 7    1  0.1978681E-015  0.9000794E+02  0.7816164E-02  0.1186339E+00
        -11   -1    0    0    0    0  0.00000000000E+00  0.00000000000E+00  0.45593999997E+02  0.45594000000E+02  0.51100000000E-03 0.  1.
         11   -1    0    0    0    0 -0.00000000000E+00 -0.00000000000E+00 -0.45593999997E+02  0.45594000000E+02  0.51100000000E-03 0. -1.
    9900012    2    1    2    0    0 -0.66878232830E+00  0.94419129827E+00 -0.23187988761E+00  0.90007942674E+02  0.90000206717E+02 0.  0.
        -12    1    1    2    0    0  0.66878232830E+00 -0.94419129827E+00  0.23187988761E+00  0.11800573260E+01  0.00000000000E+00 0.  1.
         11    1    3    3    0    0 -0.63484793592E+01  0.71312760566E+01 -0.10591038463E+01  0.96062474249E+01  0.51100000000E-03 0. -1.
        -11    1    3    3    0    0 -0.21254659119E+02  0.13446069050E+02  0.27826189779E+02  0.37508054403E+02  0.51100000000E-03 0.  1.
         12    1    3    3    0    0  0.26934356150E+02 -0.19633153809E+02 -0.26998965820E+02  0.42893640847E+02  0.00000000000E+00 0. -1.
</event>
<event>
 7    1  0.1978681E-015  0.9000776E+02  0.7816164E-02  0.1186339E+00
        -11   -1    0    0    0    0  0.00000000000E+00  0.00000000000E+00  0.45593999997E+02  0.45594000000E+02  0.51100000000E-03 0. -1.
         11   -1    0    0    0    0 -0.00000000000E+00 -0.00000000000E+00 -0.45593999997E+02  0.45594000000E+02  0.51100000000E-03 0.  1.
    9900012    2    1    2    0    0 -0.43652330827E+00 -0.10208299795E+01  0.40039504955E+00  0.90007761617E+02  0.90000023270E+02 0.  0.
        -12    1    1    2    0    0  0.43652330827E+00  0.10208299795E+01 -0.40039504955E+00  0.11802383833E+01  0.00000000000E+00 0.  1.
         11    1    3    3    0    0  0.42310295112E+01 -0.12767625996E+02  0.31096681231E+02  0.33880930744E+02  0.51100000000E-03 0. -1.
        -11    1    3    3    0    0  0.72459373581E+01  0.87544594627E+01  0.90489055906E+01  0.14526763622E+02  0.51100000000E-03 0.  1.
        -12    1    3    3    0    0 -0.11913490178E+02  0.29923365533E+01 -0.39745191772E+02  0.41600067250E+02  0.00000000000E+00 0.  1.
</event>
<event>
 7    1  0.1978681E-015  0.9000784E+02  0.7816164E-02  0.1186339E+00
        -11   -1    0    0    0    0  0.00000000000E+00  0.00000000000E+00  0.45593999997E+02  0.45594000000E+02  0.51100000000E-03 0.  1.
         11   -1    0    0    0    0 -0.00000000000E+00 -0.00000000000E+00 -0.45593999997E+02  0.45594000000E+02  0.51100000000E-03 0. -1.
    9900012    2    1    2    0    0  0.11281923877E+01  0.34054336505E+00 -0.63146749776E-01  0.90007840960E+02  0.90000103661E+02 0.  0.
        -12    1    1    2    0    0 -0.11281923877E+01 -0.34054336505E+00  0.63146749776E-01  0.11801590398E+01  0.00000000000E+00 0.  1.
         11    1    3    3    0    0  0.28179786992E+00 -0.58402321003E+01  0.18502981331E+01  0.61328072257E+01  0.51100000000E-03 0. -1.
        -11    1    3    3    0    0  0.19266908369E+02  0.38128899768E+02  0.12136999960E+02  0.44410961754E+02  0.51100000000E-03 0.  1.
         12    1    3    3    0    0 -0.18420513851E+02 -0.31948124303E+02 -0.14050444843E+02  0.39464071981E+02  0.00000000000E+00 0. -1.
</event>
<event>
 7    1  0.1978681E-015  0.9000775E+02  0.7816164E-02  0.1186339E+00
        -11   -1    0    0    0    0  0.00000000000E+00  0.00000000000E+00  0.45593999997E+02  0.45594000000E+02  0.51100000000E-03 0.  1.
         11   -1    0    0    0    0 -0.00000000000E+00 -0.00000000000E+00 -0.45593999997E+02  0.45594000000E+02  0.51100000000E-03 0. -1.
    9900012    2    1    2    0    0  0.11237057403E+01  0.35067738359E+00  0.85429348735E-01  0.90007751131E+02  0.90000012646E+02 0.  0.
        -12    1    1    2    0    0 -0.11237057403E+01 -0.35067738359E+00 -0.85429348735E-01  0.11802488686E+01  0.00000000000E+00 0.  1.
         11    1    3    3    0    0  0.66849712582E+01  0.37687321196E+02 -0.93943093031E+01  0.39411623504E+02  0.51100000000E-03 0. -1.
        -11    1    3    3    0    0 -0.69888875329E+01  0.16378314783E+01 -0.52642049613E+01  0.89016231686E+01  0.51100000000E-03 0.  1.
        -12    1    3    3    0    0  0.14276220151E+01 -0.38974475291E+02  0.14743943613E+02  0.41694504459E+02  0.00000000000E+00 0.  1.
</event>
<event>
 7    1  0.1978681E-015  0.9000770E+02  0.7816164E-02  0.1186339E+00
        -11   -1    0    0    0    0  0.00000000000E+00  0.00000000000E+00  0.45593999997E+02  0.45594000000E+02  0.51100000000E-03 0.  1.
         11   -1    0    0    0    0 -0.00000000000E+00 -0.00000000000E+00 -0.45593999997E+02  0.45594000000E+02  0.51100000000E-03 0. -1.
    9900012    2    1    2    0    0  0.89854596736E+00 -0.56845524494E+00 -0.51243271684E+00  0.90007697704E+02  0.89999958514E+02 0.  0.
        -12    1    1    2    0    0 -0.89854596736E+00  0.56845524494E+00  0.51243271684E+00  0.11803022961E+01  0.00000000000E+00 0.  1.
         11    1    3    3    0    0 -0.32590049586E+02 -0.14683539386E+02 -0.11164987790E+02  0.37448292532E+02  0.51100000000E-03 0. -1.
        -11    1    3    3    0    0 -0.63945629363E+01 -0.75873695435E+00 -0.39542079889E+01  0.75565784580E+01  0.51100000000E-03 0.  1.
        -12    1    3    3    0    0  0.39883158490E+02  0.14873821095E+02  0.14606763063E+02  0.45002826714E+02  0.00000000000E+00 0.  1.
</event>
<event>
 7    1  0.1978681E-015  0.9000776E+02  0.7816164E-02  0.1186339E+00
        -11   -1    0    0    0    0  0.00000000000E+00  0.00000000000E+00  0.45593999997E+02  0.45594000000E+02  0.51100000000E-03 0.  1.
         11   -1    0    0    0    0 -0.00000000000E+00 -0.00000000000E+00 -0.45593999997E+02  0.45594000000E+02  0.51100000000E-03 0. -1.
    9900012    2    1    2    0    0 -0.55146300328E+00 -0.97328637160E+00  0.37624279142E+00  0.90007764243E+02  0.90000025931E+02 0.  0.
        -12    1    1    2    0    0  0.55146300328E+00  0.97328637160E+00 -0.37624279142E+00  0.11802357575E+01  0.00000000000E+00 0.  1.
         11    1    3    3    0    0  0.43760833817E+01 -0.12544520094E+02 -0.36062136980E+02  0.38431664210E+02  0.51100000000E-03 0. -1.
        -11    1    3    3    0    0  0.14541990982E+01  0.52804554437E+01 -0.60454196349E+01  0.81575120921E+01  0.51100000000E-03 0.  1.
        -12    1    3    3    0    0 -0.63817454832E+01  0.62907782786E+01  0.42483799406E+02  0.43418587940E+02  0.00000000000E+00 0.  1.
</event>
<event>
 7    1  0.1978681E-015  0.9000748E+02  0.7816164E-02  0.1186340E+00
        -11   -1    0    0    0    0  0.00000000000E+00  0.00000000000E+00  0.45593999997E+02  0.45594000000E+02  0.51100000000E-03 0. -1.
         11   -1    0    0    0    0 -0.00000000000E+00 -0.00000000000E+00 -0.45593999997E+02  0.45594000000E+02  0.51100000000E-03 0.  1.
    9900012    2    1    2    0    0 -0.24002794687E+00 -0.88795924691E+00  0.73996804190E+00  0.90007475649E+02  0.89999733528E+02 0.  0.
        -12    1    1    2    0    0  0.24002794687E+00  0.88795924691E+00 -0.73996804190E+00  0.11805243507E+01  0.00000000000E+00 0.  1.
         11    1    3    3    0    0 -0.75968115644E+01 -0.30292167445E+02 -0.14158901622E+02  0.34289961357E+02  0.51100000000E-03 0. -1.
        -11    1    3    3    0    0 -0.81472362821E+00 -0.64890907256E+01 -0.95149505424E+01  0.11545837220E+02  0.51100000000E-03 0.  1.
        -12    1    3    3    0    0  0.81715072457E+01  0.35893298923E+02  0.24413820207E+02  0.44171677072E+02  0.00000000000E+00 0.  1.
</event>
<event>
 7    1  0.1978681E-015  0.9000764E+02  0.7816164E-02  0.1186339E+00
        -11   -1    0    0    0    0  0.00000000000E+00  0.00000000000E+00  0.45593999997E+02  0.45594000000E+02  0.51100000000E-03 0. -1.
         11   -1    0    0    0    0 -0.00000000000E+00 -0.00000000000E+00 -0.45593999997E+02  0.45594000000E+02  0.51100000000E-03 0.  1.
    9900012    2    1    2    0    0 -0.76263658662E+00 -0.24787066645E+00  0.86613339906E+00  0.90007643488E+02  0.89999903582E+02 0.  0.
        -12    1    1    2    0    0  0.76263658662E+00  0.24787066645E+00 -0.86613339906E+00  0.11803565120E+01  0.00000000000E+00 0.  1.
         11    1    3    3    0    0 -0.44740752921E+01 -0.34481898866E+01 -0.34781195984E+01  0.66336022956E+01  0.51100000000E-03 0. -1.
        -11    1    3    3    0    0  0.12475762300E+02 -0.22815216409E+02 -0.29808018041E+02  0.39556247099E+02  0.51100000000E-03 0.  1.
         12    1    3    3    0    0 -0.87643235947E+01  0.26015535629E+02  0.34152271039E+02  0.43817794094E+02  0.00000000000E+00 0. -1.
</event>
<event>
 7    1  0.1978681E-015  0.9000773E+02  0.7816164E-02  0.1186339E+00
        -11   -1    0    0    0    0  0.00000000000E+00  0.00000000000E+00  0.45593999997E+02  0.45594000000E+02  0.51100000000E-03 0. -1.
         11   -1    0    0    0    0 -0.00000000000E+00 -0.00000000000E+00 -0.45593999997E+02  0.45594000000E+02  0.51100000000E-03 0.  1.
    9900012    2    1    2    0    0  0.14121073537E+00  0.10075695963E+01  0.59824750900E+00  0.90007730096E+02  0.89999991334E+02 0.  0.
        -12    1    1    2    0    0 -0.14121073537E+00 -0.10075695963E+01 -0.59824750900E+00  0.11802699035E+01  0.00000000000E+00 0.  1.
         11    1    3    3    0    0 -0.58729697790E+00  0.11785592430E+01 -0.10220075062E+02  0.10304555020E+02  0.51100000000E-03 0. -1.
        -11    1    3    3    0    0  0.13020704220E+02  0.20249883788E+02 -0.26259421551E+02  0.35625184242E+02  0.51100000000E-03 0.  1.
         12    1    3    3    0    0 -0.12292196507E+02 -0.20420873434E+02  0.37077744122E+02  0.44077990834E+02  0.00000000000E+00 0. -1.
</event>
<event>
 7    1  0.1978681E-015  0.9000778E+02  0.7816164E-02  0.1186339E+00
        -11   -1    0    0    0    0  0.00000000000E+00  0.00000000000E+00  0.45593999997E+02  0.45594000000E+02  0.51100000000E-03 0. -1.
         11   -1    0    0    0    0 -0.00000000000E+00 -0.00000000000E+00 -0.45593999997E+02  0.45594000000E+02  0.51100000000E-03 0.  1.
    9900012    2    1    2    0    0 -0.62303275833E+00  0.20588329602E-01  0.10021658151E+01  0.90007775437E+02  0.90000037273E+02 0.  0.
        -12    1    1    2    0    0  0.62303275833E+00 -0.20588329602E-01 -0.10021658151E+01  0.11802245626E+01  0.00000000000E+00 0.  1.
         11    1    3    3    0    0 -0.28316277060E+02  0.19328391980E+02  0.26910850248E+02  0.43584310760E+02  0.51100000000E-03 0. -1.
        -11    1    3    3    0    0 -0.98615070320E+00 -0.71942615161E+01 -0.34756296634E+01  0.80504592285E+01  0.51100000000E-03 0.  1.
        -12    1    3    3    0    0  0.28679395005E+02 -0.12113542134E+02 -0.22433054769E+02  0.38373005449E+02  0.00000000000E+00 0.  1.
</event>
<event>
 7    1  0.1978681E-015  0.9000760E+02  0.7816164E-02  0.1186339E+00
        -11   -1    0    0    0    0  0.00000000000E+00  0.00000000000E+00  0.45593999997E+02  0.45594000000E+02  0.51100000000E-03 0. -1.
         11   -1    0    0    0    0 -0.00000000000E+00 -0.00000000000E+00 -0.45593999997E+02  0.45594000000E+02  0.51100000000E-03 0.  1.
    9900012    2    1    2    0    0 -0.50897241387E+00 -0.10480499346E+01  0.18944453601E+00  0.90007597181E+02  0.89999856663E+02 0.  0.
        -12    1    1    2    0    0  0.50897241387E+00  0.10480499346E+01 -0.18944453601E+00  0.11804028193E+01  0.00000000000E+00 0.  1.
         11    1    3    3    0    0 -0.31161328438E+01  0.81445689578E+01  0.45498637452E+01  0.98359314642E+01  0.51100000000E-03 0. -1.
        -11    1    3    3    0    0 -0.42829502694E+01  0.32065052126E+02 -0.16906993617E+02  0.36501474823E+02  0.51100000000E-03 0.  1.
         12    1    3    3    0    0  0.68901106993E+01 -0.41257671018E+02  0.12546574408E+02  0.43670190893E+02  0.00000000000E+00 0. -1.
</event>
<event>
 7    1  0.1978681E-015  0.9000804E+02  0.7816164E-02  0.1186338E+00
        -11   -1    0    0    0    0  0.00000000000E+00  0.00000000000E+00  0.45593999997E+02  0.45594000000E+02  0.51100000000E-03 0. -1.
         11   -1    0    0    0    0 -0.00000000000E+00 -0.00000000000E+00 -0.45593999997E+02  0.45594000000E+02  0.51100000000E-03 0.  1.
    9900012    2    1    2    0    0  0.10242222860E+01  0.23446999778E+00  0.53694008179E+00  0.90008037237E+02  0.90000302528E+02 0.  0.
        -12    1    1    2    0    0 -0.10242222860E+01 -0.23446999778E+00 -0.53694008179E+00  0.11799627631E+01  0.00000000000E+00 0.  1.
         11    1    3    3    0    0 -0.96311011622E+01  0.25313577955E+02 -0.16109190674E+02  0.31512558812E+02  0.51100000000E-03 0. -1.
        -11    1    3    3    0    0 -0.15570262688E+02 -0.37203846564E+01  0.18692820504E+02  0.24610889477E+02  0.51100000000E-03 0.  1.
        -12    1    3    3    0    0  0.26225586137E+02 -0.21358723301E+02 -0.20466897487E+01  0.33884588948E+02  0.00000000000E+00 0.  1.
</event>
<event>
 7    1  0.1978681E-015  0.9000779E+02  0.7816164E-02  0.1186339E+00
        -11   -1    0    0    0    0  0.00000000000E+00  0.00000000000E+00  0.45593999997E+02  0.45594000000E+02  0.51100000000E-03 0. -1.
         11   -1    0    0    0    0 -0.00000000000E+00 -0.00000000000E+00 -0.45593999997E+02  0.45594000000E+02  0.51100000000E-03 0.  1.
    9900012    2    1    2    0    0 -0.63862118844E+00  0.16111534526E+00  0.97933590055E+00  0.90007790704E+02  0.90000052741E+02 0.  0.
        -12    1    1    2    0    0  0.63862118844E+00 -0.16111534526E+00 -0.97933590055E+00  0.11802092962E+01  0.00000000000E+00 0.  1.
         11    1    3    3    0    0  0.10641384827E+02 -0.27606260065E+02 -0.20142680570E+02  0.35792069606E+02  0.51100000000E-03 0. -1.
        -11    1    3    3    0    0 -0.15662938319E+01 -0.98384309824E+01 -0.85930760090E-01  0.99626996803E+01  0.51100000000E-03 0.  1.
        -12    1    3    3    0    0 -0.97137121837E+01  0.37605806393E+02  0.21207947231E+02  0.44253021418E+02  0.00000000000E+00 0.  1.
</event>
<event>
 7    1  0.1978681E-015  0.9000767E+02  0.7816164E-02  0.1186339E+00
        -11   -1    0    0    0    0  0.00000000000E+00  0.00000000000E+00  0.45593999997E+02  0.45594000000E+02  0.51100000000E-03 0.  1.
         11   -1    0    0    0    0 -0.00000000000E+00 -0.00000000000E+00 -0.45593999997E+02  0.45594000000E+02  0.51100000000E-03 0. -1.
    9900012    2    1    2    0    0 -0.59029453960E+00  0.31782656469E+00 -0.97144626057E+00  0.90007674110E+02  0.89999934609E+02 0.  0.
        -12    1    1    2    0    0  0.59029453960E+00 -0.31782656469E+00  0.97144626057E+00  0.11803258897E+01  0.00000000000E+00 0.  1.
         11    1    3    3    0    0 -0.42889477723E+01 -0.16699122755E+02  0.60503163514E+01  0.18271893771E+02  0.51100000000E-03 0. -1.
        -11    1    3    3    0    0 -0.97251172118E+01  0.77132218968E+01  0.29349124053E+02  0.31866012925E+02  0.51100000000E-03 0.  1.
         12    1    3    3    0    0  0.13423770445E+02  0.93037274227E+01 -0.36370886664E+02  0.39869767414E+02  0.00000000000E+00 0. -1.
</event>
<event>
 7    1  0.1978681E-015  0.9000773E+02  0.7816164E-02  0.1186339E+00
        -11   -1    0    0    0    0  0.00000000000E+00  0.00000000000E+00  0.45593999997E+02  0.45594000000E+02  0.51100000000E-03 0.  1.
         11   -1    0    0    0    0 -0.00000000000E+00 -0.00000000000E+00 -0.45593999997E+02  0.45594000000E+02  0.51100000000E-03 0. -1.
    9900012    2    1    2    0    0 -0.82295191474E+00  0.14348059122E+00 -0.83378534287E+00  0.90007731161E+02  0.89999992412E+02 0.  0.
        -12    1    1    2    0    0  0.82295191474E+00 -0.14348059122E+00  0.83378534287E+00  0.11802688389E+01  0.00000000000E+00 0.  1.
         11    1    3    3    0    0 -0.53504414143E+01  0.28687747464E+01  0.80236581680E+01  0.10061619280E+02  0.51100000000E-03 0. -1.
        -11    1    3    3    0    0 -0.34587219624E+02 -0.11051502017E+01 -0.19037557443E+02  0.39495894874E+02  0.51100000000E-03 0.  1.
         12    1    3    3    0    0  0.39114709123E+02 -0.16201439535E+01  0.10180113933E+02  0.40450217007E+02  0.00000000000E+00 0. -1.
</event>
<event>
 7    1  0.1978681E-015  0.9000773E+02  0.7816164E-02  0.1186339E+00
        -11   -1    0    0    0    0  0.00000000000E+00  0.00000000000E+00  0.45593999997E+02  0.45594000000E+02  0.51100000000E-03 0. -1.
         11   -1    0    0    0    0 -0.00000000000E+00 -0.00000000000E+00 -0.45593999997E+02  0.45594000000E+02  0.51100000000E-03 0.  1.
    9900012    2    1    2    0    0  0.11083917835E+01  0.15994181496E+00  0.37271654581E+00  0.90007732508E+02  0.89999993777E+02 0.  0.
        -12    1    1    2    0    0 -0.11083917835E+01 -0.15994181496E+00 -0.37271654581E+00  0.11802674923E+01  0.00000000000E+00 0.  1.
         11    1    3    3    0    0 -0.31129358959E+02 -0.22906347906E+01  0.17870620528E+02  0.35967250038E+02  0.51100000000E-03 0. -1.
        -11    1    3    3    0    0 -0.81665225296E+01  0.38587900870E+00  0.29728155448E+01  0.86993462605E+01  0.51100000000E-03 0.  1.
        -12    1    3    3    0    0  0.40404273272E+02  0.20646975968E+01 -0.20470719527E+02  0.45341136210E+02  0.00000000000E+00 0.  1.
</event>
<event>
 7    1  0.1978681E-015  0.9000764E+02  0.7816164E-02  0.1186339E+00
        -11   -1    0    0    0    0  0.00000000000E+00  0.00000000000E+00  0.45593999997E+02  0.45594000000E+02  0.51100000000E-03 0.  1.
         11   -1    0    0    0    0 -0.00000000000E+00 -0.00000000000E+00 -0.45593999997E+02  0.45594000000E+02  0.51100000000E-03 0. -1.
    9900012    2    1    2    0    0  0.18470761453E+00  0.10549000684E+01 -0.49629330660E+00  0.90007644925E+02  0.89999905038E+02 0.  0.
        -12    1    1    2    0    0 -0.18470761453E+00 -0.10549000684E+01  0.49629330660E+00  0.11803550751E+01  0.00000000000E+00 0.  1.
         11    1    3    3    0    0  0.15310659713E+02  0.34405721686E+02 -0.11114856208E+02  0.39264615297E+02  0.51100000000E-03 0. -1.
        -11    1    3    3    0    0 -0.29260234681E+01  0.69220931926E+01  0.21812469168E+01  0.78252684220E+01  0.51100000000E-03 0.  1.
        -12    1    3    3    0    0 -0.12199928631E+02 -0.40272914810E+02  0.84373159850E+01  0.42917761206E+02  0.00000000000E+00 0.  1.
</event>
<event>
 7    1  0.1978681E-015  0.9000834E+02  0.7816164E-02  0.1186338E+00
        -11   -1    0    0    0    0  0.00000000000E+00  0.00000000000E+00  0.45593999997E+02  0.45594000000E+02  0.51100000000E-03 0.  1.
         11   -1    0    0    0    0 -0.00000000000E+00 -0.00000000000E+00 -0.45593999997E+02  0.45594000000E+02  0.51100000000E-03 0. -1.
    9900012    2    1    2    0    0 -0.65494353164E+00  0.20000654216E+00 -0.96053908601E+00  0.90008343702E+02  0.90000613036E+02 0.  0.
        -12    1    1    2    0    0  0.65494353164E+00 -0.20000654216E+00  0.96053908601E+00  0.11796562984E+01  0.00000000000E+00 0.  1.
         11    1    3    3    0    0  0.32607285124E+02 -0.84949800923E+01  0.69338838723E+01  0.34401721988E+02  0.51100000000E-03 0. -1.
        -11    1    3    3    0    0  0.85416882187E+01 -0.43387448999E+01  0.37627437102E+01  0.10292880327E+02  0.51100000000E-03 0.  1.
        -12    1    3    3    0    0 -0.41803916874E+02  0.13033731534E+02 -0.11657166668E+02  0.45313741387E+02  0.00000000000E+00 0.  1.
</event>
<event>
 7    1  0.1978681E-015  0.9000780E+02  0.7816164E-02  0.1186339E+00
        -11   -1    0    0    0    0  0.00000000000E+00  0.00000000000E+00  0.45593999997E+02  0.45594000000E+02  0.51100000000E-03 0. -1.
         11   -1    0    0    0    0 -0.00000000000E+00 -0.00000000000E+00 -0.45593999997E+02  0.45594000000E+02  0.51100000000E-03 0.  1.
    9900012    2    1    2    0    0 -0.37860695756E-01  0.64297906089E+00  0.98894640701E+00  0.90007800652E+02  0.90000062821E+02 0.  0.
        -12    1    1    2    0    0  0.37860695756E-01 -0.64297906089E+00 -0.98894640701E+00  0.11801993480E+01  0.00000000000E+00 0.  1.
         11    1    3    3    0    0  0.21889680053E+02 -0.39430326819E+01  0.14224135152E+02  0.26401356416E+02  0.51100000000E-03 0. -1.
        -11    1    3    3    0    0  0.25216965519E+01  0.43102294997E+01 -0.32248665082E+02  0.32633011380E+02  0.51100000000E-03 0.  1.
         12    1    3    3    0    0 -0.24449237301E+02  0.27578224302E+00  0.19013476338E+02  0.30973432856E+02  0.00000000000E+00 0. -1.
</event>
<event>
 7    1  0.1978681E-015  0.9000775E+02  0.7816164E-02  0.1186339E+00
        -11   -1    0    0    0    0  0.00000000000E+00  0.00000000000E+00  0.45593999997E+02  0.45594000000E+02  0.51100000000E-03 0.  1.
         11   -1    0    0    0    0 -0.00000000000E+00 -0.00000000000E+00 -0.45593999997E+02  0.45594000000E+02  0.51100000000E-03 0. -1.
    9900012    2    1    2    0    0 -0.11795350345E-01 -0.82794046979E+00 -0.84105328915E+00  0.90007747829E+02  0.90000009300E+02 0.  0.
        -12    1    1    2    0    0  0.11795350345E-01  0.82794046979E+00  0.84105328915E+00  0.11802521709E+01  0.00000000000E+00 0.  1.
         11    1    3    3    0    0  0.30261093154E+01 -0.11840129594E+02 -0.62062333057E+00  0.12236469261E+02  0.51100000000E-03 0. -1.
        -11    1    3    3    0    0  0.27027978120E+02 -0.13837149780E+02 -0.17569964550E+02  0.35081077091E+02  0.51100000000E-03 0.  1.
         12    1    3    3    0    0 -0.30065882786E+02  0.24849338904E+02  0.17349534592E+02  0.42690201478E+02  0.00000000000E+00 0. -1.
</event>
<event>
 7    1  0.1978681E-015  0.9000774E+02  0.7816164E-02  0.1186339E+00
        -11   -1    0    0    0    0  0.00000000000E+00  0.00000000000E+00  0.45593999997E+02  0.45594000000E+02  0.51100000000E-03 0.  1.
         11   -1    0    0    0    0 -0.00000000000E+00 -0.00000000000E+00 -0.45593999997E+02  0.45594000000E+02  0.51100000000E-03 0. -1.
    9900012    2    1    2    0    0  0.10547413833E+01  0.34453582521E+00 -0.40227179649E+00  0.90007742859E+02  0.90000004265E+02 0.  0.
        -12    1    1    2    0    0 -0.10547413833E+01 -0.34453582521E+00  0.40227179649E+00  0.11802571409E+01  0.00000000000E+00 0.  1.
         11    1    3    3    0    0  0.59244938064E+01  0.14025382238E+02 -0.36281011073E+02  0.39346190903E+02  0.51100000000E-03 0. -1.
        -11    1    3    3    0    0 -0.86747316865E+01 -0.18669036206E+01 -0.33741063432E+01  0.94932024542E+01  0.51100000000E-03 0.  1.
        -12    1    3    3    0    0  0.38049792633E+01 -0.11813942792E+02  0.39252845620E+02  0.41168349502E+02  0.00000000000E+00 0.  1.
</event>
<event>
 7    1  0.1978681E-015  0.9000780E+02  0.7816164E-02  0.1186339E+00
        -11   -1    0    0    0    0  0.00000000000E+00  0.00000000000E+00  0.45593999997E+02  0.45594000000E+02  0.51100000000E-03 0.  1.
         11   -1    0    0    0    0 -0.00000000000E+00 -0.00000000000E+00 -0.45593999997E+02  0.45594000000E+02  0.51100000000E-03 0. -1.
    9900012    2    1    2    0    0  0.89928561915E+00  0.74366785970E+00 -0.17637941925E+00  0.90007802470E+02  0.90000064663E+02 0.  0.
        -12    1    1    2    0    0 -0.89928561915E+00 -0.74366785970E+00  0.17637941925E+00  0.11801975300E+01  0.00000000000E+00 0.  1.
         11    1    3    3    0    0 -0.43280568148E+01 -0.39698529487E+01  0.53628883931E+01  0.79531365136E+01  0.51100000000E-03 0. -1.
        -11    1    3    3    0    0  0.19040822454E+02 -0.27640901628E+02  0.19551708453E+02  0.38843811170E+02  0.51100000000E-03 0.  1.
         12    1    3    3    0    0 -0.13813480020E+02  0.32354422436E+02 -0.25090976265E+02  0.43210854786E+02  0.00000000000E+00 0. -1.
</event>
<event>
 7    1  0.1978681E-015  0.9000746E+02  0.7816164E-02  0.1186340E+00
        -11   -1    0    0    0    0  0.00000000000E+00  0.00000000000E+00  0.45593999997E+02  0.45594000000E+02  0.51100000000E-03 0. -1.
         11   -1    0    0    0    0 -0.00000000000E+00 -0.00000000000E+00 -0.45593999997E+02  0.45594000000E+02  0.51100000000E-03 0.  1.
    9900012    2    1    2    0    0 -0.79969650509E+00 -0.86768374394E+00 -0.35699582878E-01  0.90007464511E+02  0.89999722242E+02 0.  0.
        -12    1    1    2    0    0  0.79969650509E+00  0.86768374394E+00  0.35699582878E-01  0.11805354887E+01  0.00000000000E+00 0.  1.
         11    1    3    3    0    0 -0.10840071182E+02  0.55934437887E+01  0.30176560052E+02  0.32548710167E+02  0.51100000000E-03 0. -1.
        -11    1    3    3    0    0 -0.19763541925E+01 -0.84975948450E+01  0.11253281876E+02  0.14239081687E+02  0.51100000000E-03 0.  1.
        -12    1    3    3    0    0  0.12016728870E+02  0.20364673124E+01 -0.41465541511E+02  0.43219672658E+02  0.00000000000E+00 0.  1.
</event>
<event>
 7    1  0.1978681E-015  0.9000777E+02  0.7816164E-02  0.1186339E+00
        -11   -1    0    0    0    0  0.00000000000E+00  0.00000000000E+00  0.45593999997E+02  0.45594000000E+02  0.51100000000E-03 0. -1.
         11   -1    0    0    0    0 -0.00000000000E+00 -0.00000000000E+00 -0.45593999997E+02  0.45594000000E+02  0.51100000000E-03 0.  1.
    9900012    2    1    2    0    0 -0.25513927447E-01  0.47227880097E+00  0.10813154239E+01  0.90007770670E+02  0.90000032442E+02 0.  0.
        -12    1    1    2    0    0  0.25513927447E-01 -0.47227880097E+00 -0.10813154239E+01  0.11802293304E+01  0.00000000000E+00 0.  1.
         11    1    3    3    0    0  0.17323751196E+02 -0.38029064598E+02 -0.75282165251E+00  0.41795799435E+02  0.51100000000E-03 0. -1.
        -11    1    3    3    0    0  0.70503931576E+00  0.75622867295E+01 -0.80342548362E+01  0.11055971782E+02  0.51100000000E-03 0.  1.
        -12    1    3    3    0    0 -0.18054304439E+02  0.30939056670E+02  0.98683919126E+01  0.37155999453E+02  0.00000000000E+00 0.  1.
</event>
<event>
 7    1  0.1978681E-015  0.9000766E+02  0.7816164E-02  0.1186339E+00
        -11   -1    0    0    0    0  0.00000000000E+00  0.00000000000E+00  0.45593999997E+02  0.45594000000E+02  0.51100000000E-03 0.  1.
         11   -1    0    0    0    0 -0.00000000000E+00 -0.00000000000E+00 -0.45593999997E+02  0.45594000000E+02  0.51100000000E-03 0. -1.
    9900012    2    1    2    0    0 -0.59653894184E+00 -0.86153668950E+00 -0.54323577042E+00  0.90007657135E+02  0.89999917409E+02 0.  0.
        -12    1    1    2    0    0  0.59653894184E+00  0.86153668950E+00  0.54323577042E+00  0.11803428649E+01  0.00000000000E+00 0.  1.
         11    1    3    3    0    0  0.28879020398E+02  0.12052640631E+02 -0.11145932188E+02  0.33218906814E+02  0.51100000000E-03 0. -1.
        -11    1    3    3    0    0  0.21624860063E+01  0.11266582655E+02 -0.67949651801E+01  0.13333558509E+02  0.51100000000E-03 0.  1.
        -12    1    3    3    0    0 -0.31638045346E+02 -0.24180759976E+02  0.17397661597E+02  0.43455191812E+02  0.00000000000E+00 0.  1.
</event>
<event>
 7    1  0.1978681E-015  0.9000782E+02  0.7816164E-02  0.1186339E+00
        -11   -1    0    0    0    0  0.00000000000E+00  0.00000000000E+00  0.45593999997E+02  0.45594000000E+02  0.51100000000E-03 0.  1.
         11   -1    0    0    0    0 -0.00000000000E+00 -0.00000000000E+00 -0.45593999997E+02  0.45594000000E+02  0.51100000000E-03 0. -1.
    9900012    2    1    2    0    0 -0.60659393936E+00 -0.38810905931E+00 -0.93500965893E+00  0.90007818696E+02  0.90000081102E+02 0.  0.
        -12    1    1    2    0    0  0.60659393936E+00  0.38810905931E+00  0.93500965893E+00  0.11801813045E+01  0.00000000000E+00 0.  1.
         11    1    3    3    0    0  0.76416793517E+01 -0.32090827587E+01 -0.36203290097E+01  0.90443494993E+01  0.51100000000E-03 0. -1.
        -11    1    3    3    0    0  0.33219465647E+02 -0.13072630159E+02 -0.44827409995E+01  0.35979459755E+02  0.51100000000E-03 0.  1.
         12    1    3    3    0    0 -0.41467738938E+02  0.15893603858E+02  0.71680603503E+01  0.44984009441E+02  0.00000000000E+00 0. -1.
</event>
<event>
 7    1  0.1978681E-015  0.9000770E+02  0.7816164E-02  0.1186339E+00
        -11   -1    0    0    0    0  0.00000000000E+00  0.00000000000E+00  0.45593999997E+02  0.45594000000E+02  0.51100000000E-03 0. -1.
         11   -1    0    0    0    0 -0.00000000000E+00 -0.00000000000E+00 -0.45593999997E+02  0.45594000000E+02  0.51100000000E-03 0.  1.
    9900012    2    1    2    0    0  0.66469610433E+00 -0.42031523514E+00  0.88012732254E+00  0.90007699228E+02  0.89999960058E+02 0.  0.
        -12    1    1    2    0    0 -0.66469610433E+00  0.42031523514E+00 -0.88012732254E+00  0.11803007718E+01  0.00000000000E+00 0.  1.
         11    1    3    3    0    0 -0.57497359479E+01  0.63603589789E+01 -0.56292887961E+01  0.10256828088E+02  0.51100000000E-03 0. -1.
        -11    1    3    3    0    0 -0.15841909341E+02  0.27545467598E+02  0.18941939216E+02  0.36993458047E+02  0.51100000000E-03 0.  1.
         12    1    3    3    0    0  0.22256341394E+02 -0.34326141812E+02 -0.12432523097E+02  0.42757413094E+02  0.00000000000E+00 0. -1.
</event>
<event>
 7    1  0.1978681E-015  0.9000789E+02  0.7816164E-02  0.1186339E+00
        -11   -1    0    0    0    0  0.00000000000E+00  0.00000000000E+00  0.45593999997E+02  0.45594000000E+02  0.51100000000E-03 0.  1.
         11   -1    0    0    0    0 -0.00000000000E+00 -0.00000000000E+00 -0.45593999997E+02  0.45594000000E+02  0.51100000000E-03 0. -1.
    9900012    2    1    2    0    0  0.11179816833E+01 -0.13181171823E+00 -0.35413031066E+00  0.90007887442E+02  0.90000150756E+02 0.  0.
        -12    1    1    2    0    0 -0.11179816833E+01  0.13181171823E+00  0.35413031066E+00  0.11801125583E+01  0.00000000000E+00 0.  1.
         11    1    3    3    0    0 -0.60831634270E+01  0.64927690362E+01  0.37014106902E+01  0.96364603665E+01  0.51100000000E-03 0. -1.
        -11    1    3    3    0    0 -0.19260079691E+02  0.15899698157E+02 -0.28492988671E+02  0.37889331940E+02  0.51100000000E-03 0.  1.
         12    1    3    3    0    0  0.26461224801E+02 -0.22524278911E+02  0.24437447671E+02  0.42482095135E+02  0.00000000000E+00 0. -1.
</event>
<event>
 7    1  0.1978681E-015  0.9000745E+02  0.7816164E-02  0.1186340E+00
        -11   -1    0    0    0    0  0.00000000000E+00  0.00000000000E+00  0.45593999997E+02  0.45594000000E+02  0.51100000000E-03 0.  1.
         11   -1    0    0    0    0 -0.00000000000E+00 -0.00000000000E+00 -0.45593999997E+02  0.45594000000E+02  0.51100000000E-03 0. -1.
    9900012    2    1    2    0    0 -0.74877173837E+00  0.36753865264E+00 -0.83543963203E+00  0.90007447944E+02  0.89999705457E+02 0.  0.
        -12    1    1    2    0    0  0.74877173837E+00 -0.36753865264E+00  0.83543963203E+00  0.11805520557E+01  0.00000000000E+00 0.  1.
         11    1    3    3    0    0  0.10957484041E+02 -0.17264138971E+02 -0.29150049916E+02  0.35606774092E+02  0.51100000000E-03 0. -1.
        -11    1    3    3    0    0  0.30753284736E+01  0.12446344180E+02 -0.78195702171E+01  0.15017150439E+02  0.51100000000E-03 0.  1.
        -12    1    3    3    0    0 -0.14781584253E+02  0.51853334431E+01  0.36134180501E+02  0.39383523413E+02  0.00000000000E+00 0.  1.
</event>
<event>
 7    1  0.1978681E-015  0.9000773E+02  0.7816164E-02  0.1186339E+00
        -11   -1    0    0    0    0  0.00000000000E+00  0.00000000000E+00  0.45593999997E+02  0.45594000000E+02  0.51100000000E-03 0. -1.
         11   -1    0    0    0    0 -0.00000000000E+00 -0.00000000000E+00 -0.45593999997E+02  0.45594000000E+02  0.51100000000E-03 0.  1.
    9900012    2    1    2    0    0  0.97081741120E+00  0.34475962790E+00 -0.57593390466E+00  0.90007726511E+02  0.89999987701E+02 0.  0.
        -12    1    1    2    0    0 -0.97081741120E+00 -0.34475962790E+00  0.57593390466E+00  0.11802734893E+01  0.00000000000E+00 0.  1.
         11    1    3    3    0    0  0.11830431670E+00 -0.85504674206E+01 -0.49594838064E+01  0.98853916923E+01  0.51100000000E-03 0. -1.
        -11    1    3    3    0    0 -0.19717339025E+02 -0.26675148274E+02 -0.12838759780E+02  0.35569238769E+02  0.51100000000E-03 0.  1.
         12    1    3    3    0    0  0.20569852119E+02  0.35570375322E+02  0.17222309682E+02  0.44553096049E+02  0.00000000000E+00 0. -1.
</event>
<event>
 7    1  0.1978681E-015  0.9000770E+02  0.7816164E-02  0.1186339E+00
        -11   -1    0    0    0    0  0.00000000000E+00  0.00000000000E+00  0.45593999997E+02  0.45594000000E+02  0.51100000000E-03 0.  1.
         11   -1    0    0    0    0 -0.00000000000E+00 -0.00000000000E+00 -0.45593999997E+02  0.45594000000E+02  0.51100000000E-03 0. -1.
    9900012    2    1    2    0    0 -0.97718823608E+00 -0.64688623327E+00  0.14056506264E+00  0.90007696147E+02  0.89999956937E+02 0.  0.
        -12    1    1    2    0    0  0.97718823608E+00  0.64688623327E+00 -0.14056506264E+00  0.11803038526E+01  0.00000000000E+00 0.  1.
         11    1    3    3    0    0  0.26147767653E+01 -0.11433821634E+02  0.24735845733E+01  0.11986991098E+02  0.51100000000E-03 0. -1.
        -11    1    3    3    0    0  0.33291442347E+02  0.13880069856E+02  0.12460805451E+02  0.38160819508E+02  0.51100000000E-03 0.  1.
         12    1    3    3    0    0 -0.36883407348E+02 -0.30931344555E+01 -0.14793824962E+02  0.39859885542E+02  0.00000000000E+00 0. -1.
</event>
<event>
 7    1  0.1978681E-015  0.9000776E+02  0.7816164E-02  0.1186339E+00
        -11   -1    0    0    0    0  0.00000000000E+00  0.00000000000E+00  0.45593999997E+02  0.45594000000E+02  0.51100000000E-03 0. -1.
         11   -1    0    0    0    0 -0.00000000000E+00 -0.00000000000E+00 -0.45593999997E+02  0.45594000000E+02  0.51100000000E-03 0.  1.
    9900012    2    1    2    0    0 -0.33506743323E+00 -0.34357532133E+00  0.10782598097E+01  0.90007763412E+02  0.90000025089E+02 0.  0.
        -12    1    1    2    0    0  0.33506743323E+00  0.34357532133E+00 -0.10782598097E+01  0.11802365879E+01  0.00000000000E+00 0.  1.
         11    1    3    3    0    0  0.29155700222E+01 -0.12766044183E+00 -0.64941123258E+01  0.71197149455E+01  0.51100000000E-03 0. -1.
        -11    1    3    3    0    0  0.13194564693E+02 -0.38512793902E+02  0.62607135078E+01  0.41188934988E+02  0.51100000000E-03 0.  1.
         12    1    3    3    0    0 -0.16445202149E+02  0.38296879022E+02  0.13116586277E+01  0.41699113479E+02  0.00000000000E+00 0. -1.
</event>
<event>
 7    1  0.1978681E-015  0.9000770E+02  0.7816164E-02  0.1186339E+00
        -11   -1    0    0    0    0  0.00000000000E+00  0.00000000000E+00  0.45593999997E+02  0.45594000000E+02  0.51100000000E-03 0.  1.
         11   -1    0    0    0    0 -0.00000000000E+00 -0.00000000000E+00 -0.45593999997E+02  0.45594000000E+02  0.51100000000E-03 0. -1.
    9900012    2    1    2    0    0  0.86813148169E+00 -0.83182152937E-01  0.79532010449E+00  0.90007701051E+02  0.89999961905E+02 0.  0.
        -12    1    1    2    0    0 -0.86813148169E+00  0.83182152937E-01 -0.79532010449E+00  0.11802989489E+01  0.00000000000E+00 0.  1.
         11    1    3    3    0    0 -0.60116923736E+01 -0.52891976641E+01  0.56384245918E+01  0.97932573367E+01  0.51100000000E-03 0. -1.
        -11    1    3    3    0    0  0.33755513814E+02 -0.16797411575E+02  0.14572678600E+02  0.40422156181E+02  0.51100000000E-03 0.  1.
         12    1    3    3    0    0 -0.26875689959E+02  0.22003427086E+02 -0.19415783087E+02  0.39792287534E+02  0.00000000000E+00 0. -1.
</event>
<event>
 7    1  0.1978681E-015  0.9000772E+02  0.7816164E-02  0.1186339E+00
        -11   -1    0    0    0    0  0.00000000000E+00  0.00000000000E+00  0.45593999997E+02  0.45594000000E+02  0.51100000000E-03 0.  1.
         11   -1    0    0    0    0 -0.00000000000E+00 -0.00000000000E+00 -0.45593999997E+02  0.45594000000E+02  0.51100000000E-03 0. -1.
    9900012    2    1    2    0    0 -0.67193175283E+00  0.32584812522E+00 -0.91399901930E+00  0.90007718894E+02  0.89999979984E+02 0.  0.
        -12    1    1    2    0    0  0.67193175283E+00 -0.32584812522E+00  0.91399901930E+00  0.11802811057E+01  0.00000000000E+00 0.  1.
         11    1    3    3    0    0 -0.81422081319E+01 -0.13256066033E+01  0.46012243782E+01  0.94458484092E+01  0.51100000000E-03 0. -1.
        -11    1    3    3    0    0  0.12794826949E+02 -0.34405821441E+02 -0.19447879086E+02  0.41541402804E+02  0.51100000000E-03 0.  1.
         12    1    3    3    0    0 -0.53245505695E+01  0.36057276170E+02  0.13932655688E+02  0.39020467682E+02  0.00000000000E+00 0. -1.
</event>
<event>
 7    1  0.1978681E-015  0.9000778E+02  0.7816164E-02  0.1186339E+00
        -11   -1    0    0    0    0  0.00000000000E+00  0.00000000000E+00  0.45593999997E+02  0.45594000000E+02  0.51100000000E-03 0.  1.
         11   -1    0    0    0    0 -0.00000000000E+00 -0.00000000000E+00 -0.45593999997E+02  0.45594000000E+02  0.51100000000E-03 0. -1.
    9900012    2    1    2    0    0  0.62531231861E+00  0.32414467416E-01 -0.10004206011E+01  0.90007784946E+02  0.90000046908E+02 0.  0.
        -12    1    1    2    0    0 -0.62531231861E+00 -0.32414467416E-01  0.10004206011E+01  0.11802150536E+01  0.00000000000E+00 0.  1.
         11    1    3    3    0    0  0.30596617959E+02  0.32714809611E+01 -0.29800913054E+02  0.42836316804E+02  0.51100000000E-03 0. -1.
        -11    1    3    3    0    0 -0.24077466257E+01 -0.77763204969E+01  0.18340183562E+01  0.83445807489E+01  0.51100000000E-03 0.  1.
        -12    1    3    3    0    0 -0.27563559015E+02  0.45372540032E+01  0.26966474097E+02  0.38826887394E+02  0.00000000000E+00 0.  1.
</event>
<event>
 7    1  0.1978681E-015  0.9000779E+02  0.7816164E-02  0.1186339E+00
        -11   -1    0    0    0    0  0.00000000000E+00  0.00000000000E+00  0.45593999997E+02  0.45594000000E+02  0.51100000000E-03 0.  1.
         11   -1    0    0    0    0 -0.00000000000E+00 -0.00000000000E+00 -0.45593999997E+02  0.45594000000E+02  0.51100000000E-03 0. -1.
    9900012    2    1    2    0    0 -0.10701907389E+01 -0.35647958402E+00 -0.34712922111E+00  0.90007794676E+02  0.90000056765E+02 0.  0.
        -12    1    1    2    0    0  0.10701907389E+01  0.35647958402E+00  0.34712922111E+00  0.11802053243E+01  0.00000000000E+00 0.  1.
         11    1    3    3    0    0 -0.18301919427E+01 -0.98676455020E+01 -0.89157440471E+00  0.10075462048E+02  0.51100000000E-03 0. -1.
        -11    1    3    3    0    0  0.94216431505E+01 -0.25827785317E+02  0.24123081863E+02  0.36575469004E+02  0.51100000000E-03 0.  1.
         12    1    3    3    0    0 -0.86616419467E+01  0.35338951235E+02 -0.23578636679E+02  0.43356863624E+02  0.00000000000E+00 0. -1.
</event>
<event>
 7    1  0.1978681E-015  0.9000774E+02  0.7816164E-02  0.1186339E+00
        -11   -1    0    0    0    0  0.00000000000E+00  0.00000000000E+00  0.45593999997E+02  0.45594000000E+02  0.51100000000E-03 0.  1.
         11   -1    0    0    0    0 -0.00000000000E+00 -0.00000000000E+00 -0.45593999997E+02  0.45594000000E+02  0.51100000000E-03 0. -1.
    9900012    2    1    2    0    0  0.72102788101E+00  0.24458350635E+00 -0.90183642436E+00  0.90007741031E+02  0.90000002413E+02 0.  0.
        -12    1    1    2    0    0 -0.72102788101E+00 -0.24458350635E+00  0.90183642436E+00  0.11802589686E+01  0.00000000000E+00 0.  1.
         11    1    3    3    0    0 -0.16450330164E+02  0.47337282341E+01 -0.29380678378E+02  0.34003614627E+02  0.51100000000E-03 0. -1.
        -11    1    3    3    0    0 -0.43136756639E+01 -0.49779073167E+01 -0.99743847375E+01  0.11953062793E+02  0.51100000000E-03 0.  1.
        -12    1    3    3    0    0  0.21485033709E+02  0.48876258893E+00  0.38453226691E+02  0.44051063611E+02  0.00000000000E+00 0.  1.
</event>
<event>
 7    1  0.1978681E-015  0.9000771E+02  0.7816164E-02  0.1186339E+00
        -11   -1    0    0    0    0  0.00000000000E+00  0.00000000000E+00  0.45593999997E+02  0.45594000000E+02  0.51100000000E-03 0. -1.
         11   -1    0    0    0    0 -0.00000000000E+00 -0.00000000000E+00 -0.45593999997E+02  0.45594000000E+02  0.51100000000E-03 0.  1.
    9900012    2    1    2    0    0 -0.43037657242E-01 -0.16304283119E+00  0.11681782298E+01  0.90007713771E+02  0.89999974793E+02 0.  0.
        -12    1    1    2    0    0  0.43037657242E-01  0.16304283119E+00 -0.11681782298E+01  0.11802862285E+01  0.00000000000E+00 0.  1.
         11    1    3    3    0    0  0.10926652321E+02  0.28329504630E+02  0.25144551493E+02  0.39423356447E+02  0.51100000000E-03 0. -1.
        -11    1    3    3    0    0  0.35379394135E+01  0.60857415122E+01 -0.40158766464E+01  0.81043525680E+01  0.51100000000E-03 0.  1.
        -12    1    3    3    0    0 -0.14507629392E+02 -0.34578288973E+02 -0.19960496617E+02  0.42480004756E+02  0.00000000000E+00 0.  1.
</event>
<event>
 7    1  0.2849404E-015  0.9000779E+02  0.7816164E-02  0.1186339E+00
        -11   -1    0    0    0    0  0.00000000000E+00  0.00000000000E+00  0.45593999997E+02  0.45594000000E+02  0.51100000000E-03 0. -1.
         11   -1    0    0    0    0 -0.00000000000E+00 -0.00000000000E+00 -0.45593999997E+02  0.45594000000E+02  0.51100000000E-03 0.  1.
    9900012    2    1    2    0    0  0.10746632963E+01 -0.27892642306E+00  0.40023394561E+00  0.90007793086E+02  0.90000055154E+02 0.  0.
        -12    1    1    2    0    0 -0.10746632963E+01  0.27892642306E+00 -0.40023394561E+00  0.11802069145E+01  0.00000000000E+00 0.  1.
         11    1    3    3    0    0 -0.85858117266E+01 -0.15878225947E+01 -0.24324999309E+01  0.90639064300E+01  0.51100000000E-03 0. -1.
        -11    1    3    3    0    0 -0.84637805306E+00 -0.80538057298E+01 -0.37428161960E+02  0.38294222155E+02  0.51100000000E-03 0.  1.
         12    1    3    3    0    0  0.10506853076E+02  0.93627019014E+01  0.40260895836E+02  0.42649664500E+02  0.00000000000E+00 0. -1.
</event>
<event>
 7    1  0.1978681E-015  0.9000820E+02  0.7816164E-02  0.1186338E+00
        -11   -1    0    0    0    0  0.00000000000E+00  0.00000000000E+00  0.45593999997E+02  0.45594000000E+02  0.51100000000E-03 0. -1.
         11   -1    0    0    0    0 -0.00000000000E+00 -0.00000000000E+00 -0.45593999997E+02  0.45594000000E+02  0.51100000000E-03 0.  1.
    9900012    2    1    2    0    0  0.17226715268E+00  0.31392915788E+00  0.11241470680E+01  0.90008197424E+02  0.90000464829E+02 0.  0.
        -12    1    1    2    0    0 -0.17226715268E+00 -0.31392915788E+00 -0.11241470680E+01  0.11798025761E+01  0.00000000000E+00 0.  1.
         11    1    3    3    0    0 -0.18283337575E+02 -0.20378691635E+02 -0.27054211393E+02  0.38490282670E+02  0.51100000000E-03 0. -1.
        -11    1    3    3    0    0  0.33919855032E+01  0.70252215964E+01 -0.72603545678E+01  0.10657018947E+02  0.51100000000E-03 0.  1.
        -12    1    3    3    0    0  0.15063619224E+02  0.13667399197E+02  0.35438713029E+02  0.40860895806E+02  0.00000000000E+00 0.  1.
</event>
<event>
 7    1  0.1978681E-015  0.9000788E+02  0.7816164E-02  0.1186339E+00
        -11   -1    0    0    0    0  0.00000000000E+00  0.00000000000E+00  0.45593999997E+02  0.45594000000E+02  0.51100000000E-03 0.  1.
         11   -1    0    0    0    0 -0.00000000000E+00 -0.00000000000E+00 -0.45593999997E+02  0.45594000000E+02  0.51100000000E-03 0. -1.
    9900012    2    1    2    0    0  0.68503976689E+00 -0.72458902150E+00 -0.63116589333E+00  0.90007881736E+02  0.90000144975E+02 0.  0.
        -12    1    1    2    0    0 -0.68503976689E+00  0.72458902150E+00  0.63116589333E+00  0.11801182641E+01  0.00000000000E+00 0.  1.
         11    1    3    3    0    0  0.79793898524E+01  0.40055381330E+02 -0.76144885116E+01  0.41546175173E+02  0.51100000000E-03 0. -1.
        -11    1    3    3    0    0 -0.57390452997E+01 -0.12823286674E+01  0.67238677398E+01  0.89326035066E+01  0.51100000000E-03 0.  1.
        -12    1    3    3    0    0 -0.15553047858E+01 -0.39497641685E+02  0.25945487851E+00  0.39529103056E+02  0.00000000000E+00 0.  1.
</event>
<event>
 7    1  0.1978681E-015  0.9000772E+02  0.7816164E-02  0.1186339E+00
        -11   -1    0    0    0    0  0.00000000000E+00  0.00000000000E+00  0.45593999997E+02  0.45594000000E+02  0.51100000000E-03 0.  1.
         11   -1    0    0    0    0 -0.00000000000E+00 -0.00000000000E+00 -0.45593999997E+02  0.45594000000E+02  0.51100000000E-03 0. -1.
    9900012    2    1    2    0    0  0.97320082236E+00 -0.47084725335E+00 -0.47353301858E+00  0.90007724398E+02  0.89999985560E+02 0.  0.
        -12    1    1    2    0    0 -0.97320082236E+00  0.47084725335E+00  0.47353301858E+00  0.11802756018E+01  0.00000000000E+00 0.  1.
         11    1    3    3    0    0  0.29821072376E+02  0.18790470708E+02 -0.19199885735E+02  0.40137435887E+02  0.51100000000E-03 0. -1.
        -11    1    3    3    0    0  0.52566663729E+01 -0.11000552514E+01  0.82368914654E+01  0.98330587401E+01  0.51100000000E-03 0.  1.
        -12    1    3    3    0    0 -0.34104537926E+02 -0.18161262710E+02  0.10489461251E+02  0.40037229771E+02  0.00000000000E+00 0.  1.
</event>
<event>
 7    1  0.1978681E-015  0.9000766E+02  0.7816164E-02  0.1186339E+00
        -11   -1    0    0    0    0  0.00000000000E+00  0.00000000000E+00  0.45593999997E+02  0.45594000000E+02  0.51100000000E-03 0. -1.
         11   -1    0    0    0    0 -0.00000000000E+00 -0.00000000000E+00 -0.45593999997E+02  0.45594000000E+02  0.51100000000E-03 0.  1.
    9900012    2    1    2    0    0 -0.36815773622E+00 -0.72668200569E+00  0.85416384397E+00  0.90007659910E+02  0.89999920221E+02 0.  0.
        -12    1    1    2    0    0  0.36815773622E+00  0.72668200569E+00 -0.85416384397E+00  0.11803400902E+01  0.00000000000E+00 0.  1.
         11    1    3    3    0    0 -0.74146802634E+01 -0.83136292361E+01  0.24785704824E+01  0.11412152574E+02  0.51100000000E-03 0. -1.
        -11    1    3    3    0    0  0.98553617410E+01 -0.15090285979E+02  0.32713205971E+02  0.37349681808E+02  0.51100000000E-03 0.  1.
         12    1    3    3    0    0 -0.28088392138E+01  0.22677233209E+02 -0.34337612609E+02  0.41245825528E+02  0.00000000000E+00 0. -1.
</event>
<event>
 7    1  0.1978681E-015  0.9000774E+02  0.7816164E-02  0.1186339E+00
        -11   -1    0    0    0    0  0.00000000000E+00  0.00000000000E+00  0.45593999997E+02  0.45594000000E+02  0.51100000000E-03 0.  1.
         11   -1    0    0    0    0 -0.00000000000E+00 -0.00000000000E+00 -0.45593999997E+02  0.45594000000E+02  0.51100000000E-03 0. -1.
    9900012    2    1    2    0    0  0.58492230278E+00 -0.89888243694E+00 -0.49284164257E+00  0.90007738749E+02  0.90000000101E+02 0.  0.
        -12    1    1    2    0    0 -0.58492230278E+00  0.89888243694E+00  0.49284164257E+00  0.11802612509E+01  0.00000000000E+00 0.  1.
         11    1    3    3    0    0  0.37042523436E+02 -0.13157832267E+02 -0.49784332057E+01  0.39624006485E+02  0.51100000000E-03 0. -1.
        -11    1    3    3    0    0  0.28985653519E+01  0.10225510980E+02 -0.61600943034E+00  0.10646230497E+02  0.51100000000E-03 0.  1.
        -12    1    3    3    0    0 -0.39356166485E+02  0.20334388500E+01  0.51016009934E+01  0.39737501767E+02  0.00000000000E+00 0.  1.
</event>
<event>
 7    1  0.1978681E-015  0.9000774E+02  0.7816164E-02  0.1186339E+00
        -11   -1    0    0    0    0  0.00000000000E+00  0.00000000000E+00  0.45593999997E+02  0.45594000000E+02  0.51100000000E-03 0.  1.
         11   -1    0    0    0    0 -0.00000000000E+00 -0.00000000000E+00 -0.45593999997E+02  0.45594000000E+02  0.51100000000E-03 0. -1.
    9900012    2    1    2    0    0 -0.20818313009E+00  0.94058600879E+00 -0.68188968688E+00  0.90007739096E+02  0.90000000452E+02 0.  0.
        -12    1    1    2    0    0  0.20818313009E+00 -0.94058600879E+00  0.68188968688E+00  0.11802609036E+01  0.00000000000E+00 0.  1.
         11    1    3    3    0    0 -0.16673271736E+02 -0.32569685650E+02  0.79495407624E+01  0.37442991498E+02  0.51100000000E-03 0. -1.
        -11    1    3    3    0    0 -0.75368851537E+01  0.43860624847E+00  0.54848168721E+01  0.93316788223E+01  0.51100000000E-03 0.  1.
        -12    1    3    3    0    0  0.24001973760E+02  0.33071665410E+02 -0.14116247321E+02  0.43233068776E+02  0.00000000000E+00 0.  1.
</event>
<event>
 7    1  0.1978681E-015  0.9000766E+02  0.7816164E-02  0.1186339E+00
        -11   -1    0    0    0    0  0.00000000000E+00  0.00000000000E+00  0.45593999997E+02  0.45594000000E+02  0.51100000000E-03 0.  1.
         11   -1    0    0    0    0 -0.00000000000E+00 -0.00000000000E+00 -0.45593999997E+02  0.45594000000E+02  0.51100000000E-03 0. -1.
    9900012    2    1    2    0    0 -0.44079767880E+00 -0.27501038414E+00 -0.10598401395E+01  0.90007663427E+02  0.89999923784E+02 0.  0.
        -12    1    1    2    0    0  0.44079767880E+00  0.27501038414E+00  0.10598401395E+01  0.11803365733E+01  0.00000000000E+00 0.  1.
         11    1    3    3    0    0  0.49811717202E+01 -0.75076719775E+01  0.11130162664E+01  0.90783267015E+01  0.51100000000E-03 0. -1.
        -11    1    3    3    0    0 -0.27377076134E+02 -0.14255050902E+02  0.25150963369E+02  0.39815596599E+02  0.51100000000E-03 0.  1.
         12    1    3    3    0    0  0.21955106735E+02  0.21487712496E+02 -0.27323819775E+02  0.41113740126E+02  0.00000000000E+00 0. -1.
</event>
<event>
 7    1  0.1978681E-015  0.9000783E+02  0.7816164E-02  0.1186339E+00
        -11   -1    0    0    0    0  0.00000000000E+00  0.00000000000E+00  0.45593999997E+02  0.45594000000E+02  0.51100000000E-03 0.  1.
         11   -1    0    0    0    0 -0.00000000000E+00 -0.00000000000E+00 -0.45593999997E+02  0.45594000000E+02  0.51100000000E-03 0. -1.
    9900012    2    1    2    0    0  0.10822554060E+01  0.40102124766E+00 -0.24636410618E+00  0.90007834724E+02  0.90000097343E+02 0.  0.
        -12    1    1    2    0    0 -0.10822554060E+01 -0.40102124766E+00  0.24636410618E+00  0.11801652755E+01  0.00000000000E+00 0.  1.
         11    1    3    3    0    0  0.24894061763E+02  0.10136388800E+02 -0.32131265737E+02  0.41891275072E+02  0.51100000000E-03 0. -1.
        -11    1    3    3    0    0  0.10001826888E+01 -0.83782313506E+01  0.10311105187E+01  0.85004891117E+01  0.51100000000E-03 0.  1.
        -12    1    3    3    0    0 -0.24811989046E+02 -0.13571362013E+01  0.30853791112E+02  0.39616070541E+02  0.00000000000E+00 0.  1.
</event>
<event>
 7    1  0.1978681E-015  0.9000765E+02  0.7816164E-02  0.1186339E+00
        -11   -1    0    0    0    0  0.00000000000E+00  0.00000000000E+00  0.45593999997E+02  0.45594000000E+02  0.51100000000E-03 0.  1.
         11   -1    0    0    0    0 -0.00000000000E+00 -0.00000000000E+00 -0.45593999997E+02  0.45594000000E+02  0.51100000000E-03 0. -1.
    9900012    2    1    2    0    0  0.19627869104E+00 -0.11549812180E+01  0.14392422172E+00  0.90007652119E+02  0.89999912327E+02 0.  0.
        -12    1    1    2    0    0 -0.19627869104E+00  0.11549812180E+01 -0.14392422172E+00  0.11803478809E+01  0.00000000000E+00 0.  1.
         11    1    3    3    0    0  0.28921892531E+02 -0.29615175924E+02  0.72569473653E+01  0.42026156116E+02  0.51100000000E-03 0. -1.
        -11    1    3    3    0    0  0.31052410230E+01  0.66316977378E+01 -0.58361911864E+01  0.93639235645E+01  0.51100000000E-03 0.  1.
        -12    1    3    3    0    0 -0.31830854863E+02  0.21828496968E+02 -0.12768319571E+01  0.38617572438E+02  0.00000000000E+00 0.  1.
</event>
<event>
 7    1  0.1978681E-015  0.9000785E+02  0.7816164E-02  0.1186339E+00
        -11   -1    0    0    0    0  0.00000000000E+00  0.00000000000E+00  0.45593999997E+02  0.45594000000E+02  0.51100000000E-03 0. -1.
         11   -1    0    0    0    0 -0.00000000000E+00 -0.00000000000E+00 -0.45593999997E+02  0.45594000000E+02  0.51100000000E-03 0.  1.
    9900012    2    1    2    0    0 -0.13832557873E+00  0.95308039326E+00  0.68209662502E+00  0.90007850854E+02  0.90000113685E+02 0.  0.
        -12    1    1    2    0    0  0.13832557873E+00 -0.95308039326E+00 -0.68209662502E+00  0.11801491463E+01  0.00000000000E+00 0.  1.
         11    1    3    3    0    0 -0.18673420850E+02  0.28712111127E+02 -0.15369788979E+02  0.37540809596E+02  0.51100000000E-03 0. -1.
        -11    1    3    3    0    0 -0.10003786608E+02 -0.18686124661E-01  0.48724288562E+01  0.11127293422E+02  0.51100000000E-03 0.  1.
        -12    1    3    3    0    0  0.28538881879E+02 -0.27740344609E+02  0.11179456748E+02  0.41339747836E+02  0.00000000000E+00 0.  1.
</event>
<event>
 7    1  0.1978681E-015  0.9000771E+02  0.7816164E-02  0.1186339E+00
        -11   -1    0    0    0    0  0.00000000000E+00  0.00000000000E+00  0.45593999997E+02  0.45594000000E+02  0.51100000000E-03 0.  1.
         11   -1    0    0    0    0 -0.00000000000E+00 -0.00000000000E+00 -0.45593999997E+02  0.45594000000E+02  0.51100000000E-03 0. -1.
    9900012    2    1    2    0    0  0.16355020234E+00 -0.35774015864E+00 -0.11128109008E+01  0.90007714106E+02  0.89999975133E+02 0.  0.
        -12    1    1    2    0    0 -0.16355020234E+00  0.35774015864E+00  0.11128109008E+01  0.11802858936E+01  0.00000000000E+00 0.  1.
         11    1    3    3    0    0  0.12779924749E+00  0.98250284028E+01 -0.10500279181E+02  0.14380659891E+02  0.51100000000E-03 0. -1.
        -11    1    3    3    0    0 -0.33029269729E+02  0.11899657726E+02  0.69704364062E+01  0.35792757603E+02  0.51100000000E-03 0.  1.
         12    1    3    3    0    0  0.33065020684E+02 -0.22082426287E+02  0.24170318736E+01  0.39834296613E+02  0.00000000000E+00 0. -1.
</event>
<event>
 7    1  0.1978681E-015  0.9000775E+02  0.7816164E-02  0.1186339E+00
        -11   -1    0    0    0    0  0.00000000000E+00  0.00000000000E+00  0.45593999997E+02  0.45594000000E+02  0.51100000000E-03 0. -1.
         11   -1    0    0    0    0 -0.00000000000E+00 -0.00000000000E+00 -0.45593999997E+02  0.45594000000E+02  0.51100000000E-03 0.  1.
    9900012    2    1    2    0    0  0.11675718346E+01 -0.16225081054E+00  0.58635746942E-01  0.90007751100E+02  0.90000012615E+02 0.  0.
        -12    1    1    2    0    0 -0.11675718346E+01  0.16225081054E+00 -0.58635746942E-01  0.11802488997E+01  0.00000000000E+00 0.  1.
         11    1    3    3    0    0  0.80162397487E+01 -0.78029145060E+00  0.53506601507E+01  0.96694632098E+01  0.51100000000E-03 0. -1.
        -11    1    3    3    0    0  0.18792160409E+02 -0.32764617395E+02 -0.59660413418E+01  0.38239496537E+02  0.51100000000E-03 0.  1.
         12    1    3    3    0    0 -0.25640828323E+02  0.33382658035E+02  0.67401693813E+00  0.42098791353E+02  0.00000000000E+00 0. -1.
</event>
<event>
 7    1  0.1978681E-015  0.9000773E+02  0.7816164E-02  0.1186339E+00
        -11   -1    0    0    0    0  0.00000000000E+00  0.00000000000E+00  0.45593999997E+02  0.45594000000E+02  0.51100000000E-03 0.  1.
         11   -1    0    0    0    0 -0.00000000000E+00 -0.00000000000E+00 -0.45593999997E+02  0.45594000000E+02  0.51100000000E-03 0. -1.
    9900012    2    1    2    0    0  0.12634592910E+00 -0.58190082501E+00 -0.10190511850E+01  0.90007730039E+02  0.89999991275E+02 0.  0.
        -12    1    1    2    0    0 -0.12634592910E+00  0.58190082501E+00  0.10190511850E+01  0.11802699613E+01  0.00000000000E+00 0.  1.
         11    1    3    3    0    0 -0.11681291111E+02  0.64108315640E+01  0.41147463088E+01  0.13945696856E+02  0.51100000000E-03 0. -1.
        -11    1    3    3    0    0 -0.24439777172E+02 -0.82653938697E+01  0.19394986691E+02  0.32276693651E+02  0.51100000000E-03 0.  1.
         12    1    3    3    0    0  0.36247414212E+02  0.12726614806E+01 -0.24528784185E+02  0.43785339531E+02  0.00000000000E+00 0. -1.
</event>
<event>
 7    1  0.1978681E-015  0.9000772E+02  0.7816164E-02  0.1186339E+00
        -11   -1    0    0    0    0  0.00000000000E+00  0.00000000000E+00  0.45593999997E+02  0.45594000000E+02  0.51100000000E-03 0. -1.
         11   -1    0    0    0    0 -0.00000000000E+00 -0.00000000000E+00 -0.45593999997E+02  0.45594000000E+02  0.51100000000E-03 0.  1.
    9900012    2    1    2    0    0  0.53242710445E-01  0.54685489525E+00  0.10445983387E+01  0.90007715817E+02  0.89999976866E+02 0.  0.
        -12    1    1    2    0    0 -0.53242710445E-01 -0.54685489525E+00 -0.10445983387E+01  0.11802841827E+01  0.00000000000E+00 0.  1.
         11    1    3    3    0    0 -0.57719837897E+01 -0.17908250140E+02  0.30066943319E+02  0.35468892015E+02  0.51100000000E-03 0. -1.
        -11    1    3    3    0    0 -0.15099930275E+01 -0.29349366826E+01  0.93964054221E+01  0.99592352815E+01  0.51100000000E-03 0.  1.
        -12    1    3    3    0    0  0.73352195276E+01  0.21390041718E+02 -0.38418750402E+02  0.44579588521E+02  0.00000000000E+00 0.  1.
</event>
<event>
 7    1  0.1978681E-015  0.9000777E+02  0.7816164E-02  0.1186339E+00
        -11   -1    0    0    0    0  0.00000000000E+00  0.00000000000E+00  0.45593999997E+02  0.45594000000E+02  0.51100000000E-03 0. -1.
         11   -1    0    0    0    0 -0.00000000000E+00 -0.00000000000E+00 -0.45593999997E+02  0.45594000000E+02  0.51100000000E-03 0.  1.
    9900012    2    1    2    0    0  0.39058186541E-01  0.11037142981E+01  0.41620809249E+00  0.90007771221E+02  0.90000033001E+02 0.  0.
        -12    1    1    2    0    0 -0.39058186541E-01 -0.11037142981E+01 -0.41620809249E+00  0.11802287786E+01  0.00000000000E+00 0.  1.
         11    1    3    3    0    0  0.22423888324E+01  0.79756337483E+01 -0.25319294487E+01  0.86631234758E+01  0.51100000000E-03 0. -1.
        -11    1    3    3    0    0 -0.36507013616E+02 -0.64039091416E+01  0.20977181599E+02  0.42588898126E+02  0.51100000000E-03 0.  1.
         12    1    3    3    0    0  0.34303682970E+02 -0.46801030860E+00 -0.18029044058E+02  0.38755749620E+02  0.00000000000E+00 0. -1.
</event>
<event>
 7    1  0.1978681E-015  0.9000775E+02  0.7816164E-02  0.1186339E+00
        -11   -1    0    0    0    0  0.00000000000E+00  0.00000000000E+00  0.45593999997E+02  0.45594000000E+02  0.51100000000E-03 0.  1.
         11   -1    0    0    0    0 -0.00000000000E+00 -0.00000000000E+00 -0.45593999997E+02  0.45594000000E+02  0.51100000000E-03 0. -1.
    9900012    2    1    2    0    0  0.42845519819E+00 -0.10162277484E+01 -0.42034815434E+00  0.90007752033E+02  0.90000013559E+02 0.  0.
        -12    1    1    2    0    0 -0.42845519819E+00  0.10162277484E+01  0.42034815434E+00  0.11802479673E+01  0.00000000000E+00 0.  1.
         11    1    3    3    0    0  0.42851822392E+01  0.31668379553E+02 -0.10567893347E+02  0.33659016926E+02  0.51100000000E-03 0. -1.
        -11    1    3    3    0    0  0.46575898800E+01  0.72835782455E+01 -0.78671692191E+01  0.11689140573E+02  0.51100000000E-03 0.  1.
        -12    1    3    3    0    0 -0.85143169210E+01 -0.39968185547E+02  0.18014714412E+02  0.44659594534E+02  0.00000000000E+00 0.  1.
</event>
<event>
 7    1  0.1978681E-015  0.9000779E+02  0.7816164E-02  0.1186339E+00
        -11   -1    0    0    0    0  0.00000000000E+00  0.00000000000E+00  0.45593999997E+02  0.45594000000E+02  0.51100000000E-03 0. -1.
         11   -1    0    0    0    0 -0.00000000000E+00 -0.00000000000E+00 -0.45593999997E+02  0.45594000000E+02  0.51100000000E-03 0.  1.
    9900012    2    1    2    0    0  0.11434888396E+01 -0.14810096684E+00  0.25179563220E+00  0.90007787450E+02  0.90000049444E+02 0.  0.
        -12    1    1    2    0    0 -0.11434888396E+01  0.14810096684E+00 -0.25179563220E+00  0.11802125499E+01  0.00000000000E+00 0.  1.
         11    1    3    3    0    0 -0.10598149002E+02 -0.20375811451E+02  0.34050213481E+02  0.41072028108E+02  0.51100000000E-03 0. -1.
        -11    1    3    3    0    0 -0.79224941721E+01  0.24450617790E+01 -0.45425920386E+01  0.94540670454E+01  0.51100000000E-03 0.  1.
        -12    1    3    3    0    0  0.19664132013E+02  0.17782648705E+02 -0.29255825810E+02  0.39481692297E+02  0.00000000000E+00 0.  1.
</event>
<event>
 7    1  0.1978681E-015  0.9000731E+02  0.7816164E-02  0.1186340E+00
        -11   -1    0    0    0    0  0.00000000000E+00  0.00000000000E+00  0.45593999997E+02  0.45594000000E+02  0.51100000000E-03 0. -1.
         11   -1    0    0    0    0 -0.00000000000E+00 -0.00000000000E+00 -0.45593999997E+02  0.45594000000E+02  0.51100000000E-03 0.  1.
    9900012    2    1    2    0    0 -0.37026573456E+00  0.49917188811E+00  0.10038757532E+01  0.90007307061E+02  0.89999562713E+02 0.  0.
        -12    1    1    2    0    0  0.37026573456E+00 -0.49917188811E+00 -0.10038757532E+01  0.11806929389E+01  0.00000000000E+00 0.  1.
         11    1    3    3    0    0 -0.53332490791E+01 -0.34621180844E+02  0.96532485534E+01  0.36335312255E+02  0.51100000000E-03 0. -1.
        -11    1    3    3    0    0  0.36508409968E+01 -0.63845092239E+01  0.61509101262E+01  0.95877157683E+01  0.51100000000E-03 0.  1.
        -12    1    3    3    0    0  0.13121423477E+01  0.41504861956E+02 -0.14800282926E+02  0.44084279037E+02  0.00000000000E+00 0.  1.
</event>
<event>
 7    1  0.1978681E-015  0.9000774E+02  0.7816164E-02  0.1186339E+00
        -11   -1    0    0    0    0  0.00000000000E+00  0.00000000000E+00  0.45593999997E+02  0.45594000000E+02  0.51100000000E-03 0. -1.
         11   -1    0    0    0    0 -0.00000000000E+00 -0.00000000000E+00 -0.45593999997E+02  0.45594000000E+02  0.51100000000E-03 0.  1.
    9900012    2    1    2    0    0  0.33299096851E+00  0.89635483096E+00  0.69187213959E+00  0.90007736459E+02  0.89999997781E+02 0.  0.
        -12    1    1    2    0    0 -0.33299096851E+00 -0.89635483096E+00 -0.69187213959E+00  0.11802635408E+01  0.00000000000E+00 0.  1.
         11    1    3    3    0    0 -0.24495922886E+02  0.84265848437E+01  0.26274626624E+02  0.36897338314E+02  0.51100000000E-03 0. -1.
        -11    1    3    3    0    0  0.43083387289E+00  0.74242956137E+01  0.66720295994E+01  0.99910841465E+01  0.51100000000E-03 0.  1.
        -12    1    3    3    0    0  0.24398079981E+02 -0.14954525626E+02 -0.32254784084E+02  0.43119313999E+02  0.00000000000E+00 0.  1.
</event>
<event>
 7    1  0.1978681E-015  0.9000775E+02  0.7816164E-02  0.1186339E+00
        -11   -1    0    0    0    0  0.00000000000E+00  0.00000000000E+00  0.45593999997E+02  0.45594000000E+02  0.51100000000E-03 0. -1.
         11   -1    0    0    0    0 -0.00000000000E+00 -0.00000000000E+00 -0.45593999997E+02  0.45594000000E+02  0.51100000000E-03 0.  1.
    9900012    2    1    2    0    0  0.43599781701E+00  0.10108923939E+01 -0.42543518521E+00  0.90007748914E+02  0.90000010400E+02 0.  0.
        -12    1    1    2    0    0 -0.43599781701E+00 -0.10108923939E+01  0.42543518521E+00  0.11802510857E+01  0.00000000000E+00 0.  1.
         11    1    3    3    0    0  0.12263656943E+02 -0.72001750454E+01 -0.10004442832E+02  0.17387601299E+02  0.51100000000E-03 0. -1.
        -11    1    3    3    0    0  0.38012455379E+01  0.38047672674E+02  0.66483458781E+01  0.38810763543E+02  0.51100000000E-03 0.  1.
         12    1    3    3    0    0 -0.15628904664E+02 -0.29836605235E+02  0.29306617684E+01  0.33809384072E+02  0.00000000000E+00 0. -1.
</event>
<event>
 7    1  0.1978681E-015  0.9000766E+02  0.7816164E-02  0.1186339E+00
        -11   -1    0    0    0    0  0.00000000000E+00  0.00000000000E+00  0.45593999997E+02  0.45594000000E+02  0.51100000000E-03 0. -1.
         11   -1    0    0    0    0 -0.00000000000E+00 -0.00000000000E+00 -0.45593999997E+02  0.45594000000E+02  0.51100000000E-03 0.  1.
    9900012    2    1    2    0    0 -0.95304901753E+00  0.55846482378E+00 -0.41594635913E+00  0.90007662437E+02  0.89999922781E+02 0.  0.
        -12    1    1    2    0    0  0.95304901753E+00 -0.55846482378E+00  0.41594635913E+00  0.11803375631E+01  0.00000000000E+00 0.  1.
         11    1    3    3    0    0  0.94109104479E+01 -0.34405909672E+02  0.23889546474E+02  0.42930668371E+02  0.51100000000E-03 0. -1.
        -11    1    3    3    0    0 -0.89359936136E+01  0.55768384779E+01 -0.37309971732E+01  0.11174678941E+02  0.51100000000E-03 0.  1.
        -12    1    3    3    0    0 -0.14279658519E+01  0.29387536018E+02 -0.20574495660E+02  0.35902315125E+02  0.00000000000E+00 0.  1.
</event>
<event>
 7    1  0.1978681E-015  0.9000777E+02  0.7816164E-02  0.1186339E+00
        -11   -1    0    0    0    0  0.00000000000E+00  0.00000000000E+00  0.45593999997E+02  0.45594000000E+02  0.51100000000E-03 0. -1.
         11   -1    0    0    0    0 -0.00000000000E+00 -0.00000000000E+00 -0.45593999997E+02  0.45594000000E+02  0.51100000000E-03 0.  1.
    9900012    2    1    2    0    0  0.71413531612E+00 -0.46334205673E+00 -0.81747338167E+00  0.90007772123E+02  0.90000033915E+02 0.  0.
        -12    1    1    2    0    0 -0.71413531612E+00  0.46334205673E+00  0.81747338167E+00  0.11802278767E+01  0.00000000000E+00 0.  1.
         11    1    3    3    0    0  0.50726859576E+00  0.94727419741E+01 -0.29062097260E+01  0.99215027677E+01  0.51100000000E-03 0. -1.
        -11    1    3    3    0    0 -0.54169376808E+01  0.23522865152E+02 -0.26408393405E+02  0.35778088843E+02  0.51100000000E-03 0.  1.
         12    1    3    3    0    0  0.56238044012E+01 -0.33458949183E+02  0.28497129749E+02  0.44308180512E+02  0.00000000000E+00 0. -1.
</event>
<event>
 7    1  0.1978681E-015  0.9000774E+02  0.7816164E-02  0.1186339E+00
        -11   -1    0    0    0    0  0.00000000000E+00  0.00000000000E+00  0.45593999997E+02  0.45594000000E+02  0.51100000000E-03 0. -1.
         11   -1    0    0    0    0 -0.00000000000E+00 -0.00000000000E+00 -0.45593999997E+02  0.45594000000E+02  0.51100000000E-03 0.  1.
    9900012    2    1    2    0    0  0.84463282940E+00 -0.51609651036E+00  0.64284278262E+00  0.90007742796E+02  0.90000004201E+02 0.  0.
        -12    1    1    2    0    0 -0.84463282940E+00  0.51609651036E+00 -0.64284278262E+00  0.11802572040E+01  0.00000000000E+00 0.  1.
         11    1    3    3    0    0  0.79489114056E+01 -0.45362141528E+01  0.34948921964E+01  0.97967700340E+01  0.51100000000E-03 0. -1.
        -11    1    3    3    0    0 -0.76844781793E+00  0.41305793491E+02  0.49062785522E+01  0.41603252968E+02  0.51100000000E-03 0.  1.
         12    1    3    3    0    0 -0.63358307583E+01 -0.37285675849E+02 -0.77583279659E+01  0.38607719794E+02  0.00000000000E+00 0. -1.
</event>
<event>
 7    1  0.1978681E-015  0.9000771E+02  0.7816164E-02  0.1186339E+00
        -11   -1    0    0    0    0  0.00000000000E+00  0.00000000000E+00  0.45593999997E+02  0.45594000000E+02  0.51100000000E-03 0. -1.
         11   -1    0    0    0    0 -0.00000000000E+00 -0.00000000000E+00 -0.45593999997E+02  0.45594000000E+02  0.51100000000E-03 0.  1.
    9900012    2    1    2    0    0  0.43861251433E+00 -0.71590533864E+00  0.82957310756E+00  0.90007706421E+02  0.89999967346E+02 0.  0.
        -12    1    1    2    0    0 -0.43861251433E+00  0.71590533864E+00 -0.82957310756E+00  0.11802935789E+01  0.00000000000E+00 0.  1.
         11    1    3    3    0    0 -0.23489706179E+01  0.80277622185E+01  0.51651233087E+01  0.98306219669E+01  0.51100000000E-03 0. -1.
        -11    1    3    3    0    0 -0.32482447975E+02  0.71709362121E+01  0.15495894205E+02  0.36696791278E+02  0.51100000000E-03 0.  1.
         12    1    3    3    0    0  0.35270031107E+02 -0.15914603769E+02 -0.19831444406E+02  0.43480293176E+02  0.00000000000E+00 0. -1.
</event>
<event>
 7    1  0.1978681E-015  0.9000774E+02  0.7816164E-02  0.1186339E+00
        -11   -1    0    0    0    0  0.00000000000E+00  0.00000000000E+00  0.45593999997E+02  0.45594000000E+02  0.51100000000E-03 0. -1.
         11   -1    0    0    0    0 -0.00000000000E+00 -0.00000000000E+00 -0.45593999997E+02  0.45594000000E+02  0.51100000000E-03 0.  1.
    9900012    2    1    2    0    0  0.11031591205E+01  0.10304378860E+00  0.40673728165E+00  0.90007740163E+02  0.90000001533E+02 0.  0.
        -12    1    1    2    0    0 -0.11031591205E+01 -0.10304378860E+00 -0.40673728165E+00  0.11802598374E+01  0.00000000000E+00 0.  1.
         11    1    3    3    0    0 -0.19431199255E+01  0.11116988145E+02 -0.41220828131E+01  0.12014770387E+02  0.51100000000E-03 0. -1.
        -11    1    3    3    0    0  0.31879250960E+02 -0.21182539392E+02 -0.15660352450E+02  0.41354966522E+02  0.51100000000E-03 0.  1.
         12    1    3    3    0    0 -0.28832971914E+02  0.10168595035E+02  0.20189172545E+02  0.36638003254E+02  0.00000000000E+00 0. -1.
</event>
<event>
 7    1  0.1978681E-015  0.9000777E+02  0.7816164E-02  0.1186339E+00
        -11   -1    0    0    0    0  0.00000000000E+00  0.00000000000E+00  0.45593999997E+02  0.45594000000E+02  0.51100000000E-03 0.  1.
         11   -1    0    0    0    0 -0.00000000000E+00 -0.00000000000E+00 -0.45593999997E+02  0.45594000000E+02  0.51100000000E-03 0. -1.
    9900012    2    1    2    0    0 -0.14918609324E+00  0.64010992614E+00 -0.98028343732E+00  0.90007765775E+02  0.90000027483E+02 0.  0.
        -12    1    1    2    0    0  0.14918609324E+00 -0.64010992614E+00  0.98028343732E+00  0.11802342248E+01  0.00000000000E+00 0.  1.
         11    1    3    3    0    0  0.82572740930E+01  0.68769432495E+01  0.55339663883E+00  0.10760165984E+02  0.51100000000E-03 0. -1.
        -11    1    3    3    0    0  0.16789660336E+02  0.29417460809E+02 -0.87818199855E+01  0.34991428339E+02  0.51100000000E-03 0.  1.
         12    1    3    3    0    0 -0.25196120523E+02 -0.35654294133E+02  0.72481399094E+01  0.44256171452E+02  0.00000000000E+00 0. -1.
</event>
<event>
 7    1  0.1978681E-015  0.9000777E+02  0.7816164E-02  0.1186339E+00
        -11   -1    0    0    0    0  0.00000000000E+00  0.00000000000E+00  0.45593999997E+02  0.45594000000E+02  0.51100000000E-03 0. -1.
         11   -1    0    0    0    0 -0.00000000000E+00 -0.00000000000E+00 -0.45593999997E+02  0.45594000000E+02  0.51100000000E-03 0.  1.
    9900012    2    1    2    0    0 -0.68228189025E+00 -0.21396488693E+00  0.93896813164E+00  0.90007766674E+02  0.90000028395E+02 0.  0.
        -12    1    1    2    0    0  0.68228189025E+00  0.21396488693E+00 -0.93896813164E+00  0.11802333256E+01  0.00000000000E+00 0.  1.
         11    1    3    3    0    0  0.49887045465E+01 -0.89390819103E-01  0.10125425458E+02  0.11288020408E+02  0.51100000000E-03 0. -1.
        -11    1    3    3    0    0 -0.13030686719E+02 -0.35306454342E+02  0.86177270540E+01  0.38608415332E+02  0.51100000000E-03 0.  1.
         12    1    3    3    0    0  0.73597002827E+01  0.35181880274E+02 -0.17804184380E+02  0.40111330934E+02  0.00000000000E+00 0. -1.
</event>
<event>
 7    1  0.1978681E-015  0.9000770E+02  0.7816164E-02  0.1186339E+00
        -11   -1    0    0    0    0  0.00000000000E+00  0.00000000000E+00  0.45593999997E+02  0.45594000000E+02  0.51100000000E-03 0. -1.
         11   -1    0    0    0    0 -0.00000000000E+00 -0.00000000000E+00 -0.45593999997E+02  0.45594000000E+02  0.51100000000E-03 0.  1.
    9900012    2    1    2    0    0 -0.38645158359E+00  0.23354828576E+00  0.10905086860E+01  0.90007703926E+02  0.89999964818E+02 0.  0.
        -12    1    1    2    0    0  0.38645158359E+00 -0.23354828576E+00 -0.10905086860E+01  0.11802960741E+01  0.00000000000E+00 0.  1.
         11    1    3    3    0    0  0.33019681442E+02  0.90527543985E+01 -0.21433111310E+02  0.40393439880E+02  0.51100000000E-03 0. -1.
        -11    1    3    3    0    0  0.36879382498E+01 -0.47539834606E+01  0.69124506936E+01  0.91642360364E+01  0.51100000000E-03 0.  1.
        -12    1    3    3    0    0 -0.37094071275E+02 -0.40652226521E+01  0.15611169302E+02  0.40450028009E+02  0.00000000000E+00 0.  1.
</event>
<event>
 7    1  0.1978681E-015  0.9000763E+02  0.7816164E-02  0.1186339E+00
        -11   -1    0    0    0    0  0.00000000000E+00  0.00000000000E+00  0.45593999997E+02  0.45594000000E+02  0.51100000000E-03 0.  1.
         11   -1    0    0    0    0 -0.00000000000E+00 -0.00000000000E+00 -0.45593999997E+02  0.45594000000E+02  0.51100000000E-03 0. -1.
    9900012    2    1    2    0    0  0.42440204023E+00 -0.78858919258E+00 -0.76895616704E+00  0.90007625655E+02  0.89999885514E+02 0.  0.
        -12    1    1    2    0    0 -0.42440204023E+00  0.78858919258E+00  0.76895616704E+00  0.11803743445E+01  0.00000000000E+00 0.  1.
         11    1    3    3    0    0 -0.10203679227E+00  0.52319144759E+01  0.65508366950E+01  0.83843188308E+01  0.51100000000E-03 0. -1.
        -11    1    3    3    0    0 -0.19723722500E+02  0.11494248889E+02  0.28744666000E+02  0.36706931368E+02  0.51100000000E-03 0.  1.
         12    1    3    3    0    0  0.20250161333E+02 -0.17514752557E+02 -0.36064458862E+02  0.44916375456E+02  0.00000000000E+00 0. -1.
</event>
<event>
 7    1  0.1978681E-015  0.9000774E+02  0.7816164E-02  0.1186339E+00
        -11   -1    0    0    0    0  0.00000000000E+00  0.00000000000E+00  0.45593999997E+02  0.45594000000E+02  0.51100000000E-03 0. -1.
         11   -1    0    0    0    0 -0.00000000000E+00 -0.00000000000E+00 -0.45593999997E+02  0.45594000000E+02  0.51100000000E-03 0.  1.
    9900012    2    1    2    0    0 -0.89970960721E+00 -0.76190404785E+00  0.55157680001E-01  0.90007738366E+02  0.89999999712E+02 0.  0.
        -12    1    1    2    0    0  0.89970960721E+00  0.76190404785E+00 -0.55157680001E-01  0.11802616342E+01  0.00000000000E+00 0.  1.
         11    1    3    3    0    0 -0.29788734585E+02 -0.18357182564E+02 -0.21104536323E+02  0.40862651817E+02  0.51100000000E-03 0. -1.
        -11    1    3    3    0    0  0.45863815626E+01 -0.72989473692E+01  0.39468190785E+00  0.86293280506E+01  0.51100000000E-03 0.  1.
        -12    1    3    3    0    0  0.24302643415E+02  0.24894225885E+02  0.20765012095E+02  0.40515758498E+02  0.00000000000E+00 0.  1.
</event>
<event>
 7    1  0.1978681E-015  0.9000775E+02  0.7816164E-02  0.1186339E+00
        -11   -1    0    0    0    0  0.00000000000E+00  0.00000000000E+00  0.45593999997E+02  0.45594000000E+02  0.51100000000E-03 0.  1.
         11   -1    0    0    0    0 -0.00000000000E+00 -0.00000000000E+00 -0.45593999997E+02  0.45594000000E+02  0.51100000000E-03 0. -1.
    9900012    2    1    2    0    0  0.13516182279E-01  0.79486640896E+00  0.87234822183E+00  0.90007751418E+02  0.90000012937E+02 0.  0.
        -12    1    1    2    0    0 -0.13516182279E-01 -0.79486640896E+00 -0.87234822183E+00  0.11802485820E+01  0.00000000000E+00 0.  1.
         11    1    3    3    0    0 -0.86279788241E+01 -0.30080777082E+01  0.42397100747E+00  0.91471471926E+01  0.51100000000E-03 0. -1.
        -11    1    3    3    0    0 -0.21164873734E+02 -0.52162054301E+01  0.30563096270E+02  0.37540158939E+02  0.51100000000E-03 0.  1.
         12    1    3    3    0    0  0.29806368740E+02  0.90191495473E+01 -0.30114719056E+02  0.43320445287E+02  0.00000000000E+00 0. -1.
</event>
<event>
 7    1  0.1978681E-015  0.9000772E+02  0.7816164E-02  0.1186339E+00
        -11   -1    0    0    0    0  0.00000000000E+00  0.00000000000E+00  0.45593999997E+02  0.45594000000E+02  0.51100000000E-03 0.  1.
         11   -1    0    0    0    0 -0.00000000000E+00 -0.00000000000E+00 -0.45593999997E+02  0.45594000000E+02  0.51100000000E-03 0. -1.
    9900012    2    1    2    0    0  0.61796396564E+00 -0.30687651023E+00 -0.95760771868E+00  0.90007718170E+02  0.89999979250E+02 0.  0.
        -12    1    1    2    0    0 -0.61796396564E+00  0.30687651023E+00  0.95760771868E+00  0.11802818300E+01  0.00000000000E+00 0.  1.
         11    1    3    3    0    0 -0.61763123084E+01  0.42518682621E+01 -0.11112976312E+02  0.13406097875E+02  0.51100000000E-03 0. -1.
        -11    1    3    3    0    0 -0.27936022456E+02 -0.12934458180E+02  0.23221638948E+02  0.38561199084E+02  0.51100000000E-03 0.  1.
         12    1    3    3    0    0  0.34730298730E+02  0.83757134075E+01 -0.13066270354E+02  0.38040421211E+02  0.00000000000E+00 0. -1.
</event>
<event>
 7    1  0.1978681E-015  0.9000784E+02  0.7816164E-02  0.1186339E+00
        -11   -1    0    0    0    0  0.00000000000E+00  0.00000000000E+00  0.45593999997E+02  0.45594000000E+02  0.51100000000E-03 0.  1.
         11   -1    0    0    0    0 -0.00000000000E+00 -0.00000000000E+00 -0.45593999997E+02  0.45594000000E+02  0.51100000000E-03 0. -1.
    9900012    2    1    2    0    0 -0.64472331200E+00 -0.78971371310E+00  0.59453334354E+00  0.90007836539E+02  0.90000099181E+02 0.  0.
        -12    1    1    2    0    0  0.64472331200E+00  0.78971371310E+00 -0.59453334354E+00  0.11801634608E+01  0.00000000000E+00 0.  1.
         11    1    3    3    0    0  0.15037079992E+01  0.17337841336E+01 -0.88051637819E+01  0.90993436388E+01  0.51100000000E-03 0. -1.
        -11    1    3    3    0    0 -0.25344078230E+02  0.30682337173E+02  0.62136639711E+01  0.40278253884E+02  0.51100000000E-03 0.  1.
         12    1    3    3    0    0  0.23195646918E+02 -0.33205835020E+02  0.31860331544E+01  0.40630239017E+02  0.00000000000E+00 0. -1.
</event>
<event>
 7    1  0.1978681E-015  0.9000752E+02  0.7816164E-02  0.1186339E+00
        -11   -1    0    0    0    0  0.00000000000E+00  0.00000000000E+00  0.45593999997E+02  0.45594000000E+02  0.51100000000E-03 0.  1.
         11   -1    0    0    0    0 -0.00000000000E+00 -0.00000000000E+00 -0.45593999997E+02  0.45594000000E+02  0.51100000000E-03 0. -1.
    9900012    2    1    2    0    0 -0.12554404302E+00 -0.10013692516E+01 -0.61240136899E+00  0.90007518267E+02  0.89999776708E+02 0.  0.
        -12    1    1    2    0    0  0.12554404302E+00  0.10013692516E+01  0.61240136899E+00  0.11804817328E+01  0.00000000000E+00 0.  1.
         11    1    3    3    0    0 -0.27238338361E+01 -0.29199118589E+01 -0.98598220368E+01  0.10637727525E+02  0.51100000000E-03 0. -1.
        -11    1    3    3    0    0 -0.35245222855E+02 -0.35369217748E+01  0.18598764949E+02  0.40008119271E+02  0.51100000000E-03 0.  1.
         12    1    3    3    0    0  0.37843512648E+02  0.54554643821E+01 -0.93513442809E+01  0.39361671471E+02  0.00000000000E+00 0. -1.
</event>
<event>
 7    1  0.1978681E-015  0.9000763E+02  0.7816164E-02  0.1186339E+00
        -11   -1    0    0    0    0  0.00000000000E+00  0.00000000000E+00  0.45593999997E+02  0.45594000000E+02  0.51100000000E-03 0.  1.
         11   -1    0    0    0    0 -0.00000000000E+00 -0.00000000000E+00 -0.45593999997E+02  0.45594000000E+02  0.51100000000E-03 0. -1.
    9900012    2    1    2    0    0 -0.76053214487E+00  0.88339992882E+00 -0.18564149528E+00  0.90007632539E+02  0.89999892489E+02 0.  0.
        -12    1    1    2    0    0  0.76053214487E+00 -0.88339992882E+00  0.18564149528E+00  0.11803674607E+01  0.00000000000E+00 0.  1.
         11    1    3    3    0    0  0.20075710585E+02 -0.98272273869E+01  0.18434392080E+02  0.28973010979E+02  0.51100000000E-03 0. -1.
        -11    1    3    3    0    0  0.65368134860E+01 -0.14973452933E+02  0.45038667331E+01  0.16947537847E+02  0.51100000000E-03 0.  1.
         12    1    3    3    0    0 -0.27373056216E+02  0.25684080248E+02 -0.23123900308E+02  0.44087083712E+02  0.00000000000E+00 0. -1.
</event>
<event>
 7    1  0.1978681E-015  0.9000776E+02  0.7816164E-02  0.1186339E+00
        -11   -1    0    0    0    0  0.00000000000E+00  0.00000000000E+00  0.45593999997E+02  0.45594000000E+02  0.51100000000E-03 0.  1.
         11   -1    0    0    0    0 -0.00000000000E+00 -0.00000000000E+00 -0.45593999997E+02  0.45594000000E+02  0.51100000000E-03 0. -1.
    9900012    2    1    2    0    0 -0.62349494583E+00  0.76039706093E+00 -0.65270834526E+00  0.90007755186E+02  0.90000016754E+02 0.  0.
        -12    1    1    2    0    0  0.62349494583E+00 -0.76039706093E+00  0.65270834526E+00  0.11802448143E+01  0.00000000000E+00 0.  1.
         11    1    3    3    0    0 -0.36836985040E+01 -0.31398151123E+01 -0.60067775490E+01  0.77142368639E+01  0.51100000000E-03 0. -1.
        -11    1    3    3    0    0  0.18674479774E+02  0.36965064863E+02  0.15702231635E+02  0.44291221407E+02  0.51100000000E-03 0.  1.
         12    1    3    3    0    0 -0.15614276216E+02 -0.33064852690E+02 -0.10348162431E+02  0.38002296915E+02  0.00000000000E+00 0. -1.
</event>
<event>
 7    1  0.1978681E-015  0.9000777E+02  0.7816164E-02  0.1186339E+00
        -11   -1    0    0    0    0  0.00000000000E+00  0.00000000000E+00  0.45593999997E+02  0.45594000000E+02  0.51100000000E-03 0. -1.
         11   -1    0    0    0    0 -0.00000000000E+00 -0.00000000000E+00 -0.45593999997E+02  0.45594000000E+02  0.51100000000E-03 0.  1.
    9900012    2    1    2    0    0  0.78231606759E+00  0.50492149179E+00  0.72523754168E+00  0.90007773905E+02  0.90000035721E+02 0.  0.
        -12    1    1    2    0    0 -0.78231606759E+00 -0.50492149179E+00 -0.72523754168E+00  0.11802260946E+01  0.00000000000E+00 0.  1.
         11    1    3    3    0    0  0.37062753178E+02  0.38896349614E+01  0.18458581970E+02  0.41587211758E+02  0.51100000000E-03 0. -1.
        -11    1    3    3    0    0 -0.27094055505E+01 -0.83509073100E+01  0.22161788421E+01  0.90548318736E+01  0.51100000000E-03 0.  1.
        -12    1    3    3    0    0 -0.33571031560E+02  0.49661938404E+01 -0.19949523271E+02  0.39365730273E+02  0.00000000000E+00 0.  1.
</event>
<event>
 7    1  0.1978681E-015  0.9000774E+02  0.7816164E-02  0.1186339E+00
        -11   -1    0    0    0    0  0.00000000000E+00  0.00000000000E+00  0.45593999997E+02  0.45594000000E+02  0.51100000000E-03 0.  1.
         11   -1    0    0    0    0 -0.00000000000E+00 -0.00000000000E+00 -0.45593999997E+02  0.45594000000E+02  0.51100000000E-03 0. -1.
    9900012    2    1    2    0    0  0.89604352993E-01  0.88870116819E+00  0.77149347015E+00  0.90007736944E+02  0.89999998272E+02 0.  0.
        -12    1    1    2    0    0 -0.89604352993E-01 -0.88870116819E+00 -0.77149347015E+00  0.11802630558E+01  0.00000000000E+00 0.  1.
         11    1    3    3    0    0  0.25974917040E+02  0.27679710633E+02 -0.33881738746E+00  0.37960209345E+02  0.51100000000E-03 0. -1.
        -11    1    3    3    0    0 -0.44461439125E+01  0.45686941368E+01  0.11071270858E+02  0.12775531319E+02  0.51100000000E-03 0.  1.
        -12    1    3    3    0    0 -0.21439168775E+02 -0.31359703602E+02 -0.99609600003E+01  0.39271996281E+02  0.00000000000E+00 0.  1.
</event>
<event>
 7    1  0.1978681E-015  0.9000774E+02  0.7816164E-02  0.1186339E+00
        -11   -1    0    0    0    0  0.00000000000E+00  0.00000000000E+00  0.45593999997E+02  0.45594000000E+02  0.51100000000E-03 0.  1.
         11   -1    0    0    0    0 -0.00000000000E+00 -0.00000000000E+00 -0.45593999997E+02  0.45594000000E+02  0.51100000000E-03 0. -1.
    9900012    2    1    2    0    0  0.17347506298E+00  0.51985326399E-01 -0.11662827601E+01  0.90007740898E+02  0.90000002278E+02 0.  0.
        -12    1    1    2    0    0 -0.17347506298E+00 -0.51985326399E-01  0.11662827601E+01  0.11802591021E+01  0.00000000000E+00 0.  1.
         11    1    3    3    0    0 -0.74801204797E+01  0.67580942510E+01 -0.22790372795E+02  0.24920375854E+02  0.51100000000E-03 0. -1.
        -11    1    3    3    0    0 -0.24730141789E+02  0.52456718198E+01  0.19499174731E+01  0.25355456300E+02  0.51100000000E-03 0.  1.
        -12    1    3    3    0    0  0.32383737332E+02 -0.11951780744E+02  0.19674172562E+02  0.39731908745E+02  0.00000000000E+00 0.  1.
</event>
<event>
 7    1  0.1978681E-015  0.9000767E+02  0.7816164E-02  0.1186339E+00
        -11   -1    0    0    0    0  0.00000000000E+00  0.00000000000E+00  0.45593999997E+02  0.45594000000E+02  0.51100000000E-03 0. -1.
         11   -1    0    0    0    0 -0.00000000000E+00 -0.00000000000E+00 -0.45593999997E+02  0.45594000000E+02  0.51100000000E-03 0.  1.
    9900012    2    1    2    0    0  0.85958375501E+00 -0.59746415964E+00 -0.54527096587E+00  0.90007674587E+02  0.89999935092E+02 0.  0.
        -12    1    1    2    0    0 -0.85958375501E+00  0.59746415964E+00  0.54527096587E+00  0.11803254128E+01  0.00000000000E+00 0.  1.
         11    1    3    3    0    0  0.30648064365E+02  0.12409768972E+02  0.18975830167E+02  0.38123330732E+02  0.51100000000E-03 0. -1.
        -11    1    3    3    0    0  0.48254739013E+01 -0.66194604685E+01  0.44272358981E+01  0.93114377636E+01  0.51100000000E-03 0.  1.
        -12    1    3    3    0    0 -0.34613954512E+02 -0.63877726633E+01 -0.23948337031E+02  0.42572906092E+02  0.00000000000E+00 0.  1.
</event>
<event>
 7    1  0.1984059E-015  0.9000784E+02  0.7816164E-02  0.1186339E+00
        -11   -1    0    0    0    0  0.00000000000E+00  0.00000000000E+00  0.45593999997E+02  0.45594000000E+02  0.51100000000E-03 0.  1.
         11   -1    0    0    0    0 -0.00000000000E+00 -0.00000000000E+00 -0.45593999997E+02  0.45594000000E+02  0.51100000000E-03 0. -1.
    9900012    2    1    2    0    0  0.10315145385E+00 -0.89209782258E+00 -0.76570101213E+00  0.90007840355E+02  0.90000103048E+02 0.  0.
        -12    1    1    2    0    0 -0.10315145385E+00  0.89209782258E+00  0.76570101213E+00  0.11801596449E+01  0.00000000000E+00 0.  1.
         11    1    3    3    0    0 -0.67573752888E+01  0.62101956750E+01  0.15746494167E+01  0.93117222983E+01  0.51100000000E-03 0. -1.
        -11    1    3    3    0    0  0.85931549265E+01  0.20313290537E+02  0.30653266662E+02  0.37763670920E+02  0.51100000000E-03 0.  1.
         12    1    3    3    0    0 -0.17326281839E+01 -0.27415584035E+02 -0.32993617091E+02  0.42932447137E+02  0.00000000000E+00 0. -1.
</event>
<event>
 7    1  0.1978681E-015  0.9000792E+02  0.7816164E-02  0.1186339E+00
        -11   -1    0    0    0    0  0.00000000000E+00  0.00000000000E+00  0.45593999997E+02  0.45594000000E+02  0.51100000000E-03 0. -1.
         11   -1    0    0    0    0 -0.00000000000E+00 -0.00000000000E+00 -0.45593999997E+02  0.45594000000E+02  0.51100000000E-03 0.  1.
    9900012    2    1    2    0    0  0.77744771606E+00  0.43400636577E+00  0.77447462425E+00  0.90007916350E+02  0.90000180046E+02 0.  0.
        -12    1    1    2    0    0 -0.77744771606E+00 -0.43400636577E+00 -0.77447462425E+00  0.11800836497E+01  0.00000000000E+00 0.  1.
         11    1    3    3    0    0 -0.33476564588E+02  0.10350101517E+02 -0.72589636751E+01  0.35784040184E+02  0.51100000000E-03 0. -1.
        -11    1    3    3    0    0  0.16724407704E+01  0.64093774661E+01 -0.11203635559E+02  0.13015322802E+02  0.51100000000E-03 0.  1.
        -12    1    3    3    0    0  0.32581571533E+02 -0.16325472617E+02  0.19237073858E+02  0.41208553364E+02  0.00000000000E+00 0.  1.
</event>
<event>
 7    1  0.1978681E-015  0.9000775E+02  0.7816164E-02  0.1186339E+00
        -11   -1    0    0    0    0  0.00000000000E+00  0.00000000000E+00  0.45593999997E+02  0.45594000000E+02  0.51100000000E-03 0.  1.
         11   -1    0    0    0    0 -0.00000000000E+00 -0.00000000000E+00 -0.45593999997E+02  0.45594000000E+02  0.51100000000E-03 0. -1.
    9900012    2    1    2    0    0 -0.49499966276E+00  0.13201515591E+00 -0.10632667851E+01  0.90007750482E+02  0.90000011989E+02 0.  0.
        -12    1    1    2    0    0  0.49499966276E+00 -0.13201515591E+00  0.10632667851E+01  0.11802495176E+01  0.00000000000E+00 0.  1.
         11    1    3    3    0    0  0.49789729406E+01 -0.67195084791E+01  0.55524877599E+01  0.10038530088E+02  0.51100000000E-03 0. -1.
        -11    1    3    3    0    0  0.31605537192E+02  0.23159829919E+02 -0.28082799413E+01  0.39283255205E+02  0.51100000000E-03 0.  1.
         12    1    3    3    0    0 -0.37079509795E+02 -0.16308306284E+02 -0.38074746036E+01  0.40685965189E+02  0.00000000000E+00 0. -1.
</event>
<event>
 7    1  0.1978681E-015  0.9000780E+02  0.7816164E-02  0.1186339E+00
        -11   -1    0    0    0    0  0.00000000000E+00  0.00000000000E+00  0.45593999997E+02  0.45594000000E+02  0.51100000000E-03 0.  1.
         11   -1    0    0    0    0 -0.00000000000E+00 -0.00000000000E+00 -0.45593999997E+02  0.45594000000E+02  0.51100000000E-03 0. -1.
    9900012    2    1    2    0    0  0.84090386548E+00  0.52278495574E+00 -0.64222466079E+00  0.90007798349E+02  0.90000060488E+02 0.  0.
        -12    1    1    2    0    0 -0.84090386548E+00 -0.52278495574E+00  0.64222466079E+00  0.11802016505E+01  0.00000000000E+00 0.  1.
         11    1    3    3    0    0  0.42938021229E+01 -0.71952790840E+01  0.38698765071E+01  0.92295569887E+01  0.51100000000E-03 0. -1.
        -11    1    3    3    0    0 -0.14991813427E+02 -0.17611115105E+02  0.29078344165E+02  0.37154487544E+02  0.51100000000E-03 0.  1.
         12    1    3    3    0    0  0.11538915169E+02  0.25329179145E+02 -0.33590445332E+02  0.43623753817E+02  0.00000000000E+00 0. -1.
</event>
<event>
 7    1  0.1978681E-015  0.9000743E+02  0.7816164E-02  0.1186340E+00
        -11   -1    0    0    0    0  0.00000000000E+00  0.00000000000E+00  0.45593999997E+02  0.45594000000E+02  0.51100000000E-03 0. -1.
         11   -1    0    0    0    0 -0.00000000000E+00 -0.00000000000E+00 -0.45593999997E+02  0.45594000000E+02  0.51100000000E-03 0.  1.
    9900012    2    1    2    0    0  0.10136988582E+01 -0.62643720820E-01  0.60186974133E+00  0.90007425226E+02  0.89999682439E+02 0.  0.
        -12    1    1    2    0    0 -0.10136988582E+01  0.62643720820E-01 -0.60186974133E+00  0.11805747737E+01  0.00000000000E+00 0.  1.
         11    1    3    3    0    0 -0.76272675690E+01  0.33840151153E+01  0.91201066095E-01  0.83447640329E+01  0.51100000000E-03 0. -1.
        -11    1    3    3    0    0  0.11467110459E+02  0.30490686800E+02 -0.23350657696E+02  0.40080292151E+02  0.51100000000E-03 0.  1.
         12    1    3    3    0    0 -0.28261440314E+01 -0.33937345637E+02  0.23861326371E+02  0.41582369042E+02  0.00000000000E+00 0. -1.
</event>
<event>
 7    1  0.1978681E-015  0.9000901E+02  0.7816164E-02  0.1186337E+00
        -11   -1    0    0    0    0  0.00000000000E+00  0.00000000000E+00  0.45593999997E+02  0.45594000000E+02  0.51100000000E-03 0. -1.
         11   -1    0    0    0    0 -0.00000000000E+00 -0.00000000000E+00 -0.45593999997E+02  0.45594000000E+02  0.51100000000E-03 0.  1.
    9900012    2    1    2    0    0 -0.63985590846E+00  0.19875876378E+00  0.97010122251E+00  0.90009010173E+02  0.90001288298E+02 0.  0.
        -12    1    1    2    0    0  0.63985590846E+00 -0.19875876378E+00 -0.97010122251E+00  0.11789898268E+01  0.00000000000E+00 0.  1.
         11    1    3    3    0    0  0.11437641171E+02 -0.15648913409E+01  0.24220344091E+01  0.11795540318E+02  0.51100000000E-03 0. -1.
        -11    1    3    3    0    0 -0.40492853516E+02  0.46478658584E+01 -0.18704648825E+02  0.44845710283E+02  0.51100000000E-03 0.  1.
         12    1    3    3    0    0  0.28415356437E+02 -0.28842157537E+01  0.17252715638E+02  0.33367759572E+02  0.00000000000E+00 0. -1.
</event>
<event>
 7    1  0.1978681E-015  0.9000767E+02  0.7816164E-02  0.1186339E+00
        -11   -1    0    0    0    0  0.00000000000E+00  0.00000000000E+00  0.45593999997E+02  0.45594000000E+02  0.51100000000E-03 0.  1.
         11   -1    0    0    0    0 -0.00000000000E+00 -0.00000000000E+00 -0.45593999997E+02  0.45594000000E+02  0.51100000000E-03 0. -1.
    9900012    2    1    2    0    0 -0.68310961642E+00 -0.77773878075E+00 -0.56715572146E+00  0.90007668703E+02  0.89999929129E+02 0.  0.
        -12    1    1    2    0    0  0.68310961642E+00  0.77773878075E+00  0.56715572146E+00  0.11803312974E+01  0.00000000000E+00 0.  1.
         11    1    3    3    0    0  0.30912297921E+02  0.16777617570E+02 -0.93305020616E+01  0.36388416880E+02  0.51100000000E-03 0. -1.
        -11    1    3    3    0    0  0.75913396264E+01 -0.61937956521E+00 -0.45862097672E+01  0.88907473623E+01  0.51100000000E-03 0.  1.
        -12    1    3    3    0    0 -0.39186747164E+02 -0.16935976785E+02  0.13349556107E+02  0.44728504460E+02  0.00000000000E+00 0.  1.
</event>
<event>
 7    1  0.1978681E-015  0.9000773E+02  0.7816164E-02  0.1186339E+00
        -11   -1    0    0    0    0  0.00000000000E+00  0.00000000000E+00  0.45593999997E+02  0.45594000000E+02  0.51100000000E-03 0. -1.
         11   -1    0    0    0    0 -0.00000000000E+00 -0.00000000000E+00 -0.45593999997E+02  0.45594000000E+02  0.51100000000E-03 0.  1.
    9900012    2    1    2    0    0 -0.11063918038E+01  0.38582870597E+00 -0.14166872599E+00  0.90007730267E+02  0.89999991507E+02 0.  0.
        -12    1    1    2    0    0  0.11063918038E+01 -0.38582870597E+00  0.14166872599E+00  0.11802697327E+01  0.00000000000E+00 0.  1.
         11    1    3    3    0    0  0.14954621308E+02 -0.40736658084E+02  0.38443559146E+01  0.43564837690E+02  0.51100000000E-03 0. -1.
        -11    1    3    3    0    0 -0.31944166157E+01  0.91304185790E+01  0.48864185277E+01  0.10837247216E+02  0.51100000000E-03 0.  1.
        -12    1    3    3    0    0 -0.12866596496E+02  0.31992068211E+02 -0.88724431682E+01  0.35605645361E+02  0.00000000000E+00 0.  1.
</event>
<event>
 7    1  0.2450155E-015  0.9000770E+02  0.7816164E-02  0.1186339E+00
        -11   -1    0    0    0    0  0.00000000000E+00  0.00000000000E+00  0.45593999997E+02  0.45594000000E+02  0.51100000000E-03 0. -1.
         11   -1    0    0    0    0 -0.00000000000E+00 -0.00000000000E+00 -0.45593999997E+02  0.45594000000E+02  0.51100000000E-03 0.  1.
    9900012    2    1    2    0    0 -0.89019854476E+00 -0.44467590820E+00  0.63475538833E+00  0.90007701514E+02  0.89999962374E+02 0.  0.
        -12    1    1    2    0    0  0.89019854476E+00  0.44467590820E+00 -0.63475538833E+00  0.11802984857E+01  0.00000000000E+00 0.  1.
         11    1    3    3    0    0  0.43357440860E+01  0.13258320465E+01  0.85143616946E+01  0.96462875098E+01  0.51100000000E-03 0. -1.
        -11    1    3    3    0    0  0.20796734772E+02 -0.14718857696E+02  0.25536402718E+02  0.36072937406E+02  0.51100000000E-03 0.  1.
         12    1    3    3    0    0 -0.26022677403E+02  0.12948349742E+02 -0.33416009024E+02  0.44288476598E+02  0.00000000000E+00 0. -1.
</event>
<event>
 7    1  0.1978681E-015  0.9000773E+02  0.7816164E-02  0.1186339E+00
        -11   -1    0    0    0    0  0.00000000000E+00  0.00000000000E+00  0.45593999997E+02  0.45594000000E+02  0.51100000000E-03 0.  1.
         11   -1    0    0    0    0 -0.00000000000E+00 -0.00000000000E+00 -0.45593999997E+02  0.45594000000E+02  0.51100000000E-03 0. -1.
    9900012    2    1    2    0    0  0.10722197856E+00  0.23492418531E+00 -0.11516737011E+01  0.90007729591E+02  0.89999990821E+02 0.  0.
        -12    1    1    2    0    0 -0.10722197856E+00 -0.23492418531E+00  0.11516737011E+01  0.11802704095E+01  0.00000000000E+00 0.  1.
         11    1    3    3    0    0 -0.20235738841E+01  0.33639483575E+01 -0.36452222863E+02  0.36662999764E+02  0.51100000000E-03 0. -1.
        -11    1    3    3    0    0  0.44633190524E+01 -0.19478341311E+01 -0.83229420441E+01  0.96429580160E+01  0.51100000000E-03 0.  1.
        -12    1    3    3    0    0 -0.23325231898E+01 -0.11811900411E+01  0.43623491206E+02  0.43701771810E+02  0.00000000000E+00 0.  1.
</event>
<event>
 7    1  0.1978681E-015  0.9000787E+02  0.7816164E-02  0.1186339E+00
        -11   -1    0    0    0    0  0.00000000000E+00  0.00000000000E+00  0.45593999997E+02  0.45594000000E+02  0.51100000000E-03 0. -1.
         11   -1    0    0    0    0 -0.00000000000E+00 -0.00000000000E+00 -0.45593999997E+02  0.45594000000E+02  0.51100000000E-03 0.  1.
    9900012    2    1    2    0    0  0.11376352177E+01  0.29093431169E+00 -0.11764582158E+00  0.90007874074E+02  0.90000137212E+02 0.  0.
        -12    1    1    2    0    0 -0.11376352177E+01 -0.29093431169E+00  0.11764582158E+00  0.11801259261E+01  0.00000000000E+00 0.  1.
         11    1    3    3    0    0  0.36381376124E+02 -0.11125707439E+02 -0.20802224534E+02  0.43360332569E+02  0.51100000000E-03 0. -1.
        -11    1    3    3    0    0 -0.36746068477E+00  0.61781451258E+01  0.53872905758E+01  0.82053278154E+01  0.51100000000E-03 0.  1.
        -12    1    3    3    0    0 -0.34876280222E+02  0.52384966245E+01  0.15297288137E+02  0.38442213689E+02  0.00000000000E+00 0.  1.
</event>
<event>
 7    1  0.1978681E-015  0.9000776E+02  0.7816164E-02  0.1186339E+00
        -11   -1    0    0    0    0  0.00000000000E+00  0.00000000000E+00  0.45593999997E+02  0.45594000000E+02  0.51100000000E-03 0.  1.
         11   -1    0    0    0    0 -0.00000000000E+00 -0.00000000000E+00 -0.45593999997E+02  0.45594000000E+02  0.51100000000E-03 0. -1.
    9900012    2    1    2    0    0  0.37952979038E+00  0.90059202576E+00 -0.66170130697E+00  0.90007763804E+02  0.90000025486E+02 0.  0.
        -12    1    1    2    0    0 -0.37952979038E+00 -0.90059202576E+00  0.66170130697E+00  0.11802361960E+01  0.00000000000E+00 0.  1.
         11    1    3    3    0    0  0.13918509008E+02  0.12972454285E+02 -0.22901605891E+02  0.29774032576E+02  0.51100000000E-03 0. -1.
        -11    1    3    3    0    0  0.18047486885E+02 -0.22830426471E+01 -0.32525406360E+01  0.18479802149E+02  0.51100000000E-03 0.  1.
        -12    1    3    3    0    0 -0.31586466103E+02 -0.97888196123E+01  0.25492445220E+02  0.41753929079E+02  0.00000000000E+00 0.  1.
</event>
<event>
 7    1  0.1978681E-015  0.9000782E+02  0.7816164E-02  0.1186339E+00
        -11   -1    0    0    0    0  0.00000000000E+00  0.00000000000E+00  0.45593999997E+02  0.45594000000E+02  0.51100000000E-03 0.  1.
         11   -1    0    0    0    0 -0.00000000000E+00 -0.00000000000E+00 -0.45593999997E+02  0.45594000000E+02  0.51100000000E-03 0. -1.
    9900012    2    1    2    0    0  0.88251242155E+00 -0.19456924647E+00 -0.75903275452E+00  0.90007823705E+02  0.90000086177E+02 0.  0.
        -12    1    1    2    0    0 -0.88251242155E+00  0.19456924647E+00  0.75903275452E+00  0.11801762954E+01  0.00000000000E+00 0.  1.
         11    1    3    3    0    0  0.25277638599E+02 -0.61170842030E+01 -0.30631046207E+02  0.40182567418E+02  0.51100000000E-03 0. -1.
        -11    1    3    3    0    0  0.53487531490E+01  0.78510488830E+01  0.38229482081E+01  0.10240266699E+02  0.51100000000E-03 0.  1.
        -12    1    3    3    0    0 -0.29743879327E+02 -0.19285339265E+01  0.26049065244E+02  0.39584989587E+02  0.00000000000E+00 0.  1.
</event>
<event>
 7    1  0.1978681E-015  0.9000794E+02  0.7816164E-02  0.1186339E+00
        -11   -1    0    0    0    0  0.00000000000E+00  0.00000000000E+00  0.45593999997E+02  0.45594000000E+02  0.51100000000E-03 0.  1.
         11   -1    0    0    0    0 -0.00000000000E+00 -0.00000000000E+00 -0.45593999997E+02  0.45594000000E+02  0.51100000000E-03 0. -1.
    9900012    2    1    2    0    0 -0.88921768178E-01 -0.97994978404E+00  0.65141647365E+00  0.90007935560E+02  0.90000199509E+02 0.  0.
        -12    1    1    2    0    0  0.88921768178E-01  0.97994978404E+00 -0.65141647365E+00  0.11800644399E+01  0.00000000000E+00 0.  1.
         11    1    3    3    0    0  0.35250756746E+01  0.30026990095E+02 -0.19493846703E+02  0.35972994763E+02  0.51100000000E-03 0. -1.
        -11    1    3    3    0    0  0.69706266611E+01  0.62780156406E+01 -0.17156737206E+01  0.95365954621E+01  0.51100000000E-03 0.  1.
        -12    1    3    3    0    0 -0.10584624104E+02 -0.37284955520E+02  0.21860936897E+02  0.44498345335E+02  0.00000000000E+00 0.  1.
</event>
<event>
 7    1  0.1978681E-015  0.9000774E+02  0.7816164E-02  0.1186339E+00
        -11   -1    0    0    0    0  0.00000000000E+00  0.00000000000E+00  0.45593999997E+02  0.45594000000E+02  0.51100000000E-03 0.  1.
         11   -1    0    0    0    0 -0.00000000000E+00 -0.00000000000E+00 -0.45593999997E+02  0.45594000000E+02  0.51100000000E-03 0. -1.
    9900012    2    1    2    0    0  0.71260898013E+00 -0.16423440569E+00 -0.92640982824E+00  0.90007737458E+02  0.89999998792E+02 0.  0.
        -12    1    1    2    0    0 -0.71260898013E+00  0.16423440569E+00  0.92640982824E+00  0.11802625422E+01  0.00000000000E+00 0.  1.
         11    1    3    3    0    0  0.62243787898E-01 -0.26166628311E+01 -0.35045726538E+02  0.35143331480E+02  0.51100000000E-03 0. -1.
        -11    1    3    3    0    0  0.18525402221E+02  0.98288033192E+01  0.81793023266E+01  0.22509928675E+02  0.51100000000E-03 0.  1.
        -12    1    3    3    0    0 -0.17875037029E+02 -0.73763748938E+01  0.25940014383E+02  0.32354477303E+02  0.00000000000E+00 0.  1.
</event>
<event>
 7    1  0.2278193E-015  0.9000778E+02  0.7816164E-02  0.1186339E+00
        -11   -1    0    0    0    0  0.00000000000E+00  0.00000000000E+00  0.45593999997E+02  0.45594000000E+02  0.51100000000E-03 0. -1.
         11   -1    0    0    0    0 -0.00000000000E+00 -0.00000000000E+00 -0.45593999997E+02  0.45594000000E+02  0.51100000000E-03 0.  1.
    9900012    2    1    2    0    0  0.62250380803E+00  0.80731005553E+00 -0.59469909483E+00  0.90007776491E+02  0.90000038341E+02 0.  0.
        -12    1    1    2    0    0 -0.62250380803E+00 -0.80731005553E+00  0.59469909483E+00  0.11802235086E+01  0.00000000000E+00 0.  1.
         11    1    3    3    0    0  0.64526138156E+01  0.53194368693E+01  0.45644897505E+01  0.95271821964E+01  0.51100000000E-03 0. -1.
        -11    1    3    3    0    0  0.33443554135E+02 -0.14043927455E+02  0.94902887042E+01  0.37493583337E+02  0.51100000000E-03 0.  1.
         12    1    3    3    0    0 -0.39273664142E+02  0.95318006407E+01 -0.14649477550E+02  0.42987010958E+02  0.00000000000E+00 0. -1.
</event>
<event>
 7    1  0.1978681E-015  0.9000773E+02  0.7816164E-02  0.1186339E+00
        -11   -1    0    0    0    0  0.00000000000E+00  0.00000000000E+00  0.45593999997E+02  0.45594000000E+02  0.51100000000E-03 0.  1.
         11   -1    0    0    0    0 -0.00000000000E+00 -0.00000000000E+00 -0.45593999997E+02  0.45594000000E+02  0.51100000000E-03 0. -1.
    9900012    2    1    2    0    0 -0.81120760277E+00 -0.68407614002E+00 -0.51673166244E+00  0.90007733271E+02  0.89999994550E+02 0.  0.
        -12    1    1    2    0    0  0.81120760277E+00  0.68407614002E+00  0.51673166244E+00  0.11802667288E+01  0.00000000000E+00 0.  1.
         11    1    3    3    0    0 -0.33840745499E+02  0.90843073060E+01  0.13492102268E+02  0.37546737795E+02  0.51100000000E-03 0. -1.
        -11    1    3    3    0    0 -0.21874336995E+01  0.93562426682E+01  0.10163180260E+01  0.96621449816E+01  0.51100000000E-03 0.  1.
        -12    1    3    3    0    0  0.35216971596E+02 -0.19124626114E+02 -0.15025151956E+02  0.42798850495E+02  0.00000000000E+00 0.  1.
</event>
<event>
 7    1  0.1978681E-015  0.9000770E+02  0.7816164E-02  0.1186339E+00
        -11   -1    0    0    0    0  0.00000000000E+00  0.00000000000E+00  0.45593999997E+02  0.45594000000E+02  0.51100000000E-03 0.  1.
         11   -1    0    0    0    0 -0.00000000000E+00 -0.00000000000E+00 -0.45593999997E+02  0.45594000000E+02  0.51100000000E-03 0. -1.
    9900012    2    1    2    0    0 -0.85872624528E-01  0.11213792068E+01  0.35812336820E+00  0.90007695895E+02  0.89999956681E+02 0.  0.
        -12    1    1    2    0    0  0.85872624528E-01 -0.11213792068E+01 -0.35812336820E+00  0.11803041049E+01  0.00000000000E+00 0.  1.
         11    1    3    3    0    0  0.44108773977E+01 -0.65735931171E+01  0.53533754488E+01  0.95564949037E+01  0.51100000000E-03 0. -1.
        -11    1    3    3    0    0 -0.11110513340E+02  0.43442160890E+00  0.36320405304E+02  0.37984260826E+02  0.51100000000E-03 0.  1.
         12    1    3    3    0    0  0.66137633174E+01  0.72605507151E+01 -0.41315657384E+02  0.42466940165E+02  0.00000000000E+00 0. -1.
</event>
<event>
 7    1  0.1978681E-015  0.9000804E+02  0.7816164E-02  0.1186338E+00
        -11   -1    0    0    0    0  0.00000000000E+00  0.00000000000E+00  0.45593999997E+02  0.45594000000E+02  0.51100000000E-03 0.  1.
         11   -1    0    0    0    0 -0.00000000000E+00 -0.00000000000E+00 -0.45593999997E+02  0.45594000000E+02  0.51100000000E-03 0. -1.
    9900012    2    1    2    0    0 -0.83789962582E+00  0.58408079036E+00 -0.59083887908E+00  0.90008035283E+02  0.90000300548E+02 0.  0.
        -12    1    1    2    0    0  0.83789962582E+00 -0.58408079036E+00  0.59083887908E+00  0.11799647171E+01  0.00000000000E+00 0.  1.
         11    1    3    3    0    0  0.20927393244E+01  0.10498684435E+02  0.63785300271E+01  0.12461443669E+02  0.51100000000E-03 0. -1.
        -11    1    3    3    0    0  0.30707526183E+02  0.15988450734E+02 -0.55856861307E+01  0.35068256457E+02  0.51100000000E-03 0.  1.
         12    1    3    3    0    0 -0.33638165133E+02 -0.25903054378E+02 -0.13836827755E+01  0.42478335157E+02  0.00000000000E+00 0. -1.
</event>
<event>
 7    1  0.1978681E-015  0.9000771E+02  0.7816164E-02  0.1186339E+00
        -11   -1    0    0    0    0  0.00000000000E+00  0.00000000000E+00  0.45593999997E+02  0.45594000000E+02  0.51100000000E-03 0.  1.
         11   -1    0    0    0    0 -0.00000000000E+00 -0.00000000000E+00 -0.45593999997E+02  0.45594000000E+02  0.51100000000E-03 0. -1.
    9900012    2    1    2    0    0 -0.32487846870E+00  0.10821729093E+01 -0.34123690640E+00  0.90007708997E+02  0.89999969956E+02 0.  0.
        -12    1    1    2    0    0  0.32487846870E+00 -0.10821729093E+01  0.34123690640E+00  0.11802910028E+01  0.00000000000E+00 0.  1.
         11    1    3    3    0    0  0.17085009036E+02 -0.28676479138E+02  0.67363481506E+01  0.34053140475E+02  0.51100000000E-03 0. -1.
        -11    1    3    3    0    0 -0.14508708523E+02 -0.87113911721E+01 -0.19005030219E+01  0.17029470666E+02  0.51100000000E-03 0.  1.
        -12    1    3    3    0    0 -0.29011789820E+01  0.38470043219E+02 -0.51770820350E+01  0.38925097857E+02  0.00000000000E+00 0.  1.
</event>
<event>
 7    1  0.1978681E-015  0.9000770E+02  0.7816164E-02  0.1186339E+00
        -11   -1    0    0    0    0  0.00000000000E+00  0.00000000000E+00  0.45593999997E+02  0.45594000000E+02  0.51100000000E-03 0. -1.
         11   -1    0    0    0    0 -0.00000000000E+00 -0.00000000000E+00 -0.45593999997E+02  0.45594000000E+02  0.51100000000E-03 0.  1.
    9900012    2    1    2    0    0  0.30416655387E-01  0.77531427902E+00  0.88941779189E+00  0.90007702829E+02  0.89999963706E+02 0.  0.
        -12    1    1    2    0    0 -0.30416655387E-01 -0.77531427902E+00 -0.88941779189E+00  0.11802971714E+01  0.00000000000E+00 0.  1.
         11    1    3    3    0    0  0.14369983151E+02 -0.25938361448E+02  0.24626825881E+02  0.38545759346E+02  0.51100000000E-03 0. -1.
        -11    1    3    3    0    0 -0.20930641804E+01 -0.81496583773E+01 -0.67762503678E+01  0.10803491039E+02  0.51100000000E-03 0.  1.
        -12    1    3    3    0    0 -0.12246502315E+02  0.34863334104E+02 -0.16961157722E+02  0.40658452443E+02  0.00000000000E+00 0.  1.
</event>
<event>
 7    1  0.1978681E-015  0.9000768E+02  0.7816164E-02  0.1186339E+00
        -11   -1    0    0    0    0  0.00000000000E+00  0.00000000000E+00  0.45593999997E+02  0.45594000000E+02  0.51100000000E-03 0.  1.
         11   -1    0    0    0    0 -0.00000000000E+00 -0.00000000000E+00 -0.45593999997E+02  0.45594000000E+02  0.51100000000E-03 0. -1.
    9900012    2    1    2    0    0 -0.10588684581E+01  0.44390112853E+00 -0.27368438779E+00  0.90007680650E+02  0.89999941235E+02 0.  0.
        -12    1    1    2    0    0  0.10588684581E+01 -0.44390112853E+00  0.27368438779E+00  0.11803193498E+01  0.00000000000E+00 0.  1.
         11    1    3    3    0    0  0.67037070292E+01 -0.15668777824E+01  0.65702732769E+01  0.95164744056E+01  0.51100000000E-03 0. -1.
        -11    1    3    3    0    0  0.17419002867E+02  0.86248260409E+01  0.29776359877E+02  0.35558977670E+02  0.51100000000E-03 0.  1.
         12    1    3    3    0    0 -0.25181578355E+02 -0.66140471299E+01 -0.36620317542E+02  0.44932228575E+02  0.00000000000E+00 0. -1.
</event>
<event>
 7    1  0.1978681E-015  0.9000771E+02  0.7816164E-02  0.1186339E+00
        -11   -1    0    0    0    0  0.00000000000E+00  0.00000000000E+00  0.45593999997E+02  0.45594000000E+02  0.51100000000E-03 0.  1.
         11   -1    0    0    0    0 -0.00000000000E+00 -0.00000000000E+00 -0.45593999997E+02  0.45594000000E+02  0.51100000000E-03 0. -1.
    9900012    2    1    2    0    0 -0.11723658268E+01  0.40364606383E-01  0.13041184067E+00  0.90007712670E+02  0.89999973677E+02 0.  0.
        -12    1    1    2    0    0  0.11723658268E+01 -0.40364606383E-01 -0.13041184067E+00  0.11802873300E+01  0.00000000000E+00 0.  1.
         11    1    3    3    0    0  0.49181312795E+01 -0.50208718136E+01 -0.18702314871E+02  0.19979333093E+02  0.51100000000E-03 0. -1.
        -11    1    3    3    0    0  0.33250342546E+01 -0.30342956122E+02  0.11792158176E+02  0.32723169677E+02  0.51100000000E-03 0.  1.
         12    1    3    3    0    0 -0.94155313609E+01  0.35404192542E+02  0.70405685359E+01  0.37305209900E+02  0.00000000000E+00 0. -1.
</event>
<event>
 7    1  0.1978681E-015  0.9000786E+02  0.7816164E-02  0.1186339E+00
        -11   -1    0    0    0    0  0.00000000000E+00  0.00000000000E+00  0.45593999997E+02  0.45594000000E+02  0.51100000000E-03 0.  1.
         11   -1    0    0    0    0 -0.00000000000E+00 -0.00000000000E+00 -0.45593999997E+02  0.45594000000E+02  0.51100000000E-03 0. -1.
    9900012    2    1    2    0    0  0.10190372864E+01 -0.93716214687E-01 -0.58779510515E+00  0.90007863226E+02  0.90000126220E+02 0.  0.
        -12    1    1    2    0    0 -0.10190372864E+01  0.93716214687E-01  0.58779510515E+00  0.11801367741E+01  0.00000000000E+00 0.  1.
         11    1    3    3    0    0  0.74919665843E+01  0.27707828201E+01 -0.52217738888E+01  0.95432553955E+01  0.51100000000E-03 0. -1.
        -11    1    3    3    0    0 -0.17156695371E+02  0.35506312407E+02  0.88397327379E+01  0.40412761499E+02  0.51100000000E-03 0.  1.
         12    1    3    3    0    0  0.10683766073E+02 -0.38370811442E+02 -0.42057539542E+01  0.40051846332E+02  0.00000000000E+00 0. -1.
</event>
<event>
 7    1  0.1978681E-015  0.9000773E+02  0.7816164E-02  0.1186339E+00
        -11   -1    0    0    0    0  0.00000000000E+00  0.00000000000E+00  0.45593999997E+02  0.45594000000E+02  0.51100000000E-03 0.  1.
         11   -1    0    0    0    0 -0.00000000000E+00 -0.00000000000E+00 -0.45593999997E+02  0.45594000000E+02  0.51100000000E-03 0. -1.
    9900012    2    1    2    0    0  0.96195224575E+00  0.58339598733E+00 -0.35684029671E+00  0.90007729693E+02  0.89999990925E+02 0.  0.
        -12    1    1    2    0    0 -0.96195224575E+00 -0.58339598733E+00  0.35684029671E+00  0.11802703074E+01  0.00000000000E+00 0.  1.
         11    1    3    3    0    0  0.27891439111E+02  0.23636329447E+02 -0.78090572373E+01  0.37384352617E+02  0.51100000000E-03 0. -1.
        -11    1    3    3    0    0  0.66460678627E+01  0.19476081761E+01 -0.54569018120E+01  0.88170955132E+01  0.51100000000E-03 0.  1.
        -12    1    3    3    0    0 -0.33575554728E+02 -0.25000541636E+02  0.12909118753E+02  0.43806281562E+02  0.00000000000E+00 0.  1.
</event>
<event>
 7    1  0.1978681E-015  0.9000776E+02  0.7816164E-02  0.1186339E+00
        -11   -1    0    0    0    0  0.00000000000E+00  0.00000000000E+00  0.45593999997E+02  0.45594000000E+02  0.51100000000E-03 0.  1.
         11   -1    0    0    0    0 -0.00000000000E+00 -0.00000000000E+00 -0.45593999997E+02  0.45594000000E+02  0.51100000000E-03 0. -1.
    9900012    2    1    2    0    0  0.91742560907E+00 -0.61566818049E+00  0.41502588222E+00  0.90007761236E+02  0.90000022885E+02 0.  0.
        -12    1    1    2    0    0 -0.91742560907E+00  0.61566818049E+00 -0.41502588222E+00  0.11802387638E+01  0.00000000000E+00 0.  1.
         11    1    3    3    0    0  0.85488961742E+01  0.12602625441E+02 -0.32462412468E+02  0.35856910315E+02  0.51100000000E-03 0. -1.
        -11    1    3    3    0    0 -0.31332286064E+01 -0.66008402894E-01 -0.92620902479E+01  0.97779238405E+01  0.51100000000E-03 0.  1.
        -12    1    3    3    0    0 -0.44982419588E+01 -0.13152285219E+02  0.42139528599E+02  0.44372927081E+02  0.00000000000E+00 0.  1.
</event>
<event>
 7    1  0.1978681E-015  0.9000776E+02  0.7816164E-02  0.1186339E+00
        -11   -1    0    0    0    0  0.00000000000E+00  0.00000000000E+00  0.45593999997E+02  0.45594000000E+02  0.51100000000E-03 0. -1.
         11   -1    0    0    0    0 -0.00000000000E+00 -0.00000000000E+00 -0.45593999997E+02  0.45594000000E+02  0.51100000000E-03 0.  1.
    9900012    2    1    2    0    0 -0.63365764955E+00 -0.98865932006E+00 -0.11830809056E+00  0.90007760163E+02  0.90000021797E+02 0.  0.
        -12    1    1    2    0    0  0.63365764955E+00  0.98865932006E+00  0.11830809056E+00  0.11802398368E+01  0.00000000000E+00 0.  1.
         11    1    3    3    0    0  0.44156500180E+01  0.10302074995E+01  0.72947176883E+01  0.85890743964E+01  0.51100000000E-03 0. -1.
        -11    1    3    3    0    0  0.17522295966E+02  0.32608536462E+02  0.69401173066E+01  0.37663148231E+02  0.51100000000E-03 0.  1.
         12    1    3    3    0    0 -0.22571603634E+02 -0.34627403282E+02 -0.14353143085E+02  0.43755537536E+02  0.00000000000E+00 0. -1.
</event>
<event>
 7    1  0.1978681E-015  0.9000772E+02  0.7816164E-02  0.1186339E+00
        -11   -1    0    0    0    0  0.00000000000E+00  0.00000000000E+00  0.45593999997E+02  0.45594000000E+02  0.51100000000E-03 0.  1.
         11   -1    0    0    0    0 -0.00000000000E+00 -0.00000000000E+00 -0.45593999997E+02  0.45594000000E+02  0.51100000000E-03 0. -1.
    9900012    2    1    2    0    0  0.71434167930E+00 -0.80120739084E+00  0.49075324570E+00  0.90007722039E+02  0.89999983170E+02 0.  0.
        -12    1    1    2    0    0 -0.71434167930E+00  0.80120739084E+00 -0.49075324570E+00  0.11802779614E+01  0.00000000000E+00 0.  1.
         11    1    3    3    0    0  0.22838844505E+02 -0.75812978035E+01  0.21582988294E+02  0.32325133854E+02  0.51100000000E-03 0. -1.
        -11    1    3    3    0    0 -0.35342186197E+01 -0.19147537430E+02 -0.61797855081E-01  0.19471073677E+02  0.51100000000E-03 0.  1.
         12    1    3    3    0    0 -0.18590284206E+02  0.25927627843E+02 -0.21030437193E+02  0.38211514508E+02  0.00000000000E+00 0. -1.
</event>
<event>
 7    1  0.1978681E-015  0.9000776E+02  0.7816164E-02  0.1186339E+00
        -11   -1    0    0    0    0  0.00000000000E+00  0.00000000000E+00  0.45593999997E+02  0.45594000000E+02  0.51100000000E-03 0. -1.
         11   -1    0    0    0    0 -0.00000000000E+00 -0.00000000000E+00 -0.45593999997E+02  0.45594000000E+02  0.51100000000E-03 0.  1.
    9900012    2    1    2    0    0  0.96620740919E+00  0.63984255665E+00  0.22362556003E+00  0.90007761191E+02  0.90000022839E+02 0.  0.
        -12    1    1    2    0    0 -0.96620740919E+00 -0.63984255665E+00 -0.22362556003E+00  0.11802388089E+01  0.00000000000E+00 0.  1.
         11    1    3    3    0    0  0.28968170891E+02 -0.95029831097E+01  0.25121190723E+02  0.39503618016E+02  0.51100000000E-03 0. -1.
        -11    1    3    3    0    0 -0.18488910576E+01 -0.65829928862E+01  0.41424514594E+01  0.79946293121E+01  0.51100000000E-03 0.  1.
        -12    1    3    3    0    0 -0.26153072424E+02  0.16725818553E+02 -0.29040016622E+02  0.42509513863E+02  0.00000000000E+00 0.  1.
</event>
<event>
 7    1  0.1978681E-015  0.9000766E+02  0.7816164E-02  0.1186339E+00
        -11   -1    0    0    0    0  0.00000000000E+00  0.00000000000E+00  0.45593999997E+02  0.45594000000E+02  0.51100000000E-03 0. -1.
         11   -1    0    0    0    0 -0.00000000000E+00 -0.00000000000E+00 -0.45593999997E+02  0.45594000000E+02  0.51100000000E-03 0.  1.
    9900012    2    1    2    0    0 -0.80694957680E-02 -0.73201990252E+00  0.92589045764E+00  0.90007664711E+02  0.89999925085E+02 0.  0.
        -12    1    1    2    0    0  0.80694957680E-02  0.73201990252E+00 -0.92589045764E+00  0.11803352888E+01  0.00000000000E+00 0.  1.
         11    1    3    3    0    0 -0.71370191791E+00 -0.51646845849E+01  0.62044455094E+01  0.81042261586E+01  0.51100000000E-03 0. -1.
        -11    1    3    3    0    0 -0.38218402532E+02  0.62085871243E+01  0.10098153869E+02  0.40014566822E+02  0.51100000000E-03 0.  1.
         12    1    3    3    0    0  0.38924034954E+02 -0.17759224419E+01 -0.15376708921E+02  0.41888871730E+02  0.00000000000E+00 0. -1.
</event>
<event>
 7    1  0.1978681E-015  0.9000776E+02  0.7816164E-02  0.1186339E+00
        -11   -1    0    0    0    0  0.00000000000E+00  0.00000000000E+00  0.45593999997E+02  0.45594000000E+02  0.51100000000E-03 0.  1.
         11   -1    0    0    0    0 -0.00000000000E+00 -0.00000000000E+00 -0.45593999997E+02  0.45594000000E+02  0.51100000000E-03 0. -1.
    9900012    2    1    2    0    0 -0.79119116873E+00 -0.87452541727E+00 -0.46749819832E-01  0.90007761161E+02  0.90000022809E+02 0.  0.
        -12    1    1    2    0    0  0.79119116873E+00  0.87452541727E+00  0.46749819832E-01  0.11802388388E+01  0.00000000000E+00 0.  1.
         11    1    3    3    0    0  0.58505425108E+01 -0.21308705792E+01 -0.32467030194E+02  0.33058697902E+02  0.51100000000E-03 0. -1.
        -11    1    3    3    0    0  0.15233240592E+01  0.20059032841E+01 -0.11753704169E+02  0.12020554318E+02  0.51100000000E-03 0.  1.
        -12    1    3    3    0    0 -0.81650577387E+01 -0.74955812224E+00  0.44173984543E+02  0.44928508941E+02  0.00000000000E+00 0.  1.
</event>
<event>
 7    1  0.1978681E-015  0.9000763E+02  0.7816164E-02  0.1186339E+00
        -11   -1    0    0    0    0  0.00000000000E+00  0.00000000000E+00  0.45593999997E+02  0.45594000000E+02  0.51100000000E-03 0. -1.
         11   -1    0    0    0    0 -0.00000000000E+00 -0.00000000000E+00 -0.45593999997E+02  0.45594000000E+02  0.51100000000E-03 0.  1.
    9900012    2    1    2    0    0 -0.47576381730E+00 -0.13686435963E-02 -0.10802380825E+01  0.90007632516E+02  0.89999892465E+02 0.  0.
        -12    1    1    2    0    0  0.47576381730E+00  0.13686435963E-02  0.10802380825E+01  0.11803674843E+01  0.00000000000E+00 0.  1.
         11    1    3    3    0    0  0.83227816550E+01 -0.47032521162E+01  0.15880415470E+01  0.96907766026E+01  0.51100000000E-03 0. -1.
        -11    1    3    3    0    0  0.14981939223E+02 -0.31367148426E+02  0.83101375407E+01  0.35740941363E+02  0.51100000000E-03 0.  1.
         12    1    3    3    0    0 -0.23780484695E+02  0.36069031899E+02 -0.10978417170E+02  0.44575914551E+02  0.00000000000E+00 0. -1.
</event>
<event>
 7    1  0.1981977E-015  0.9000772E+02  0.7816164E-02  0.1186339E+00
        -11   -1    0    0    0    0  0.00000000000E+00  0.00000000000E+00  0.45593999997E+02  0.45594000000E+02  0.51100000000E-03 0.  1.
         11   -1    0    0    0    0 -0.00000000000E+00 -0.00000000000E+00 -0.45593999997E+02  0.45594000000E+02  0.51100000000E-03 0. -1.
    9900012    2    1    2    0    0  0.78832183379E-01  0.92243078223E+00  0.73209700601E+00  0.90007720759E+02  0.89999981873E+02 0.  0.
        -12    1    1    2    0    0 -0.78832183379E-01 -0.92243078223E+00 -0.73209700601E+00  0.11802792413E+01  0.00000000000E+00 0.  1.
         11    1    3    3    0    0  0.38580756360E+01 -0.27122908081E+01 -0.78457362905E+01  0.91540617893E+01  0.51100000000E-03 0. -1.
        -11    1    3    3    0    0 -0.36732669011E+02  0.87392921871E+01 -0.14341986158E+02  0.40390057785E+02  0.51100000000E-03 0.  1.
         12    1    3    3    0    0  0.32953425559E+02 -0.51045705967E+01  0.22919819455E+02  0.40463601185E+02  0.00000000000E+00 0. -1.
</event>
<event>
 7    1  0.1978681E-015  0.9000779E+02  0.7816164E-02  0.1186339E+00
        -11   -1    0    0    0    0  0.00000000000E+00  0.00000000000E+00  0.45593999997E+02  0.45594000000E+02  0.51100000000E-03 0.  1.
         11   -1    0    0    0    0 -0.00000000000E+00 -0.00000000000E+00 -0.45593999997E+02  0.45594000000E+02  0.51100000000E-03 0. -1.
    9900012    2    1    2    0    0  0.51295944320E+00 -0.11706822269E+00 -0.10564376810E+01  0.90007791149E+02  0.90000053192E+02 0.  0.
        -12    1    1    2    0    0 -0.51295944320E+00  0.11706822269E+00  0.10564376810E+01  0.11802088514E+01  0.00000000000E+00 0.  1.
         11    1    3    3    0    0 -0.26012786046E+02  0.22697042887E+02 -0.19209056419E+02  0.39507070791E+02  0.51100000000E-03 0. -1.
        -11    1    3    3    0    0 -0.70766879108E+01 -0.67971792616E+01  0.25478482813E+01  0.10137686562E+02  0.51100000000E-03 0.  1.
        -12    1    3    3    0    0  0.33602433400E+02 -0.16016931848E+02  0.15604770457E+02  0.40363033796E+02  0.00000000000E+00 0.  1.
</event>
<event>
 7    1  0.2402184E-015  0.9000781E+02  0.7816164E-02  0.1186339E+00
        -11   -1    0    0    0    0  0.00000000000E+00  0.00000000000E+00  0.45593999997E+02  0.45594000000E+02  0.51100000000E-03 0.  1.
         11   -1    0    0    0    0 -0.00000000000E+00 -0.00000000000E+00 -0.45593999997E+02  0.45594000000E+02  0.51100000000E-03 0. -1.
    9900012    2    1    2    0    0  0.85264085623E+00 -0.75385221065E+00 -0.31234562220E+00  0.90007809603E+02  0.90000071890E+02 0.  0.
        -12    1    1    2    0    0 -0.85264085623E+00  0.75385221065E+00  0.31234562220E+00  0.11801903969E+01  0.00000000000E+00 0.  1.
         11    1    3    3    0    0  0.81905222236E+01  0.15225133871E+00 -0.52137889264E+01  0.97103774384E+01  0.51100000000E-03 0. -1.
        -11    1    3    3    0    0  0.32336299034E+02  0.16904053091E+02 -0.37530217650E+00  0.36490054784E+02  0.51100000000E-03 0.  1.
         12    1    3    3    0    0 -0.39674180402E+02 -0.17810156640E+02  0.52767454807E+01  0.43807377381E+02  0.00000000000E+00 0. -1.
</event>
<event>
 7    1  0.1978681E-015  0.9000760E+02  0.7816164E-02  0.1186339E+00
        -11   -1    0    0    0    0  0.00000000000E+00  0.00000000000E+00  0.45593999997E+02  0.45594000000E+02  0.51100000000E-03 0.  1.
         11   -1    0    0    0    0 -0.00000000000E+00 -0.00000000000E+00 -0.45593999997E+02  0.45594000000E+02  0.51100000000E-03 0. -1.
    9900012    2    1    2    0    0 -0.19023901862E+00 -0.65911635484E+00  0.96057744578E+00  0.90007604184E+02  0.89999863759E+02 0.  0.
        -12    1    1    2    0    0  0.19023901862E+00  0.65911635484E+00 -0.96057744578E+00  0.11803958161E+01  0.00000000000E+00 0.  1.
         11    1    3    3    0    0  0.27109868665E+02  0.11558967998E+02 -0.20096226239E+02  0.35670898916E+02  0.51100000000E-03 0. -1.
        -11    1    3    3    0    0  0.92664980767E+01  0.33579681521E+01  0.12689845913E+01  0.99375177418E+01  0.51100000000E-03 0.  1.
        -12    1    3    3    0    0 -0.36566605760E+02 -0.15576052505E+02  0.19787819093E+02  0.44399187526E+02  0.00000000000E+00 0.  1.
</event>
<event>
 7    1  0.1978681E-015  0.9000777E+02  0.7816164E-02  0.1186339E+00
        -11   -1    0    0    0    0  0.00000000000E+00  0.00000000000E+00  0.45593999997E+02  0.45594000000E+02  0.51100000000E-03 0. -1.
         11   -1    0    0    0    0 -0.00000000000E+00 -0.00000000000E+00 -0.45593999997E+02  0.45594000000E+02  0.51100000000E-03 0.  1.
    9900012    2    1    2    0    0 -0.69654799426E+00  0.94879624616E+00 -0.86825821591E-01  0.90007774535E+02  0.90000036359E+02 0.  0.
        -12    1    1    2    0    0  0.69654799426E+00 -0.94879624616E+00  0.86825821591E-01  0.11802254650E+01  0.00000000000E+00 0.  1.
         11    1    3    3    0    0  0.20967862246E+02  0.14426216153E+02  0.15536776876E+02  0.29818759122E+02  0.51100000000E-03 0. -1.
        -11    1    3    3    0    0  0.42817343620E+01  0.17131505521E+02 -0.18067759501E+01  0.17750666753E+02  0.51100000000E-03 0.  1.
        -12    1    3    3    0    0 -0.25946144602E+02 -0.30608925428E+02 -0.13816826748E+02  0.42438348660E+02  0.00000000000E+00 0.  1.
</event>
<event>
 7    1  0.1978681E-015  0.9000770E+02  0.7816164E-02  0.1186339E+00
        -11   -1    0    0    0    0  0.00000000000E+00  0.00000000000E+00  0.45593999997E+02  0.45594000000E+02  0.51100000000E-03 0. -1.
         11   -1    0    0    0    0 -0.00000000000E+00 -0.00000000000E+00 -0.45593999997E+02  0.45594000000E+02  0.51100000000E-03 0.  1.
    9900012    2    1    2    0    0 -0.11483703792E+01 -0.24477518179E+00 -0.12015963046E+00  0.90007700142E+02  0.89999960984E+02 0.  0.
        -12    1    1    2    0    0  0.11483703792E+01  0.24477518179E+00  0.12015963046E+00  0.11802998578E+01  0.00000000000E+00 0.  1.
         11    1    3    3    0    0  0.32442627989E+02  0.19567363523E+02 -0.15139617743E+02  0.40799679555E+02  0.51100000000E-03 0. -1.
        -11    1    3    3    0    0 -0.94961623379E+01  0.51128787320E+01 -0.13519558087E+01  0.10869517599E+02  0.51100000000E-03 0.  1.
        -12    1    3    3    0    0 -0.24094836031E+02 -0.24925017437E+02  0.16371413921E+02  0.38338502988E+02  0.00000000000E+00 0.  1.
</event>
<event>
 7    1  0.1978681E-015  0.9000749E+02  0.7816164E-02  0.1186340E+00
        -11   -1    0    0    0    0  0.00000000000E+00  0.00000000000E+00  0.45593999997E+02  0.45594000000E+02  0.51100000000E-03 0. -1.
         11   -1    0    0    0    0 -0.00000000000E+00 -0.00000000000E+00 -0.45593999997E+02  0.45594000000E+02  0.51100000000E-03 0.  1.
    9900012    2    1    2    0    0 -0.34736528191E+00 -0.11125413729E+01 -0.18758209589E+00  0.90007492487E+02  0.89999750587E+02 0.  0.
        -12    1    1    2    0    0  0.34736528191E+00  0.11125413729E+01  0.18758209589E+00  0.11805075130E+01  0.00000000000E+00 0.  1.
         11    1    3    3    0    0  0.65242933569E+01  0.35338308074E+01  0.54401866069E+01  0.92005431666E+01  0.51100000000E-03 0. -1.
        -11    1    3    3    0    0 -0.20151657915E+02  0.28799473208E+02  0.16216341859E+02  0.38710059640E+02  0.51100000000E-03 0.  1.
         12    1    3    3    0    0  0.13279999276E+02 -0.33445845389E+02 -0.21844110562E+02  0.42096889680E+02  0.00000000000E+00 0. -1.
</event>
<event>
 7    1  0.1978681E-015  0.9000780E+02  0.7816164E-02  0.1186339E+00
        -11   -1    0    0    0    0  0.00000000000E+00  0.00000000000E+00  0.45593999997E+02  0.45594000000E+02  0.51100000000E-03 0. -1.
         11   -1    0    0    0    0 -0.00000000000E+00 -0.00000000000E+00 -0.45593999997E+02  0.45594000000E+02  0.51100000000E-03 0.  1.
    9900012    2    1    2    0    0 -0.33239192563E+00 -0.60280954548E+00  0.95864934528E+00  0.90007799887E+02  0.90000062045E+02 0.  0.
        -12    1    1    2    0    0  0.33239192563E+00  0.60280954548E+00 -0.95864934528E+00  0.11802001133E+01  0.00000000000E+00 0.  1.
         11    1    3    3    0    0 -0.40588566229E+01  0.65677124509E+00 -0.10144669134E+02  0.10946231208E+02  0.51100000000E-03 0. -1.
        -11    1    3    3    0    0  0.37697806182E+02 -0.71818267413E+01 -0.86253257207E+01  0.39333185357E+02  0.51100000000E-03 0.  1.
         12    1    3    3    0    0 -0.33971341485E+02  0.59222459507E+01  0.19728644200E+02  0.39728383322E+02  0.00000000000E+00 0. -1.
</event>
<event>
 7    1  0.1978681E-015  0.9000781E+02  0.7816164E-02  0.1186339E+00
        -11   -1    0    0    0    0  0.00000000000E+00  0.00000000000E+00  0.45593999997E+02  0.45594000000E+02  0.51100000000E-03 0.  1.
         11   -1    0    0    0    0 -0.00000000000E+00 -0.00000000000E+00 -0.45593999997E+02  0.45594000000E+02  0.51100000000E-03 0. -1.
    9900012    2    1    2    0    0 -0.58238433562E+00  0.22744621469E+00 -0.10009679317E+01  0.90007813534E+02  0.90000075872E+02 0.  0.
        -12    1    1    2    0    0  0.58238433562E+00 -0.22744621469E+00  0.10009679317E+01  0.11801864663E+01  0.00000000000E+00 0.  1.
         11    1    3    3    0    0  0.28518188286E+02  0.17342740139E+02 -0.17803438374E+02  0.37828826533E+02  0.51100000000E-03 0. -1.
        -11    1    3    3    0    0 -0.34001632197E+01  0.69589832475E+01 -0.63664038585E+01  0.10025949138E+02  0.51100000000E-03 0.  1.
        -12    1    3    3    0    0 -0.25700409402E+02 -0.24074277171E+02  0.23168874301E+02  0.42153037863E+02  0.00000000000E+00 0.  1.
</event>
<event>
 7    1  0.1978681E-015  0.9000772E+02  0.7816164E-02  0.1186339E+00
        -11   -1    0    0    0    0  0.00000000000E+00  0.00000000000E+00  0.45593999997E+02  0.45594000000E+02  0.51100000000E-03 0. -1.
         11   -1    0    0    0    0 -0.00000000000E+00 -0.00000000000E+00 -0.45593999997E+02  0.45594000000E+02  0.51100000000E-03 0.  1.
    9900012    2    1    2    0    0 -0.68381682285E+00  0.95933131077E+00  0.71705878351E-01  0.90007718786E+02  0.89999979874E+02 0.  0.
        -12    1    1    2    0    0  0.68381682285E+00 -0.95933131077E+00 -0.71705878351E-01  0.11802812140E+01  0.00000000000E+00 0.  1.
         11    1    3    3    0    0 -0.14567022583E+02 -0.28004545164E+02  0.97916204112E+01  0.33050393755E+02  0.51100000000E-03 0. -1.
        -11    1    3    3    0    0  0.47836837114E+00 -0.10932675001E+02  0.54416675695E+01  0.12221455117E+02  0.51100000000E-03 0.  1.
        -12    1    3    3    0    0  0.13404837389E+02  0.39896551476E+02 -0.15161582102E+02  0.44735869914E+02  0.00000000000E+00 0.  1.
</event>
<event>
 7    1  0.1978681E-015  0.9000771E+02  0.7816164E-02  0.1186339E+00
        -11   -1    0    0    0    0  0.00000000000E+00  0.00000000000E+00  0.45593999997E+02  0.45594000000E+02  0.51100000000E-03 0.  1.
         11   -1    0    0    0    0 -0.00000000000E+00 -0.00000000000E+00 -0.45593999997E+02  0.45594000000E+02  0.51100000000E-03 0. -1.
    9900012    2    1    2    0    0 -0.46233915885E+00 -0.80991161882E+00 -0.72344068327E+00  0.90007711582E+02  0.89999972575E+02 0.  0.
        -12    1    1    2    0    0  0.46233915885E+00  0.80991161882E+00  0.72344068327E+00  0.11802884183E+01  0.00000000000E+00 0.  1.
         11    1    3    3    0    0  0.36765042734E+02  0.10069417988E+02 -0.15754382072E+02  0.41246358634E+02  0.51100000000E-03 0. -1.
        -11    1    3    3    0    0 -0.13797384899E+02 -0.83616451971E+01 -0.59640284717E+01  0.17200423725E+02  0.51100000000E-03 0.  1.
        -12    1    3    3    0    0 -0.23429996994E+02 -0.25176844095E+01  0.20994969860E+02  0.31560929222E+02  0.00000000000E+00 0.  1.
</event>
<event>
 7    1  0.1978681E-015  0.9000774E+02  0.7816164E-02  0.1186339E+00
        -11   -1    0    0    0    0  0.00000000000E+00  0.00000000000E+00  0.45593999997E+02  0.45594000000E+02  0.51100000000E-03 0.  1.
         11   -1    0    0    0    0 -0.00000000000E+00 -0.00000000000E+00 -0.45593999997E+02  0.45594000000E+02  0.51100000000E-03 0. -1.
    9900012    2    1    2    0    0  0.10638799312E+01 -0.84898252178E-01  0.50395644250E+00  0.90007737183E+02  0.89999998514E+02 0.  0.
        -12    1    1    2    0    0 -0.10638799312E+01  0.84898252178E-01 -0.50395644250E+00  0.11802628170E+01  0.00000000000E+00 0.  1.
         11    1    3    3    0    0 -0.13327516793E+02  0.33003917179E+02  0.38871329027E+01  0.35804902674E+02  0.51100000000E-03 0. -1.
        -11    1    3    3    0    0  0.43809756831E+01  0.90758194342E+01  0.27201449639E+01  0.10438516907E+02  0.51100000000E-03 0.  1.
        -12    1    3    3    0    0  0.10010421042E+02 -0.42164634865E+02 -0.61033214241E+01  0.43764317602E+02  0.00000000000E+00 0.  1.
</event>
<event>
 7    1  0.1978681E-015  0.9000777E+02  0.7816164E-02  0.1186339E+00
        -11   -1    0    0    0    0  0.00000000000E+00  0.00000000000E+00  0.45593999997E+02  0.45594000000E+02  0.51100000000E-03 0. -1.
         11   -1    0    0    0    0 -0.00000000000E+00 -0.00000000000E+00 -0.45593999997E+02  0.45594000000E+02  0.51100000000E-03 0.  1.
    9900012    2    1    2    0    0 -0.49171246393E+00 -0.80171829618E+00  0.71302313833E+00  0.90007773170E+02  0.90000034976E+02 0.  0.
        -12    1    1    2    0    0  0.49171246393E+00  0.80171829618E+00 -0.71302313833E+00  0.11802268296E+01  0.00000000000E+00 0.  1.
         11    1    3    3    0    0 -0.75531279729E+01  0.61788049790E+01  0.34482173098E+02  0.35836400977E+02  0.51100000000E-03 0. -1.
        -11    1    3    3    0    0  0.15401354570E+01 -0.48065730195E+01  0.93609645198E+01  0.10634980885E+02  0.51100000000E-03 0.  1.
        -12    1    3    3    0    0  0.55212800520E+01 -0.21739502557E+01 -0.43130114480E+02  0.43536391309E+02  0.00000000000E+00 0.  1.
</event>
<event>
 7    1  0.1978681E-015  0.9000777E+02  0.7816164E-02  0.1186339E+00
        -11   -1    0    0    0    0  0.00000000000E+00  0.00000000000E+00  0.45593999997E+02  0.45594000000E+02  0.51100000000E-03 0.  1.
         11   -1    0    0    0    0 -0.00000000000E+00 -0.00000000000E+00 -0.45593999997E+02  0.45594000000E+02  0.51100000000E-03 0. -1.
    9900012    2    1    2    0    0 -0.95192489550E+00  0.56412951049E-01  0.69541596186E+00  0.90007768333E+02  0.90000030075E+02 0.  0.
        -12    1    1    2    0    0  0.95192489550E+00 -0.56412951049E-01 -0.69541596186E+00  0.11802316670E+01  0.00000000000E+00 0.  1.
         11    1    3    3    0    0  0.35075999886E+01  0.34809970153E+01 -0.75267011249E+01  0.90039895594E+01  0.51100000000E-03 0. -1.
        -11    1    3    3    0    0  0.12445054559E+02  0.35784838093E+02  0.38494755320E+01  0.38082180642E+02  0.51100000000E-03 0.  1.
         12    1    3    3    0    0 -0.16904579443E+02 -0.39209422157E+02  0.43726415548E+01  0.42921598132E+02  0.00000000000E+00 0. -1.
</event>
<event>
 7    1  0.1978681E-015  0.9000766E+02  0.7816164E-02  0.1186339E+00
        -11   -1    0    0    0    0  0.00000000000E+00  0.00000000000E+00  0.45593999997E+02  0.45594000000E+02  0.51100000000E-03 0. -1.
         11   -1    0    0    0    0 -0.00000000000E+00 -0.00000000000E+00 -0.45593999997E+02  0.45594000000E+02  0.51100000000E-03 0.  1.
    9900012    2    1    2    0    0 -0.95175264468E+00  0.67126221191E+00  0.19176263347E+00  0.90007661506E+02  0.89999921837E+02 0.  0.
        -12    1    1    2    0    0  0.95175264468E+00 -0.67126221191E+00 -0.19176263347E+00  0.11803384944E+01  0.00000000000E+00 0.  1.
         11    1    3    3    0    0  0.17468681498E+01 -0.83448921204E+01  0.46598361279E+01  0.97161126915E+01  0.51100000000E-03 0. -1.
        -11    1    3    3    0    0  0.11096057700E+00 -0.10180265060E+02 -0.39204266241E+02  0.40504624436E+02  0.51100000000E-03 0.  1.
         12    1    3    3    0    0 -0.28095813715E+01  0.19196419393E+02  0.34736192746E+02  0.39786924378E+02  0.00000000000E+00 0. -1.
</event>
<event>
 7    1  0.1978681E-015  0.9000777E+02  0.7816164E-02  0.1186339E+00
        -11   -1    0    0    0    0  0.00000000000E+00  0.00000000000E+00  0.45593999997E+02  0.45594000000E+02  0.51100000000E-03 0.  1.
         11   -1    0    0    0    0 -0.00000000000E+00 -0.00000000000E+00 -0.45593999997E+02  0.45594000000E+02  0.51100000000E-03 0. -1.
    9900012    2    1    2    0    0 -0.68203711412E+00  0.38900203585E-01 -0.96241959515E+00  0.90007771493E+02  0.90000033277E+02 0.  0.
        -12    1    1    2    0    0  0.68203711412E+00 -0.38900203585E-01  0.96241959515E+00  0.11802285067E+01  0.00000000000E+00 0.  1.
         11    1    3    3    0    0 -0.35798578186E+02 -0.12540771832E+02  0.56742324592E+01  0.38353696987E+02  0.51100000000E-03 0. -1.
        -11    1    3    3    0    0 -0.11370743875E+01  0.39506770782E+00  0.99092297246E+01  0.99820764699E+01  0.51100000000E-03 0.  1.
        -12    1    3    3    0    0  0.36253615459E+02  0.12184604328E+02 -0.16545881779E+02  0.41671998037E+02  0.00000000000E+00 0.  1.
</event>
<event>
 7    1  0.1978681E-015  0.9000775E+02  0.7816164E-02  0.1186339E+00
        -11   -1    0    0    0    0  0.00000000000E+00  0.00000000000E+00  0.45593999997E+02  0.45594000000E+02  0.51100000000E-03 0.  1.
         11   -1    0    0    0    0 -0.00000000000E+00 -0.00000000000E+00 -0.45593999997E+02  0.45594000000E+02  0.51100000000E-03 0. -1.
    9900012    2    1    2    0    0 -0.39207413262E+00  0.34925390936E+00 -0.10570243643E+01  0.90007745398E+02  0.90000006837E+02 0.  0.
        -12    1    1    2    0    0  0.39207413262E+00 -0.34925390936E+00  0.10570243643E+01  0.11802546019E+01  0.00000000000E+00 0.  1.
         11    1    3    3    0    0  0.81980515754E+01  0.68823654114E+01 -0.61946336446E+01  0.12367234515E+02  0.51100000000E-03 0. -1.
        -11    1    3    3    0    0  0.26086277627E+02 -0.23206987201E+02  0.14873457620E+02  0.37950993099E+02  0.51100000000E-03 0.  1.
         12    1    3    3    0    0 -0.34676403335E+02  0.16673875699E+02 -0.97358483393E+01  0.39689517784E+02  0.00000000000E+00 0. -1.
</event>
<event>
 7    1  0.1978681E-015  0.9000771E+02  0.7816164E-02  0.1186339E+00
        -11   -1    0    0    0    0  0.00000000000E+00  0.00000000000E+00  0.45593999997E+02  0.45594000000E+02  0.51100000000E-03 0. -1.
         11   -1    0    0    0    0 -0.00000000000E+00 -0.00000000000E+00 -0.45593999997E+02  0.45594000000E+02  0.51100000000E-03 0.  1.
    9900012    2    1    2    0    0 -0.28092286312E+00 -0.62561224780E+00  0.96061703759E+00  0.90007706209E+02  0.89999967131E+02 0.  0.
        -12    1    1    2    0    0  0.28092286312E+00  0.62561224780E+00 -0.96061703759E+00  0.11802937908E+01  0.00000000000E+00 0.  1.
         11    1    3    3    0    0 -0.58901746341E+01  0.89266935131E+01 -0.36706637447E+01  0.11307244885E+02  0.51100000000E-03 0. -1.
        -11    1    3    3    0    0  0.18299180873E+02  0.25438061828E+01 -0.32643312685E+02  0.37508890064E+02  0.51100000000E-03 0.  1.
         12    1    3    3    0    0 -0.12689929102E+02 -0.12096111944E+02  0.37274593467E+02  0.41191571261E+02  0.00000000000E+00 0. -1.
</event>
<event>
 7    1  0.1978681E-015  0.9000758E+02  0.7816164E-02  0.1186339E+00
        -11   -1    0    0    0    0  0.00000000000E+00  0.00000000000E+00  0.45593999997E+02  0.45594000000E+02  0.51100000000E-03 0.  1.
         11   -1    0    0    0    0 -0.00000000000E+00 -0.00000000000E+00 -0.45593999997E+02  0.45594000000E+02  0.51100000000E-03 0. -1.
    9900012    2    1    2    0    0  0.95832897507E+00 -0.38221540939E+00 -0.57349704718E+00  0.90007584011E+02  0.89999843320E+02 0.  0.
        -12    1    1    2    0    0 -0.95832897507E+00  0.38221540939E+00  0.57349704718E+00  0.11804159889E+01  0.00000000000E+00 0.  1.
         11    1    3    3    0    0 -0.70756258226E+01 -0.34415517391E+02 -0.18600754789E+02  0.39755256219E+02  0.51100000000E-03 0. -1.
        -11    1    3    3    0    0 -0.51006393759E+01  0.60470855978E+01 -0.69327421233E+01  0.10518872557E+02  0.51100000000E-03 0.  1.
        -12    1    3    3    0    0  0.13134594174E+02  0.27986216384E+02  0.24959999865E+02  0.39733455234E+02  0.00000000000E+00 0.  1.
</event>
<event>
 7    1  0.1978681E-015  0.9000823E+02  0.7816164E-02  0.1186338E+00
        -11   -1    0    0    0    0  0.00000000000E+00  0.00000000000E+00  0.45593999997E+02  0.45594000000E+02  0.51100000000E-03 0.  1.
         11   -1    0    0    0    0 -0.00000000000E+00 -0.00000000000E+00 -0.45593999997E+02  0.45594000000E+02  0.51100000000E-03 0. -1.
    9900012    2    1    2    0    0 -0.11081986673E+01  0.39576347660E+00 -0.84416090056E-01  0.90008229221E+02  0.90000497045E+02 0.  0.
        -12    1    1    2    0    0  0.11081986673E+01 -0.39576347660E+00  0.84416090056E-01  0.11797707794E+01  0.00000000000E+00 0.  1.
         11    1    3    3    0    0 -0.14794312435E+02 -0.11669951724E+02  0.71871281160E+01  0.20167158066E+02  0.51100000000E-03 0. -1.
        -11    1    3    3    0    0  0.11733035272E+02  0.17596341506E+02  0.27435983880E+02  0.34641428418E+02  0.51100000000E-03 0.  1.
         12    1    3    3    0    0  0.19530784955E+01 -0.55306263053E+01 -0.34707528086E+02  0.35199642737E+02  0.00000000000E+00 0. -1.
</event>
<event>
 7    1  0.1978681E-015  0.9000775E+02  0.7816164E-02  0.1186339E+00
        -11   -1    0    0    0    0  0.00000000000E+00  0.00000000000E+00  0.45593999997E+02  0.45594000000E+02  0.51100000000E-03 0.  1.
         11   -1    0    0    0    0 -0.00000000000E+00 -0.00000000000E+00 -0.45593999997E+02  0.45594000000E+02  0.51100000000E-03 0. -1.
    9900012    2    1    2    0    0  0.66871065881E+00  0.55274974958E+00 -0.80018425425E+00  0.90007745336E+02  0.90000006775E+02 0.  0.
        -12    1    1    2    0    0 -0.66871065881E+00 -0.55274974958E+00  0.80018425425E+00  0.11802546639E+01  0.00000000000E+00 0.  1.
         11    1    3    3    0    0  0.82548974998E+00 -0.46696098271E+01  0.79152768414E+01  0.92270416169E+01  0.51100000000E-03 0. -1.
        -11    1    3    3    0    0  0.25626829895E+02 -0.99489302519E+01 -0.32496278717E+02  0.42564348396E+02  0.51100000000E-03 0.  1.
         12    1    3    3    0    0 -0.25783608987E+02  0.15171289829E+02  0.23780817622E+02  0.38216355323E+02  0.00000000000E+00 0. -1.
</event>
<event>
 7    1  0.1978681E-015  0.9000763E+02  0.7816164E-02  0.1186339E+00
        -11   -1    0    0    0    0  0.00000000000E+00  0.00000000000E+00  0.45593999997E+02  0.45594000000E+02  0.51100000000E-03 0.  1.
         11   -1    0    0    0    0 -0.00000000000E+00 -0.00000000000E+00 -0.45593999997E+02  0.45594000000E+02  0.51100000000E-03 0. -1.
    9900012    2    1    2    0    0 -0.72249117145E+00 -0.59947450446E+00 -0.71547091574E+00  0.90007634885E+02  0.89999894865E+02 0.  0.
        -12    1    1    2    0    0  0.72249117145E+00  0.59947450446E+00  0.71547091574E+00  0.11803651154E+01  0.00000000000E+00 0.  1.
         11    1    3    3    0    0 -0.14454391080E+01 -0.56969379496E+01 -0.84619506413E+01  0.10302863929E+02  0.51100000000E-03 0. -1.
        -11    1    3    3    0    0  0.30759447342E+02  0.21486912292E+02  0.21014801323E+02  0.43005265672E+02  0.51100000000E-03 0.  1.
         12    1    3    3    0    0 -0.30036499405E+02 -0.16389448847E+02 -0.13268321598E+02  0.36699505284E+02  0.00000000000E+00 0. -1.
</event>
<event>
 7    1  0.1978681E-015  0.9000775E+02  0.7816164E-02  0.1186339E+00
        -11   -1    0    0    0    0  0.00000000000E+00  0.00000000000E+00  0.45593999997E+02  0.45594000000E+02  0.51100000000E-03 0. -1.
         11   -1    0    0    0    0 -0.00000000000E+00 -0.00000000000E+00 -0.45593999997E+02  0.45594000000E+02  0.51100000000E-03 0.  1.
    9900012    2    1    2    0    0  0.98217235096E+00  0.17002681588E+00 -0.63199917204E+00  0.90007748078E+02  0.90000009553E+02 0.  0.
        -12    1    1    2    0    0 -0.98217235096E+00 -0.17002681588E+00  0.63199917204E+00  0.11802519217E+01  0.00000000000E+00 0.  1.
         11    1    3    3    0    0 -0.97096606005E+01 -0.59480547427E-02  0.14602544070E+02  0.17536015452E+02  0.51100000000E-03 0. -1.
        -11    1    3    3    0    0 -0.70537252578E+01  0.12582511724E+02  0.23802282814E+02  0.27832055416E+02  0.51100000000E-03 0.  1.
         12    1    3    3    0    0  0.17745558209E+02 -0.12406536853E+02 -0.39036826056E+02  0.44639677210E+02  0.00000000000E+00 0. -1.
</event>
<event>
 7    1  0.1978681E-015  0.9000780E+02  0.7816164E-02  0.1186339E+00
        -11   -1    0    0    0    0  0.00000000000E+00  0.00000000000E+00  0.45593999997E+02  0.45594000000E+02  0.51100000000E-03 0. -1.
         11   -1    0    0    0    0 -0.00000000000E+00 -0.00000000000E+00 -0.45593999997E+02  0.45594000000E+02  0.51100000000E-03 0.  1.
    9900012    2    1    2    0    0  0.11062500757E+01 -0.40762524945E+00 -0.54089583718E-01  0.90007799484E+02  0.90000061638E+02 0.  0.
        -12    1    1    2    0    0 -0.11062500757E+01  0.40762524945E+00  0.54089583718E-01  0.11802005156E+01  0.00000000000E+00 0.  1.
         11    1    3    3    0    0  0.32130670215E+02 -0.28693904680E+02 -0.87460595503E+00  0.43086947793E+02  0.51100000000E-03 0. -1.
        -11    1    3    3    0    0 -0.14135649892E+01  0.80713890233E+01 -0.63389470281E+01  0.10359910059E+02  0.51100000000E-03 0.  1.
        -12    1    3    3    0    0 -0.29610855150E+02  0.20214890407E+02  0.71594633994E+01  0.36560941633E+02  0.00000000000E+00 0.  1.
</event>
<event>
 7    1  0.1978681E-015  0.9000772E+02  0.7816164E-02  0.1186339E+00
        -11   -1    0    0    0    0  0.00000000000E+00  0.00000000000E+00  0.45593999997E+02  0.45594000000E+02  0.51100000000E-03 0. -1.
         11   -1    0    0    0    0 -0.00000000000E+00 -0.00000000000E+00 -0.45593999997E+02  0.45594000000E+02  0.51100000000E-03 0.  1.
    9900012    2    1    2    0    0 -0.48959350816E+00 -0.65958292932E+00  0.84753121431E+00  0.90007720117E+02  0.89999981222E+02 0.  0.
        -12    1    1    2    0    0  0.48959350816E+00  0.65958292932E+00 -0.84753121431E+00  0.11802798834E+01  0.00000000000E+00 0.  1.
         11    1    3    3    0    0 -0.24849406597E+00  0.77886115364E+01 -0.53280653786E+01  0.94399417321E+01  0.51100000000E-03 0. -1.
        -11    1    3    3    0    0  0.36193823285E+02 -0.18106571643E+02  0.12480092797E+02  0.42350838211E+02  0.51100000000E-03 0.  1.
         12    1    3    3    0    0 -0.36434922728E+02  0.96583771770E+01 -0.63044962040E+01  0.38216940174E+02  0.00000000000E+00 0. -1.
</event>
<event>
 7    1  0.1978681E-015  0.9000769E+02  0.7816164E-02  0.1186339E+00
        -11   -1    0    0    0    0  0.00000000000E+00  0.00000000000E+00  0.45593999997E+02  0.45594000000E+02  0.51100000000E-03 0.  1.
         11   -1    0    0    0    0 -0.00000000000E+00 -0.00000000000E+00 -0.45593999997E+02  0.45594000000E+02  0.51100000000E-03 0. -1.
    9900012    2    1    2    0    0 -0.92223792292E+00  0.69056131079E+00 -0.25640271575E+00  0.90007686456E+02  0.89999947117E+02 0.  0.
        -12    1    1    2    0    0  0.92223792292E+00 -0.69056131079E+00  0.25640271575E+00  0.11803135444E+01  0.00000000000E+00 0.  1.
         11    1    3    3    0    0  0.18671556183E+02  0.16510525577E+02 -0.32570517814E+02  0.41012962537E+02  0.51100000000E-03 0. -1.
        -11    1    3    3    0    0  0.34925056137E+01 -0.62058719074E+01 -0.11552957067E+01  0.72142324625E+01  0.51100000000E-03 0.  1.
        -12    1    3    3    0    0 -0.23086299720E+02 -0.96140923591E+01  0.33469410805E+02  0.41780491456E+02  0.00000000000E+00 0.  1.
</event>
<event>
 7    1  0.1978681E-015  0.9000774E+02  0.7816164E-02  0.1186339E+00
        -11   -1    0    0    0    0  0.00000000000E+00  0.00000000000E+00  0.45593999997E+02  0.45594000000E+02  0.51100000000E-03 0.  1.
         11   -1    0    0    0    0 -0.00000000000E+00 -0.00000000000E+00 -0.45593999997E+02  0.45594000000E+02  0.51100000000E-03 0. -1.
    9900012    2    1    2    0    0 -0.38053382671E+00  0.91287475691E+00  0.64409959601E+00  0.90007741298E+02  0.90000002683E+02 0.  0.
        -12    1    1    2    0    0  0.38053382671E+00 -0.91287475691E+00 -0.64409959601E+00  0.11802587024E+01  0.00000000000E+00 0.  1.
         11    1    3    3    0    0 -0.66096344762E+00 -0.14641499467E+02 -0.29729594300E+02  0.33146027769E+02  0.51100000000E-03 0. -1.
        -11    1    3    3    0    0  0.89808130484E+01 -0.82810788020E+01 -0.51079458501E+01  0.13240935775E+02  0.51100000000E-03 0.  1.
        -12    1    3    3    0    0 -0.87003834275E+01  0.23835453026E+02  0.35481639746E+02  0.43620777754E+02  0.00000000000E+00 0.  1.
</event>
<event>
 7    1  0.1978681E-015  0.9000775E+02  0.7816164E-02  0.1186339E+00
        -11   -1    0    0    0    0  0.00000000000E+00  0.00000000000E+00  0.45593999997E+02  0.45594000000E+02  0.51100000000E-03 0.  1.
         11   -1    0    0    0    0 -0.00000000000E+00 -0.00000000000E+00 -0.45593999997E+02  0.45594000000E+02  0.51100000000E-03 0. -1.
    9900012    2    1    2    0    0 -0.11134046741E+01  0.36960859952E+00  0.12929741695E+00  0.90007746507E+02  0.90000007961E+02 0.  0.
        -12    1    1    2    0    0  0.11134046741E+01 -0.36960859952E+00 -0.12929741695E+00  0.11802534928E+01  0.00000000000E+00 0.  1.
         11    1    3    3    0    0  0.34413424127E+02 -0.15287134448E+02  0.11047119725E+02  0.39243077024E+02  0.51100000000E-03 0. -1.
        -11    1    3    3    0    0  0.19278170771E+01 -0.34067179080E+01 -0.76715848846E+01  0.86125153405E+01  0.51100000000E-03 0.  1.
        -12    1    3    3    0    0 -0.37454645878E+02  0.19063460956E+02 -0.32462374231E+01  0.42152154143E+02  0.00000000000E+00 0.  1.
</event>
<event>
 7    1  0.1978681E-015  0.9000772E+02  0.7816164E-02  0.1186339E+00
        -11   -1    0    0    0    0  0.00000000000E+00  0.00000000000E+00  0.45593999997E+02  0.45594000000E+02  0.51100000000E-03 0. -1.
         11   -1    0    0    0    0 -0.00000000000E+00 -0.00000000000E+00 -0.45593999997E+02  0.45594000000E+02  0.51100000000E-03 0.  1.
    9900012    2    1    2    0    0 -0.11653311280E+01  0.18580807145E+00 -0.23264260775E-01  0.90007719312E+02  0.89999980407E+02 0.  0.
        -12    1    1    2    0    0  0.11653311280E+01 -0.18580807145E+00  0.23264260775E-01  0.11802806883E+01  0.00000000000E+00 0.  1.
         11    1    3    3    0    0 -0.10599044146E+01  0.55460803540E+01 -0.45816622838E+01  0.72714533764E+01  0.51100000000E-03 0. -1.
        -11    1    3    3    0    0  0.15855435791E+02 -0.87521098824E+01 -0.35295843800E+02  0.39671033026E+02  0.51100000000E-03 0.  1.
         12    1    3    3    0    0 -0.15960862505E+02  0.33918375999E+01  0.39854241823E+02  0.43065232909E+02  0.00000000000E+00 0. -1.
</event>
<event>
 7    1  0.1978681E-015  0.9000776E+02  0.7816164E-02  0.1186339E+00
        -11   -1    0    0    0    0  0.00000000000E+00  0.00000000000E+00  0.45593999997E+02  0.45594000000E+02  0.51100000000E-03 0.  1.
         11   -1    0    0    0    0 -0.00000000000E+00 -0.00000000000E+00 -0.45593999997E+02  0.45594000000E+02  0.51100000000E-03 0. -1.
    9900012    2    1    2    0    0 -0.88478396426E+00 -0.61799186183E+00 -0.47771772542E+00  0.90007758148E+02  0.90000019755E+02 0.  0.
        -12    1    1    2    0    0  0.88478396426E+00  0.61799186183E+00  0.47771772542E+00  0.11802418523E+01  0.00000000000E+00 0.  1.
         11    1    3    3    0    0 -0.14662551197E+02 -0.33573481910E+02  0.14244623218E+02  0.39307485115E+02  0.51100000000E-03 0. -1.
        -11    1    3    3    0    0 -0.80932490922E+01  0.32348941248E+01  0.36856441511E+01  0.94630435873E+01  0.51100000000E-03 0.  1.
        -12    1    3    3    0    0  0.21871016325E+02  0.29720595923E+02 -0.18407985094E+02  0.41237229446E+02  0.00000000000E+00 0.  1.
</event>
<event>
 7    1  0.1978681E-015  0.9000767E+02  0.7816164E-02  0.1186339E+00
        -11   -1    0    0    0    0  0.00000000000E+00  0.00000000000E+00  0.45593999997E+02  0.45594000000E+02  0.51100000000E-03 0.  1.
         11   -1    0    0    0    0 -0.00000000000E+00 -0.00000000000E+00 -0.45593999997E+02  0.45594000000E+02  0.51100000000E-03 0. -1.
    9900012    2    1    2    0    0  0.88951651723E+00  0.11389855922E+00 -0.76744876189E+00  0.90007665252E+02  0.89999925633E+02 0.  0.
        -12    1    1    2    0    0 -0.88951651723E+00 -0.11389855922E+00  0.76744876189E+00  0.11803347484E+01  0.00000000000E+00 0.  1.
         11    1    3    3    0    0 -0.19115815991E+02  0.29049933627E+02 -0.10345877745E+02  0.36281541469E+02  0.51100000000E-03 0. -1.
        -11    1    3    3    0    0 -0.10994434833E+02 -0.97265747441E+00  0.81225734921E+00  0.11067222873E+02  0.51100000000E-03 0.  1.
        -12    1    3    3    0    0  0.30999767342E+02 -0.27963377594E+02  0.87661716337E+01  0.42658900910E+02  0.00000000000E+00 0.  1.
</event>
<event>
 7    1  0.1978681E-015  0.9000780E+02  0.7816164E-02  0.1186339E+00
        -11   -1    0    0    0    0  0.00000000000E+00  0.00000000000E+00  0.45593999997E+02  0.45594000000E+02  0.51100000000E-03 0.  1.
         11   -1    0    0    0    0 -0.00000000000E+00 -0.00000000000E+00 -0.45593999997E+02  0.45594000000E+02  0.51100000000E-03 0. -1.
    9900012    2    1    2    0    0  0.27635319308E+00  0.10968023835E+01 -0.33693526045E+00  0.90007800049E+02  0.90000062209E+02 0.  0.
        -12    1    1    2    0    0 -0.27635319308E+00 -0.10968023835E+01  0.33693526045E+00  0.11801999515E+01  0.00000000000E+00 0.  1.
         11    1    3    3    0    0  0.27669568448E+02  0.22168431620E+02  0.39571943930E+01  0.35674973949E+02  0.51100000000E-03 0. -1.
        -11    1    3    3    0    0  0.80369865671E+01  0.41462266774E+01 -0.59289395343E+01  0.10813726139E+02  0.51100000000E-03 0.  1.
        -12    1    3    3    0    0 -0.35430201822E+02 -0.25217855914E+02  0.16348098808E+01  0.43519099960E+02  0.00000000000E+00 0.  1.
</event>
<event>
 7    1  0.1978681E-015  0.9000773E+02  0.7816164E-02  0.1186339E+00
        -11   -1    0    0    0    0  0.00000000000E+00  0.00000000000E+00  0.45593999997E+02  0.45594000000E+02  0.51100000000E-03 0.  1.
         11   -1    0    0    0    0 -0.00000000000E+00 -0.00000000000E+00 -0.45593999997E+02  0.45594000000E+02  0.51100000000E-03 0. -1.
    9900012    2    1    2    0    0 -0.46529393724E-01  0.36453770281E+00 -0.11215944106E+01  0.90007734461E+02  0.89999995756E+02 0.  0.
        -12    1    1    2    0    0  0.46529393724E-01 -0.36453770281E+00  0.11215944106E+01  0.11802655393E+01  0.00000000000E+00 0.  1.
         11    1    3    3    0    0 -0.24789321747E+02  0.22813781527E+02 -0.16319338149E+02  0.37433940457E+02  0.51100000000E-03 0. -1.
        -11    1    3    3    0    0 -0.67768717818E+00  0.69803924458E+01 -0.51336432016E+01  0.86913423239E+01  0.51100000000E-03 0.  1.
        -12    1    3    3    0    0  0.25420479531E+02 -0.29429636270E+02  0.20331386940E+02  0.43882451680E+02  0.00000000000E+00 0.  1.
</event>
<event>
 7    1  0.1978681E-015  0.9000772E+02  0.7816164E-02  0.1186339E+00
        -11   -1    0    0    0    0  0.00000000000E+00  0.00000000000E+00  0.45593999997E+02  0.45594000000E+02  0.51100000000E-03 0. -1.
         11   -1    0    0    0    0 -0.00000000000E+00 -0.00000000000E+00 -0.45593999997E+02  0.45594000000E+02  0.51100000000E-03 0.  1.
    9900012    2    1    2    0    0  0.71015711151E+00 -0.94231565241E+00  0.28020023327E-01  0.90007717393E+02  0.89999978462E+02 0.  0.
        -12    1    1    2    0    0 -0.71015711151E+00  0.94231565241E+00 -0.28020023327E-01  0.11802826075E+01  0.00000000000E+00 0.  1.
         11    1    3    3    0    0 -0.36902490476E+02 -0.32765828481E+01  0.64122648590E+01  0.37598496504E+02  0.51100000000E-03 0. -1.
        -11    1    3    3    0    0 -0.38837378390E+01 -0.30263148283E-01 -0.99615075598E+01  0.10691864598E+02  0.51100000000E-03 0.  1.
        -12    1    3    3    0    0  0.41496385427E+02  0.23645303440E+01  0.35772627241E+01  0.41717356290E+02  0.00000000000E+00 0.  1.
</event>
<event>
 7    1  0.1978681E-015  0.9000781E+02  0.7816164E-02  0.1186339E+00
        -11   -1    0    0    0    0  0.00000000000E+00  0.00000000000E+00  0.45593999997E+02  0.45594000000E+02  0.51100000000E-03 0.  1.
         11   -1    0    0    0    0 -0.00000000000E+00 -0.00000000000E+00 -0.45593999997E+02  0.45594000000E+02  0.51100000000E-03 0. -1.
    9900012    2    1    2    0    0  0.15593819773E+00  0.25549413875E+00 -0.11416064656E+01  0.90007805398E+02  0.90000067629E+02 0.  0.
        -12    1    1    2    0    0 -0.15593819773E+00 -0.25549413875E+00  0.11416064656E+01  0.11801946020E+01  0.00000000000E+00 0.  1.
         11    1    3    3    0    0 -0.25568893429E+02  0.27903470799E+02 -0.15784579547E+02  0.41006401276E+02  0.51100000000E-03 0. -1.
        -11    1    3    3    0    0  0.43773612215E+01 -0.51863165499E+00 -0.69886727719E+01  0.82626761664E+01  0.51100000000E-03 0.  1.
        -12    1    3    3    0    0  0.21347470406E+02 -0.27129345005E+02  0.21631645853E+02  0.40738727956E+02  0.00000000000E+00 0.  1.
</event>
<event>
 7    1  0.1978681E-015  0.9000771E+02  0.7816164E-02  0.1186339E+00
        -11   -1    0    0    0    0  0.00000000000E+00  0.00000000000E+00  0.45593999997E+02  0.45594000000E+02  0.51100000000E-03 0.  1.
         11   -1    0    0    0    0 -0.00000000000E+00 -0.00000000000E+00 -0.45593999997E+02  0.45594000000E+02  0.51100000000E-03 0. -1.
    9900012    2    1    2    0    0  0.97928442002E+00 -0.65217028398E+00  0.93573182181E-01  0.90007711902E+02  0.89999972899E+02 0.  0.
        -12    1    1    2    0    0 -0.97928442002E+00  0.65217028398E+00 -0.93573182181E-01  0.11802880983E+01  0.00000000000E+00 0.  1.
         11    1    3    3    0    0  0.11835460409E+01  0.12345443255E+02 -0.59143051175E+01  0.13740078445E+02  0.51100000000E-03 0. -1.
        -11    1    3    3    0    0  0.86378646092E+01  0.29274538037E+02  0.11739183947E+02  0.32701983461E+02  0.51100000000E-03 0.  1.
         12    1    3    3    0    0 -0.88421262301E+01 -0.42272151576E+02 -0.57313056477E+01  0.43565649996E+02  0.00000000000E+00 0. -1.
</event>
<event>
 7    1  0.1978681E-015  0.9000776E+02  0.7816164E-02  0.1186339E+00
        -11   -1    0    0    0    0  0.00000000000E+00  0.00000000000E+00  0.45593999997E+02  0.45594000000E+02  0.51100000000E-03 0.  1.
         11   -1    0    0    0    0 -0.00000000000E+00 -0.00000000000E+00 -0.45593999997E+02  0.45594000000E+02  0.51100000000E-03 0. -1.
    9900012    2    1    2    0    0  0.11488846931E+01  0.15162706724E+00  0.22372049592E+00  0.90007755252E+02  0.90000016821E+02 0.  0.
        -12    1    1    2    0    0 -0.11488846931E+01 -0.15162706724E+00 -0.22372049592E+00  0.11802447483E+01  0.00000000000E+00 0.  1.
         11    1    3    3    0    0  0.29139875291E+02  0.33455953000E+01  0.21771146587E+02  0.36528183144E+02  0.51100000000E-03 0. -1.
        -11    1    3    3    0    0  0.87905047425E+01  0.63171403814E+01 -0.64325022467E+01  0.12591914931E+02  0.51100000000E-03 0.  1.
        -12    1    3    3    0    0 -0.36781495340E+02 -0.95111086141E+01 -0.15114923844E+02  0.40887657176E+02  0.00000000000E+00 0.  1.
</event>
<event>
 7    1  0.1978681E-015  0.9000778E+02  0.7816164E-02  0.1186339E+00
        -11   -1    0    0    0    0  0.00000000000E+00  0.00000000000E+00  0.45593999997E+02  0.45594000000E+02  0.51100000000E-03 0. -1.
         11   -1    0    0    0    0 -0.00000000000E+00 -0.00000000000E+00 -0.45593999997E+02  0.45594000000E+02  0.51100000000E-03 0.  1.
    9900012    2    1    2    0    0 -0.17331002250E+00 -0.93854595390E+00  0.69426497361E+00  0.90007784458E+02  0.90000046413E+02 0.  0.
        -12    1    1    2    0    0  0.17331002250E+00  0.93854595390E+00 -0.69426497361E+00  0.11802155418E+01  0.00000000000E+00 0.  1.
         11    1    3    3    0    0  0.31006294492E+01 -0.79194918237E+00  0.70475132029E+01  0.77400600188E+01  0.51100000000E-03 0. -1.
        -11    1    3    3    0    0 -0.16761704133E+02  0.37965580749E+02 -0.51711867552E+01  0.41822018360E+02  0.51100000000E-03 0.  1.
         12    1    3    3    0    0  0.13487764661E+02 -0.38112177520E+02 -0.11820614741E+01  0.40445706079E+02  0.00000000000E+00 0. -1.
</event>
<event>
 7    1  0.1978681E-015  0.9000775E+02  0.7816164E-02  0.1186339E+00
        -11   -1    0    0    0    0  0.00000000000E+00  0.00000000000E+00  0.45593999997E+02  0.45594000000E+02  0.51100000000E-03 0.  1.
         11   -1    0    0    0    0 -0.00000000000E+00 -0.00000000000E+00 -0.45593999997E+02  0.45594000000E+02  0.51100000000E-03 0. -1.
    9900012    2    1    2    0    0 -0.58110790086E+00  0.10089186457E+01  0.19334850289E+00  0.90007751353E+02  0.90000012870E+02 0.  0.
        -12    1    1    2    0    0  0.58110790086E+00 -0.10089186457E+01 -0.19334850289E+00  0.11802486474E+01  0.00000000000E+00 0.  1.
         11    1    3    3    0    0 -0.88735328374E+01  0.12760268791E+01  0.40278434137E+01  0.98280899690E+01  0.51100000000E-03 0. -1.
        -11    1    3    3    0    0  0.35263958645E+02  0.21920500273E+02  0.98421463653E+01  0.42672273866E+02  0.51100000000E-03 0.  1.
         12    1    3    3    0    0 -0.26971533708E+02 -0.22187608507E+02 -0.13676641276E+02  0.37507387518E+02  0.00000000000E+00 0. -1.
</event>
<event>
 7    1  0.1978681E-015  0.9000774E+02  0.7816164E-02  0.1186339E+00
        -11   -1    0    0    0    0  0.00000000000E+00  0.00000000000E+00  0.45593999997E+02  0.45594000000E+02  0.51100000000E-03 0.  1.
         11   -1    0    0    0    0 -0.00000000000E+00 -0.00000000000E+00 -0.45593999997E+02  0.45594000000E+02  0.51100000000E-03 0. -1.
    9900012    2    1    2    0    0  0.11280138781E+01 -0.31640001361E+00 -0.14311357946E+00  0.90007743344E+02  0.90000004756E+02 0.  0.
        -12    1    1    2    0    0 -0.11280138781E+01  0.31640001361E+00  0.14311357946E+00  0.11802566562E+01  0.00000000000E+00 0.  1.
         11    1    3    3    0    0  0.27033636225E+02  0.98238637942E+01 -0.26084996835E+02  0.38829793298E+02  0.51100000000E-03 0. -1.
        -11    1    3    3    0    0 -0.37368032569E+01  0.10115859753E+02 -0.10049665192E+01  0.10830709814E+02  0.51100000000E-03 0.  1.
        -12    1    3    3    0    0 -0.22168819090E+02 -0.20256123561E+02  0.26946849775E+02  0.40347240232E+02  0.00000000000E+00 0.  1.
</event>
<event>
 7    1  0.1978681E-015  0.9000776E+02  0.7816164E-02  0.1186339E+00
        -11   -1    0    0    0    0  0.00000000000E+00  0.00000000000E+00  0.45593999997E+02  0.45594000000E+02  0.51100000000E-03 0.  1.
         11   -1    0    0    0    0 -0.00000000000E+00 -0.00000000000E+00 -0.45593999997E+02  0.45594000000E+02  0.51100000000E-03 0. -1.
    9900012    2    1    2    0    0  0.11252914478E+00  0.10039814846E+00 -0.11705695456E+01  0.90007756102E+02  0.90000017683E+02 0.  0.
        -12    1    1    2    0    0 -0.11252914478E+00 -0.10039814846E+00  0.11705695456E+01  0.11802438976E+01  0.00000000000E+00 0.  1.
         11    1    3    3    0    0  0.51786354721E+01 -0.51080316239E+01  0.28903147099E+01  0.78271432724E+01  0.51100000000E-03 0. -1.
        -11    1    3    3    0    0  0.21130145683E+02 -0.13001670354E+02 -0.31502203282E+02  0.40098819190E+02  0.51100000000E-03 0.  1.
         12    1    3    3    0    0 -0.26196252010E+02  0.18210100126E+02  0.27441319027E+02  0.42081793640E+02  0.00000000000E+00 0. -1.
</event>
<event>
 7    1  0.1978681E-015  0.9000775E+02  0.7816164E-02  0.1186339E+00
        -11   -1    0    0    0    0  0.00000000000E+00  0.00000000000E+00  0.45593999997E+02  0.45594000000E+02  0.51100000000E-03 0.  1.
         11   -1    0    0    0    0 -0.00000000000E+00 -0.00000000000E+00 -0.45593999997E+02  0.45594000000E+02  0.51100000000E-03 0. -1.
    9900012    2    1    2    0    0 -0.45331326476E+00  0.94616940484E+00  0.54060639867E+00  0.90007752256E+02  0.90000013786E+02 0.  0.
        -12    1    1    2    0    0  0.45331326476E+00 -0.94616940484E+00 -0.54060639867E+00  0.11802477439E+01  0.00000000000E+00 0.  1.
         11    1    3    3    0    0 -0.57079049150E+01  0.90214581150E+01  0.31478405073E+01  0.11129949917E+02  0.51100000000E-03 0. -1.
        -11    1    3    3    0    0 -0.25336980060E+02 -0.61633843100E+01  0.26091808040E+02  0.36888105288E+02  0.51100000000E-03 0.  1.
         12    1    3    3    0    0  0.30591571710E+02 -0.19119044002E+01 -0.28699042149E+02  0.41989697050E+02  0.00000000000E+00 0. -1.
</event>
<event>
 7    1  0.1978681E-015  0.9000776E+02  0.7816164E-02  0.1186339E+00
        -11   -1    0    0    0    0  0.00000000000E+00  0.00000000000E+00  0.45593999997E+02  0.45594000000E+02  0.51100000000E-03 0. -1.
         11   -1    0    0    0    0 -0.00000000000E+00 -0.00000000000E+00 -0.45593999997E+02  0.45594000000E+02  0.51100000000E-03 0.  1.
    9900012    2    1    2    0    0 -0.11523702252E+01 -0.24143975029E+00 -0.81923750631E-01  0.90007761977E+02  0.90000023636E+02 0.  0.
        -12    1    1    2    0    0  0.11523702252E+01  0.24143975029E+00  0.81923750631E-01  0.11802380225E+01  0.00000000000E+00 0.  1.
         11    1    3    3    0    0  0.68841500762E+01  0.36557706869E+01  0.74066560552E+00  0.78297360995E+01  0.51100000000E-03 0. -1.
        -11    1    3    3    0    0 -0.23814650579E+02  0.56517731203E+01 -0.35371829352E+02  0.43014490972E+02  0.51100000000E-03 0.  1.
         12    1    3    3    0    0  0.15778130278E+02 -0.95489835575E+01  0.34549239996E+02  0.39163534906E+02  0.00000000000E+00 0. -1.
</event>
<event>
 7    1  0.1978681E-015  0.9000770E+02  0.7816164E-02  0.1186339E+00
        -11   -1    0    0    0    0  0.00000000000E+00  0.00000000000E+00  0.45593999997E+02  0.45594000000E+02  0.51100000000E-03 0.  1.
         11   -1    0    0    0    0 -0.00000000000E+00 -0.00000000000E+00 -0.45593999997E+02  0.45594000000E+02  0.51100000000E-03 0. -1.
    9900012    2    1    2    0    0 -0.47397954442E+00 -0.10290937243E+01  0.33077552765E+00  0.90007702177E+02  0.89999963045E+02 0.  0.
        -12    1    1    2    0    0  0.47397954442E+00  0.10290937243E+01 -0.33077552765E+00  0.11802978232E+01  0.00000000000E+00 0.  1.
         11    1    3    3    0    0 -0.92561527164E+00  0.26951773423E+02 -0.72837311060E+01  0.27933986349E+02  0.51100000000E-03 0. -1.
        -11    1    3    3    0    0  0.12343003388E+02  0.11591453050E+02  0.11655347181E+02  0.20556231041E+02  0.51100000000E-03 0.  1.
         12    1    3    3    0    0 -0.11891367661E+02 -0.39572320197E+02 -0.40408405472E+01  0.41517484786E+02  0.00000000000E+00 0. -1.
</event>
<event>
 7    1  0.1978681E-015  0.9000777E+02  0.7816164E-02  0.1186339E+00
        -11   -1    0    0    0    0  0.00000000000E+00  0.00000000000E+00  0.45593999997E+02  0.45594000000E+02  0.51100000000E-03 0.  1.
         11   -1    0    0    0    0 -0.00000000000E+00 -0.00000000000E+00 -0.45593999997E+02  0.45594000000E+02  0.51100000000E-03 0. -1.
    9900012    2    1    2    0    0  0.57781604364E+00  0.74560744488E-01 -0.10264062526E+01  0.90007771005E+02  0.90000032782E+02 0.  0.
        -12    1    1    2    0    0 -0.57781604364E+00 -0.74560744488E-01  0.10264062526E+01  0.11802289949E+01  0.00000000000E+00 0.  1.
         11    1    3    3    0    0 -0.17277250245E+01 -0.95652293715E+01 -0.34909070372E+01  0.10327878722E+02  0.51100000000E-03 0. -1.
        -11    1    3    3    0    0 -0.24176529051E+02  0.31725013547E+02  0.15531600780E+02  0.42804341656E+02  0.51100000000E-03 0.  1.
         12    1    3    3    0    0  0.26482070120E+02 -0.22085223431E+02 -0.13067099995E+02  0.36875550628E+02  0.00000000000E+00 0. -1.
</event>
<event>
 7    1  0.1978681E-015  0.9000821E+02  0.7816164E-02  0.1186338E+00
        -11   -1    0    0    0    0  0.00000000000E+00  0.00000000000E+00  0.45593999997E+02  0.45594000000E+02  0.51100000000E-03 0. -1.
         11   -1    0    0    0    0 -0.00000000000E+00 -0.00000000000E+00 -0.45593999997E+02  0.45594000000E+02  0.51100000000E-03 0.  1.
    9900012    2    1    2    0    0  0.10633242775E+00  0.11135761587E+01 -0.37488798361E+00  0.90008212118E+02  0.90000479717E+02 0.  0.
        -12    1    1    2    0    0 -0.10633242775E+00 -0.11135761587E+01  0.37488798361E+00  0.11797878821E+01  0.00000000000E+00 0.  1.
         11    1    3    3    0    0  0.97824022022E+01 -0.51485038867E+01 -0.14506724399E+01  0.11149302037E+02  0.51100000000E-03 0. -1.
        -11    1    3    3    0    0  0.91011526148E+01 -0.26401749205E+02 -0.21225366583E+02  0.35077051285E+02  0.51100000000E-03 0.  1.
         12    1    3    3    0    0 -0.18777222389E+02  0.32663829251E+02  0.22301151039E+02  0.43781858796E+02  0.00000000000E+00 0. -1.
</event>
<event>
 7    1  0.1978681E-015  0.9000767E+02  0.7816164E-02  0.1186339E+00
        -11   -1    0    0    0    0  0.00000000000E+00  0.00000000000E+00  0.45593999997E+02  0.45594000000E+02  0.51100000000E-03 0. -1.
         11   -1    0    0    0    0 -0.00000000000E+00 -0.00000000000E+00 -0.45593999997E+02  0.45594000000E+02  0.51100000000E-03 0.  1.
    9900012    2    1    2    0    0 -0.44360141669E+00  0.28364575880E+00  0.10563823515E+01  0.90007669196E+02  0.89999929630E+02 0.  0.
        -12    1    1    2    0    0  0.44360141669E+00 -0.28364575880E+00 -0.10563823515E+01  0.11803308036E+01  0.00000000000E+00 0.  1.
         11    1    3    3    0    0  0.14047961094E+02 -0.31374090187E+02 -0.11349614330E+02  0.36200725016E+02  0.51100000000E-03 0. -1.
        -11    1    3    3    0    0  0.66216623543E+01 -0.17002420211E+01 -0.70280376024E+01  0.98046187109E+01  0.51100000000E-03 0.  1.
        -12    1    3    3    0    0 -0.21113224864E+02  0.33357977967E+02  0.19434034283E+02  0.44002325470E+02  0.00000000000E+00 0.  1.
</event>
<event>
 7    1  0.1978681E-015  0.9000774E+02  0.7816164E-02  0.1186339E+00
        -11   -1    0    0    0    0  0.00000000000E+00  0.00000000000E+00  0.45593999997E+02  0.45594000000E+02  0.51100000000E-03 0.  1.
         11   -1    0    0    0    0 -0.00000000000E+00 -0.00000000000E+00 -0.45593999997E+02  0.45594000000E+02  0.51100000000E-03 0. -1.
    9900012    2    1    2    0    0  0.39231879773E+00  0.38827170130E+00 -0.10432400450E+01  0.90007737849E+02  0.89999999189E+02 0.  0.
        -12    1    1    2    0    0 -0.39231879773E+00 -0.38827170130E+00  0.10432400450E+01  0.11802621508E+01  0.00000000000E+00 0.  1.
         11    1    3    3    0    0 -0.23523522126E+02 -0.16260793693E+02 -0.29552978334E+02  0.41123570290E+02  0.51100000000E-03 0. -1.
        -11    1    3    3    0    0 -0.60376235630E+01  0.25053402705E+01  0.56144934432E+01  0.86169695975E+01  0.51100000000E-03 0.  1.
        -12    1    3    3    0    0  0.29953464487E+02  0.14143725124E+02  0.22895244846E+02  0.40267197962E+02  0.00000000000E+00 0.  1.
</event>
<event>
 7    1  0.1978681E-015  0.9000774E+02  0.7816164E-02  0.1186339E+00
        -11   -1    0    0    0    0  0.00000000000E+00  0.00000000000E+00  0.45593999997E+02  0.45594000000E+02  0.51100000000E-03 0.  1.
         11   -1    0    0    0    0 -0.00000000000E+00 -0.00000000000E+00 -0.45593999997E+02  0.45594000000E+02  0.51100000000E-03 0. -1.
    9900012    2    1    2    0    0  0.10195422073E+00 -0.78458218277E+00 -0.87580906268E+00  0.90007743511E+02  0.90000004926E+02 0.  0.
        -12    1    1    2    0    0 -0.10195422073E+00  0.78458218277E+00  0.87580906268E+00  0.11802564886E+01  0.00000000000E+00 0.  1.
         11    1    3    3    0    0 -0.75735051716E+01 -0.12328779311E+01 -0.54169948241E+01  0.93926461534E+01  0.51100000000E-03 0. -1.
        -11    1    3    3    0    0 -0.26627959360E+02 -0.24445166267E+02 -0.67064877898E+01  0.36763995325E+02  0.51100000000E-03 0.  1.
         12    1    3    3    0    0  0.34303418752E+02  0.24893462015E+02  0.11247673551E+02  0.43851102033E+02  0.00000000000E+00 0. -1.
</event>
<event>
 7    1  0.1978681E-015  0.9000770E+02  0.7816164E-02  0.1186339E+00
        -11   -1    0    0    0    0  0.00000000000E+00  0.00000000000E+00  0.45593999997E+02  0.45594000000E+02  0.51100000000E-03 0. -1.
         11   -1    0    0    0    0 -0.00000000000E+00 -0.00000000000E+00 -0.45593999997E+02  0.45594000000E+02  0.51100000000E-03 0.  1.
    9900012    2    1    2    0    0 -0.91822745962E+00 -0.62681186530E-01  0.73894319378E+00  0.90007700190E+02  0.89999961032E+02 0.  0.
        -12    1    1    2    0    0  0.91822745962E+00  0.62681186530E-01 -0.73894319378E+00  0.11802998104E+01  0.00000000000E+00 0.  1.
         11    1    3    3    0    0 -0.36849972264E+01 -0.57736335017E+01 -0.62642887803E+01  0.92819913033E+01  0.51100000000E-03 0. -1.
        -11    1    3    3    0    0  0.20374596281E+02 -0.11689764627E+02 -0.28820625266E+02  0.37180683313E+02  0.51100000000E-03 0.  1.
         12    1    3    3    0    0 -0.17607826514E+02  0.17400716942E+02  0.35823857240E+02  0.43545025573E+02  0.00000000000E+00 0. -1.
</event>
<event>
 7    1  0.1978681E-015  0.9000776E+02  0.7816164E-02  0.1186339E+00
        -11   -1    0    0    0    0  0.00000000000E+00  0.00000000000E+00  0.45593999997E+02  0.45594000000E+02  0.51100000000E-03 0.  1.
         11   -1    0    0    0    0 -0.00000000000E+00 -0.00000000000E+00 -0.45593999997E+02  0.45594000000E+02  0.51100000000E-03 0. -1.
    9900012    2    1    2    0    0  0.14465763994E+00 -0.35446745078E+00 -0.11164165059E+01  0.90007763235E+02  0.90000024910E+02 0.  0.
        -12    1    1    2    0    0 -0.14465763994E+00  0.35446745078E+00  0.11164165059E+01  0.11802367649E+01  0.00000000000E+00 0.  1.
         11    1    3    3    0    0  0.47739177336E+00 -0.10888823025E+02 -0.18333547957E+01  0.11052400638E+02  0.51100000000E-03 0. -1.
        -11    1    3    3    0    0  0.35873617045E+02 -0.45792852368E+01  0.12046192904E+02  0.38118197976E+02  0.51100000000E-03 0.  1.
         12    1    3    3    0    0 -0.36206351179E+02  0.15113640812E+02 -0.11329254614E+02  0.40837164622E+02  0.00000000000E+00 0. -1.
</event>
<event>
 7    1  0.1978681E-015  0.9000785E+02  0.7816164E-02  0.1186339E+00
        -11   -1    0    0    0    0  0.00000000000E+00  0.00000000000E+00  0.45593999997E+02  0.45594000000E+02  0.51100000000E-03 0.  1.
         11   -1    0    0    0    0 -0.00000000000E+00 -0.00000000000E+00 -0.45593999997E+02  0.45594000000E+02  0.51100000000E-03 0. -1.
    9900012    2    1    2    0    0 -0.24224439791E+00 -0.11332375108E+01  0.22328430344E+00  0.90007845144E+02  0.90000107900E+02 0.  0.
        -12    1    1    2    0    0  0.24224439791E+00  0.11332375108E+01 -0.22328430344E+00  0.11801548561E+01  0.00000000000E+00 0.  1.
         11    1    3    3    0    0 -0.10348476866E+02 -0.21454169572E+00 -0.50180125393E+01  0.11502932309E+02  0.51100000000E-03 0. -1.
        -11    1    3    3    0    0 -0.18625480433E+02  0.17165388221E+02  0.27904812403E+02  0.37686040249E+02  0.51100000000E-03 0.  1.
         12    1    3    3    0    0  0.28731712901E+02 -0.18084084036E+02 -0.22663515560E+02  0.40818872586E+02  0.00000000000E+00 0. -1.
</event>
<event>
 7    1  0.1978681E-015  0.9000778E+02  0.7816164E-02  0.1186339E+00
        -11   -1    0    0    0    0  0.00000000000E+00  0.00000000000E+00  0.45593999997E+02  0.45594000000E+02  0.51100000000E-03 0.  1.
         11   -1    0    0    0    0 -0.00000000000E+00 -0.00000000000E+00 -0.45593999997E+02  0.45594000000E+02  0.51100000000E-03 0. -1.
    9900012    2    1    2    0    0 -0.63033693799E+00  0.93494623294E+00  0.34852809158E+00  0.90007779281E+02  0.90000041168E+02 0.  0.
        -12    1    1    2    0    0  0.63033693799E+00 -0.93494623294E+00 -0.34852809158E+00  0.11802207186E+01  0.00000000000E+00 0.  1.
         11    1    3    3    0    0 -0.16816222846E+02 -0.15223454509E+01 -0.33382139385E+02  0.37409492334E+02  0.51100000000E-03 0. -1.
        -11    1    3    3    0    0 -0.92940181026E+01  0.37406999175E+01 -0.35207877383E+00  0.10024747782E+02  0.51100000000E-03 0.  1.
        -12    1    3    3    0    0  0.25479904011E+02 -0.12834082337E+01  0.34082746251E+02  0.42573539166E+02  0.00000000000E+00 0.  1.
</event>
<event>
 7    1  0.1978681E-015  0.9000773E+02  0.7816164E-02  0.1186339E+00
        -11   -1    0    0    0    0  0.00000000000E+00  0.00000000000E+00  0.45593999997E+02  0.45594000000E+02  0.51100000000E-03 0. -1.
         11   -1    0    0    0    0 -0.00000000000E+00 -0.00000000000E+00 -0.45593999997E+02  0.45594000000E+02  0.51100000000E-03 0.  1.
    9900012    2    1    2    0    0  0.79466274158E+00 -0.74879694927E+00  0.44815391049E+00  0.90007734067E+02  0.89999995357E+02 0.  0.
        -12    1    1    2    0    0 -0.79466274158E+00  0.74879694927E+00 -0.44815391049E+00  0.11802659326E+01  0.00000000000E+00 0.  1.
         11    1    3    3    0    0  0.84575867847E+01 -0.21273269039E+01 -0.26752425398E+01  0.91221278704E+01  0.51100000000E-03 0. -1.
        -11    1    3    3    0    0  0.31455399258E+02 -0.11552991346E+02  0.16785847083E+02  0.37479039663E+02  0.51100000000E-03 0.  1.
         12    1    3    3    0    0 -0.39118323301E+02  0.12931521300E+02 -0.13662450632E+02  0.43406566534E+02  0.00000000000E+00 0. -1.
</event>
<event>
 7    1  0.1978681E-015  0.9000745E+02  0.7816164E-02  0.1186340E+00
        -11   -1    0    0    0    0  0.00000000000E+00  0.00000000000E+00  0.45593999997E+02  0.45594000000E+02  0.51100000000E-03 0. -1.
         11   -1    0    0    0    0 -0.00000000000E+00 -0.00000000000E+00 -0.45593999997E+02  0.45594000000E+02  0.51100000000E-03 0.  1.
    9900012    2    1    2    0    0  0.11447930627E+01  0.24782508408E+00  0.14743338930E+00  0.90007447149E+02  0.89999704651E+02 0.  0.
        -12    1    1    2    0    0 -0.11447930627E+01 -0.24782508408E+00 -0.14743338930E+00  0.11805528506E+01  0.00000000000E+00 0.  1.
         11    1    3    3    0    0  0.28966536854E+02 -0.60925267055E+01  0.27749156806E+02  0.40573326739E+02  0.51100000000E-03 0. -1.
        -11    1    3    3    0    0 -0.69393985079E+01 -0.10794375918E+02 -0.36742552220E+01  0.13348181704E+02  0.51100000000E-03 0.  1.
        -12    1    3    3    0    0 -0.20882345283E+02  0.17134727708E+02 -0.23927468195E+02  0.36085938707E+02  0.00000000000E+00 0.  1.
</event>
<event>
 7    1  0.1978681E-015  0.9000780E+02  0.7816164E-02  0.1186339E+00
        -11   -1    0    0    0    0  0.00000000000E+00  0.00000000000E+00  0.45593999997E+02  0.45594000000E+02  0.51100000000E-03 0.  1.
         11   -1    0    0    0    0 -0.00000000000E+00 -0.00000000000E+00 -0.45593999997E+02  0.45594000000E+02  0.51100000000E-03 0. -1.
    9900012    2    1    2    0    0  0.63979256230E+00  0.40309578404E+00 -0.90612327329E+00  0.90007796577E+02  0.90000058692E+02 0.  0.
        -12    1    1    2    0    0 -0.63979256230E+00 -0.40309578404E+00  0.90612327329E+00  0.11802034233E+01  0.00000000000E+00 0.  1.
         11    1    3    3    0    0  0.29998327793E+02 -0.99261268514E+01  0.17880872688E+02  0.36306380610E+02  0.51100000000E-03 0. -1.
        -11    1    3    3    0    0  0.58499442928E+01 -0.82663458076E+01 -0.12885177102E+01  0.10208555206E+02  0.51100000000E-03 0.  1.
        -12    1    3    3    0    0 -0.35208479524E+02  0.18595568443E+02 -0.17498478251E+02  0.43492860761E+02  0.00000000000E+00 0.  1.
</event>
<event>
 7    1  0.1978681E-015  0.9000773E+02  0.7816164E-02  0.1186339E+00
        -11   -1    0    0    0    0  0.00000000000E+00  0.00000000000E+00  0.45593999997E+02  0.45594000000E+02  0.51100000000E-03 0.  1.
         11   -1    0    0    0    0 -0.00000000000E+00 -0.00000000000E+00 -0.45593999997E+02  0.45594000000E+02  0.51100000000E-03 0. -1.
    9900012    2    1    2    0    0  0.10095130238E+01 -0.34541581876E+00 -0.50458676228E+00  0.90007730356E+02  0.89999991596E+02 0.  0.
        -12    1    1    2    0    0 -0.10095130238E+01  0.34541581876E+00  0.50458676228E+00  0.11802696445E+01  0.00000000000E+00 0.  1.
         11    1    3    3    0    0 -0.28002299657E+02  0.14888928300E+01  0.13188113384E+02  0.30988254595E+02  0.51100000000E-03 0. -1.
        -11    1    3    3    0    0  0.19803132360E+02  0.19769969403E+02  0.57066182690E+01  0.28558382899E+02  0.51100000000E-03 0.  1.
        -12    1    3    3    0    0  0.92086803213E+01 -0.21604278052E+02 -0.19399318415E+02  0.30461092862E+02  0.00000000000E+00 0.  1.
</event>
<event>
 7    1  0.1978681E-015  0.9000772E+02  0.7816164E-02  0.1186339E+00
        -11   -1    0    0    0    0  0.00000000000E+00  0.00000000000E+00  0.45593999997E+02  0.45594000000E+02  0.51100000000E-03 0. -1.
         11   -1    0    0    0    0 -0.00000000000E+00 -0.00000000000E+00 -0.45593999997E+02  0.45594000000E+02  0.51100000000E-03 0.  1.
    9900012    2    1    2    0    0 -0.93818538274E+00  0.26965348249E+00  0.66343948638E+00  0.90007721743E+02  0.89999982870E+02 0.  0.
        -12    1    1    2    0    0  0.93818538274E+00 -0.26965348249E+00 -0.66343948638E+00  0.11802782575E+01  0.00000000000E+00 0.  1.
         11    1    3    3    0    0  0.49220640378E+01  0.22400195915E+02  0.31332271441E+02  0.38829199391E+02  0.51100000000E-03 0. -1.
        -11    1    3    3    0    0 -0.72832278028E+01  0.55686495770E+01  0.83389162708E+00  0.92060111257E+01  0.51100000000E-03 0.  1.
        -12    1    3    3    0    0  0.14229783823E+01 -0.27699192010E+02 -0.31502723582E+02  0.41972511225E+02  0.00000000000E+00 0.  1.
</event>
<event>
 7    1  0.1978681E-015  0.9000775E+02  0.7816164E-02  0.1186339E+00
        -11   -1    0    0    0    0  0.00000000000E+00  0.00000000000E+00  0.45593999997E+02  0.45594000000E+02  0.51100000000E-03 0. -1.
         11   -1    0    0    0    0 -0.00000000000E+00 -0.00000000000E+00 -0.45593999997E+02  0.45594000000E+02  0.51100000000E-03 0.  1.
    9900012    2    1    2    0    0  0.82457411572E+00 -0.65602750203E+00 -0.53168279896E+00  0.90007753774E+02  0.90000015324E+02 0.  0.
        -12    1    1    2    0    0 -0.82457411572E+00  0.65602750203E+00  0.53168279896E+00  0.11802462262E+01  0.00000000000E+00 0.  1.
         11    1    3    3    0    0 -0.24575865562E+00  0.19692326836E+02  0.10360919499E+02  0.22253017473E+02  0.51100000000E-03 0. -1.
        -11    1    3    3    0    0  0.12007913240E+02  0.17151369583E+02 -0.18522500476E+02  0.27954292749E+02  0.51100000000E-03 0.  1.
         12    1    3    3    0    0 -0.10937580469E+02 -0.37499723921E+02  0.76298981781E+01  0.39800443552E+02  0.00000000000E+00 0. -1.
</event>
<event>
 7    1  0.1978681E-015  0.9000776E+02  0.7816164E-02  0.1186339E+00
        -11   -1    0    0    0    0  0.00000000000E+00  0.00000000000E+00  0.45593999997E+02  0.45594000000E+02  0.51100000000E-03 0. -1.
         11   -1    0    0    0    0 -0.00000000000E+00 -0.00000000000E+00 -0.45593999997E+02  0.45594000000E+02  0.51100000000E-03 0.  1.
    9900012    2    1    2    0    0 -0.50727969119E-03  0.94480732286E+00 -0.70732768431E+00  0.90007756979E+02  0.90000018572E+02 0.  0.
        -12    1    1    2    0    0  0.50727969119E-03 -0.94480732286E+00  0.70732768431E+00  0.11802430206E+01  0.00000000000E+00 0.  1.
         11    1    3    3    0    0 -0.30922643014E+01  0.66637222976E+01  0.62472053081E+01  0.96433846647E+01  0.51100000000E-03 0. -1.
        -11    1    3    3    0    0 -0.21667056424E+01  0.20348134608E+02 -0.35735121640E+02  0.41179365151E+02  0.51100000000E-03 0.  1.
         12    1    3    3    0    0  0.52584626641E+01 -0.26067049582E+02  0.28780588648E+02  0.39185007164E+02  0.00000000000E+00 0. -1.
</event>
<event>
 7    1  0.1978681E-015  0.9000774E+02  0.7816164E-02  0.1186339E+00
        -11   -1    0    0    0    0  0.00000000000E+00  0.00000000000E+00  0.45593999997E+02  0.45594000000E+02  0.51100000000E-03 0. -1.
         11   -1    0    0    0    0 -0.00000000000E+00 -0.00000000000E+00 -0.45593999997E+02  0.45594000000E+02  0.51100000000E-03 0.  1.
    9900012    2    1    2    0    0  0.74967818055E+00  0.59716910059E+00  0.68876327290E+00  0.90007735981E+02  0.89999997296E+02 0.  0.
        -12    1    1    2    0    0 -0.74967818055E+00 -0.59716910059E+00 -0.68876327290E+00  0.11802640193E+01  0.00000000000E+00 0.  1.
         11    1    3    3    0    0 -0.27615392429E+02  0.14237580919E+02  0.72283535305E+01  0.31899337054E+02  0.51100000000E-03 0. -1.
        -11    1    3    3    0    0  0.11166305837E+00 -0.56447522464E+01  0.18609779186E+02  0.19447354015E+02  0.51100000000E-03 0.  1.
        -12    1    3    3    0    0  0.28253407552E+02 -0.79956595724E+01 -0.25149369444E+02  0.38661044912E+02  0.00000000000E+00 0.  1.
</event>
<event>
 7    1  0.1978681E-015  0.9000778E+02  0.7816164E-02  0.1186339E+00
        -11   -1    0    0    0    0  0.00000000000E+00  0.00000000000E+00  0.45593999997E+02  0.45594000000E+02  0.51100000000E-03 0.  1.
         11   -1    0    0    0    0 -0.00000000000E+00 -0.00000000000E+00 -0.45593999997E+02  0.45594000000E+02  0.51100000000E-03 0. -1.
    9900012    2    1    2    0    0 -0.92869307356E-02  0.77037581766E+00 -0.89406521534E+00  0.90007780632E+02  0.90000042536E+02 0.  0.
        -12    1    1    2    0    0  0.92869307356E-02 -0.77037581766E+00  0.89406521534E+00  0.11802193681E+01  0.00000000000E+00 0.  1.
         11    1    3    3    0    0 -0.78813601335E+00 -0.51505055667E+01  0.96765420513E+01  0.10990192551E+02  0.51100000000E-03 0. -1.
        -11    1    3    3    0    0  0.17588087455E+02 -0.64228259569E+01  0.28865634388E+02  0.34406661601E+02  0.51100000000E-03 0.  1.
         12    1    3    3    0    0 -0.16809238372E+02  0.12343707341E+02 -0.39436241655E+02  0.44610926481E+02  0.00000000000E+00 0. -1.
</event>
<event>
 7    1  0.1978681E-015  0.9000780E+02  0.7816164E-02  0.1186339E+00
        -11   -1    0    0    0    0  0.00000000000E+00  0.00000000000E+00  0.45593999997E+02  0.45594000000E+02  0.51100000000E-03 0.  1.
         11   -1    0    0    0    0 -0.00000000000E+00 -0.00000000000E+00 -0.45593999997E+02  0.45594000000E+02  0.51100000000E-03 0. -1.
    9900012    2    1    2    0    0  0.80391937742E+00  0.64784141416E+00  0.57173359806E+00  0.90007803334E+02  0.90000065538E+02 0.  0.
        -12    1    1    2    0    0 -0.80391937742E+00 -0.64784141416E+00 -0.57173359806E+00  0.11801966660E+01  0.00000000000E+00 0.  1.
         11    1    3    3    0    0  0.11980654477E+02 -0.15653134310E+02 -0.31336523507E+02  0.37020729344E+02  0.51100000000E-03 0. -1.
        -11    1    3    3    0    0  0.57965788470E+01 -0.77375044083E+01  0.11925470973E+00  0.96686877468E+01  0.51100000000E-03 0.  1.
        -12    1    3    3    0    0 -0.16973313947E+02  0.24038480133E+02  0.31789002395E+02  0.43318386243E+02  0.00000000000E+00 0.  1.
</event>
<event>
 7    1  0.1978681E-015  0.9000780E+02  0.7816164E-02  0.1186339E+00
        -11   -1    0    0    0    0  0.00000000000E+00  0.00000000000E+00  0.45593999997E+02  0.45594000000E+02  0.51100000000E-03 0. -1.
         11   -1    0    0    0    0 -0.00000000000E+00 -0.00000000000E+00 -0.45593999997E+02  0.45594000000E+02  0.51100000000E-03 0.  1.
    9900012    2    1    2    0    0 -0.24858455097E+00  0.11321193240E+01  0.22223963382E+00  0.90007797095E+02  0.90000059216E+02 0.  0.
        -12    1    1    2    0    0  0.24858455097E+00 -0.11321193240E+01 -0.22223963382E+00  0.11802029052E+01  0.00000000000E+00 0.  1.
         11    1    3    3    0    0  0.23781311870E+01 -0.78661880786E+01  0.21067131516E+01  0.84835525220E+01  0.51100000000E-03 0. -1.
        -11    1    3    3    0    0 -0.40547478618E+02  0.13140793411E+02 -0.64377162768E+01  0.43107106895E+02  0.51100000000E-03 0.  1.
         12    1    3    3    0    0  0.37920762880E+02 -0.41424860084E+01  0.45532427590E+01  0.38417137678E+02  0.00000000000E+00 0. -1.
</event>
<event>
 7    1  0.1978681E-015  0.9000768E+02  0.7816164E-02  0.1186339E+00
        -11   -1    0    0    0    0  0.00000000000E+00  0.00000000000E+00  0.45593999997E+02  0.45594000000E+02  0.51100000000E-03 0.  1.
         11   -1    0    0    0    0 -0.00000000000E+00 -0.00000000000E+00 -0.45593999997E+02  0.45594000000E+02  0.51100000000E-03 0. -1.
    9900012    2    1    2    0    0  0.13072724777E+00 -0.58627229161E+00 -0.10160518815E+01  0.90007675367E+02  0.89999935882E+02 0.  0.
        -12    1    1    2    0    0 -0.13072724777E+00  0.58627229161E+00  0.10160518815E+01  0.11803246329E+01  0.00000000000E+00 0.  1.
         11    1    3    3    0    0  0.28392579950E+02  0.21683074750E+02  0.17523555219E+02  0.39791573412E+02  0.51100000000E-03 0. -1.
        -11    1    3    3    0    0 -0.51748029639E+01  0.50425678835E+01  0.36846319587E+01  0.81106466763E+01  0.51100000000E-03 0.  1.
        -12    1    3    3    0    0 -0.23087049739E+02 -0.27311914925E+02 -0.22224239059E+02  0.42105455279E+02  0.00000000000E+00 0.  1.
</event>
<event>
 7    1  0.1978681E-015  0.9000767E+02  0.7816164E-02  0.1186339E+00
        -11   -1    0    0    0    0  0.00000000000E+00  0.00000000000E+00  0.45593999997E+02  0.45594000000E+02  0.51100000000E-03 0.  1.
         11   -1    0    0    0    0 -0.00000000000E+00 -0.00000000000E+00 -0.45593999997E+02  0.45594000000E+02  0.51100000000E-03 0. -1.
    9900012    2    1    2    0    0  0.37300606693E+00 -0.44529944936E+00 -0.10275009829E+01  0.90007668099E+02  0.89999928518E+02 0.  0.
        -12    1    1    2    0    0 -0.37300606693E+00  0.44529944936E+00  0.10275009829E+01  0.11803319005E+01  0.00000000000E+00 0.  1.
         11    1    3    3    0    0 -0.10763741502E+01  0.68371693994E+01  0.81007862261E+01  0.10654961494E+02  0.51100000000E-03 0. -1.
        -11    1    3    3    0    0 -0.20976748616E+02  0.26807316761E+02  0.82128573630E+01  0.35015814152E+02  0.51100000000E-03 0.  1.
         12    1    3    3    0    0  0.22426128833E+02 -0.34089785610E+02 -0.17341144572E+02  0.44336892453E+02  0.00000000000E+00 0. -1.
</event>
<event>
 7    1  0.1978681E-015  0.9000771E+02  0.7816164E-02  0.1186339E+00
        -11   -1    0    0    0    0  0.00000000000E+00  0.00000000000E+00  0.45593999997E+02  0.45594000000E+02  0.51100000000E-03 0.  1.
         11   -1    0    0    0    0 -0.00000000000E+00 -0.00000000000E+00 -0.45593999997E+02  0.45594000000E+02  0.51100000000E-03 0. -1.
    9900012    2    1    2    0    0 -0.11690886545E+01  0.12434364918E+00 -0.10423484921E+00  0.90007705745E+02  0.89999966661E+02 0.  0.
        -12    1    1    2    0    0  0.11690886545E+01 -0.12434364918E+00  0.10423484921E+00  0.11802942552E+01  0.00000000000E+00 0.  1.
         11    1    3    3    0    0  0.77784663008E+01  0.40927324416E+02 -0.24962072271E+01  0.41734655535E+02  0.51100000000E-03 0. -1.
        -11    1    3    3    0    0  0.75812286663E+01 -0.77501435517E+01 -0.21086999355E+01  0.11044743946E+02  0.51100000000E-03 0.  1.
        -12    1    3    3    0    0 -0.16528783622E+02 -0.33052837215E+02  0.45006723134E+01  0.37228306263E+02  0.00000000000E+00 0.  1.
</event>
<event>
 7    1  0.1978681E-015  0.9000775E+02  0.7816164E-02  0.1186339E+00
        -11   -1    0    0    0    0  0.00000000000E+00  0.00000000000E+00  0.45593999997E+02  0.45594000000E+02  0.51100000000E-03 0.  1.
         11   -1    0    0    0    0 -0.00000000000E+00 -0.00000000000E+00 -0.45593999997E+02  0.45594000000E+02  0.51100000000E-03 0. -1.
    9900012    2    1    2    0    0 -0.22395499238E+00  0.11569823711E+01 -0.64999091542E-01  0.90007750481E+02  0.90000011987E+02 0.  0.
        -12    1    1    2    0    0  0.22395499238E+00 -0.11569823711E+01  0.64999091542E-01  0.11802495192E+01  0.00000000000E+00 0.  1.
         11    1    3    3    0    0 -0.18630532548E+02 -0.24480548018E+02 -0.23948057118E+02  0.38985938674E+02  0.51100000000E-03 0. -1.
        -11    1    3    3    0    0 -0.46993239707E+01  0.76133857184E+01 -0.46825067907E+01  0.10098175973E+02  0.51100000000E-03 0.  1.
        -12    1    3    3    0    0  0.23105901527E+02  0.18024144671E+02  0.28565564817E+02  0.40923635833E+02  0.00000000000E+00 0.  1.
</event>
<event>
 7    1  0.1978681E-015  0.9000845E+02  0.7816164E-02  0.1186338E+00
        -11   -1    0    0    0    0  0.00000000000E+00  0.00000000000E+00  0.45593999997E+02  0.45594000000E+02  0.51100000000E-03 0. -1.
         11   -1    0    0    0    0 -0.00000000000E+00 -0.00000000000E+00 -0.45593999997E+02  0.45594000000E+02  0.51100000000E-03 0.  1.
    9900012    2    1    2    0    0 -0.59961082179E-01  0.10111599532E+01  0.60439914336E+00  0.90008450041E+02  0.90000720778E+02 0.  0.
        -12    1    1    2    0    0  0.59961082179E-01 -0.10111599532E+01 -0.60439914336E+00  0.11795499594E+01  0.00000000000E+00 0.  1.
         11    1    3    3    0    0 -0.95521755947E+01 -0.15230434990E+01  0.86744099739E+00  0.97116514681E+01  0.51100000000E-03 0. -1.
        -11    1    3    3    0    0 -0.28087232805E+02  0.23432703545E+02  0.52200424321E+01  0.36949060683E+02  0.51100000000E-03 0.  1.
         12    1    3    3    0    0  0.37579447318E+02 -0.20898500093E+02 -0.54830842862E+01  0.43347737890E+02  0.00000000000E+00 0. -1.
</event>
<event>
 7    1  0.1978681E-015  0.9000798E+02  0.7816164E-02  0.1186339E+00
        -11   -1    0    0    0    0  0.00000000000E+00  0.00000000000E+00  0.45593999997E+02  0.45594000000E+02  0.51100000000E-03 0. -1.
         11   -1    0    0    0    0 -0.00000000000E+00 -0.00000000000E+00 -0.45593999997E+02  0.45594000000E+02  0.51100000000E-03 0.  1.
    9900012    2    1    2    0    0 -0.56767531497E+00  0.93000575455E+00  0.45306741528E+00  0.90007984725E+02  0.90000249323E+02 0.  0.
        -12    1    1    2    0    0  0.56767531497E+00 -0.93000575455E+00 -0.45306741528E+00  0.11800152751E+01  0.00000000000E+00 0.  1.
         11    1    3    3    0    0 -0.22885833017E+01  0.71630106820E+01 -0.37366187410E+01  0.83969432197E+01  0.51100000000E-03 0. -1.
        -11    1    3    3    0    0  0.22789216012E+02 -0.23352044847E+02 -0.25477830400E+02  0.41397900999E+02  0.51100000000E-03 0.  1.
         12    1    3    3    0    0 -0.21068308025E+02  0.17119039920E+02  0.29667516556E+02  0.40213140506E+02  0.00000000000E+00 0. -1.
</event>
<event>
 7    1  0.3704304E-015  0.9000776E+02  0.7816164E-02  0.1186339E+00
        -11   -1    0    0    0    0  0.00000000000E+00  0.00000000000E+00  0.45593999997E+02  0.45594000000E+02  0.51100000000E-03 0. -1.
         11   -1    0    0    0    0 -0.00000000000E+00 -0.00000000000E+00 -0.45593999997E+02  0.45594000000E+02  0.51100000000E-03 0.  1.
    9900012    2    1    2    0    0 -0.41497214916E+00 -0.81666430716E+00  0.74419913218E+00  0.90007756456E+02  0.90000018041E+02 0.  0.
        -12    1    1    2    0    0  0.41497214916E+00  0.81666430716E+00 -0.74419913218E+00  0.11802435441E+01  0.00000000000E+00 0.  1.
         11    1    3    3    0    0 -0.75072988450E+01 -0.20356746988E+01  0.56482820517E+01  0.96128350566E+01  0.51100000000E-03 0. -1.
        -11    1    3    3    0    0 -0.23645409713E+02  0.42332513315E+01 -0.31515582331E+02  0.39626477856E+02  0.51100000000E-03 0.  1.
         12    1    3    3    0    0  0.30737736409E+02 -0.30142409399E+01  0.26611499412E+02  0.40768443543E+02  0.00000000000E+00 0. -1.
</event>
<event>
 7    1  0.1978681E-015  0.9000759E+02  0.7816164E-02  0.1186339E+00
        -11   -1    0    0    0    0  0.00000000000E+00  0.00000000000E+00  0.45593999997E+02  0.45594000000E+02  0.51100000000E-03 0. -1.
         11   -1    0    0    0    0 -0.00000000000E+00 -0.00000000000E+00 -0.45593999997E+02  0.45594000000E+02  0.51100000000E-03 0.  1.
    9900012    2    1    2    0    0  0.14409307093E+00 -0.11231657093E+01  0.33333862668E+00  0.90007585385E+02  0.89999844712E+02 0.  0.
        -12    1    1    2    0    0 -0.14409307093E+00  0.11231657093E+01 -0.33333862668E+00  0.11804146152E+01  0.00000000000E+00 0.  1.
         11    1    3    3    0    0 -0.15387627943E+01 -0.18482430725E+01  0.39659286735E+02  0.39732138351E+02  0.51100000000E-03 0. -1.
        -11    1    3    3    0    0  0.15890726325E+01  0.97135099596E+01  0.94541546449E-01  0.98430872154E+01  0.51100000000E-03 0.  1.
        -12    1    3    3    0    0  0.93783232730E-01 -0.89884325964E+01 -0.39420489655E+02  0.40432359818E+02  0.00000000000E+00 0.  1.
</event>
<event>
 7    1  0.1978681E-015  0.9000773E+02  0.7816164E-02  0.1186339E+00
        -11   -1    0    0    0    0  0.00000000000E+00  0.00000000000E+00  0.45593999997E+02  0.45594000000E+02  0.51100000000E-03 0.  1.
         11   -1    0    0    0    0 -0.00000000000E+00 -0.00000000000E+00 -0.45593999997E+02  0.45594000000E+02  0.51100000000E-03 0. -1.
    9900012    2    1    2    0    0 -0.49110107128E+00  0.64126879093E+00 -0.86059533059E+00  0.90007732976E+02  0.89999994251E+02 0.  0.
        -12    1    1    2    0    0  0.49110107128E+00 -0.64126879093E+00  0.86059533059E+00  0.11802670238E+01  0.00000000000E+00 0.  1.
         11    1    3    3    0    0  0.24885637526E+00 -0.57657380644E+01  0.10439473886E+02  0.11928465123E+02  0.51100000000E-03 0. -1.
        -11    1    3    3    0    0  0.84689684857E+01 -0.57537401405E+01  0.31246310073E+02  0.32881010420E+02  0.51100000000E-03 0.  1.
         12    1    3    3    0    0 -0.92089259322E+01  0.12160746996E+02 -0.42546379289E+02  0.45198257433E+02  0.00000000000E+00 0. -1.
</event>
<event>
 7    1  0.3114710E-015  0.9000772E+02  0.7816164E-02  0.1186339E+00
        -11   -1    0    0    0    0  0.00000000000E+00  0.00000000000E+00  0.45593999997E+02  0.45594000000E+02  0.51100000000E-03 0. -1.
         11   -1    0    0    0    0 -0.00000000000E+00 -0.00000000000E+00 -0.45593999997E+02  0.45594000000E+02  0.51100000000E-03 0.  1.
    9900012    2    1    2    0    0 -0.71268056313E+00  0.94022702755E+00 -0.33613463260E-01  0.90007716003E+02  0.89999977054E+02 0.  0.
        -12    1    1    2    0    0  0.71268056313E+00 -0.94022702755E+00  0.33613463260E-01  0.11802839969E+01  0.00000000000E+00 0.  1.
         11    1    3    3    0    0  0.40454351088E+01  0.45071058583E+01 -0.76098304388E+01  0.97256911326E+01  0.51100000000E-03 0. -1.
        -11    1    3    3    0    0  0.30358882017E+02  0.69620019985E+01 -0.17631020967E+02  0.35790838070E+02  0.51100000000E-03 0.  1.
         12    1    3    3    0    0 -0.35116997689E+02 -0.10528880829E+02  0.25207237942E+02  0.44491186800E+02  0.00000000000E+00 0. -1.
</event>
<event>
 7    1  0.1978681E-015  0.9000780E+02  0.7816164E-02  0.1186339E+00
        -11   -1    0    0    0    0  0.00000000000E+00  0.00000000000E+00  0.45593999997E+02  0.45594000000E+02  0.51100000000E-03 0.  1.
         11   -1    0    0    0    0 -0.00000000000E+00 -0.00000000000E+00 -0.45593999997E+02  0.45594000000E+02  0.51100000000E-03 0. -1.
    9900012    2    1    2    0    0  0.27899492524E-01  0.11789759543E+01  0.45912630090E-01  0.90007800588E+02  0.90000062756E+02 0.  0.
        -12    1    1    2    0    0 -0.27899492524E-01 -0.11789759543E+01 -0.45912630090E-01  0.11801994120E+01  0.00000000000E+00 0.  1.
         11    1    3    3    0    0 -0.89323015651E+01  0.24772737065E+01 -0.23904487611E+01  0.95727290678E+01  0.51100000000E-03 0. -1.
        -11    1    3    3    0    0 -0.29278527775E+02  0.41752689833E+01  0.22261005880E+02  0.37016448274E+02  0.51100000000E-03 0.  1.
         12    1    3    3    0    0  0.38238728832E+02 -0.54735667354E+01 -0.19824644489E+02  0.43418623247E+02  0.00000000000E+00 0. -1.
</event>
<event>
 7    1  0.1978681E-015  0.9000776E+02  0.7816164E-02  0.1186339E+00
        -11   -1    0    0    0    0  0.00000000000E+00  0.00000000000E+00  0.45593999997E+02  0.45594000000E+02  0.51100000000E-03 0. -1.
         11   -1    0    0    0    0 -0.00000000000E+00 -0.00000000000E+00 -0.45593999997E+02  0.45594000000E+02  0.51100000000E-03 0.  1.
    9900012    2    1    2    0    0  0.72892573721E+00  0.77010929009E+00  0.51823542508E+00  0.90007758921E+02  0.90000020539E+02 0.  0.
        -12    1    1    2    0    0 -0.72892573721E+00 -0.77010929009E+00 -0.51823542508E+00  0.11802410791E+01  0.00000000000E+00 0.  1.
         11    1    3    3    0    0 -0.25859401909E+02  0.83097111120E+01  0.34676431613E+02  0.44047870273E+02  0.51100000000E-03 0. -1.
        -11    1    3    3    0    0  0.53451642162E+01  0.38988966433E+01 -0.77410361046E+01  0.10183114247E+02  0.51100000000E-03 0.  1.
        -12    1    3    3    0    0  0.21243163430E+02 -0.11438498465E+02 -0.26417160084E+02  0.35776774401E+02  0.00000000000E+00 0.  1.
</event>
<event>
 7    1  0.1978681E-015  0.9000774E+02  0.7816164E-02  0.1186339E+00
        -11   -1    0    0    0    0  0.00000000000E+00  0.00000000000E+00  0.45593999997E+02  0.45594000000E+02  0.51100000000E-03 0. -1.
         11   -1    0    0    0    0 -0.00000000000E+00 -0.00000000000E+00 -0.45593999997E+02  0.45594000000E+02  0.51100000000E-03 0.  1.
    9900012    2    1    2    0    0 -0.64018321581E+00 -0.67544610837E+00  0.72591948684E+00  0.90007736853E+02  0.89999998179E+02 0.  0.
        -12    1    1    2    0    0  0.64018321581E+00  0.67544610837E+00 -0.72591948684E+00  0.11802631471E+01  0.00000000000E+00 0.  1.
         11    1    3    3    0    0 -0.45011957476E+01  0.65497851792E+01 -0.58005650099E+01  0.98390550230E+01  0.51100000000E-03 0. -1.
        -11    1    3    3    0    0 -0.16323152414E+02 -0.37960620011E+02 -0.50266889112E+01  0.41625972398E+02  0.51100000000E-03 0.  1.
         12    1    3    3    0    0  0.20184164946E+02  0.30735388724E+02  0.11553173408E+02  0.38542709432E+02  0.00000000000E+00 0. -1.
</event>
<event>
 7    1  0.1978681E-015  0.9000779E+02  0.7816164E-02  0.1186339E+00
        -11   -1    0    0    0    0  0.00000000000E+00  0.00000000000E+00  0.45593999997E+02  0.45594000000E+02  0.51100000000E-03 0. -1.
         11   -1    0    0    0    0 -0.00000000000E+00 -0.00000000000E+00 -0.45593999997E+02  0.45594000000E+02  0.51100000000E-03 0.  1.
    9900012    2    1    2    0    0 -0.10553772527E+01 -0.80713858547E-01 -0.52208313194E+00  0.90007785329E+02  0.90000047296E+02 0.  0.
        -12    1    1    2    0    0  0.10553772527E+01  0.80713858547E-01  0.52208313194E+00  0.11802146708E+01  0.00000000000E+00 0.  1.
         11    1    3    3    0    0  0.90199956796E+01 -0.28105618257E+01  0.78190307874E+01  0.12263638227E+02  0.51100000000E-03 0. -1.
        -11    1    3    3    0    0 -0.29727155282E+01 -0.33681990492E+02 -0.19463472099E+02  0.39014616075E+02  0.51100000000E-03 0.  1.
         12    1    3    3    0    0 -0.71026574041E+01  0.36411838459E+02  0.11122358179E+02  0.38729531028E+02  0.00000000000E+00 0. -1.
</event>
<event>
 7    1  0.1978681E-015  0.9000775E+02  0.7816164E-02  0.1186339E+00
        -11   -1    0    0    0    0  0.00000000000E+00  0.00000000000E+00  0.45593999997E+02  0.45594000000E+02  0.51100000000E-03 0. -1.
         11   -1    0    0    0    0 -0.00000000000E+00 -0.00000000000E+00 -0.45593999997E+02  0.45594000000E+02  0.51100000000E-03 0.  1.
    9900012    2    1    2    0    0  0.11651033762E+01  0.12264880639E+00 -0.14311603750E+00  0.90007749685E+02  0.90000011180E+02 0.  0.
        -12    1    1    2    0    0 -0.11651033762E+01 -0.12264880639E+00  0.14311603750E+00  0.11802503154E+01  0.00000000000E+00 0.  1.
         11    1    3    3    0    0  0.28732268029E+02 -0.20827927772E+02 -0.18693159252E+02  0.40109599904E+02  0.51100000000E-03 0. -1.
        -11    1    3    3    0    0  0.22611624690E+01  0.83660244237E+01 -0.48698703265E+01  0.99407674567E+01  0.51100000000E-03 0.  1.
        -12    1    3    3    0    0 -0.29828327122E+02  0.12584552155E+02  0.23419913542E+02  0.39957382323E+02  0.00000000000E+00 0.  1.
</event>
<event>
 7    1  0.1978681E-015  0.9000789E+02  0.7816164E-02  0.1186339E+00
        -11   -1    0    0    0    0  0.00000000000E+00  0.00000000000E+00  0.45593999997E+02  0.45594000000E+02  0.51100000000E-03 0. -1.
         11   -1    0    0    0    0 -0.00000000000E+00 -0.00000000000E+00 -0.45593999997E+02  0.45594000000E+02  0.51100000000E-03 0.  1.
    9900012    2    1    2    0    0 -0.13854603197E+00 -0.41334775376E+00  0.10966352985E+01  0.90007889689E+02  0.90000153033E+02 0.  0.
        -12    1    1    2    0    0  0.13854603197E+00  0.41334775376E+00 -0.10966352985E+01  0.11801103112E+01  0.00000000000E+00 0.  1.
         11    1    3    3    0    0 -0.39478598700E+01 -0.13112483109E+02  0.11747753292E+01  0.13744195436E+02  0.51100000000E-03 0. -1.
        -11    1    3    3    0    0 -0.32543482273E+02  0.10034248158E+01  0.14164058405E+02  0.35506417033E+02  0.51100000000E-03 0.  1.
         12    1    3    3    0    0  0.36352796111E+02  0.11695710540E+02 -0.14242198436E+02  0.40757277220E+02  0.00000000000E+00 0. -1.
</event>
<event>
 7    1  0.1978681E-015  0.9000775E+02  0.7816164E-02  0.1186339E+00
        -11   -1    0    0    0    0  0.00000000000E+00  0.00000000000E+00  0.45593999997E+02  0.45594000000E+02  0.51100000000E-03 0. -1.
         11   -1    0    0    0    0 -0.00000000000E+00 -0.00000000000E+00 -0.45593999997E+02  0.45594000000E+02  0.51100000000E-03 0.  1.
    9900012    2    1    2    0    0 -0.69647896674E+00  0.94931459574E+00  0.81893760773E-01  0.90007750984E+02  0.90000012497E+02 0.  0.
        -12    1    1    2    0    0  0.69647896674E+00 -0.94931459574E+00 -0.81893760773E-01  0.11802490165E+01  0.00000000000E+00 0.  1.
         11    1    3    3    0    0  0.10715601065E+02 -0.80608899983E+01  0.34997769674E+02  0.37478606379E+02  0.51100000000E-03 0. -1.
        -11    1    3    3    0    0 -0.42988879336E+00 -0.11228597498E+02 -0.66354820767E+00  0.11256398297E+02  0.51100000000E-03 0.  1.
        -12    1    3    3    0    0 -0.10982191238E+02  0.20238802092E+02 -0.34252327705E+02  0.41272746307E+02  0.00000000000E+00 0.  1.
</event>
<event>
 7    1  0.1978681E-015  0.9000746E+02  0.7816164E-02  0.1186340E+00
        -11   -1    0    0    0    0  0.00000000000E+00  0.00000000000E+00  0.45593999997E+02  0.45594000000E+02  0.51100000000E-03 0.  1.
         11   -1    0    0    0    0 -0.00000000000E+00 -0.00000000000E+00 -0.45593999997E+02  0.45594000000E+02  0.51100000000E-03 0. -1.
    9900012    2    1    2    0    0  0.62675179014E+00  0.79275327856E+00 -0.61025272701E+00  0.90007456075E+02  0.89999713695E+02 0.  0.
        -12    1    1    2    0    0 -0.62675179014E+00 -0.79275327856E+00  0.61025272701E+00  0.11805439246E+01  0.00000000000E+00 0.  1.
         11    1    3    3    0    0  0.15974597153E+02  0.25026183114E+02 -0.22280476165E+02  0.37120307297E+02  0.51100000000E-03 0. -1.
        -11    1    3    3    0    0  0.53762979866E+01  0.73957484776E+01 -0.31066302977E+00  0.91486713442E+01  0.51100000000E-03 0.  1.
        -12    1    3    3    0    0 -0.20724143350E+02 -0.31629178313E+02  0.21980886467E+02  0.43738477434E+02  0.00000000000E+00 0.  1.
</event>
<event>
 7    1  0.1978681E-015  0.9000778E+02  0.7816164E-02  0.1186339E+00
        -11   -1    0    0    0    0  0.00000000000E+00  0.00000000000E+00  0.45593999997E+02  0.45594000000E+02  0.51100000000E-03 0.  1.
         11   -1    0    0    0    0 -0.00000000000E+00 -0.00000000000E+00 -0.45593999997E+02  0.45594000000E+02  0.51100000000E-03 0. -1.
    9900012    2    1    2    0    0 -0.25827430465E+00 -0.42990148131E-01 -0.11508123662E+01  0.90007778465E+02  0.90000040341E+02 0.  0.
        -12    1    1    2    0    0  0.25827430465E+00  0.42990148131E-01  0.11508123662E+01  0.11802215349E+01  0.00000000000E+00 0.  1.
         11    1    3    3    0    0 -0.32850889797E+02 -0.95464808886E+01 -0.14584967782E+02  0.37189212727E+02  0.51100000000E-03 0. -1.
        -11    1    3    3    0    0 -0.85862768029E+01  0.23571439580E+01 -0.45899493302E-01  0.89040655883E+01  0.51100000000E-03 0.  1.
        -12    1    3    3    0    0  0.41178892296E+02  0.71463467824E+01  0.13480054909E+02  0.43914500149E+02  0.00000000000E+00 0.  1.
</event>
<event>
 7    1  0.1978681E-015  0.9000785E+02  0.7816164E-02  0.1186339E+00
        -11   -1    0    0    0    0  0.00000000000E+00  0.00000000000E+00  0.45593999997E+02  0.45594000000E+02  0.51100000000E-03 0. -1.
         11   -1    0    0    0    0 -0.00000000000E+00 -0.00000000000E+00 -0.45593999997E+02  0.45594000000E+02  0.51100000000E-03 0.  1.
    9900012    2    1    2    0    0 -0.62237282194E-01 -0.11754602344E+01 -0.84642814173E-01  0.90007853972E+02  0.90000116844E+02 0.  0.
        -12    1    1    2    0    0  0.62237282194E-01  0.11754602344E+01  0.84642814173E-01  0.11801460282E+01  0.00000000000E+00 0.  1.
         11    1    3    3    0    0 -0.10681729773E+02 -0.20103679153E+02  0.11410841289E+02  0.25464967419E+02  0.51100000000E-03 0. -1.
        -11    1    3    3    0    0  0.17377456993E+02 -0.12624790737E+02  0.12021014005E+02  0.24614348065E+02  0.51100000000E-03 0.  1.
         12    1    3    3    0    0 -0.67579645014E+01  0.31553009656E+02 -0.23516498109E+02  0.39928538488E+02  0.00000000000E+00 0. -1.
</event>
<event>
 7    1  0.1978681E-015  0.9000779E+02  0.7816164E-02  0.1186339E+00
        -11   -1    0    0    0    0  0.00000000000E+00  0.00000000000E+00  0.45593999997E+02  0.45594000000E+02  0.51100000000E-03 0. -1.
         11   -1    0    0    0    0 -0.00000000000E+00 -0.00000000000E+00 -0.45593999997E+02  0.45594000000E+02  0.51100000000E-03 0.  1.
    9900012    2    1    2    0    0  0.52486889680E+00  0.96133144792E+00  0.43960995801E+00  0.90007787127E+02  0.90000049117E+02 0.  0.
        -12    1    1    2    0    0 -0.52486889680E+00 -0.96133144792E+00 -0.43960995801E+00  0.11802128735E+01  0.00000000000E+00 0.  1.
         11    1    3    3    0    0 -0.28496089549E+02 -0.19487697916E+02  0.11360764629E+02  0.36343699081E+02  0.51100000000E-03 0. -1.
        -11    1    3    3    0    0 -0.84565256847E+01 -0.20096921262E+01 -0.28606224711E+00  0.86967534729E+01  0.51100000000E-03 0.  1.
        -12    1    3    3    0    0  0.37477484130E+02  0.22458721490E+02 -0.10635092424E+02  0.44967334573E+02  0.00000000000E+00 0.  1.
</event>
<event>
 7    1  0.1978681E-015  0.9000769E+02  0.7816164E-02  0.1186339E+00
        -11   -1    0    0    0    0  0.00000000000E+00  0.00000000000E+00  0.45593999997E+02  0.45594000000E+02  0.51100000000E-03 0. -1.
         11   -1    0    0    0    0 -0.00000000000E+00 -0.00000000000E+00 -0.45593999997E+02  0.45594000000E+02  0.51100000000E-03 0.  1.
    9900012    2    1    2    0    0 -0.54071910713E+00  0.93870646686E+00  0.46860791111E+00  0.90007686331E+02  0.89999946990E+02 0.  0.
        -12    1    1    2    0    0  0.54071910713E+00 -0.93870646686E+00 -0.46860791111E+00  0.11803136694E+01  0.00000000000E+00 0.  1.
         11    1    3    3    0    0  0.73654433172E+01  0.13371290489E+01 -0.23360238406E+01  0.78418541811E+01  0.51100000000E-03 0. -1.
        -11    1    3    3    0    0  0.35305746130E+02 -0.72424009260E+01  0.10941306535E+02  0.37665106796E+02  0.51100000000E-03 0.  1.
         12    1    3    3    0    0 -0.43211908555E+02  0.68439783439E+01 -0.81366747830E+01  0.44500725354E+02  0.00000000000E+00 0. -1.
</event>
<event>
 7    1  0.1978681E-015  0.9000776E+02  0.7816164E-02  0.1186339E+00
        -11   -1    0    0    0    0  0.00000000000E+00  0.00000000000E+00  0.45593999997E+02  0.45594000000E+02  0.51100000000E-03 0. -1.
         11   -1    0    0    0    0 -0.00000000000E+00 -0.00000000000E+00 -0.45593999997E+02  0.45594000000E+02  0.51100000000E-03 0.  1.
    9900012    2    1    2    0    0  0.79560263678E+00 -0.79652053181E+00 -0.35429740778E+00  0.90007764783E+02  0.90000026479E+02 0.  0.
        -12    1    1    2    0    0 -0.79560263678E+00  0.79652053181E+00  0.35429740778E+00  0.11802352166E+01  0.00000000000E+00 0.  1.
         11    1    3    3    0    0 -0.56725976821E+01 -0.33917843034E+02 -0.20143511147E+02  0.39854227908E+02  0.51100000000E-03 0. -1.
        -11    1    3    3    0    0  0.67812566208E+01 -0.46828819111E+01  0.27734561624E+01  0.86952218889E+01  0.51100000000E-03 0.  1.
        -12    1    3    3    0    0 -0.31305630194E+00  0.37804204414E+02  0.17015757577E+02  0.41458314986E+02  0.00000000000E+00 0.  1.
</event>
<event>
 7    1  0.1978681E-015  0.9000776E+02  0.7816164E-02  0.1186339E+00
        -11   -1    0    0    0    0  0.00000000000E+00  0.00000000000E+00  0.45593999997E+02  0.45594000000E+02  0.51100000000E-03 0.  1.
         11   -1    0    0    0    0 -0.00000000000E+00 -0.00000000000E+00 -0.45593999997E+02  0.45594000000E+02  0.51100000000E-03 0. -1.
    9900012    2    1    2    0    0  0.96948503132E+00  0.52731067476E+00 -0.41834598764E+00  0.90007758017E+02  0.90000019623E+02 0.  0.
        -12    1    1    2    0    0 -0.96948503132E+00 -0.52731067476E+00  0.41834598764E+00  0.11802419833E+01  0.00000000000E+00 0.  1.
         11    1    3    3    0    0 -0.75063860066E+01 -0.50600000294E+01 -0.39210654236E+02  0.40242077942E+02  0.51100000000E-03 0. -1.
        -11    1    3    3    0    0  0.76466644736E+01 -0.43294241446E+01 -0.91093014833E+00  0.88343185924E+01  0.51100000000E-03 0.  1.
        -12    1    3    3    0    0  0.82920656436E+00  0.99167348488E+01  0.39703238397E+02  0.40931361482E+02  0.00000000000E+00 0.  1.
</event>
<event>
 7    1  0.1978681E-015  0.9000758E+02  0.7816164E-02  0.1186339E+00
        -11   -1    0    0    0    0  0.00000000000E+00  0.00000000000E+00  0.45593999997E+02  0.45594000000E+02  0.51100000000E-03 0. -1.
         11   -1    0    0    0    0 -0.00000000000E+00 -0.00000000000E+00 -0.45593999997E+02  0.45594000000E+02  0.51100000000E-03 0.  1.
    9900012    2    1    2    0    0 -0.11767398459E+01 -0.92610933938E-01  0.99831677821E-02  0.90007579264E+02  0.89999838510E+02 0.  0.
        -12    1    1    2    0    0  0.11767398459E+01  0.92610933938E-01 -0.99831677821E-02  0.11804207359E+01  0.00000000000E+00 0.  1.
         11    1    3    3    0    0 -0.86768876790E+01 -0.19851620086E+01 -0.37522896837E+01  0.96596545552E+01  0.51100000000E-03 0. -1.
        -11    1    3    3    0    0 -0.32454004952E+02  0.14330634200E+02 -0.89974907998E+01  0.36600332717E+02  0.51100000000E-03 0.  1.
         12    1    3    3    0    0  0.39954152786E+02 -0.12438083126E+02  0.12759763651E+02  0.43747591992E+02  0.00000000000E+00 0. -1.
</event>
<event>
 7    1  0.1978681E-015  0.9000752E+02  0.7816164E-02  0.1186339E+00
        -11   -1    0    0    0    0  0.00000000000E+00  0.00000000000E+00  0.45593999997E+02  0.45594000000E+02  0.51100000000E-03 0. -1.
         11   -1    0    0    0    0 -0.00000000000E+00 -0.00000000000E+00 -0.45593999997E+02  0.45594000000E+02  0.51100000000E-03 0.  1.
    9900012    2    1    2    0    0  0.76535886301E+00 -0.89769907825E+00 -0.43613278587E-01  0.90007517072E+02  0.89999775497E+02 0.  0.
        -12    1    1    2    0    0 -0.76535886301E+00  0.89769907825E+00  0.43613278587E-01  0.11804829276E+01  0.00000000000E+00 0.  1.
         11    1    3    3    0    0  0.22371850731E+02 -0.24514140177E+02 -0.32770701628E+01  0.33349392242E+02  0.51100000000E-03 0. -1.
        -11    1    3    3    0    0  0.10897420993E+02  0.11865655581E+01  0.11949607809E+02  0.16215882621E+02  0.51100000000E-03 0.  1.
        -12    1    3    3    0    0 -0.32503912861E+02  0.22429875541E+02 -0.87161509246E+01  0.40442242210E+02  0.00000000000E+00 0.  1.
</event>
<event>
 7    1  0.1978681E-015  0.9000781E+02  0.7816164E-02  0.1186339E+00
        -11   -1    0    0    0    0  0.00000000000E+00  0.00000000000E+00  0.45593999997E+02  0.45594000000E+02  0.51100000000E-03 0.  1.
         11   -1    0    0    0    0 -0.00000000000E+00 -0.00000000000E+00 -0.45593999997E+02  0.45594000000E+02  0.51100000000E-03 0. -1.
    9900012    2    1    2    0    0  0.38299078234E-01  0.43025165973E+00 -0.10983040317E+01  0.90007807195E+02  0.90000069450E+02 0.  0.
        -12    1    1    2    0    0 -0.38299078234E-01 -0.43025165973E+00  0.10983040317E+01  0.11801928046E+01  0.00000000000E+00 0.  1.
         11    1    3    3    0    0 -0.14500913599E+02  0.34220460441E+02 -0.66362182616E+01  0.37753884582E+02  0.51100000000E-03 0. -1.
        -11    1    3    3    0    0 -0.88618391536E+01  0.20659348976E+01  0.17863765569E+01  0.92731559703E+01  0.51100000000E-03 0.  1.
        -12    1    3    3    0    0  0.23401051831E+02 -0.35856143679E+02  0.37515376730E+01  0.42980766643E+02  0.00000000000E+00 0.  1.
</event>
<event>
 7    1  0.1978681E-015  0.9000774E+02  0.7816164E-02  0.1186339E+00
        -11   -1    0    0    0    0  0.00000000000E+00  0.00000000000E+00  0.45593999997E+02  0.45594000000E+02  0.51100000000E-03 0. -1.
         11   -1    0    0    0    0 -0.00000000000E+00 -0.00000000000E+00 -0.45593999997E+02  0.45594000000E+02  0.51100000000E-03 0.  1.
    9900012    2    1    2    0    0  0.14804462243E+00 -0.91466370853E+00  0.73109277854E+00  0.90007735809E+02  0.89999997122E+02 0.  0.
        -12    1    1    2    0    0 -0.14804462243E+00  0.91466370853E+00 -0.73109277854E+00  0.11802641911E+01  0.00000000000E+00 0.  1.
         11    1    3    3    0    0  0.19942707332E+02  0.18460605711E+02  0.47114001006E+01  0.27580841722E+02  0.51100000000E-03 0. -1.
        -11    1    3    3    0    0 -0.10163570060E+01  0.12770191124E+02  0.15742958824E+02  0.20296588770E+02  0.51100000000E-03 0.  1.
        -12    1    3    3    0    0 -0.18778305703E+02 -0.32145460544E+02 -0.19723266146E+02  0.42130305317E+02  0.00000000000E+00 0.  1.
</event>
<event>
 7    1  0.1978681E-015  0.9000775E+02  0.7816164E-02  0.1186339E+00
        -11   -1    0    0    0    0  0.00000000000E+00  0.00000000000E+00  0.45593999997E+02  0.45594000000E+02  0.51100000000E-03 0. -1.
         11   -1    0    0    0    0 -0.00000000000E+00 -0.00000000000E+00 -0.45593999997E+02  0.45594000000E+02  0.51100000000E-03 0.  1.
    9900012    2    1    2    0    0  0.25420027314E+00 -0.66482070413E+00  0.94148191681E+00  0.90007748947E+02  0.90000010433E+02 0.  0.
        -12    1    1    2    0    0 -0.25420027314E+00  0.66482070413E+00 -0.94148191681E+00  0.11802510526E+01  0.00000000000E+00 0.  1.
         11    1    3    3    0    0  0.16452507566E+01  0.31300772560E+01 -0.70175023223E+01  0.78580896397E+01  0.51100000000E-03 0. -1.
        -11    1    3    3    0    0  0.70829486254E+01  0.32945284983E+02 -0.16178584176E+02  0.37380563800E+02  0.51100000000E-03 0.  1.
         12    1    3    3    0    0 -0.84739991089E+01 -0.36740182943E+02  0.24137568415E+02  0.44769095507E+02  0.00000000000E+00 0. -1.
</event>
<event>
 7    1  0.1978681E-015  0.9000771E+02  0.7816164E-02  0.1186339E+00
        -11   -1    0    0    0    0  0.00000000000E+00  0.00000000000E+00  0.45593999997E+02  0.45594000000E+02  0.51100000000E-03 0.  1.
         11   -1    0    0    0    0 -0.00000000000E+00 -0.00000000000E+00 -0.45593999997E+02  0.45594000000E+02  0.51100000000E-03 0. -1.
    9900012    2    1    2    0    0 -0.96186053965E+00  0.67328706425E+00 -0.12078034888E+00  0.90007712297E+02  0.89999973300E+02 0.  0.
        -12    1    1    2    0    0  0.96186053965E+00 -0.67328706425E+00  0.12078034888E+00  0.11802877028E+01  0.00000000000E+00 0.  1.
         11    1    3    3    0    0  0.33845256037E+02 -0.54750875528E+01 -0.17849070484E+02  0.38653166200E+02  0.51100000000E-03 0. -1.
        -11    1    3    3    0    0 -0.18963757764E+01 -0.74414813994E+01 -0.49528895664E+01  0.91379976921E+01  0.51100000000E-03 0.  1.
        -12    1    3    3    0    0 -0.32910740800E+02  0.13589856016E+02  0.22681179701E+02  0.42216548405E+02  0.00000000000E+00 0.  1.
</event>
<event>
 7    1  0.1978681E-015  0.9000765E+02  0.7816164E-02  0.1186339E+00
        -11   -1    0    0    0    0  0.00000000000E+00  0.00000000000E+00  0.45593999997E+02  0.45594000000E+02  0.51100000000E-03 0. -1.
         11   -1    0    0    0    0 -0.00000000000E+00 -0.00000000000E+00 -0.45593999997E+02  0.45594000000E+02  0.51100000000E-03 0.  1.
    9900012    2    1    2    0    0  0.57165704153E-02 -0.37771262037E-01  0.11797326475E+01  0.90007649007E+02  0.89999909174E+02 0.  0.
        -12    1    1    2    0    0 -0.57165704153E-02  0.37771262037E-01 -0.11797326475E+01  0.11803509931E+01  0.00000000000E+00 0.  1.
         11    1    3    3    0    0  0.10771786003E+02 -0.89184113581E+00  0.76712394028E+01  0.13254232099E+02  0.51100000000E-03 0. -1.
        -11    1    3    3    0    0  0.28879124543E+02 -0.16427365018E+02 -0.23441763814E+01  0.33307016062E+02  0.51100000000E-03 0.  1.
         12    1    3    3    0    0 -0.39645193975E+02  0.17281434892E+02 -0.41473303739E+01  0.43446400846E+02  0.00000000000E+00 0. -1.
</event>
<event>
 7    1  0.3242952E-015  0.9000771E+02  0.7816164E-02  0.1186339E+00
        -11   -1    0    0    0    0  0.00000000000E+00  0.00000000000E+00  0.45593999997E+02  0.45594000000E+02  0.51100000000E-03 0. -1.
         11   -1    0    0    0    0 -0.00000000000E+00 -0.00000000000E+00 -0.45593999997E+02  0.45594000000E+02  0.51100000000E-03 0.  1.
    9900012    2    1    2    0    0  0.13795884990E+00  0.16730043287E+00  0.11602035657E+01  0.90007705802E+02  0.89999966719E+02 0.  0.
        -12    1    1    2    0    0 -0.13795884990E+00 -0.16730043287E+00 -0.11602035657E+01  0.11802941977E+01  0.00000000000E+00 0.  1.
         11    1    3    3    0    0  0.38916358140E+01 -0.16466578432E+01 -0.81109846398E+01  0.91457303399E+01  0.51100000000E-03 0. -1.
        -11    1    3    3    0    0 -0.58838749481E+01 -0.16550547168E+02 -0.31515984495E+02  0.36080436179E+02  0.51100000000E-03 0.  1.
         12    1    3    3    0    0  0.21301979840E+01  0.18364505444E+02  0.40787172701E+02  0.44781539283E+02  0.00000000000E+00 0. -1.
</event>
<event>
 7    1  0.1978681E-015  0.9000771E+02  0.7816164E-02  0.1186339E+00
        -11   -1    0    0    0    0  0.00000000000E+00  0.00000000000E+00  0.45593999997E+02  0.45594000000E+02  0.51100000000E-03 0.  1.
         11   -1    0    0    0    0 -0.00000000000E+00 -0.00000000000E+00 -0.45593999997E+02  0.45594000000E+02  0.51100000000E-03 0. -1.
    9900012    2    1    2    0    0  0.86827532679E+00  0.74188140066E-01 -0.79603332942E+00  0.90007714024E+02  0.89999975049E+02 0.  0.
        -12    1    1    2    0    0 -0.86827532679E+00 -0.74188140066E-01  0.79603332942E+00  0.11802859758E+01  0.00000000000E+00 0.  1.
         11    1    3    3    0    0  0.41346694540E+01 -0.73795888215E+01  0.32169774578E+01  0.90500147455E+01  0.51100000000E-03 0. -1.
        -11    1    3    3    0    0 -0.14173409153E+02  0.40572521134E+02  0.86911786894E+01  0.43846910786E+02  0.51100000000E-03 0.  1.
         12    1    3    3    0    0  0.10907015026E+02 -0.33118744172E+02 -0.12704189477E+02  0.37110788493E+02  0.00000000000E+00 0. -1.
</event>
<event>
 7    1  0.1978681E-015  0.9000787E+02  0.7816164E-02  0.1186339E+00
        -11   -1    0    0    0    0  0.00000000000E+00  0.00000000000E+00  0.45593999997E+02  0.45594000000E+02  0.51100000000E-03 0.  1.
         11   -1    0    0    0    0 -0.00000000000E+00 -0.00000000000E+00 -0.45593999997E+02  0.45594000000E+02  0.51100000000E-03 0. -1.
    9900012    2    1    2    0    0  0.19536620655E+00  0.90755034299E+00 -0.72862253087E+00  0.90007870188E+02  0.90000133275E+02 0.  0.
        -12    1    1    2    0    0 -0.19536620655E+00 -0.90755034299E+00  0.72862253087E+00  0.11801298116E+01  0.00000000000E+00 0.  1.
         11    1    3    3    0    0  0.32131554064E+01 -0.19521016581E+02  0.60281156857E+01  0.20681698069E+02  0.51100000000E-03 0. -1.
        -11    1    3    3    0    0 -0.17363843388E+01 -0.23149289701E+02 -0.10680175107E+02  0.25553293033E+02  0.51100000000E-03 0.  1.
        -12    1    3    3    0    0 -0.12814048610E+01  0.43577856625E+02  0.39234368908E+01  0.43772879087E+02  0.00000000000E+00 0.  1.
</event>
<event>
 7    1  0.1978681E-015  0.9000765E+02  0.7816164E-02  0.1186339E+00
        -11   -1    0    0    0    0  0.00000000000E+00  0.00000000000E+00  0.45593999997E+02  0.45594000000E+02  0.51100000000E-03 0.  1.
         11   -1    0    0    0    0 -0.00000000000E+00 -0.00000000000E+00 -0.45593999997E+02  0.45594000000E+02  0.51100000000E-03 0. -1.
    9900012    2    1    2    0    0 -0.79532918418E+00 -0.77240894044E+00 -0.40505127776E+00  0.90007648095E+02  0.89999908250E+02 0.  0.
        -12    1    1    2    0    0  0.79532918418E+00  0.77240894044E+00  0.40505127776E+00  0.11803519052E+01  0.00000000000E+00 0.  1.
         11    1    3    3    0    0 -0.20275130813E+01  0.29992397092E+01  0.79096615135E+01  0.86987926546E+01  0.51100000000E-03 0. -1.
        -11    1    3    3    0    0  0.13986103592E+02 -0.23843492862E+01  0.34133276347E+02  0.36964533943E+02  0.51100000000E-03 0.  1.
         12    1    3    3    0    0 -0.12753919695E+02 -0.13872993635E+01 -0.42447989138E+02  0.44344321497E+02  0.00000000000E+00 0. -1.
</event>
<event>
 7    1  0.1978681E-015  0.9000787E+02  0.7816164E-02  0.1186339E+00
        -11   -1    0    0    0    0  0.00000000000E+00  0.00000000000E+00  0.45593999997E+02  0.45594000000E+02  0.51100000000E-03 0. -1.
         11   -1    0    0    0    0 -0.00000000000E+00 -0.00000000000E+00 -0.45593999997E+02  0.45594000000E+02  0.51100000000E-03 0.  1.
    9900012    2    1    2    0    0 -0.89833588301E+00 -0.47903462386E+00  0.59685127292E+00  0.90007867392E+02  0.90000130442E+02 0.  0.
        -12    1    1    2    0    0  0.89833588301E+00  0.47903462386E+00 -0.59685127292E+00  0.11801326076E+01  0.00000000000E+00 0.  1.
         11    1    3    3    0    0  0.22332045815E+01  0.45344141087E+01  0.71879847067E+01  0.87872201757E+01  0.51100000000E-03 0. -1.
        -11    1    3    3    0    0 -0.15619961149E+02 -0.38354288204E+02 -0.15998477251E+02  0.44395786788E+02  0.51100000000E-03 0.  1.
         12    1    3    3    0    0  0.12488420684E+02  0.33340839472E+02  0.94073438169E+01  0.36824860428E+02  0.00000000000E+00 0. -1.
</event>
<event>
 7    1  0.1978681E-015  0.9000777E+02  0.7816164E-02  0.1186339E+00
        -11   -1    0    0    0    0  0.00000000000E+00  0.00000000000E+00  0.45593999997E+02  0.45594000000E+02  0.51100000000E-03 0. -1.
         11   -1    0    0    0    0 -0.00000000000E+00 -0.00000000000E+00 -0.45593999997E+02  0.45594000000E+02  0.51100000000E-03 0.  1.
    9900012    2    1    2    0    0 -0.11848152086E+00  0.99208353279E+00  0.62823816468E+00  0.90007766634E+02  0.90000028353E+02 0.  0.
        -12    1    1    2    0    0  0.11848152086E+00 -0.99208353279E+00 -0.62823816468E+00  0.11802333661E+01  0.00000000000E+00 0.  1.
         11    1    3    3    0    0  0.10033450758E+02 -0.78332092328E+00 -0.34332467985E-01  0.10064040181E+02  0.51100000000E-03 0. -1.
        -11    1    3    3    0    0 -0.38195394824E+01 -0.33208059843E+02 -0.19871747608E+02  0.38887664800E+02  0.51100000000E-03 0.  1.
         12    1    3    3    0    0 -0.63323927961E+01  0.34983464299E+02  0.20534318241E+02  0.41056061653E+02  0.00000000000E+00 0. -1.
</event>
<event>
 7    1  0.1978681E-015  0.9000772E+02  0.7816164E-02  0.1186339E+00
        -11   -1    0    0    0    0  0.00000000000E+00  0.00000000000E+00  0.45593999997E+02  0.45594000000E+02  0.51100000000E-03 0.  1.
         11   -1    0    0    0    0 -0.00000000000E+00 -0.00000000000E+00 -0.45593999997E+02  0.45594000000E+02  0.51100000000E-03 0. -1.
    9900012    2    1    2    0    0 -0.85318964621E+00 -0.80010618623E+00 -0.15798229621E+00  0.90007719996E+02  0.89999981100E+02 0.  0.
        -12    1    1    2    0    0  0.85318964621E+00  0.80010618623E+00  0.15798229621E+00  0.11802800039E+01  0.00000000000E+00 0.  1.
         11    1    3    3    0    0 -0.14876385320E+02  0.47904435878E+01 -0.92869533865E+01  0.18179733040E+02  0.51100000000E-03 0. -1.
        -11    1    3    3    0    0  0.14588101811E+02  0.16598880822E+02 -0.23568591603E+02  0.32308111511E+02  0.51100000000E-03 0.  1.
        -12    1    3    3    0    0 -0.56490613740E+00 -0.22189430596E+02  0.32697562693E+02  0.39519875445E+02  0.00000000000E+00 0.  1.
</event>
<event>
 7    1  0.1978681E-015  0.9000772E+02  0.7816164E-02  0.1186339E+00
        -11   -1    0    0    0    0  0.00000000000E+00  0.00000000000E+00  0.45593999997E+02  0.45594000000E+02  0.51100000000E-03 0.  1.
         11   -1    0    0    0    0 -0.00000000000E+00 -0.00000000000E+00 -0.45593999997E+02  0.45594000000E+02  0.51100000000E-03 0. -1.
    9900012    2    1    2    0    0 -0.65330744864E+00  0.71371188030E+00  0.67592259773E+00  0.90007717564E+02  0.89999978636E+02 0.  0.
        -12    1    1    2    0    0  0.65330744864E+00 -0.71371188030E+00 -0.67592259773E+00  0.11802824360E+01  0.00000000000E+00 0.  1.
         11    1    3    3    0    0  0.71081258249E+01 -0.56623122261E+01 -0.18849481849E+01  0.92811778568E+01  0.51100000000E-03 0. -1.
        -11    1    3    3    0    0  0.35589557946E+02  0.85188975613E+01  0.64108011453E+01  0.37152208844E+02  0.51100000000E-03 0.  1.
         12    1    3    3    0    0 -0.43350991219E+02 -0.21428734549E+01 -0.38499303626E+01  0.43574330863E+02  0.00000000000E+00 0. -1.
</event>
<event>
 7    1  0.1978681E-015  0.9000773E+02  0.7816164E-02  0.1186339E+00
        -11   -1    0    0    0    0  0.00000000000E+00  0.00000000000E+00  0.45593999997E+02  0.45594000000E+02  0.51100000000E-03 0.  1.
         11   -1    0    0    0    0 -0.00000000000E+00 -0.00000000000E+00 -0.45593999997E+02  0.45594000000E+02  0.51100000000E-03 0. -1.
    9900012    2    1    2    0    0 -0.83648132111E+00 -0.56826144816E+00 -0.60861616471E+00  0.90007730662E+02  0.89999991907E+02 0.  0.
        -12    1    1    2    0    0  0.83648132111E+00  0.56826144816E+00  0.60861616471E+00  0.11802693379E+01  0.00000000000E+00 0.  1.
         11    1    3    3    0    0  0.19396761123E+02  0.22598662161E+01 -0.30298134056E+02  0.36046057550E+02  0.51100000000E-03 0. -1.
        -11    1    3    3    0    0  0.91316173744E+01  0.28791271307E+01 -0.26234416015E+01  0.99276510315E+01  0.51100000000E-03 0.  1.
        -12    1    3    3    0    0 -0.29364859818E+02 -0.57072547950E+01  0.32312959493E+02  0.44034022081E+02  0.00000000000E+00 0.  1.
</event>
<event>
 7    1  0.1978681E-015  0.9000782E+02  0.7816164E-02  0.1186339E+00
        -11   -1    0    0    0    0  0.00000000000E+00  0.00000000000E+00  0.45593999997E+02  0.45594000000E+02  0.51100000000E-03 0.  1.
         11   -1    0    0    0    0 -0.00000000000E+00 -0.00000000000E+00 -0.45593999997E+02  0.45594000000E+02  0.51100000000E-03 0. -1.
    9900012    2    1    2    0    0  0.84297553220E+00 -0.61466762657E+00 -0.55173341263E+00  0.90007816202E+02  0.90000078576E+02 0.  0.
        -12    1    1    2    0    0 -0.84297553220E+00  0.61466762657E+00  0.55173341263E+00  0.11801837983E+01  0.00000000000E+00 0.  1.
         11    1    3    3    0    0  0.71198026337E+01 -0.95084454493E-01 -0.97610282394E+00  0.71870305120E+01  0.51100000000E-03 0. -1.
        -11    1    3    3    0    0  0.56222449150E+01  0.39731469124E+02  0.56523246075E+01  0.40523425946E+02  0.51100000000E-03 0.  1.
         12    1    3    3    0    0 -0.11899072016E+02 -0.40251052296E+02 -0.52279551962E+01  0.42297359744E+02  0.00000000000E+00 0. -1.
</event>
<event>
 7    1  0.1978681E-015  0.9000773E+02  0.7816164E-02  0.1186339E+00
        -11   -1    0    0    0    0  0.00000000000E+00  0.00000000000E+00  0.45593999997E+02  0.45594000000E+02  0.51100000000E-03 0.  1.
         11   -1    0    0    0    0 -0.00000000000E+00 -0.00000000000E+00 -0.45593999997E+02  0.45594000000E+02  0.51100000000E-03 0. -1.
    9900012    2    1    2    0    0 -0.66283338793E+00 -0.45077790640E+00 -0.86630225960E+00  0.90007733748E+02  0.89999995033E+02 0.  0.
        -12    1    1    2    0    0  0.66283338793E+00  0.45077790640E+00  0.86630225960E+00  0.11802662522E+01  0.00000000000E+00 0.  1.
         11    1    3    3    0    0 -0.58085659432E+01 -0.24527008121E+01 -0.74288698774E+01  0.97438846209E+01  0.51100000000E-03 0. -1.
        -11    1    3    3    0    0  0.95616867692E+01 -0.30915873070E+02  0.26237606528E+02  0.41660881629E+02  0.51100000000E-03 0.  1.
         12    1    3    3    0    0 -0.44159542140E+01  0.32917795975E+02 -0.19675038910E+02  0.38602967498E+02  0.00000000000E+00 0. -1.
</event>
<event>
 7    1  0.1978681E-015  0.9000792E+02  0.7816164E-02  0.1186339E+00
        -11   -1    0    0    0    0  0.00000000000E+00  0.00000000000E+00  0.45593999997E+02  0.45594000000E+02  0.51100000000E-03 0.  1.
         11   -1    0    0    0    0 -0.00000000000E+00 -0.00000000000E+00 -0.45593999997E+02  0.45594000000E+02  0.51100000000E-03 0. -1.
    9900012    2    1    2    0    0  0.42648609048E+00  0.57547741065E+00 -0.93783201909E+00  0.90007917998E+02  0.90000181715E+02 0.  0.
        -12    1    1    2    0    0 -0.42648609048E+00 -0.57547741065E+00  0.93783201909E+00  0.11800820021E+01  0.00000000000E+00 0.  1.
         11    1    3    3    0    0 -0.31508716227E+02  0.89550209604E+01 -0.12561987623E+02  0.35082689919E+02  0.51100000000E-03 0. -1.
        -11    1    3    3    0    0 -0.44251731523E+01 -0.96187962962E+01 -0.82926337223E+01  0.13448835412E+02  0.51100000000E-03 0.  1.
        -12    1    3    3    0    0  0.36360375469E+02  0.12392527465E+01  0.19916789326E+02  0.41476392667E+02  0.00000000000E+00 0.  1.
</event>
<event>
 7    1  0.1978681E-015  0.9000775E+02  0.7816164E-02  0.1186339E+00
        -11   -1    0    0    0    0  0.00000000000E+00  0.00000000000E+00  0.45593999997E+02  0.45594000000E+02  0.51100000000E-03 0. -1.
         11   -1    0    0    0    0 -0.00000000000E+00 -0.00000000000E+00 -0.45593999997E+02  0.45594000000E+02  0.51100000000E-03 0.  1.
    9900012    2    1    2    0    0 -0.25158495527E+00  0.10474165421E+01  0.48229875586E+00  0.90007750665E+02  0.90000012174E+02 0.  0.
        -12    1    1    2    0    0  0.25158495527E+00 -0.10474165421E+01 -0.48229875586E+00  0.11802493348E+01  0.00000000000E+00 0.  1.
         11    1    3    3    0    0 -0.60397698166E+01 -0.81649336388E+01  0.35040919368E+01  0.10743538585E+02  0.51100000000E-03 0. -1.
        -11    1    3    3    0    0 -0.99189665675E+01  0.28143994618E+02 -0.30303627413E+02  0.42529756236E+02  0.51100000000E-03 0.  1.
         12    1    3    3    0    0  0.15707151429E+02 -0.18931644437E+02  0.27281834232E+02  0.36734455844E+02  0.00000000000E+00 0. -1.
</event>
<event>
 7    1  0.1978681E-015  0.9000744E+02  0.7816164E-02  0.1186340E+00
        -11   -1    0    0    0    0  0.00000000000E+00  0.00000000000E+00  0.45593999997E+02  0.45594000000E+02  0.51100000000E-03 0.  1.
         11   -1    0    0    0    0 -0.00000000000E+00 -0.00000000000E+00 -0.45593999997E+02  0.45594000000E+02  0.51100000000E-03 0. -1.
    9900012    2    1    2    0    0  0.39708133535E+00  0.59106716670E+00 -0.94164634330E+00  0.90007435805E+02  0.89999693157E+02 0.  0.
        -12    1    1    2    0    0 -0.39708133535E+00 -0.59106716670E+00  0.94164634330E+00  0.11805641949E+01  0.00000000000E+00 0.  1.
         11    1    3    3    0    0  0.28850094092E+02  0.96294991681E+01 -0.22631681577E+02  0.37911056364E+02  0.51100000000E-03 0. -1.
        -11    1    3    3    0    0  0.63745565508E+01  0.61381570039E+01  0.11941424150E+01  0.89296091176E+01  0.51100000000E-03 0.  1.
        -12    1    3    3    0    0 -0.34827569308E+02 -0.15176589005E+02  0.20495892819E+02  0.43166770324E+02  0.00000000000E+00 0.  1.
</event>
<event>
 7    1  0.1978681E-015  0.9000778E+02  0.7816164E-02  0.1186339E+00
        -11   -1    0    0    0    0  0.00000000000E+00  0.00000000000E+00  0.45593999997E+02  0.45594000000E+02  0.51100000000E-03 0.  1.
         11   -1    0    0    0    0 -0.00000000000E+00 -0.00000000000E+00 -0.45593999997E+02  0.45594000000E+02  0.51100000000E-03 0. -1.
    9900012    2    1    2    0    0  0.47155892069E+00 -0.18486858864E+00 -0.10660068012E+01  0.90007781922E+02  0.90000043844E+02 0.  0.
        -12    1    1    2    0    0 -0.47155892069E+00  0.18486858864E+00  0.10660068012E+01  0.11802180777E+01  0.00000000000E+00 0.  1.
         11    1    3    3    0    0 -0.32228523736E+02  0.61760412929E+00 -0.28047482333E+02  0.42728450037E+02  0.51100000000E-03 0. -1.
        -11    1    3    3    0    0  0.81486140807E+01  0.61297758156E+01  0.69238842857E-01  0.10197002367E+02  0.51100000000E-03 0.  1.
        -12    1    3    3    0    0  0.24551468576E+02 -0.69322485335E+01  0.26912236689E+02  0.37082329519E+02  0.00000000000E+00 0.  1.
</event>
<event>
 7    1  0.1978681E-015  0.9000789E+02  0.7816164E-02  0.1186339E+00
        -11   -1    0    0    0    0  0.00000000000E+00  0.00000000000E+00  0.45593999997E+02  0.45594000000E+02  0.51100000000E-03 0.  1.
         11   -1    0    0    0    0 -0.00000000000E+00 -0.00000000000E+00 -0.45593999997E+02  0.45594000000E+02  0.51100000000E-03 0. -1.
    9900012    2    1    2    0    0 -0.14590918367E+00  0.11198700297E+01 -0.34244499473E+00  0.90007886892E+02  0.90000150199E+02 0.  0.
        -12    1    1    2    0    0  0.14590918367E+00 -0.11198700297E+01  0.34244499473E+00  0.11801131080E+01  0.00000000000E+00 0.  1.
         11    1    3    3    0    0 -0.16388825431E+02 -0.16309780040E+02 -0.33108575121E+02  0.40382920533E+02  0.51100000000E-03 0. -1.
        -11    1    3    3    0    0  0.75350239716E+01  0.45608977331E+01 -0.40274804161E+01  0.96849869978E+01  0.51100000000E-03 0.  1.
        -12    1    3    3    0    0  0.87078922759E+01  0.12868752337E+02  0.36793610543E+02  0.39939979361E+02  0.00000000000E+00 0.  1.
</event>
<event>
 7    1  0.1978681E-015  0.9000769E+02  0.7816164E-02  0.1186339E+00
        -11   -1    0    0    0    0  0.00000000000E+00  0.00000000000E+00  0.45593999997E+02  0.45594000000E+02  0.51100000000E-03 0. -1.
         11   -1    0    0    0    0 -0.00000000000E+00 -0.00000000000E+00 -0.45593999997E+02  0.45594000000E+02  0.51100000000E-03 0.  1.
    9900012    2    1    2    0    0 -0.25701926433E+00  0.10300893012E+01 -0.51573113319E+00  0.90007694331E+02  0.89999955096E+02 0.  0.
        -12    1    1    2    0    0  0.25701926433E+00 -0.10300893012E+01  0.51573113319E+00  0.11803056690E+01  0.00000000000E+00 0.  1.
         11    1    3    3    0    0 -0.23653708223E+01 -0.85316469467E+01 -0.13803379354E+01  0.89604303371E+01  0.51100000000E-03 0. -1.
        -11    1    3    3    0    0  0.38628536711E+02  0.71335313251E+01 -0.13775435688E+02  0.41627079483E+02  0.51100000000E-03 0.  1.
         12    1    3    3    0    0 -0.36520185153E+02  0.24282049227E+01  0.14640042490E+02  0.39420184511E+02  0.00000000000E+00 0. -1.
</event>
<event>
 7    1  0.1978681E-015  0.9000797E+02  0.7816164E-02  0.1186339E+00
        -11   -1    0    0    0    0  0.00000000000E+00  0.00000000000E+00  0.45593999997E+02  0.45594000000E+02  0.51100000000E-03 0.  1.
         11   -1    0    0    0    0 -0.00000000000E+00 -0.00000000000E+00 -0.45593999997E+02  0.45594000000E+02  0.51100000000E-03 0. -1.
    9900012    2    1    2    0    0  0.71956335660E-01  0.65319249619E-01 -0.11760240342E+01  0.90007967438E+02  0.90000231808E+02 0.  0.
        -12    1    1    2    0    0 -0.71956335660E-01 -0.65319249619E-01  0.11760240342E+01  0.11800325621E+01  0.00000000000E+00 0.  1.
         11    1    3    3    0    0 -0.39279771304E+01  0.28409895385E+01  0.81695979772E+01  0.94996082690E+01  0.51100000000E-03 0. -1.
        -11    1    3    3    0    0  0.34207068891E+02 -0.18464732976E+02  0.11569482003E+02  0.40557648355E+02  0.51100000000E-03 0.  1.
         12    1    3    3    0    0 -0.30207135425E+02  0.15689062687E+02 -0.20915104014E+02  0.39950710814E+02  0.00000000000E+00 0. -1.
</event>
<event>
 7    1  0.2073577E-015  0.9000772E+02  0.7816164E-02  0.1186339E+00
        -11   -1    0    0    0    0  0.00000000000E+00  0.00000000000E+00  0.45593999997E+02  0.45594000000E+02  0.51100000000E-03 0.  1.
         11   -1    0    0    0    0 -0.00000000000E+00 -0.00000000000E+00 -0.45593999997E+02  0.45594000000E+02  0.51100000000E-03 0. -1.
    9900012    2    1    2    0    0 -0.10879598491E+01 -0.12063175192E+00  0.44141503418E+00  0.90007722115E+02  0.89999983247E+02 0.  0.
        -12    1    1    2    0    0  0.10879598491E+01  0.12063175192E+00 -0.44141503418E+00  0.11802778847E+01  0.00000000000E+00 0.  1.
         11    1    3    3    0    0  0.25750792988E+01  0.91524552621E+01 -0.96511307584E+00  0.95566685738E+01  0.51100000000E-03 0. -1.
        -11    1    3    3    0    0  0.28923990815E+02  0.20919022678E+02  0.41846628734E+01  0.35940425123E+02  0.51100000000E-03 0.  1.
         12    1    3    3    0    0 -0.32587029962E+02 -0.30192109692E+02 -0.27781347634E+01  0.44510628418E+02  0.00000000000E+00 0. -1.
</event>
<event>
 7    1  0.1978681E-015  0.9000772E+02  0.7816164E-02  0.1186339E+00
        -11   -1    0    0    0    0  0.00000000000E+00  0.00000000000E+00  0.45593999997E+02  0.45594000000E+02  0.51100000000E-03 0. -1.
         11   -1    0    0    0    0 -0.00000000000E+00 -0.00000000000E+00 -0.45593999997E+02  0.45594000000E+02  0.51100000000E-03 0.  1.
    9900012    2    1    2    0    0  0.69320870006E+00  0.73749124045E+00  0.60714925335E+00  0.90007719589E+02  0.89999980688E+02 0.  0.
        -12    1    1    2    0    0 -0.69320870006E+00 -0.73749124045E+00 -0.60714925335E+00  0.11802804105E+01  0.00000000000E+00 0.  1.
         11    1    3    3    0    0  0.17591080945E+01 -0.25275032392E+00 -0.31743088971E-01  0.17774565816E+01  0.51100000000E-03 0. -1.
        -11    1    3    3    0    0 -0.50067822295E+00  0.32077504223E+02 -0.30471507138E+02  0.44246239427E+02  0.51100000000E-03 0.  1.
         12    1    3    3    0    0 -0.56522117154E+00 -0.31087262659E+02  0.31110399481E+02  0.43984023581E+02  0.00000000000E+00 0. -1.
</event>
<event>
 7    1  0.1978681E-015  0.9000770E+02  0.7816164E-02  0.1186339E+00
        -11   -1    0    0    0    0  0.00000000000E+00  0.00000000000E+00  0.45593999997E+02  0.45594000000E+02  0.51100000000E-03 0. -1.
         11   -1    0    0    0    0 -0.00000000000E+00 -0.00000000000E+00 -0.45593999997E+02  0.45594000000E+02  0.51100000000E-03 0.  1.
    9900012    2    1    2    0    0 -0.11195526113E+01  0.34092195970E+00  0.15325601325E+00  0.90007697819E+02  0.89999958631E+02 0.  0.
        -12    1    1    2    0    0  0.11195526113E+01 -0.34092195970E+00 -0.15325601325E+00  0.11803021807E+01  0.00000000000E+00 0.  1.
         11    1    3    3    0    0  0.22981554730E+02  0.30860967992E+02 -0.77701066996E+00  0.38485775931E+02  0.51100000000E-03 0. -1.
        -11    1    3    3    0    0  0.67894726318E+01 -0.23604045678E+01 -0.57334903612E+01  0.91946375852E+01  0.51100000000E-03 0.  1.
        -12    1    3    3    0    0 -0.30890579973E+02 -0.28159641464E+02  0.66637570444E+01  0.42327284303E+02  0.00000000000E+00 0.  1.
</event>
<event>
 7    1  0.1978681E-015  0.9000772E+02  0.7816164E-02  0.1186339E+00
        -11   -1    0    0    0    0  0.00000000000E+00  0.00000000000E+00  0.45593999997E+02  0.45594000000E+02  0.51100000000E-03 0.  1.
         11   -1    0    0    0    0 -0.00000000000E+00 -0.00000000000E+00 -0.45593999997E+02  0.45594000000E+02  0.51100000000E-03 0. -1.
    9900012    2    1    2    0    0 -0.24205291313E+00 -0.21636718253E+00 -0.11347515788E+01  0.90007718035E+02  0.89999979113E+02 0.  0.
        -12    1    1    2    0    0  0.24205291313E+00  0.21636718253E+00  0.11347515788E+01  0.11802819647E+01  0.00000000000E+00 0.  1.
         11    1    3    3    0    0 -0.95794248479E+01  0.34625658400E+01 -0.86404166040E+00  0.10222588266E+02  0.51100000000E-03 0. -1.
        -11    1    3    3    0    0 -0.31482917884E+02 -0.13443834722E+02  0.11636392180E+02  0.36156831080E+02  0.51100000000E-03 0.  1.
         12    1    3    3    0    0  0.40820289819E+02  0.97649016998E+01 -0.11907102098E+02  0.43628298689E+02  0.00000000000E+00 0. -1.
</event>
<event>
 7    1  0.1978681E-015  0.9000776E+02  0.7816164E-02  0.1186339E+00
        -11   -1    0    0    0    0  0.00000000000E+00  0.00000000000E+00  0.45593999997E+02  0.45594000000E+02  0.51100000000E-03 0. -1.
         11   -1    0    0    0    0 -0.00000000000E+00 -0.00000000000E+00 -0.45593999997E+02  0.45594000000E+02  0.51100000000E-03 0.  1.
    9900012    2    1    2    0    0  0.92510495592E-01 -0.11247323607E+01  0.34550583791E+00  0.90007764702E+02  0.90000026396E+02 0.  0.
        -12    1    1    2    0    0 -0.92510495592E-01  0.11247323607E+01 -0.34550583791E+00  0.11802352981E+01  0.00000000000E+00 0.  1.
         11    1    3    3    0    0 -0.27098928381E+02  0.26010783974E+02 -0.12404138132E+02  0.39557242641E+02  0.51100000000E-03 0. -1.
        -11    1    3    3    0    0  0.80765656463E+00  0.92576733559E+00  0.11860043450E+02  0.11923505574E+02  0.51100000000E-03 0.  1.
        -12    1    3    3    0    0  0.26383782312E+02 -0.28061283670E+02  0.88960051979E+00  0.38527016487E+02  0.00000000000E+00 0.  1.
</event>
<event>
 7    1  0.1978681E-015  0.9000771E+02  0.7816164E-02  0.1186339E+00
        -11   -1    0    0    0    0  0.00000000000E+00  0.00000000000E+00  0.45593999997E+02  0.45594000000E+02  0.51100000000E-03 0. -1.
         11   -1    0    0    0    0 -0.00000000000E+00 -0.00000000000E+00 -0.45593999997E+02  0.45594000000E+02  0.51100000000E-03 0.  1.
    9900012    2    1    2    0    0 -0.10001393021E+01  0.43901880217E+00  0.44727988996E+00  0.90007713835E+02  0.89999974857E+02 0.  0.
        -12    1    1    2    0    0  0.10001393021E+01 -0.43901880217E+00 -0.44727988996E+00  0.11802861654E+01  0.00000000000E+00 0.  1.
         11    1    3    3    0    0 -0.11049925891E+02  0.17326429047E+02  0.39209609375E+02  0.44268493009E+02  0.51100000000E-03 0. -1.
        -11    1    3    3    0    0 -0.30910988000E+00  0.15194437614E+01 -0.96395465079E+01  0.97634581682E+01  0.51100000000E-03 0.  1.
        -12    1    3    3    0    0  0.10358896469E+02 -0.18406854006E+02 -0.29122782977E+02  0.35975762657E+02  0.00000000000E+00 0.  1.
</event>
<event>
 7    1  0.1978681E-015  0.9000783E+02  0.7816164E-02  0.1186339E+00
        -11   -1    0    0    0    0  0.00000000000E+00  0.00000000000E+00  0.45593999997E+02  0.45594000000E+02  0.51100000000E-03 0.  1.
         11   -1    0    0    0    0 -0.00000000000E+00 -0.00000000000E+00 -0.45593999997E+02  0.45594000000E+02  0.51100000000E-03 0. -1.
    9900012    2    1    2    0    0 -0.15593860181E+00 -0.11530974392E+01  0.19710789356E+00  0.90007829642E+02  0.90000092193E+02 0.  0.
        -12    1    1    2    0    0  0.15593860181E+00  0.11530974392E+01 -0.19710789356E+00  0.11801703578E+01  0.00000000000E+00 0.  1.
         11    1    3    3    0    0  0.50486082777E+01  0.69337424754E+01 -0.16580342806E+01  0.87358060987E+01  0.51100000000E-03 0. -1.
        -11    1    3    3    0    0  0.17617664419E+02  0.29759637863E+02 -0.90567729186E+01  0.35749731206E+02  0.51100000000E-03 0.  1.
         12    1    3    3    0    0 -0.22822211299E+02 -0.37846477777E+02  0.10911915093E+02  0.45522292338E+02  0.00000000000E+00 0. -1.
</event>
<event>
 7    1  0.1978681E-015  0.9000786E+02  0.7816164E-02  0.1186339E+00
        -11   -1    0    0    0    0  0.00000000000E+00  0.00000000000E+00  0.45593999997E+02  0.45594000000E+02  0.51100000000E-03 0.  1.
         11   -1    0    0    0    0 -0.00000000000E+00 -0.00000000000E+00 -0.45593999997E+02  0.45594000000E+02  0.51100000000E-03 0. -1.
    9900012    2    1    2    0    0  0.60607691369E+00 -0.74926353127E+00 -0.68118649586E+00  0.90007855896E+02  0.90000118794E+02 0.  0.
        -12    1    1    2    0    0 -0.60607691369E+00  0.74926353127E+00  0.68118649586E+00  0.11801441042E+01  0.00000000000E+00 0.  1.
         11    1    3    3    0    0 -0.28354454401E+02 -0.27467146216E+01 -0.13535425693E+02  0.31539297306E+02  0.51100000000E-03 0. -1.
        -11    1    3    3    0    0 -0.73072364960E+01 -0.54089081068E+01 -0.11122566949E+02  0.14365357215E+02  0.51100000000E-03 0.  1.
        -12    1    3    3    0    0  0.36267767810E+02  0.74063591972E+01  0.23976806147E+02  0.44103201375E+02  0.00000000000E+00 0.  1.
</event>
<event>
 7    1  0.1978681E-015  0.9000770E+02  0.7816164E-02  0.1186339E+00
        -11   -1    0    0    0    0  0.00000000000E+00  0.00000000000E+00  0.45593999997E+02  0.45594000000E+02  0.51100000000E-03 0.  1.
         11   -1    0    0    0    0 -0.00000000000E+00 -0.00000000000E+00 -0.45593999997E+02  0.45594000000E+02  0.51100000000E-03 0. -1.
    9900012    2    1    2    0    0 -0.82372218256E+00 -0.32768220034E+00 -0.77923228950E+00  0.90007704774E+02  0.89999965677E+02 0.  0.
        -12    1    1    2    0    0  0.82372218256E+00  0.32768220034E+00  0.77923228950E+00  0.11802952256E+01  0.00000000000E+00 0.  1.
         11    1    3    3    0    0  0.42412179110E+01 -0.29974262392E+02 -0.23611152027E+02  0.38391806882E+02  0.51100000000E-03 0. -1.
        -11    1    3    3    0    0 -0.71458331536E+00  0.11076111093E+01 -0.87379186477E+01  0.88367784990E+01  0.51100000000E-03 0.  1.
        -12    1    3    3    0    0 -0.43503567782E+01  0.28538969083E+02  0.31569838386E+02  0.42779119394E+02  0.00000000000E+00 0.  1.
</event>
<event>
 7    1  0.1978681E-015  0.9000773E+02  0.7816164E-02  0.1186339E+00
        -11   -1    0    0    0    0  0.00000000000E+00  0.00000000000E+00  0.45593999997E+02  0.45594000000E+02  0.51100000000E-03 0. -1.
         11   -1    0    0    0    0 -0.00000000000E+00 -0.00000000000E+00 -0.45593999997E+02  0.45594000000E+02  0.51100000000E-03 0.  1.
    9900012    2    1    2    0    0  0.33571247412E+00 -0.71882434216E+00  0.87385198899E+00  0.90007733675E+02  0.89999994959E+02 0.  0.
        -12    1    1    2    0    0 -0.33571247412E+00  0.71882434216E+00 -0.87385198899E+00  0.11802663254E+01  0.00000000000E+00 0.  1.
         11    1    3    3    0    0 -0.58666177749E+01 -0.11526874489E+02  0.41783821870E+02  0.43739842363E+02  0.51100000000E-03 0. -1.
        -11    1    3    3    0    0  0.38118348461E+01  0.76304929999E+01 -0.45046440527E+01  0.96460523852E+01  0.51100000000E-03 0.  1.
        -12    1    3    3    0    0  0.23904954029E+01  0.31775571472E+01 -0.36405325828E+02  0.36621838927E+02  0.00000000000E+00 0.  1.
</event>
<event>
 7    1  0.1978681E-015  0.9000772E+02  0.7816164E-02  0.1186339E+00
        -11   -1    0    0    0    0  0.00000000000E+00  0.00000000000E+00  0.45593999997E+02  0.45594000000E+02  0.51100000000E-03 0. -1.
         11   -1    0    0    0    0 -0.00000000000E+00 -0.00000000000E+00 -0.45593999997E+02  0.45594000000E+02  0.51100000000E-03 0.  1.
    9900012    2    1    2    0    0 -0.28787276444E+00  0.23466389756E+00  0.11203188595E+01  0.90007723668E+02  0.89999984820E+02 0.  0.
        -12    1    1    2    0    0  0.28787276444E+00 -0.23466389756E+00 -0.11203188595E+01  0.11802763322E+01  0.00000000000E+00 0.  1.
         11    1    3    3    0    0  0.15484218413E+01 -0.57394161653E+01 -0.84944028149E+01  0.10367901792E+02  0.51100000000E-03 0. -1.
        -11    1    3    3    0    0 -0.16621939728E+02 -0.22543487176E+02 -0.21199456443E+02  0.35127121262E+02  0.51100000000E-03 0.  1.
         12    1    3    3    0    0  0.14785645122E+02  0.28517567239E+02  0.30814178118E+02  0.44512700614E+02  0.00000000000E+00 0. -1.
</event>
<event>
 7    1  0.1978681E-015  0.9000772E+02  0.7816164E-02  0.1186339E+00
        -11   -1    0    0    0    0  0.00000000000E+00  0.00000000000E+00  0.45593999997E+02  0.45594000000E+02  0.51100000000E-03 0.  1.
         11   -1    0    0    0    0 -0.00000000000E+00 -0.00000000000E+00 -0.45593999997E+02  0.45594000000E+02  0.51100000000E-03 0. -1.
    9900012    2    1    2    0    0  0.61690956055E+00 -0.81939792125E+00 -0.58400838449E+00  0.90007722002E+02  0.89999983132E+02 0.  0.
        -12    1    1    2    0    0 -0.61690956055E+00  0.81939792125E+00  0.58400838449E+00  0.11802779979E+01  0.00000000000E+00 0.  1.
         11    1    3    3    0    0  0.41875908623E+02  0.28668995887E+01  0.47320952929E+01  0.42239833834E+02  0.51100000000E-03 0. -1.
        -11    1    3    3    0    0 -0.25996443667E+01 -0.71940162301E+01 -0.46344885718E+01  0.89437411040E+01  0.51100000000E-03 0.  1.
        -12    1    3    3    0    0 -0.38659354695E+02  0.35077187201E+01 -0.68161510558E+00  0.38824147064E+02  0.00000000000E+00 0.  1.
</event>
<event>
 7    1  0.1978681E-015  0.9000773E+02  0.7816164E-02  0.1186339E+00
        -11   -1    0    0    0    0  0.00000000000E+00  0.00000000000E+00  0.45593999997E+02  0.45594000000E+02  0.51100000000E-03 0. -1.
         11   -1    0    0    0    0 -0.00000000000E+00 -0.00000000000E+00 -0.45593999997E+02  0.45594000000E+02  0.51100000000E-03 0.  1.
    9900012    2    1    2    0    0 -0.10654430737E+01  0.45045564751E+00  0.23443830203E+00  0.90007728611E+02  0.89999989829E+02 0.  0.
        -12    1    1    2    0    0  0.10654430737E+01 -0.45045564751E+00 -0.23443830203E+00  0.11802713887E+01  0.00000000000E+00 0.  1.
         11    1    3    3    0    0 -0.20770110798E+02 -0.61701709014E+01  0.10823949117E+02  0.24220371307E+02  0.51100000000E-03 0. -1.
        -11    1    3    3    0    0 -0.21426872505E+02 -0.25000858655E+01 -0.96861120289E+01  0.23647030705E+02  0.51100000000E-03 0.  1.
         12    1    3    3    0    0  0.41131540229E+02  0.91207124144E+01 -0.90339878586E+00  0.42140326599E+02  0.00000000000E+00 0. -1.
</event>
<event>
 7    1  0.1978681E-015  0.9000774E+02  0.7816164E-02  0.1186339E+00
        -11   -1    0    0    0    0  0.00000000000E+00  0.00000000000E+00  0.45593999997E+02  0.45594000000E+02  0.51100000000E-03 0.  1.
         11   -1    0    0    0    0 -0.00000000000E+00 -0.00000000000E+00 -0.45593999997E+02  0.45594000000E+02  0.51100000000E-03 0. -1.
    9900012    2    1    2    0    0 -0.67132766779E+00 -0.54922676775E+00 -0.80042812289E+00  0.90007738987E+02  0.90000000341E+02 0.  0.
        -12    1    1    2    0    0  0.67132766779E+00  0.54922676775E+00  0.80042812289E+00  0.11802610134E+01  0.00000000000E+00 0.  1.
         11    1    3    3    0    0 -0.10118047312E+02  0.68223062432E+00 -0.12971770576E+01  0.10223648498E+02  0.51100000000E-03 0. -1.
        -11    1    3    3    0    0 -0.52399706844E+01  0.20858221878E+02  0.32028093139E+02  0.38578769590E+02  0.51100000000E-03 0.  1.
         12    1    3    3    0    0  0.14686690329E+02 -0.22089679270E+02 -0.31531344204E+02  0.41205320899E+02  0.00000000000E+00 0. -1.
</event>
<event>
 7    1  0.1978681E-015  0.9000778E+02  0.7816164E-02  0.1186339E+00
        -11   -1    0    0    0    0  0.00000000000E+00  0.00000000000E+00  0.45593999997E+02  0.45594000000E+02  0.51100000000E-03 0.  1.
         11   -1    0    0    0    0 -0.00000000000E+00 -0.00000000000E+00 -0.45593999997E+02  0.45594000000E+02  0.51100000000E-03 0. -1.
    9900012    2    1    2    0    0 -0.62831802947E+00  0.90715177050E+00 -0.41857389225E+00  0.90007783078E+02  0.90000045014E+02 0.  0.
        -12    1    1    2    0    0  0.62831802947E+00 -0.90715177050E+00  0.41857389225E+00  0.11802169225E+01  0.00000000000E+00 0.  1.
         11    1    3    3    0    0  0.32661873738E+02 -0.23228564414E+02  0.15433885104E+01  0.40109179114E+02  0.51100000000E-03 0. -1.
        -11    1    3    3    0    0 -0.61056776521E+01 -0.22438250142E+01  0.84027642288E+01  0.10626405659E+02  0.51100000000E-03 0.  1.
        -12    1    3    3    0    0 -0.27184514116E+02  0.26379541198E+02 -0.10364726631E+02  0.39272198305E+02  0.00000000000E+00 0.  1.
</event>
<event>
 7    1  0.1978681E-015  0.9000702E+02  0.7816164E-02  0.1186340E+00
        -11   -1    0    0    0    0  0.00000000000E+00  0.00000000000E+00  0.45593999997E+02  0.45594000000E+02  0.51100000000E-03 0.  1.
         11   -1    0    0    0    0 -0.00000000000E+00 -0.00000000000E+00 -0.45593999997E+02  0.45594000000E+02  0.51100000000E-03 0. -1.
    9900012    2    1    2    0    0  0.53868973499E+00  0.10049616581E+01 -0.30752673125E+00  0.90007022754E+02  0.89999274652E+02 0.  0.
        -12    1    1    2    0    0 -0.53868973499E+00 -0.10049616581E+01  0.30752673125E+00  0.11809772459E+01  0.00000000000E+00 0.  1.
         11    1    3    3    0    0 -0.67239553738E+01 -0.41724746445E+01 -0.24246784517E+01  0.82764839384E+01  0.51100000000E-03 0. -1.
        -11    1    3    3    0    0 -0.33459966430E+02  0.82828573950E+01  0.16780075572E+02  0.38337266681E+02  0.51100000000E-03 0.  1.
         12    1    3    3    0    0  0.40722611538E+02 -0.31054210924E+01 -0.14662923852E+02  0.43393272135E+02  0.00000000000E+00 0. -1.
</event>
<event>
 7    1  0.1978681E-015  0.9000767E+02  0.7816164E-02  0.1186339E+00
        -11   -1    0    0    0    0  0.00000000000E+00  0.00000000000E+00  0.45593999997E+02  0.45594000000E+02  0.51100000000E-03 0. -1.
         11   -1    0    0    0    0 -0.00000000000E+00 -0.00000000000E+00 -0.45593999997E+02  0.45594000000E+02  0.51100000000E-03 0.  1.
    9900012    2    1    2    0    0  0.95282902015E+00 -0.62419154804E+00  0.30930782975E+00  0.90007673959E+02  0.89999934455E+02 0.  0.
        -12    1    1    2    0    0 -0.95282902015E+00  0.62419154804E+00 -0.30930782975E+00  0.11803260413E+01  0.00000000000E+00 0.  1.
         11    1    3    3    0    0  0.15689012125E+01 -0.10857315937E+02  0.10335964190E+01  0.11018669711E+02  0.51100000000E-03 0. -1.
        -11    1    3    3    0    0 -0.38066303438E+02  0.44037368521E+01 -0.10720902375E+02  0.39791633589E+02  0.51100000000E-03 0.  1.
         12    1    3    3    0    0  0.37450231246E+02  0.58293875370E+01  0.99966137855E+01  0.39197370659E+02  0.00000000000E+00 0. -1.
</event>
<event>
 7    1  0.1978681E-015  0.9000777E+02  0.7816164E-02  0.1186339E+00
        -11   -1    0    0    0    0  0.00000000000E+00  0.00000000000E+00  0.45593999997E+02  0.45594000000E+02  0.51100000000E-03 0. -1.
         11   -1    0    0    0    0 -0.00000000000E+00 -0.00000000000E+00 -0.45593999997E+02  0.45594000000E+02  0.51100000000E-03 0.  1.
    9900012    2    1    2    0    0  0.80540139765E+00  0.75477649232E+00 -0.41782170583E+00  0.90007773775E+02  0.90000035589E+02 0.  0.
        -12    1    1    2    0    0 -0.80540139765E+00 -0.75477649232E+00  0.41782170583E+00  0.11802262252E+01  0.00000000000E+00 0.  1.
         11    1    3    3    0    0  0.21450844315E+01 -0.96284981742E+01  0.12125052267E+00  0.98652960554E+01  0.51100000000E-03 0. -1.
        -11    1    3    3    0    0 -0.13709772393E+02 -0.27310537656E+02 -0.19419747262E+02  0.36207042273E+02  0.51100000000E-03 0.  1.
         12    1    3    3    0    0  0.12370089359E+02  0.37693812323E+02  0.18880675034E+02  0.43935435447E+02  0.00000000000E+00 0. -1.
</event>
<event>
 7    1  0.1978681E-015  0.9000774E+02  0.7816164E-02  0.1186339E+00
        -11   -1    0    0    0    0  0.00000000000E+00  0.00000000000E+00  0.45593999997E+02  0.45594000000E+02  0.51100000000E-03 0.  1.
         11   -1    0    0    0    0 -0.00000000000E+00 -0.00000000000E+00 -0.45593999997E+02  0.45594000000E+02  0.51100000000E-03 0. -1.
    9900012    2    1    2    0    0  0.79606484776E-01 -0.58209280294E+00 -0.10236398292E+01  0.90007742518E+02  0.90000003919E+02 0.  0.
        -12    1    1    2    0    0 -0.79606484776E-01  0.58209280294E+00  0.10236398292E+01  0.11802574819E+01  0.00000000000E+00 0.  1.
         11    1    3    3    0    0 -0.34502892511E+01  0.37987754409E+01  0.84862029806E+01  0.99171988009E+01  0.51100000000E-03 0. -1.
        -11    1    3    3    0    0 -0.15035261165E+02  0.27764957336E+02 -0.24592500106E+02  0.40021781519E+02  0.51100000000E-03 0.  1.
         12    1    3    3    0    0  0.18565156901E+02 -0.32145825580E+02  0.15082657296E+02  0.40068762198E+02  0.00000000000E+00 0. -1.
</event>
<event>
 7    1  0.1978681E-015  0.9000774E+02  0.7816164E-02  0.1186339E+00
        -11   -1    0    0    0    0  0.00000000000E+00  0.00000000000E+00  0.45593999997E+02  0.45594000000E+02  0.51100000000E-03 0.  1.
         11   -1    0    0    0    0 -0.00000000000E+00 -0.00000000000E+00 -0.45593999997E+02  0.45594000000E+02  0.51100000000E-03 0. -1.
    9900012    2    1    2    0    0 -0.42588380086E+00  0.61926476875E+00 -0.91002593964E+00  0.90007740250E+02  0.90000001622E+02 0.  0.
        -12    1    1    2    0    0  0.42588380086E+00 -0.61926476875E+00  0.91002593964E+00  0.11802597496E+01  0.00000000000E+00 0.  1.
         11    1    3    3    0    0 -0.50407036398E+01 -0.38090144386E+01  0.27276695099E-01  0.63180715774E+01  0.51100000000E-03 0. -1.
        -11    1    3    3    0    0  0.32618803041E+02 -0.21260806358E+02 -0.16932762329E+02  0.42458528462E+02  0.51100000000E-03 0.  1.
         12    1    3    3    0    0 -0.28003983202E+02  0.25689085565E+02  0.15995459694E+02  0.41231140212E+02  0.00000000000E+00 0. -1.
</event>
<event>
 7    1  0.1978681E-015  0.9000776E+02  0.7816164E-02  0.1186339E+00
        -11   -1    0    0    0    0  0.00000000000E+00  0.00000000000E+00  0.45593999997E+02  0.45594000000E+02  0.51100000000E-03 0. -1.
         11   -1    0    0    0    0 -0.00000000000E+00 -0.00000000000E+00 -0.45593999997E+02  0.45594000000E+02  0.51100000000E-03 0.  1.
    9900012    2    1    2    0    0 -0.99498686002E+00 -0.53374060229E+00  0.34363678391E+00  0.90007760990E+02  0.90000022635E+02 0.  0.
        -12    1    1    2    0    0  0.99498686002E+00  0.53374060229E+00 -0.34363678391E+00  0.11802390103E+01  0.00000000000E+00 0.  1.
         11    1    3    3    0    0 -0.38831706818E+02 -0.15407948178E+02 -0.55365823563E+01  0.42142141211E+02  0.51100000000E-03 0. -1.
        -11    1    3    3    0    0  0.28915558612E+01  0.53606342449E+01 -0.71348458177E+01  0.93810191296E+01  0.51100000000E-03 0.  1.
        -12    1    3    3    0    0  0.34945164096E+02  0.95135733311E+01  0.13015064958E+02  0.38484600649E+02  0.00000000000E+00 0.  1.
</event>
<event>
 7    1  0.1978681E-015  0.9000749E+02  0.7816164E-02  0.1186340E+00
        -11   -1    0    0    0    0  0.00000000000E+00  0.00000000000E+00  0.45593999997E+02  0.45594000000E+02  0.51100000000E-03 0.  1.
         11   -1    0    0    0    0 -0.00000000000E+00 -0.00000000000E+00 -0.45593999997E+02  0.45594000000E+02  0.51100000000E-03 0. -1.
    9900012    2    1    2    0    0 -0.15614771612E+00  0.48503740650E+00 -0.10648751672E+01  0.90007490569E+02  0.89999748644E+02 0.  0.
        -12    1    1    2    0    0  0.15614771612E+00 -0.48503740650E+00  0.10648751672E+01  0.11805094310E+01  0.00000000000E+00 0.  1.
         11    1    3    3    0    0 -0.66059157209E+01  0.23653984327E+01 -0.21554448246E+02  0.22667762829E+02  0.51100000000E-03 0. -1.
        -11    1    3    3    0    0  0.14611258281E+01 -0.23510032781E+02 -0.13194689858E+02  0.26999192039E+02  0.51100000000E-03 0.  1.
        -12    1    3    3    0    0  0.49886421767E+01  0.21629671755E+02  0.33684262937E+02  0.40340535700E+02  0.00000000000E+00 0.  1.
</event>
<event>
 7    1  0.1978681E-015  0.9000771E+02  0.7816164E-02  0.1186339E+00
        -11   -1    0    0    0    0  0.00000000000E+00  0.00000000000E+00  0.45593999997E+02  0.45594000000E+02  0.51100000000E-03 0.  1.
         11   -1    0    0    0    0 -0.00000000000E+00 -0.00000000000E+00 -0.45593999997E+02  0.45594000000E+02  0.51100000000E-03 0. -1.
    9900012    2    1    2    0    0  0.10824300401E+01 -0.46996513465E+00 -0.23727002331E-01  0.90007709786E+02  0.89999970755E+02 0.  0.
        -12    1    1    2    0    0 -0.10824300401E+01  0.46996513465E+00  0.23727002331E-01  0.11802902144E+01  0.00000000000E+00 0.  1.
         11    1    3    3    0    0  0.10472226051E+02  0.34686314975E+02  0.24249488004E+02  0.43598688440E+02  0.51100000000E-03 0. -1.
        -11    1    3    3    0    0 -0.52121428110E+01 -0.41918013025E+01 -0.10065993842E+02  0.12085605617E+02  0.51100000000E-03 0.  1.
        -12    1    3    3    0    0 -0.41776531997E+01 -0.30964478807E+02 -0.14207221165E+02  0.34323415729E+02  0.00000000000E+00 0.  1.
</event>
<event>
 7    1  0.1978681E-015  0.9000774E+02  0.7816164E-02  0.1186339E+00
        -11   -1    0    0    0    0  0.00000000000E+00  0.00000000000E+00  0.45593999997E+02  0.45594000000E+02  0.51100000000E-03 0.  1.
         11   -1    0    0    0    0 -0.00000000000E+00 -0.00000000000E+00 -0.45593999997E+02  0.45594000000E+02  0.51100000000E-03 0. -1.
    9900012    2    1    2    0    0  0.62470885698E+00  0.91249597566E+00  0.41242728000E+00  0.90007743111E+02  0.90000004521E+02 0.  0.
        -12    1    1    2    0    0 -0.62470885698E+00 -0.91249597566E+00 -0.41242728000E+00  0.11802568885E+01  0.00000000000E+00 0.  1.
         11    1    3    3    0    0 -0.99173200774E+01 -0.21086992301E+02 -0.28710190016E+02  0.36976877814E+02  0.51100000000E-03 0. -1.
        -11    1    3    3    0    0  0.36762127120E+01 -0.69226816328E+01 -0.37687424921E+01  0.86972111120E+01  0.51100000000E-03 0.  1.
        -12    1    3    3    0    0  0.68658162224E+01  0.28922169910E+02  0.32891359789E+02  0.44333654185E+02  0.00000000000E+00 0.  1.
</event>
<event>
 7    1  0.1978681E-015  0.9000752E+02  0.7816164E-02  0.1186339E+00
        -11   -1    0    0    0    0  0.00000000000E+00  0.00000000000E+00  0.45593999997E+02  0.45594000000E+02  0.51100000000E-03 0. -1.
         11   -1    0    0    0    0 -0.00000000000E+00 -0.00000000000E+00 -0.45593999997E+02  0.45594000000E+02  0.51100000000E-03 0.  1.
    9900012    2    1    2    0    0  0.63954522689E+00  0.50215208116E+00  0.85577417346E+00  0.90007523721E+02  0.89999782234E+02 0.  0.
        -12    1    1    2    0    0 -0.63954522689E+00 -0.50215208116E+00 -0.85577417346E+00  0.11804762792E+01  0.00000000000E+00 0.  1.
         11    1    3    3    0    0 -0.22561128039E+01 -0.82402979507E+01  0.36281780971E+01  0.92820381310E+01  0.51100000000E-03 0. -1.
        -11    1    3    3    0    0 -0.31091096028E+02  0.80710208217E+01  0.21765345028E+02  0.38801132378E+02  0.51100000000E-03 0.  1.
         12    1    3    3    0    0  0.33986754059E+02  0.67142921015E+00 -0.24537748951E+02  0.41924353212E+02  0.00000000000E+00 0. -1.
</event>
<event>
 7    1  0.1978681E-015  0.9000778E+02  0.7816164E-02  0.1186339E+00
        -11   -1    0    0    0    0  0.00000000000E+00  0.00000000000E+00  0.45593999997E+02  0.45594000000E+02  0.51100000000E-03 0.  1.
         11   -1    0    0    0    0 -0.00000000000E+00 -0.00000000000E+00 -0.45593999997E+02  0.45594000000E+02  0.51100000000E-03 0. -1.
    9900012    2    1    2    0    0  0.47471530037E+00  0.84779516394E+00 -0.66992733872E+00  0.90007782268E+02  0.90000044194E+02 0.  0.
        -12    1    1    2    0    0 -0.47471530037E+00 -0.84779516394E+00  0.66992733872E+00  0.11802177323E+01  0.00000000000E+00 0.  1.
         11    1    3    3    0    0  0.42354315085E+01 -0.59893303431E+01 -0.31714077573E+01  0.79917948826E+01  0.51100000000E-03 0. -1.
        -11    1    3    3    0    0  0.12951502338E+02  0.98923159103E+01  0.38720463039E+02  0.42010398535E+02  0.51100000000E-03 0.  1.
         12    1    3    3    0    0 -0.16712218547E+02 -0.30551904033E+01 -0.36218982620E+02  0.40005588850E+02  0.00000000000E+00 0. -1.
</event>
<event>
 7    1  0.1978681E-015  0.9000779E+02  0.7816164E-02  0.1186339E+00
        -11   -1    0    0    0    0  0.00000000000E+00  0.00000000000E+00  0.45593999997E+02  0.45594000000E+02  0.51100000000E-03 0. -1.
         11   -1    0    0    0    0 -0.00000000000E+00 -0.00000000000E+00 -0.45593999997E+02  0.45594000000E+02  0.51100000000E-03 0.  1.
    9900012    2    1    2    0    0  0.31169827213E+00 -0.76555953286E+00  0.84241360550E+00  0.90007789047E+02  0.90000051062E+02 0.  0.
        -12    1    1    2    0    0 -0.31169827213E+00  0.76555953286E+00 -0.84241360550E+00  0.11802109531E+01  0.00000000000E+00 0.  1.
         11    1    3    3    0    0 -0.85630536887E+01  0.25062954052E+00  0.24147378029E+01  0.89005428239E+01  0.51100000000E-03 0. -1.
        -11    1    3    3    0    0 -0.22916575899E+02  0.20878036788E+02  0.19994801991E+02  0.36889754377E+02  0.51100000000E-03 0.  1.
         12    1    3    3    0    0  0.31791327860E+02 -0.21894225861E+02 -0.21567126188E+02  0.44217491846E+02  0.00000000000E+00 0. -1.
</event>
<event>
 7    1  0.1978681E-015  0.9000767E+02  0.7816164E-02  0.1186339E+00
        -11   -1    0    0    0    0  0.00000000000E+00  0.00000000000E+00  0.45593999997E+02  0.45594000000E+02  0.51100000000E-03 0.  1.
         11   -1    0    0    0    0 -0.00000000000E+00 -0.00000000000E+00 -0.45593999997E+02  0.45594000000E+02  0.51100000000E-03 0. -1.
    9900012    2    1    2    0    0 -0.60735616162E+00  0.98197067419E+00 -0.24503540937E+00  0.90007665190E+02  0.89999925570E+02 0.  0.
        -12    1    1    2    0    0  0.60735616162E+00 -0.98197067419E+00  0.24503540937E+00  0.11803348101E+01  0.00000000000E+00 0.  1.
         11    1    3    3    0    0 -0.29160100901E+02 -0.23179753220E+02 -0.18451925073E+02  0.41570253584E+02  0.51100000000E-03 0. -1.
        -11    1    3    3    0    0 -0.23185325479E+01  0.43893690391E+01  0.95586593425E+01  0.10770799526E+02  0.51100000000E-03 0.  1.
        -12    1    3    3    0    0  0.30871277288E+02  0.19772354855E+02  0.86482303213E+01  0.37666612080E+02  0.00000000000E+00 0.  1.
</event>
<event>
 7    1  0.1978681E-015  0.9000765E+02  0.7816164E-02  0.1186339E+00
        -11   -1    0    0    0    0  0.00000000000E+00  0.00000000000E+00  0.45593999997E+02  0.45594000000E+02  0.51100000000E-03 0.  1.
         11   -1    0    0    0    0 -0.00000000000E+00 -0.00000000000E+00 -0.45593999997E+02  0.45594000000E+02  0.51100000000E-03 0. -1.
    9900012    2    1    2    0    0 -0.14921077699E+00 -0.95248933399E+00 -0.68097791530E+00  0.90007648057E+02  0.89999908212E+02 0.  0.
        -12    1    1    2    0    0  0.14921077699E+00  0.95248933399E+00  0.68097791530E+00  0.11803519426E+01  0.00000000000E+00 0.  1.
         11    1    3    3    0    0  0.24585965365E+02 -0.18261416237E+02 -0.29289640180E+02  0.42377258501E+02  0.51100000000E-03 0. -1.
        -11    1    3    3    0    0  0.25224399245E+01 -0.20741503430E+01  0.72343283207E+01  0.79372734192E+01  0.51100000000E-03 0.  1.
        -12    1    3    3    0    0 -0.27257616066E+02  0.19383077246E+02  0.21374333944E+02  0.39693116137E+02  0.00000000000E+00 0.  1.
</event>
<event>
 7    1  0.1978681E-015  0.9000772E+02  0.7816164E-02  0.1186339E+00
        -11   -1    0    0    0    0  0.00000000000E+00  0.00000000000E+00  0.45593999997E+02  0.45594000000E+02  0.51100000000E-03 0.  1.
         11   -1    0    0    0    0 -0.00000000000E+00 -0.00000000000E+00 -0.45593999997E+02  0.45594000000E+02  0.51100000000E-03 0. -1.
    9900012    2    1    2    0    0  0.89044041387E+00  0.63650220355E+00 -0.44163313614E+00  0.90007720790E+02  0.89999981905E+02 0.  0.
        -12    1    1    2    0    0 -0.89044041387E+00 -0.63650220355E+00  0.44163313614E+00  0.11802792096E+01  0.00000000000E+00 0.  1.
         11    1    3    3    0    0 -0.37610437085E+01 -0.27575843838E+00 -0.92077653053E+01  0.99500972192E+01  0.51100000000E-03 0. -1.
        -11    1    3    3    0    0 -0.36006650616E+02 -0.83929651779E+00  0.14758509215E+02  0.38922961113E+02  0.51100000000E-03 0.  1.
         12    1    3    3    0    0  0.40658134739E+02  0.17515571597E+01 -0.59923770458E+01  0.41134662459E+02  0.00000000000E+00 0. -1.
</event>
<event>
 7    1  0.1978681E-015  0.9000780E+02  0.7816164E-02  0.1186339E+00
        -11   -1    0    0    0    0  0.00000000000E+00  0.00000000000E+00  0.45593999997E+02  0.45594000000E+02  0.51100000000E-03 0.  1.
         11   -1    0    0    0    0 -0.00000000000E+00 -0.00000000000E+00 -0.45593999997E+02  0.45594000000E+02  0.51100000000E-03 0. -1.
    9900012    2    1    2    0    0 -0.11020912436E+01  0.42216185049E+00  0.67348118096E-02  0.90007800400E+02  0.90000062566E+02 0.  0.
        -12    1    1    2    0    0  0.11020912436E+01 -0.42216185049E+00 -0.67348118096E-02  0.11801995996E+01  0.00000000000E+00 0.  1.
         11    1    3    3    0    0 -0.27421791218E+02  0.26644254617E+01 -0.28161361295E+02  0.39396904281E+02  0.51100000000E-03 0. -1.
        -11    1    3    3    0    0  0.17841245581E+00 -0.59904774346E+01 -0.52847429859E+01  0.79903791892E+01  0.51100000000E-03 0.  1.
        -12    1    3    3    0    0  0.26141287519E+02  0.37482138235E+01  0.33452839093E+02  0.42620516930E+02  0.00000000000E+00 0.  1.
</event>
<event>
 7    1  0.1978681E-015  0.9000775E+02  0.7816164E-02  0.1186339E+00
        -11   -1    0    0    0    0  0.00000000000E+00  0.00000000000E+00  0.45593999997E+02  0.45594000000E+02  0.51100000000E-03 0.  1.
         11   -1    0    0    0    0 -0.00000000000E+00 -0.00000000000E+00 -0.45593999997E+02  0.45594000000E+02  0.51100000000E-03 0. -1.
    9900012    2    1    2    0    0  0.82351309289E+00  0.61415551903E+00 -0.58106321096E+00  0.90007747794E+02  0.90000009264E+02 0.  0.
        -12    1    1    2    0    0 -0.82351309289E+00 -0.61415551903E+00  0.58106321096E+00  0.11802522065E+01  0.00000000000E+00 0.  1.
         11    1    3    3    0    0  0.12387350096E+02 -0.12255995628E+02  0.16165264541E+02  0.23769132276E+02  0.51100000000E-03 0. -1.
        -11    1    3    3    0    0  0.10603387672E+02 -0.18156782989E+02  0.59644482743E+01  0.21855782807E+02  0.51100000000E-03 0.  1.
         12    1    3    3    0    0 -0.22167224676E+02  0.31026934136E+02 -0.22710776026E+02  0.44382832710E+02  0.00000000000E+00 0. -1.
</event>
<event>
 7    1  0.1978681E-015  0.9000769E+02  0.7816164E-02  0.1186339E+00
        -11   -1    0    0    0    0  0.00000000000E+00  0.00000000000E+00  0.45593999997E+02  0.45594000000E+02  0.51100000000E-03 0. -1.
         11   -1    0    0    0    0 -0.00000000000E+00 -0.00000000000E+00 -0.45593999997E+02  0.45594000000E+02  0.51100000000E-03 0.  1.
    9900012    2    1    2    0    0  0.12928125323E-01  0.10654622511E+01  0.50769777018E+00  0.90007689036E+02  0.89999949732E+02 0.  0.
        -12    1    1    2    0    0 -0.12928125323E-01 -0.10654622511E+01 -0.50769777018E+00  0.11803109636E+01  0.00000000000E+00 0.  1.
         11    1    3    3    0    0  0.97039147303E+00 -0.33224627768E+02  0.14716302295E+02  0.36350888620E+02  0.51100000000E-03 0. -1.
        -11    1    3    3    0    0 -0.44962871870E+01 -0.49265777314E+01  0.63739868027E+01  0.92258048231E+01  0.51100000000E-03 0.  1.
        -12    1    3    3    0    0  0.35388238393E+01  0.39216667751E+02 -0.20582591328E+02  0.44430995593E+02  0.00000000000E+00 0.  1.
</event>
<event>
 7    1  0.1978681E-015  0.9000769E+02  0.7816164E-02  0.1186339E+00
        -11   -1    0    0    0    0  0.00000000000E+00  0.00000000000E+00  0.45593999997E+02  0.45594000000E+02  0.51100000000E-03 0. -1.
         11   -1    0    0    0    0 -0.00000000000E+00 -0.00000000000E+00 -0.45593999997E+02  0.45594000000E+02  0.51100000000E-03 0.  1.
    9900012    2    1    2    0    0 -0.43343303487E+00 -0.10665588536E+01 -0.26025224517E+00  0.90007685120E+02  0.89999945764E+02 0.  0.
        -12    1    1    2    0    0  0.43343303487E+00  0.10665588536E+01  0.26025224517E+00  0.11803148796E+01  0.00000000000E+00 0.  1.
         11    1    3    3    0    0  0.26411241274E+01  0.11541165497E+01 -0.10294884327E+02  0.10690751388E+02  0.51100000000E-03 0. -1.
        -11    1    3    3    0    0 -0.40738113062E+02 -0.31205016911E+00  0.82273512192E+01  0.41561767762E+02  0.51100000000E-03 0.  1.
         12    1    3    3    0    0  0.37663555900E+02 -0.19086252341E+01  0.18072808628E+01  0.37755165970E+02  0.00000000000E+00 0. -1.
</event>
<event>
 7    1  0.1978681E-015  0.9000805E+02  0.7816164E-02  0.1186338E+00
        -11   -1    0    0    0    0  0.00000000000E+00  0.00000000000E+00  0.45593999997E+02  0.45594000000E+02  0.51100000000E-03 0.  1.
         11   -1    0    0    0    0 -0.00000000000E+00 -0.00000000000E+00 -0.45593999997E+02  0.45594000000E+02  0.51100000000E-03 0. -1.
    9900012    2    1    2    0    0 -0.63991661703E-01  0.33641691712E+00 -0.11291589834E+01  0.90008054542E+02  0.90000320061E+02 0.  0.
        -12    1    1    2    0    0  0.63991661703E-01 -0.33641691712E+00  0.11291589834E+01  0.11799454583E+01  0.00000000000E+00 0.  1.
         11    1    3    3    0    0  0.38553456133E+01  0.29542306233E+01 -0.15417447828E+02  0.16164432133E+02  0.51100000000E-03 0. -1.
        -11    1    3    3    0    0 -0.12307392396E+02  0.80294660993E+01  0.41183067268E+02  0.43726299447E+02  0.51100000000E-03 0.  1.
         12    1    3    3    0    0  0.83880551207E+01 -0.10647279805E+02 -0.26894778423E+02  0.30117322962E+02  0.00000000000E+00 0. -1.
</event>
<event>
 7    1  0.1978681E-015  0.9000778E+02  0.7816164E-02  0.1186339E+00
        -11   -1    0    0    0    0  0.00000000000E+00  0.00000000000E+00  0.45593999997E+02  0.45594000000E+02  0.51100000000E-03 0.  1.
         11   -1    0    0    0    0 -0.00000000000E+00 -0.00000000000E+00 -0.45593999997E+02  0.45594000000E+02  0.51100000000E-03 0. -1.
    9900012    2    1    2    0    0  0.64672373556E-01 -0.11764346015E+01  0.68816501702E-01  0.90007781123E+02  0.90000043033E+02 0.  0.
        -12    1    1    2    0    0 -0.64672373556E-01  0.11764346015E+01 -0.68816501702E-01  0.11802188774E+01  0.00000000000E+00 0.  1.
         11    1    3    3    0    0  0.86414073814E+00 -0.65407182190E+01  0.88066110249E+01  0.11003823519E+02  0.51100000000E-03 0. -1.
        -11    1    3    3    0    0 -0.84160884772E+01  0.33761860671E+02  0.18077467808E+02  0.39210822789E+02  0.51100000000E-03 0.  1.
         12    1    3    3    0    0  0.76166201126E+01 -0.28397577053E+02 -0.26815262331E+02  0.39793134814E+02  0.00000000000E+00 0. -1.
</event>
<event>
 7    1  0.1978681E-015  0.9000770E+02  0.7816164E-02  0.1186339E+00
        -11   -1    0    0    0    0  0.00000000000E+00  0.00000000000E+00  0.45593999997E+02  0.45594000000E+02  0.51100000000E-03 0. -1.
         11   -1    0    0    0    0 -0.00000000000E+00 -0.00000000000E+00 -0.45593999997E+02  0.45594000000E+02  0.51100000000E-03 0.  1.
    9900012    2    1    2    0    0  0.11404553175E+01 -0.16262889929E+00  0.25696257591E+00  0.90007696541E+02  0.89999957335E+02 0.  0.
        -12    1    1    2    0    0 -0.11404553175E+01  0.16262889929E+00 -0.25696257591E+00  0.11803034591E+01  0.00000000000E+00 0.  1.
         11    1    3    3    0    0 -0.12693787178E+01 -0.37663714917E+02 -0.15376741139E+01  0.37716457756E+02  0.51100000000E-03 0. -1.
        -11    1    3    3    0    0 -0.73737629966E+01 -0.46196996200E+01 -0.18498140884E+01  0.88958314806E+01  0.51100000000E-03 0.  1.
        -12    1    3    3    0    0  0.97835970319E+01  0.42120785638E+02  0.36444507782E+01  0.43395407305E+02  0.00000000000E+00 0.  1.
</event>
<event>
 7    1  0.1978681E-015  0.9000800E+02  0.7816164E-02  0.1186339E+00
        -11   -1    0    0    0    0  0.00000000000E+00  0.00000000000E+00  0.45593999997E+02  0.45594000000E+02  0.51100000000E-03 0.  1.
         11   -1    0    0    0    0 -0.00000000000E+00 -0.00000000000E+00 -0.45593999997E+02  0.45594000000E+02  0.51100000000E-03 0. -1.
    9900012    2    1    2    0    0 -0.85688451105E+00  0.73086415465E-01 -0.80796881516E+00  0.90007997332E+02  0.90000262097E+02 0.  0.
        -12    1    1    2    0    0  0.85688451105E+00 -0.73086415465E-01  0.80796881516E+00  0.11800026677E+01  0.00000000000E+00 0.  1.
         11    1    3    3    0    0  0.12044274019E+02  0.43209215529E+00 -0.34514251184E+02  0.36557964595E+02  0.51100000000E-03 0. -1.
        -11    1    3    3    0    0  0.75224095876E+01 -0.65036553723E+01 -0.35185583670E+01  0.10548195696E+02  0.51100000000E-03 0.  1.
        -12    1    3    3    0    0 -0.20423568118E+02  0.61446496325E+01  0.37224840735E+02  0.42901837041E+02  0.00000000000E+00 0.  1.
</event>
<event>
 7    1  0.1978681E-015  0.9000803E+02  0.7816164E-02  0.1186338E+00
        -11   -1    0    0    0    0  0.00000000000E+00  0.00000000000E+00  0.45593999997E+02  0.45594000000E+02  0.51100000000E-03 0. -1.
         11   -1    0    0    0    0 -0.00000000000E+00 -0.00000000000E+00 -0.45593999997E+02  0.45594000000E+02  0.51100000000E-03 0.  1.
    9900012    2    1    2    0    0  0.52821519687E+00  0.46431762730E+00  0.94748887953E+00  0.90008026555E+02  0.90000291705E+02 0.  0.
        -12    1    1    2    0    0 -0.52821519687E+00 -0.46431762730E+00 -0.94748887953E+00  0.11799734446E+01  0.00000000000E+00 0.  1.
         11    1    3    3    0    0  0.20773598334E+01 -0.85436317563E+01 -0.17131901315E+01  0.89579064604E+01  0.51100000000E-03 0. -1.
        -11    1    3    3    0    0  0.29546976880E+02 -0.21187421622E+02 -0.59969800613E+01  0.36849619372E+02  0.51100000000E-03 0.  1.
         12    1    3    3    0    0 -0.31096121517E+02  0.30195371005E+02  0.86576590723E+01  0.44200500723E+02  0.00000000000E+00 0. -1.
</event>
<event>
 7    1  0.1978681E-015  0.9000779E+02  0.7816164E-02  0.1186339E+00
        -11   -1    0    0    0    0  0.00000000000E+00  0.00000000000E+00  0.45593999997E+02  0.45594000000E+02  0.51100000000E-03 0.  1.
         11   -1    0    0    0    0 -0.00000000000E+00 -0.00000000000E+00 -0.45593999997E+02  0.45594000000E+02  0.51100000000E-03 0. -1.
    9900012    2    1    2    0    0  0.11519736360E+01 -0.48971174406E-01  0.25192217821E+00  0.90007785520E+02  0.90000047489E+02 0.  0.
        -12    1    1    2    0    0 -0.11519736360E+01  0.48971174406E-01 -0.25192217821E+00  0.11802144796E+01  0.00000000000E+00 0.  1.
         11    1    3    3    0    0  0.92193201950E+01  0.32005033637E+01  0.16189733735E+00  0.97603943388E+01  0.51100000000E-03 0. -1.
        -11    1    3    3    0    0  0.24458059337E+02 -0.28260946123E+02  0.85823917630E+01  0.38347557823E+02  0.51100000000E-03 0.  1.
         12    1    3    3    0    0 -0.32525405896E+02  0.25011471585E+02 -0.84923669221E+01  0.41899833359E+02  0.00000000000E+00 0. -1.
</event>
<event>
 7    1  0.1978681E-015  0.9000773E+02  0.7816164E-02  0.1186339E+00
        -11   -1    0    0    0    0  0.00000000000E+00  0.00000000000E+00  0.45593999997E+02  0.45594000000E+02  0.51100000000E-03 0. -1.
         11   -1    0    0    0    0 -0.00000000000E+00 -0.00000000000E+00 -0.45593999997E+02  0.45594000000E+02  0.51100000000E-03 0.  1.
    9900012    2    1    2    0    0  0.10092801838E+01  0.11459965093E+00  0.60104054840E+00  0.90007733373E+02  0.89999994654E+02 0.  0.
        -12    1    1    2    0    0 -0.10092801838E+01 -0.11459965093E+00 -0.60104054840E+00  0.11802666268E+01  0.00000000000E+00 0.  1.
         11    1    3    3    0    0  0.12844678628E+02 -0.64293054430E+00  0.17660223347E+02  0.21846798797E+02  0.51100000000E-03 0. -1.
        -11    1    3    3    0    0 -0.24222541472E+02  0.21456133708E+02 -0.26928496687E+02  0.42097994289E+02  0.51100000000E-03 0.  1.
         12    1    3    3    0    0  0.12387143028E+02 -0.20698603513E+02  0.98693138880E+01  0.26062940287E+02  0.00000000000E+00 0. -1.
</event>
<event>
 7    1  0.1978681E-015  0.9000764E+02  0.7816164E-02  0.1186339E+00
        -11   -1    0    0    0    0  0.00000000000E+00  0.00000000000E+00  0.45593999997E+02  0.45594000000E+02  0.51100000000E-03 0.  1.
         11   -1    0    0    0    0 -0.00000000000E+00 -0.00000000000E+00 -0.45593999997E+02  0.45594000000E+02  0.51100000000E-03 0. -1.
    9900012    2    1    2    0    0 -0.46108432143E+00  0.99444009111E+00  0.43788728100E+00  0.90007637718E+02  0.89999897736E+02 0.  0.
        -12    1    1    2    0    0  0.46108432143E+00 -0.99444009111E+00 -0.43788728100E+00  0.11803622822E+01  0.00000000000E+00 0.  1.
         11    1    3    3    0    0 -0.22094503941E+00 -0.57940596772E+00  0.77359253945E+01  0.77607390084E+01  0.51100000000E-03 0. -1.
        -11    1    3    3    0    0 -0.40325144033E+02  0.26606667100E+01 -0.11259316168E+02  0.41951979565E+02  0.51100000000E-03 0.  1.
         12    1    3    3    0    0  0.40085004751E+02 -0.10868206512E+01  0.39612780544E+01  0.40294919144E+02  0.00000000000E+00 0. -1.
</event>
<event>
 7    1  0.1978681E-015  0.9000811E+02  0.7816164E-02  0.1186338E+00
        -11   -1    0    0    0    0  0.00000000000E+00  0.00000000000E+00  0.45593999997E+02  0.45594000000E+02  0.51100000000E-03 0. -1.
         11   -1    0    0    0    0 -0.00000000000E+00 -0.00000000000E+00 -0.45593999997E+02  0.45594000000E+02  0.51100000000E-03 0.  1.
    9900012    2    1    2    0    0 -0.74487494364E+00  0.72238866317E+00 -0.56166188255E+00  0.90008106728E+02  0.90000372936E+02 0.  0.
        -12    1    1    2    0    0  0.74487494364E+00 -0.72238866317E+00  0.56166188255E+00  0.11798932717E+01  0.00000000000E+00 0.  1.
         11    1    3    3    0    0 -0.25200127426E+02 -0.14849439241E+02  0.27309104268E+02  0.40016739550E+02  0.51100000000E-03 0. -1.
        -11    1    3    3    0    0  0.15128154902E+02  0.73002245997E+00  0.20801027991E+01  0.15287930908E+02  0.51100000000E-03 0.  1.
        -12    1    3    3    0    0  0.93270975798E+01  0.14841805445E+02 -0.29950868950E+02  0.34703436270E+02  0.00000000000E+00 0.  1.
</event>
<event>
 7    1  0.1978681E-015  0.9000779E+02  0.7816164E-02  0.1186339E+00
        -11   -1    0    0    0    0  0.00000000000E+00  0.00000000000E+00  0.45593999997E+02  0.45594000000E+02  0.51100000000E-03 0.  1.
         11   -1    0    0    0    0 -0.00000000000E+00 -0.00000000000E+00 -0.45593999997E+02  0.45594000000E+02  0.51100000000E-03 0. -1.
    9900012    2    1    2    0    0  0.22683753302E-01 -0.61727414310E+00 -0.10056549797E+01  0.90007794993E+02  0.90000057087E+02 0.  0.
        -12    1    1    2    0    0 -0.22683753302E-01  0.61727414310E+00  0.10056549797E+01  0.11802050070E+01  0.00000000000E+00 0.  1.
         11    1    3    3    0    0  0.10738675850E+02  0.39137752839E+01 -0.15217920986E+02  0.19032128504E+02  0.51100000000E-03 0. -1.
        -11    1    3    3    0    0  0.24345783694E+02  0.93697235356E+01 -0.78978467413E+01  0.27255914702E+02  0.51100000000E-03 0.  1.
         12    1    3    3    0    0 -0.35061775792E+02 -0.13900772963E+02  0.22110112748E+02  0.43719751787E+02  0.00000000000E+00 0. -1.
</event>
<event>
 7    1  0.1978681E-015  0.9000748E+02  0.7816164E-02  0.1186340E+00
        -11   -1    0    0    0    0  0.00000000000E+00  0.00000000000E+00  0.45593999997E+02  0.45594000000E+02  0.51100000000E-03 0. -1.
         11   -1    0    0    0    0 -0.00000000000E+00 -0.00000000000E+00 -0.45593999997E+02  0.45594000000E+02  0.51100000000E-03 0.  1.
    9900012    2    1    2    0    0 -0.95672193938E+00 -0.22439283653E+00  0.65418638148E+00  0.90007479422E+02  0.89999737350E+02 0.  0.
        -12    1    1    2    0    0  0.95672193938E+00  0.22439283653E+00 -0.65418638148E+00  0.11805205784E+01  0.00000000000E+00 0.  1.
         11    1    3    3    0    0 -0.51391579709E+01 -0.43831235548E+01  0.26039153346E+01  0.72389980024E+01  0.51100000000E-03 0. -1.
        -11    1    3    3    0    0  0.52539639881E+00 -0.11135941407E+02 -0.40038188521E+02  0.41561301383E+02  0.51100000000E-03 0.  1.
         12    1    3    3    0    0  0.36570396327E+01  0.15294672125E+02  0.38088459568E+02  0.41207180036E+02  0.00000000000E+00 0. -1.
</event>
<event>
 7    1  0.1978681E-015  0.9000764E+02  0.7816164E-02  0.1186339E+00
        -11   -1    0    0    0    0  0.00000000000E+00  0.00000000000E+00  0.45593999997E+02  0.45594000000E+02  0.51100000000E-03 0.  1.
         11   -1    0    0    0    0 -0.00000000000E+00 -0.00000000000E+00 -0.45593999997E+02  0.45594000000E+02  0.51100000000E-03 0. -1.
    9900012    2    1    2    0    0 -0.47915313340E+00  0.80516491577E+00  0.71789139257E+00  0.90007641445E+02  0.89999901512E+02 0.  0.
        -12    1    1    2    0    0  0.47915313340E+00 -0.80516491577E+00 -0.71789139257E+00  0.11803585550E+01  0.00000000000E+00 0.  1.
         11    1    3    3    0    0 -0.21500392343E+02  0.35012020971E+02 -0.44986890879E+00  0.41089060170E+02  0.51100000000E-03 0. -1.
        -11    1    3    3    0    0  0.67584648315E+01  0.40655404715E+01 -0.13310502082E+01  0.79985724428E+01  0.51100000000E-03 0.  1.
        -12    1    3    3    0    0  0.14262774378E+02 -0.38272396527E+02  0.24988105096E+01  0.40920008832E+02  0.00000000000E+00 0.  1.
</event>
<event>
 7    1  0.1978681E-015  0.9000774E+02  0.7816164E-02  0.1186339E+00
        -11   -1    0    0    0    0  0.00000000000E+00  0.00000000000E+00  0.45593999997E+02  0.45594000000E+02  0.51100000000E-03 0. -1.
         11   -1    0    0    0    0 -0.00000000000E+00 -0.00000000000E+00 -0.45593999997E+02  0.45594000000E+02  0.51100000000E-03 0.  1.
    9900012    2    1    2    0    0 -0.55113107665E+00  0.85322495119E+00  0.60106278646E+00  0.90007739540E+02  0.90000000902E+02 0.  0.
        -12    1    1    2    0    0  0.55113107665E+00 -0.85322495119E+00 -0.60106278646E+00  0.11802604603E+01  0.00000000000E+00 0.  1.
         11    1    3    3    0    0  0.35019232988E+02 -0.71950440558E+00 -0.84768335614E+01  0.36037772866E+02  0.51100000000E-03 0. -1.
        -11    1    3    3    0    0 -0.54199479876E+01 -0.16932936723E+02  0.40880436800E+01  0.18243143469E+02  0.51100000000E-03 0.  1.
        -12    1    3    3    0    0 -0.30150416077E+02  0.18505666080E+02  0.49898526678E+01  0.35726823205E+02  0.00000000000E+00 0.  1.
</event>
<event>
 7    1  0.1978681E-015  0.9000774E+02  0.7816164E-02  0.1186339E+00
        -11   -1    0    0    0    0  0.00000000000E+00  0.00000000000E+00  0.45593999997E+02  0.45594000000E+02  0.51100000000E-03 0.  1.
         11   -1    0    0    0    0 -0.00000000000E+00 -0.00000000000E+00 -0.45593999997E+02  0.45594000000E+02  0.51100000000E-03 0. -1.
    9900012    2    1    2    0    0 -0.69541645621E+00 -0.52244048292E+00 -0.79779147614E+00  0.90007737595E+02  0.89999998931E+02 0.  0.
        -12    1    1    2    0    0  0.69541645621E+00  0.52244048292E+00  0.79779147614E+00  0.11802624052E+01  0.00000000000E+00 0.  1.
         11    1    3    3    0    0 -0.33829040585E+02  0.12063279931E+02 -0.90179272535E+01  0.37030389166E+02  0.51100000000E-03 0. -1.
        -11    1    3    3    0    0 -0.63068337381E+01  0.43908058133E+01  0.63984726221E+01  0.99997889802E+01  0.51100000000E-03 0.  1.
        -12    1    3    3    0    0  0.39440457867E+02 -0.16976526227E+02  0.18216631552E+01  0.42977559448E+02  0.00000000000E+00 0.  1.
</event>
<event>
 7    1  0.1978681E-015  0.9000772E+02  0.7816164E-02  0.1186339E+00
        -11   -1    0    0    0    0  0.00000000000E+00  0.00000000000E+00  0.45593999997E+02  0.45594000000E+02  0.51100000000E-03 0.  1.
         11   -1    0    0    0    0 -0.00000000000E+00 -0.00000000000E+00 -0.45593999997E+02  0.45594000000E+02  0.51100000000E-03 0. -1.
    9900012    2    1    2    0    0 -0.50178715373E+00 -0.91695545555E+00 -0.54815438817E+00  0.90007715759E+02  0.89999976808E+02 0.  0.
        -12    1    1    2    0    0  0.50178715373E+00  0.91695545555E+00  0.54815438817E+00  0.11802842405E+01  0.00000000000E+00 0.  1.
         11    1    3    3    0    0 -0.10573894322E+02 -0.23132544631E+01 -0.39774084438E+02  0.41220579575E+02  0.51100000000E-03 0. -1.
        -11    1    3    3    0    0  0.39210535330E+00 -0.90389437672E+01  0.24805924376E+01  0.93813426617E+01  0.51100000000E-03 0.  1.
        -12    1    3    3    0    0  0.96800018151E+01  0.10435242775E+02  0.36745337612E+02  0.39405793523E+02  0.00000000000E+00 0.  1.
</event>
<event>
 7    1  0.1978681E-015  0.9000775E+02  0.7816164E-02  0.1186339E+00
        -11   -1    0    0    0    0  0.00000000000E+00  0.00000000000E+00  0.45593999997E+02  0.45594000000E+02  0.51100000000E-03 0.  1.
         11   -1    0    0    0    0 -0.00000000000E+00 -0.00000000000E+00 -0.45593999997E+02  0.45594000000E+02  0.51100000000E-03 0. -1.
    9900012    2    1    2    0    0  0.17131267174E-01  0.10013265702E+01  0.62453101658E+00  0.90007751140E+02  0.90000012655E+02 0.  0.
        -12    1    1    2    0    0 -0.17131267174E-01 -0.10013265702E+01 -0.62453101658E+00  0.11802488598E+01  0.00000000000E+00 0.  1.
         11    1    3    3    0    0  0.40946181034E+02 -0.18979985523E+01 -0.89985335647E+01  0.41966245321E+02  0.51100000000E-03 0. -1.
        -11    1    3    3    0    0 -0.53118559251E+01 -0.35762759264E+01 -0.58489676739E+01  0.86727150294E+01  0.51100000000E-03 0.  1.
        -12    1    3    3    0    0 -0.35617193842E+02  0.64756010490E+01  0.15472032255E+02  0.39368790789E+02  0.00000000000E+00 0.  1.
</event>
<event>
 7    1  0.1978681E-015  0.9000771E+02  0.7816164E-02  0.1186339E+00
        -11   -1    0    0    0    0  0.00000000000E+00  0.00000000000E+00  0.45593999997E+02  0.45594000000E+02  0.51100000000E-03 0. -1.
         11   -1    0    0    0    0 -0.00000000000E+00 -0.00000000000E+00 -0.45593999997E+02  0.45594000000E+02  0.51100000000E-03 0.  1.
    9900012    2    1    2    0    0  0.54075734661E+00 -0.98365559134E+00  0.36479621922E+00  0.90007714818E+02  0.89999975853E+02 0.  0.
        -12    1    1    2    0    0 -0.54075734661E+00  0.98365559134E+00 -0.36479621922E+00  0.11802851824E+01  0.00000000000E+00 0.  1.
         11    1    3    3    0    0 -0.12153510046E+01  0.15418434894E+01  0.14274556782E+02  0.14408932333E+02  0.51100000000E-03 0. -1.
        -11    1    3    3    0    0 -0.78510292004E+01 -0.32152523797E+02  0.11876750223E+02  0.35163626692E+02  0.51100000000E-03 0.  1.
        -12    1    3    3    0    0  0.96071375517E+01  0.29627024716E+02 -0.25786510785E+02  0.40435155792E+02  0.00000000000E+00 0.  1.
</event>
<event>
 7    1  0.1978681E-015  0.9000776E+02  0.7816164E-02  0.1186339E+00
        -11   -1    0    0    0    0  0.00000000000E+00  0.00000000000E+00  0.45593999997E+02  0.45594000000E+02  0.51100000000E-03 0.  1.
         11   -1    0    0    0    0 -0.00000000000E+00 -0.00000000000E+00 -0.45593999997E+02  0.45594000000E+02  0.51100000000E-03 0. -1.
    9900012    2    1    2    0    0 -0.70891870741E+00 -0.73495449138E+00 -0.59181253161E+00  0.90007760232E+02  0.90000021867E+02 0.  0.
        -12    1    1    2    0    0  0.70891870741E+00  0.73495449138E+00  0.59181253161E+00  0.11802397683E+01  0.00000000000E+00 0.  1.
         11    1    3    3    0    0  0.35342517519E+02 -0.92246401169E+01 -0.11583087420E+02  0.38319126351E+02  0.51100000000E-03 0. -1.
        -11    1    3    3    0    0  0.36630754439E+01  0.10093321497E+02  0.17139047567E+01  0.10873395529E+02  0.51100000000E-03 0.  1.
        -12    1    3    3    0    0 -0.39714511670E+02 -0.16036358717E+01  0.92773701314E+01  0.40815238352E+02  0.00000000000E+00 0.  1.
</event>
<event>
 7    1  0.1978681E-015  0.9000770E+02  0.7816164E-02  0.1186339E+00
        -11   -1    0    0    0    0  0.00000000000E+00  0.00000000000E+00  0.45593999997E+02  0.45594000000E+02  0.51100000000E-03 0.  1.
         11   -1    0    0    0    0 -0.00000000000E+00 -0.00000000000E+00 -0.45593999997E+02  0.45594000000E+02  0.51100000000E-03 0. -1.
    9900012    2    1    2    0    0 -0.91697582022E-01 -0.30714820413E+00 -0.11359363070E+01  0.90007703529E+02  0.89999964416E+02 0.  0.
        -12    1    1    2    0    0  0.91697582022E-01  0.30714820413E+00  0.11359363070E+01  0.11802964710E+01  0.00000000000E+00 0.  1.
         11    1    3    3    0    0 -0.23701593184E+02 -0.24533493876E+02 -0.22162080558E+02  0.40679425465E+02  0.51100000000E-03 0. -1.
        -11    1    3    3    0    0  0.29384513603E+01  0.13363298543E+02 -0.48093583410E+01  0.14503178005E+02  0.51100000000E-03 0.  1.
        -12    1    3    3    0    0  0.20671444241E+02  0.10863047130E+02  0.25835502592E+02  0.34825100059E+02  0.00000000000E+00 0.  1.
</event>
<event>
 7    1  0.1978681E-015  0.9000771E+02  0.7816164E-02  0.1186339E+00
        -11   -1    0    0    0    0  0.00000000000E+00  0.00000000000E+00  0.45593999997E+02  0.45594000000E+02  0.51100000000E-03 0. -1.
         11   -1    0    0    0    0 -0.00000000000E+00 -0.00000000000E+00 -0.45593999997E+02  0.45594000000E+02  0.51100000000E-03 0.  1.
    9900012    2    1    2    0    0 -0.10681804345E+01 -0.38501973152E-01  0.50059412844E+00  0.90007709221E+02  0.89999970182E+02 0.  0.
        -12    1    1    2    0    0  0.10681804345E+01  0.38501973152E-01 -0.50059412844E+00  0.11802907795E+01  0.00000000000E+00 0.  1.
         11    1    3    3    0    0  0.30139804042E+02  0.14490497829E+02  0.18080120096E+02  0.38016747073E+02  0.51100000000E-03 0. -1.
        -11    1    3    3    0    0  0.69337380807E+00  0.54109874380E+01  0.55878587422E+01  0.78092072501E+01  0.51100000000E-03 0.  1.
        -12    1    3    3    0    0 -0.31901358285E+02 -0.19939987240E+02 -0.23167384710E+02  0.44181754898E+02  0.00000000000E+00 0.  1.
</event>
<event>
 7    1  0.1978681E-015  0.9000769E+02  0.7816164E-02  0.1186339E+00
        -11   -1    0    0    0    0  0.00000000000E+00  0.00000000000E+00  0.45593999997E+02  0.45594000000E+02  0.51100000000E-03 0.  1.
         11   -1    0    0    0    0 -0.00000000000E+00 -0.00000000000E+00 -0.45593999997E+02  0.45594000000E+02  0.51100000000E-03 0. -1.
    9900012    2    1    2    0    0  0.74516888927E+00 -0.25373511616E+00  0.87946686982E+00  0.90007694888E+02  0.89999955660E+02 0.  0.
        -12    1    1    2    0    0 -0.74516888927E+00  0.25373511616E+00 -0.87946686982E+00  0.11803051122E+01  0.00000000000E+00 0.  1.
         11    1    3    3    0    0 -0.26384965894E+01  0.33355359090E+01  0.10243972520E+01  0.43745690124E+01  0.51100000000E-03 0. -1.
        -11    1    3    3    0    0 -0.38418032339E+02  0.35634657034E+01 -0.13959470846E+02  0.41030602277E+02  0.51100000000E-03 0.  1.
         12    1    3    3    0    0  0.41801697818E+02 -0.71527367286E+01  0.13814540464E+02  0.44602523599E+02  0.00000000000E+00 0. -1.
</event>
<event>
 7    1  0.1978681E-015  0.9000773E+02  0.7816164E-02  0.1186339E+00
        -11   -1    0    0    0    0  0.00000000000E+00  0.00000000000E+00  0.45593999997E+02  0.45594000000E+02  0.51100000000E-03 0.  1.
         11   -1    0    0    0    0 -0.00000000000E+00 -0.00000000000E+00 -0.45593999997E+02  0.45594000000E+02  0.51100000000E-03 0. -1.
    9900012    2    1    2    0    0  0.29399980637E+00  0.11342794037E+01 -0.14148679237E+00  0.90007727081E+02  0.89999988278E+02 0.  0.
        -12    1    1    2    0    0 -0.29399980637E+00 -0.11342794037E+01  0.14148679237E+00  0.11802729194E+01  0.00000000000E+00 0.  1.
         11    1    3    3    0    0  0.21857344208E+02  0.86305806841E+01 -0.34169133570E+02  0.41469990451E+02  0.51100000000E-03 0. -1.
        -11    1    3    3    0    0 -0.11859133053E+02  0.36195537913E+01  0.10913887699E+01  0.12447141685E+02  0.51100000000E-03 0.  1.
        -12    1    3    3    0    0 -0.97042113487E+01 -0.11115855072E+02  0.32936258008E+02  0.36090594945E+02  0.00000000000E+00 0.  1.
</event>
<event>
 7    1  0.1978681E-015  0.9000765E+02  0.7816164E-02  0.1186339E+00
        -11   -1    0    0    0    0  0.00000000000E+00  0.00000000000E+00  0.45593999997E+02  0.45594000000E+02  0.51100000000E-03 0.  1.
         11   -1    0    0    0    0 -0.00000000000E+00 -0.00000000000E+00 -0.45593999997E+02  0.45594000000E+02  0.51100000000E-03 0. -1.
    9900012    2    1    2    0    0 -0.10936815831E+01  0.42540289591E+00 -0.12694821030E+00  0.90007651375E+02  0.89999911573E+02 0.  0.
        -12    1    1    2    0    0  0.10936815831E+01 -0.42540289591E+00  0.12694821030E+00  0.11803486253E+01  0.00000000000E+00 0.  1.
         11    1    3    3    0    0 -0.16281860252E+02  0.25670569602E+02 -0.24916841481E+02  0.39305548039E+02  0.51100000000E-03 0. -1.
        -11    1    3    3    0    0  0.72111787814E+01  0.66556448667E+01  0.50971101698E+00  0.98264191642E+01  0.51100000000E-03 0.  1.
        -12    1    3    3    0    0  0.79769998873E+01 -0.31900811573E+02  0.24280182254E+02  0.40875684172E+02  0.00000000000E+00 0.  1.
</event>
<event>
 7    1  0.1978681E-015  0.9000761E+02  0.7816164E-02  0.1186339E+00
        -11   -1    0    0    0    0  0.00000000000E+00  0.00000000000E+00  0.45593999997E+02  0.45594000000E+02  0.51100000000E-03 0.  1.
         11   -1    0    0    0    0 -0.00000000000E+00 -0.00000000000E+00 -0.45593999997E+02  0.45594000000E+02  0.51100000000E-03 0. -1.
    9900012    2    1    2    0    0  0.46930543768E+00 -0.34357642142E+00 -0.10271513331E+01  0.90007605061E+02  0.89999864648E+02 0.  0.
        -12    1    1    2    0    0 -0.46930543768E+00  0.34357642142E+00  0.10271513331E+01  0.11803949391E+01  0.00000000000E+00 0.  1.
         11    1    3    3    0    0  0.33284133563E+02 -0.51271163682E+01  0.91009065986E+01  0.34884772759E+02  0.51100000000E-03 0. -1.
        -11    1    3    3    0    0  0.69459991577E+01 -0.91912911810E+01  0.90858994494E+00  0.11556481896E+02  0.51100000000E-03 0.  1.
        -12    1    3    3    0    0 -0.39760827283E+02  0.13974831128E+02 -0.11036647877E+02  0.43566350405E+02  0.00000000000E+00 0.  1.
</event>
<event>
 7    1  0.2218956E-015  0.9000769E+02  0.7816164E-02  0.1186339E+00
        -11   -1    0    0    0    0  0.00000000000E+00  0.00000000000E+00  0.45593999997E+02  0.45594000000E+02  0.51100000000E-03 0.  1.
         11   -1    0    0    0    0 -0.00000000000E+00 -0.00000000000E+00 -0.45593999997E+02  0.45594000000E+02  0.51100000000E-03 0. -1.
    9900012    2    1    2    0    0  0.10425231452E+01  0.26282782123E+00 -0.48702265265E+00  0.90007693245E+02  0.89999953996E+02 0.  0.
        -12    1    1    2    0    0 -0.10425231452E+01 -0.26282782123E+00  0.48702265265E+00  0.11803067551E+01  0.00000000000E+00 0.  1.
         11    1    3    3    0    0 -0.77837564724E+01  0.63824516059E+01  0.24595462967E+00  0.10068914900E+02  0.51100000000E-03 0. -1.
        -11    1    3    3    0    0 -0.10307744611E+02 -0.22398492148E+02  0.30907731829E+02  0.39537702722E+02  0.51100000000E-03 0.  1.
         12    1    3    3    0    0  0.19134024229E+02  0.16278868363E+02 -0.31640709112E+02  0.40401075623E+02  0.00000000000E+00 0. -1.
</event>
<event>
 7    1  0.1978681E-015  0.9000773E+02  0.7816164E-02  0.1186339E+00
        -11   -1    0    0    0    0  0.00000000000E+00  0.00000000000E+00  0.45593999997E+02  0.45594000000E+02  0.51100000000E-03 0.  1.
         11   -1    0    0    0    0 -0.00000000000E+00 -0.00000000000E+00 -0.45593999997E+02  0.45594000000E+02  0.51100000000E-03 0. -1.
    9900012    2    1    2    0    0  0.78283773952E+00 -0.14758382474E+00 -0.87087292426E+00  0.90007730725E+02  0.89999991970E+02 0.  0.
        -12    1    1    2    0    0 -0.78283773952E+00  0.14758382474E+00  0.87087292426E+00  0.11802692752E+01  0.00000000000E+00 0.  1.
         11    1    3    3    0    0  0.15485248693E+02 -0.12097340230E+02 -0.32101533390E+02  0.37638371564E+02  0.51100000000E-03 0. -1.
        -11    1    3    3    0    0 -0.72871996835E+01 -0.12183837888E+02  0.30264901458E+01  0.14515813025E+02  0.51100000000E-03 0.  1.
         12    1    3    3    0    0 -0.74152112699E+01  0.24133594293E+02  0.28204170320E+02  0.37853546136E+02  0.00000000000E+00 0. -1.
</event>
<event>
 7    1  0.1978681E-015  0.9000781E+02  0.7816164E-02  0.1186339E+00
        -11   -1    0    0    0    0  0.00000000000E+00  0.00000000000E+00  0.45593999997E+02  0.45594000000E+02  0.51100000000E-03 0. -1.
         11   -1    0    0    0    0 -0.00000000000E+00 -0.00000000000E+00 -0.45593999997E+02  0.45594000000E+02  0.51100000000E-03 0.  1.
    9900012    2    1    2    0    0  0.83246632969E-01 -0.10450755141E+01  0.54196962792E+00  0.90007811918E+02  0.90000074235E+02 0.  0.
        -12    1    1    2    0    0 -0.83246632969E-01  0.10450755141E+01 -0.54196962792E+00  0.11801880823E+01  0.00000000000E+00 0.  1.
         11    1    3    3    0    0 -0.13690874406E+02 -0.29147656998E+02  0.29556393237E+02  0.43710483089E+02  0.51100000000E-03 0. -1.
        -11    1    3    3    0    0  0.69803915224E+01 -0.18584596563E+00 -0.58158830598E+01  0.90876234823E+01  0.51100000000E-03 0.  1.
        -12    1    3    3    0    0  0.67937295162E+01  0.28288427449E+02 -0.23198540550E+02  0.37209705346E+02  0.00000000000E+00 0.  1.
</event>
<event>
 7    1  0.1978681E-015  0.9000772E+02  0.7816164E-02  0.1186339E+00
        -11   -1    0    0    0    0  0.00000000000E+00  0.00000000000E+00  0.45593999997E+02  0.45594000000E+02  0.51100000000E-03 0.  1.
         11   -1    0    0    0    0 -0.00000000000E+00 -0.00000000000E+00 -0.45593999997E+02  0.45594000000E+02  0.51100000000E-03 0. -1.
    9900012    2    1    2    0    0 -0.82807886297E+00  0.56880582522E+00 -0.61952090341E+00  0.90007720025E+02  0.89999981129E+02 0.  0.
        -12    1    1    2    0    0  0.82807886297E+00 -0.56880582522E+00  0.61952090341E+00  0.11802799752E+01  0.00000000000E+00 0.  1.
         11    1    3    3    0    0 -0.52691846118E+01  0.44522573270E+00  0.11978532786E+02  0.13093806948E+02  0.51100000000E-03 0. -1.
        -11    1    3    3    0    0 -0.12949543698E+01 -0.23778042773E+02  0.23359537953E+02  0.33357761295E+02  0.51100000000E-03 0.  1.
         12    1    3    3    0    0  0.57360601186E+01  0.23901622866E+02 -0.35957591643E+02  0.43556151782E+02  0.00000000000E+00 0. -1.
</event>
<event>
 7    1  0.1978681E-015  0.9000748E+02  0.7816164E-02  0.1186340E+00
        -11   -1    0    0    0    0  0.00000000000E+00  0.00000000000E+00  0.45593999997E+02  0.45594000000E+02  0.51100000000E-03 0.  1.
         11   -1    0    0    0    0 -0.00000000000E+00 -0.00000000000E+00 -0.45593999997E+02  0.45594000000E+02  0.51100000000E-03 0. -1.
    9900012    2    1    2    0    0 -0.17309216222E+00 -0.10490339161E+01 -0.51303092218E+00  0.90007477327E+02  0.89999735228E+02 0.  0.
        -12    1    1    2    0    0  0.17309216222E+00  0.10490339161E+01  0.51303092218E+00  0.11805226727E+01  0.00000000000E+00 0.  1.
         11    1    3    3    0    0 -0.66701188801E+01  0.98872226102E+01  0.43472201895E+01  0.12694328673E+02  0.51100000000E-03 0. -1.
        -11    1    3    3    0    0 -0.61883726809E+01 -0.15721384745E+02  0.33013566941E+02  0.37085758684E+02  0.51100000000E-03 0.  1.
         12    1    3    3    0    0  0.12685399399E+02  0.47851282190E+01 -0.37873818052E+02  0.40227389971E+02  0.00000000000E+00 0. -1.
</event>
<event>
 7    1  0.1978681E-015  0.9000831E+02  0.7816164E-02  0.1186338E+00
        -11   -1    0    0    0    0  0.00000000000E+00  0.00000000000E+00  0.45593999997E+02  0.45594000000E+02  0.51100000000E-03 0.  1.
         11   -1    0    0    0    0 -0.00000000000E+00 -0.00000000000E+00 -0.45593999997E+02  0.45594000000E+02  0.51100000000E-03 0. -1.
    9900012    2    1    2    0    0 -0.16361215062E+00  0.11681816687E+01  0.15687308737E-01  0.90008312144E+02  0.90000581062E+02 0.  0.
        -12    1    1    2    0    0  0.16361215062E+00 -0.11681816687E+01 -0.15687308737E-01  0.11796878564E+01  0.00000000000E+00 0.  1.
         11    1    3    3    0    0 -0.51331007167E+01 -0.15163980319E+02 -0.19023952018E+02  0.24863744141E+02  0.51100000000E-03 0. -1.
        -11    1    3    3    0    0  0.13331256003E+02 -0.14473112567E+02 -0.99280155866E+01  0.22039938016E+02  0.51100000000E-03 0.  1.
        -12    1    3    3    0    0 -0.83617674369E+01  0.30805274555E+02  0.28967654913E+02  0.43104629986E+02  0.00000000000E+00 0.  1.
</event>
<event>
 7    1  0.1978681E-015  0.9000778E+02  0.7816164E-02  0.1186339E+00
        -11   -1    0    0    0    0  0.00000000000E+00  0.00000000000E+00  0.45593999997E+02  0.45594000000E+02  0.51100000000E-03 0. -1.
         11   -1    0    0    0    0 -0.00000000000E+00 -0.00000000000E+00 -0.45593999997E+02  0.45594000000E+02  0.51100000000E-03 0.  1.
    9900012    2    1    2    0    0 -0.37224385594E+00  0.10186371876E+01  0.46553483356E+00  0.90007783965E+02  0.90000045913E+02 0.  0.
        -12    1    1    2    0    0  0.37224385594E+00 -0.10186371876E+01 -0.46553483356E+00  0.11802160351E+01  0.00000000000E+00 0.  1.
         11    1    3    3    0    0 -0.18097947174E+02  0.12824879252E+02 -0.26602870819E+02  0.34637060439E+02  0.51100000000E-03 0. -1.
        -11    1    3    3    0    0 -0.19533498499E+01  0.10612029829E+02 -0.47202401842E+01  0.11777581262E+02  0.51100000000E-03 0.  1.
        -12    1    3    3    0    0  0.19679053168E+02 -0.22418271894E+02  0.31788645837E+02  0.43593142264E+02  0.00000000000E+00 0.  1.
</event>
<event>
 7    1  0.1978681E-015  0.9000782E+02  0.7816164E-02  0.1186339E+00
        -11   -1    0    0    0    0  0.00000000000E+00  0.00000000000E+00  0.45593999997E+02  0.45594000000E+02  0.51100000000E-03 0. -1.
         11   -1    0    0    0    0 -0.00000000000E+00 -0.00000000000E+00 -0.45593999997E+02  0.45594000000E+02  0.51100000000E-03 0.  1.
    9900012    2    1    2    0    0  0.11331085510E+01  0.58493532195E-01  0.32475727308E+00  0.90007820451E+02  0.90000082881E+02 0.  0.
        -12    1    1    2    0    0 -0.11331085510E+01 -0.58493532195E-01 -0.32475727308E+00  0.11801795491E+01  0.00000000000E+00 0.  1.
         11    1    3    3    0    0 -0.19923617010E+01  0.48269322062E+01 -0.77130884843E+01  0.93145324037E+01  0.51100000000E-03 0. -1.
        -11    1    3    3    0    0  0.35959852894E+02 -0.22919869872E+02  0.19734593274E+01  0.42688710418E+02  0.51100000000E-03 0.  1.
         12    1    3    3    0    0 -0.32834382643E+02  0.18151431198E+02  0.60643864300E+01  0.38004577630E+02  0.00000000000E+00 0. -1.
</event>
<event>
 7    1  0.1978681E-015  0.9000764E+02  0.7816164E-02  0.1186339E+00
        -11   -1    0    0    0    0  0.00000000000E+00  0.00000000000E+00  0.45593999997E+02  0.45594000000E+02  0.51100000000E-03 0. -1.
         11   -1    0    0    0    0 -0.00000000000E+00 -0.00000000000E+00 -0.45593999997E+02  0.45594000000E+02  0.51100000000E-03 0.  1.
    9900012    2    1    2    0    0 -0.15492286816E+00 -0.10837205423E+01  0.44134705063E+00  0.90007644745E+02  0.89999904856E+02 0.  0.
        -12    1    1    2    0    0  0.15492286816E+00  0.10837205423E+01 -0.44134705063E+00  0.11803552550E+01  0.00000000000E+00 0.  1.
         11    1    3    3    0    0 -0.60930201819E+01  0.84042855652E+01  0.98227824323E+01  0.14291394815E+02  0.51100000000E-03 0. -1.
        -11    1    3    3    0    0 -0.10194052390E+02 -0.28050013257E+02 -0.30957107290E+02  0.43000749295E+02  0.51100000000E-03 0.  1.
         12    1    3    3    0    0  0.16132149704E+02  0.18562007150E+02  0.21575671908E+02  0.32715500635E+02  0.00000000000E+00 0. -1.
</event>
<event>
 7    1  0.1978681E-015  0.9000778E+02  0.7816164E-02  0.1186339E+00
        -11   -1    0    0    0    0  0.00000000000E+00  0.00000000000E+00  0.45593999997E+02  0.45594000000E+02  0.51100000000E-03 0.  1.
         11   -1    0    0    0    0 -0.00000000000E+00 -0.00000000000E+00 -0.45593999997E+02  0.45594000000E+02  0.51100000000E-03 0. -1.
    9900012    2    1    2    0    0 -0.75258829153E+00  0.53047342732E+00 -0.73832236234E+00  0.90007783450E+02  0.90000045392E+02 0.  0.
        -12    1    1    2    0    0  0.75258829153E+00 -0.53047342732E+00  0.73832236234E+00  0.11802165498E+01  0.00000000000E+00 0.  1.
         11    1    3    3    0    0  0.87636080594E+01  0.29666742132E+01  0.48012793275E+01  0.10423735681E+02  0.51100000000E-03 0. -1.
        -11    1    3    3    0    0  0.18557286376E+02 -0.36148465213E+01  0.29272526817E+02  0.34847106329E+02  0.51100000000E-03 0.  1.
         12    1    3    3    0    0 -0.28073482727E+02  0.11786457354E+01 -0.34812128507E+02  0.44736941440E+02  0.00000000000E+00 0. -1.
</event>
<event>
 7    1  0.1978681E-015  0.9000761E+02  0.7816164E-02  0.1186339E+00
        -11   -1    0    0    0    0  0.00000000000E+00  0.00000000000E+00  0.45593999997E+02  0.45594000000E+02  0.51100000000E-03 0. -1.
         11   -1    0    0    0    0 -0.00000000000E+00 -0.00000000000E+00 -0.45593999997E+02  0.45594000000E+02  0.51100000000E-03 0.  1.
    9900012    2    1    2    0    0  0.77532940835E+00  0.88867517176E+00 -0.49384648745E-01  0.90007611040E+02  0.89999870706E+02 0.  0.
        -12    1    1    2    0    0 -0.77532940835E+00 -0.88867517176E+00  0.49384648745E-01  0.11803889596E+01  0.00000000000E+00 0.  1.
         11    1    3    3    0    0 -0.82522920217E+01 -0.39420835529E+01  0.19266861739E+01  0.93462541279E+01  0.51100000000E-03 0. -1.
        -11    1    3    3    0    0 -0.33383484530E+02  0.14546798270E+02  0.44255732728E+01  0.36683130705E+02  0.51100000000E-03 0.  1.
         12    1    3    3    0    0  0.42411105960E+02 -0.97160395456E+01 -0.64016440955E+01  0.43978226207E+02  0.00000000000E+00 0. -1.
</event>
<event>
 7    1  0.1978681E-015  0.9000790E+02  0.7816164E-02  0.1186339E+00
        -11   -1    0    0    0    0  0.00000000000E+00  0.00000000000E+00  0.45593999997E+02  0.45594000000E+02  0.51100000000E-03 0.  1.
         11   -1    0    0    0    0 -0.00000000000E+00 -0.00000000000E+00 -0.45593999997E+02  0.45594000000E+02  0.51100000000E-03 0. -1.
    9900012    2    1    2    0    0  0.74835922940E+00 -0.75164268614E+00 -0.51732811544E+00  0.90007899732E+02  0.90000163208E+02 0.  0.
        -12    1    1    2    0    0 -0.74835922940E+00  0.75164268614E+00  0.51732811544E+00  0.11801002681E+01  0.00000000000E+00 0.  1.
         11    1    3    3    0    0 -0.13627655488E+01  0.43124935378E+01  0.93278741830E+01  0.10366482889E+02  0.51100000000E-03 0. -1.
        -11    1    3    3    0    0 -0.71108861784E+01 -0.41157569222E+02 -0.58447815259E+01  0.42174301154E+02  0.51100000000E-03 0.  1.
         12    1    3    3    0    0  0.92220109567E+01  0.36093432998E+02 -0.40004207726E+01  0.37467115689E+02  0.00000000000E+00 0. -1.
</event>
<event>
 7    1  0.5463818E-015  0.9000772E+02  0.7816164E-02  0.1186339E+00
        -11   -1    0    0    0    0  0.00000000000E+00  0.00000000000E+00  0.45593999997E+02  0.45594000000E+02  0.51100000000E-03 0. -1.
         11   -1    0    0    0    0 -0.00000000000E+00 -0.00000000000E+00 -0.45593999997E+02  0.45594000000E+02  0.51100000000E-03 0.  1.
    9900012    2    1    2    0    0 -0.59266093967E-01 -0.85660948866E+00  0.80979410034E+00  0.90007720893E+02  0.89999982009E+02 0.  0.
        -12    1    1    2    0    0  0.59266093967E-01  0.85660948866E+00 -0.80979410034E+00  0.11802791072E+01  0.00000000000E+00 0.  1.
         11    1    3    3    0    0  0.68320853331E+01 -0.60227096904E+01 -0.27016232439E+01  0.94999573908E+01  0.51100000000E-03 0. -1.
        -11    1    3    3    0    0 -0.97262156469E+01 -0.60784273090E+01 -0.36808159482E+02  0.38553691834E+02  0.51100000000E-03 0.  1.
         12    1    3    3    0    0  0.28348642199E+01  0.11244527511E+02  0.40319576826E+02  0.41954071668E+02  0.00000000000E+00 0. -1.
</event>
<event>
 7    1  0.1978681E-015  0.9000768E+02  0.7816164E-02  0.1186339E+00
        -11   -1    0    0    0    0  0.00000000000E+00  0.00000000000E+00  0.45593999997E+02  0.45594000000E+02  0.51100000000E-03 0. -1.
         11   -1    0    0    0    0 -0.00000000000E+00 -0.00000000000E+00 -0.45593999997E+02  0.45594000000E+02  0.51100000000E-03 0.  1.
    9900012    2    1    2    0    0 -0.28660248628E+00  0.41510154787E+00  0.10670994182E+01  0.90007681633E+02  0.89999942230E+02 0.  0.
        -12    1    1    2    0    0  0.28660248628E+00 -0.41510154787E+00 -0.10670994182E+01  0.11803183674E+01  0.00000000000E+00 0.  1.
         11    1    3    3    0    0 -0.94305132888E+01 -0.38809139977E+02  0.72272928158E+01  0.40587161620E+02  0.51100000000E-03 0. -1.
        -11    1    3    3    0    0 -0.45013990280E+00  0.34853592801E+01  0.88236395415E+01  0.94977350070E+01  0.51100000000E-03 0.  1.
        -12    1    3    3    0    0  0.95940507053E+01  0.35738882245E+02 -0.14983832939E+02  0.39922785006E+02  0.00000000000E+00 0.  1.
</event>
<event>
 7    1  0.1978681E-015  0.9000777E+02  0.7816164E-02  0.1186339E+00
        -11   -1    0    0    0    0  0.00000000000E+00  0.00000000000E+00  0.45593999997E+02  0.45594000000E+02  0.51100000000E-03 0.  1.
         11   -1    0    0    0    0 -0.00000000000E+00 -0.00000000000E+00 -0.45593999997E+02  0.45594000000E+02  0.51100000000E-03 0. -1.
    9900012    2    1    2    0    0 -0.32942667274E+00  0.36503214990E+00 -0.10729306709E+01  0.90007766706E+02  0.90000028427E+02 0.  0.
        -12    1    1    2    0    0  0.32942667274E+00 -0.36503214990E+00  0.10729306709E+01  0.11802332938E+01  0.00000000000E+00 0.  1.
         11    1    3    3    0    0 -0.83475339665E+01 -0.29970495537E+01  0.93512938401E+00  0.89184133440E+01  0.51100000000E-03 0. -1.
        -11    1    3    3    0    0  0.69286622385E+01 -0.33578802807E+01  0.38881729859E+02  0.39636733436E+02  0.51100000000E-03 0.  1.
         12    1    3    3    0    0  0.10894450552E+01  0.67199619843E+01 -0.40889789914E+02  0.41452619926E+02  0.00000000000E+00 0. -1.
</event>
<event>
 7    1  0.1978681E-015  0.9000782E+02  0.7816164E-02  0.1186339E+00
        -11   -1    0    0    0    0  0.00000000000E+00  0.00000000000E+00  0.45593999997E+02  0.45594000000E+02  0.51100000000E-03 0. -1.
         11   -1    0    0    0    0 -0.00000000000E+00 -0.00000000000E+00 -0.45593999997E+02  0.45594000000E+02  0.51100000000E-03 0.  1.
    9900012    2    1    2    0    0 -0.97072335843E+00  0.19246463131E-01  0.67092929528E+00  0.90007821885E+02  0.90000084333E+02 0.  0.
        -12    1    1    2    0    0  0.97072335843E+00 -0.19246463131E-01 -0.67092929528E+00  0.11801781155E+01  0.00000000000E+00 0.  1.
         11    1    3    3    0    0  0.11928352468E+02  0.72126129128E+01 -0.55106194207E+01  0.14989139545E+02  0.51100000000E-03 0. -1.
        -11    1    3    3    0    0 -0.30836484486E+02  0.19993526313E+02  0.17277211027E+02  0.40609504935E+02  0.51100000000E-03 0.  1.
         12    1    3    3    0    0  0.17937408659E+02 -0.27186892763E+02 -0.11095662311E+02  0.34409177405E+02  0.00000000000E+00 0. -1.
</event>
<event>
 7    1  0.1978681E-015  0.9000787E+02  0.7816164E-02  0.1186339E+00
        -11   -1    0    0    0    0  0.00000000000E+00  0.00000000000E+00  0.45593999997E+02  0.45594000000E+02  0.51100000000E-03 0.  1.
         11   -1    0    0    0    0 -0.00000000000E+00 -0.00000000000E+00 -0.45593999997E+02  0.45594000000E+02  0.51100000000E-03 0. -1.
    9900012    2    1    2    0    0 -0.17918327645E+00 -0.80206299959E-01 -0.11636881196E+01  0.90007868763E+02  0.90000131830E+02 0.  0.
        -12    1    1    2    0    0  0.17918327645E+00  0.80206299959E-01  0.11636881196E+01  0.11801312371E+01  0.00000000000E+00 0.  1.
         11    1    3    3    0    0 -0.48391833245E+01  0.14252421912E+01 -0.71329863446E+01  0.87366186254E+01  0.51100000000E-03 0. -1.
        -11    1    3    3    0    0 -0.14800565590E+02 -0.17422488133E+02 -0.29795013000E+02  0.37554528814E+02  0.51100000000E-03 0.  1.
         12    1    3    3    0    0  0.19460565638E+02  0.15917039641E+02  0.35764311225E+02  0.43716721324E+02  0.00000000000E+00 0. -1.
</event>
<event>
 7    1  0.2372624E-015  0.9000772E+02  0.7816164E-02  0.1186339E+00
        -11   -1    0    0    0    0  0.00000000000E+00  0.00000000000E+00  0.45593999997E+02  0.45594000000E+02  0.51100000000E-03 0. -1.
         11   -1    0    0    0    0 -0.00000000000E+00 -0.00000000000E+00 -0.45593999997E+02  0.45594000000E+02  0.51100000000E-03 0.  1.
    9900012    2    1    2    0    0  0.92003084678E+00 -0.68278770680E+00 -0.28356797581E+00  0.90007717573E+02  0.89999978645E+02 0.  0.
        -12    1    1    2    0    0 -0.92003084678E+00  0.68278770680E+00  0.28356797581E+00  0.11802824274E+01  0.00000000000E+00 0.  1.
         11    1    3    3    0    0 -0.23628337429E+00  0.74056764879E+01 -0.56052636478E+01  0.92907940941E+01  0.51100000000E-03 0. -1.
        -11    1    3    3    0    0  0.38353288856E+02 -0.17096377168E+02 -0.56317991275E+00  0.41994976488E+02  0.51100000000E-03 0.  1.
         12    1    3    3    0    0 -0.37196974635E+02  0.90079129732E+01  0.58848755847E+01  0.38721946991E+02  0.00000000000E+00 0. -1.
</event>
<event>
 7    1  0.1978681E-015  0.9000775E+02  0.7816164E-02  0.1186339E+00
        -11   -1    0    0    0    0  0.00000000000E+00  0.00000000000E+00  0.45593999997E+02  0.45594000000E+02  0.51100000000E-03 0. -1.
         11   -1    0    0    0    0 -0.00000000000E+00 -0.00000000000E+00 -0.45593999997E+02  0.45594000000E+02  0.51100000000E-03 0.  1.
    9900012    2    1    2    0    0  0.10448951256E+01 -0.29573576797E+00  0.46231201693E+00  0.90007746693E+02  0.90000008149E+02 0.  0.
        -12    1    1    2    0    0 -0.10448951256E+01  0.29573576797E+00 -0.46231201693E+00  0.11802533071E+01  0.00000000000E+00 0.  1.
         11    1    3    3    0    0 -0.13911766721E+02  0.21104204487E+01 -0.90152128535E+01  0.16711229483E+02  0.51100000000E-03 0. -1.
        -11    1    3    3    0    0  0.20038940938E+02 -0.34501121078E+02  0.19779242256E+01  0.39947449156E+02  0.51100000000E-03 0.  1.
         12    1    3    3    0    0 -0.50822790920E+01  0.32094964862E+02  0.74996006448E+01  0.33349068054E+02  0.00000000000E+00 0. -1.
</event>
<event>
 7    1  0.1978681E-015  0.9000765E+02  0.7816164E-02  0.1186339E+00
        -11   -1    0    0    0    0  0.00000000000E+00  0.00000000000E+00  0.45593999997E+02  0.45594000000E+02  0.51100000000E-03 0.  1.
         11   -1    0    0    0    0 -0.00000000000E+00 -0.00000000000E+00 -0.45593999997E+02  0.45594000000E+02  0.51100000000E-03 0. -1.
    9900012    2    1    2    0    0  0.56681118836E+00  0.93432906479E+00  0.44606041887E+00  0.90007654448E+02  0.89999914687E+02 0.  0.
        -12    1    1    2    0    0 -0.56681118836E+00 -0.93432906479E+00 -0.44606041887E+00  0.11803455519E+01  0.00000000000E+00 0.  1.
         11    1    3    3    0    0  0.55201317310E+01 -0.16559094677E+02 -0.34127046313E+02  0.38331850480E+02  0.51100000000E-03 0. -1.
        -11    1    3    3    0    0  0.18365392836E+01 -0.79240363079E+01 -0.12061801248E+00  0.81349724594E+01  0.51100000000E-03 0.  1.
        -12    1    3    3    0    0 -0.67898598263E+01  0.25417460050E+02  0.34693724745E+02  0.43540831509E+02  0.00000000000E+00 0.  1.
</event>
<event>
 7    1  0.1978681E-015  0.9000764E+02  0.7816164E-02  0.1186339E+00
        -11   -1    0    0    0    0  0.00000000000E+00  0.00000000000E+00  0.45593999997E+02  0.45594000000E+02  0.51100000000E-03 0.  1.
         11   -1    0    0    0    0 -0.00000000000E+00 -0.00000000000E+00 -0.45593999997E+02  0.45594000000E+02  0.51100000000E-03 0. -1.
    9900012    2    1    2    0    0 -0.86204089753E+00 -0.60243556363E+00 -0.53591847838E+00  0.90007639151E+02  0.89999899188E+02 0.  0.
        -12    1    1    2    0    0  0.86204089753E+00  0.60243556363E+00  0.53591847838E+00  0.11803608486E+01  0.00000000000E+00 0.  1.
         11    1    3    3    0    0 -0.22704582172E+02 -0.77301999029E+00 -0.35041077975E+02  0.41760899863E+02  0.51100000000E-03 0. -1.
        -11    1    3    3    0    0 -0.59070492324E+01 -0.22182717068E+00  0.71745441117E+01  0.92960486982E+01  0.51100000000E-03 0.  1.
        -12    1    3    3    0    0  0.27749590506E+02  0.39241159734E+00  0.27330615385E+02  0.38950690590E+02  0.00000000000E+00 0.  1.
</event>
<event>
 7    1  0.1978681E-015  0.9000778E+02  0.7816164E-02  0.1186339E+00
        -11   -1    0    0    0    0  0.00000000000E+00  0.00000000000E+00  0.45593999997E+02  0.45594000000E+02  0.51100000000E-03 0.  1.
         11   -1    0    0    0    0 -0.00000000000E+00 -0.00000000000E+00 -0.45593999997E+02  0.45594000000E+02  0.51100000000E-03 0. -1.
    9900012    2    1    2    0    0  0.76265444123E+00 -0.56368432192E+00  0.70252161217E+00  0.90007780348E+02  0.90000042249E+02 0.  0.
        -12    1    1    2    0    0 -0.76265444123E+00  0.56368432192E+00 -0.70252161217E+00  0.11802196520E+01  0.00000000000E+00 0.  1.
         11    1    3    3    0    0 -0.40559731045E+01  0.20927732356E+02 -0.31264895662E+02  0.37840647463E+02  0.51100000000E-03 0. -1.
        -11    1    3    3    0    0  0.67385648794E+01 -0.34781480532E+00 -0.57630341519E+01  0.88736573447E+01  0.51100000000E-03 0.  1.
        -12    1    3    3    0    0 -0.19199373337E+01 -0.21143601873E+02  0.37730451426E+02  0.43293475540E+02  0.00000000000E+00 0.  1.
</event>
<event>
 7    1  0.1978681E-015  0.9000772E+02  0.7816164E-02  0.1186339E+00
        -11   -1    0    0    0    0  0.00000000000E+00  0.00000000000E+00  0.45593999997E+02  0.45594000000E+02  0.51100000000E-03 0.  1.
         11   -1    0    0    0    0 -0.00000000000E+00 -0.00000000000E+00 -0.45593999997E+02  0.45594000000E+02  0.51100000000E-03 0. -1.
    9900012    2    1    2    0    0 -0.82772708437E-01  0.77685643360E+00  0.88470596493E+00  0.90007719574E+02  0.89999980672E+02 0.  0.
        -12    1    1    2    0    0  0.82772708437E-01 -0.77685643360E+00 -0.88470596493E+00  0.11802804260E+01  0.00000000000E+00 0.  1.
         11    1    3    3    0    0 -0.35481744506E+02  0.77862874764E+01 -0.15532206085E+02  0.39507339723E+02  0.51100000000E-03 0. -1.
        -11    1    3    3    0    0  0.22810241049E+01  0.91636170105E+01 -0.14296040785E+01  0.95508489552E+01  0.51100000000E-03 0.  1.
        -12    1    3    3    0    0  0.33117947692E+02 -0.16173048053E+02  0.17846516129E+02  0.40949530896E+02  0.00000000000E+00 0.  1.
</event>
<event>
 7    1  0.1978681E-015  0.9000776E+02  0.7816164E-02  0.1186339E+00
        -11   -1    0    0    0    0  0.00000000000E+00  0.00000000000E+00  0.45593999997E+02  0.45594000000E+02  0.51100000000E-03 0. -1.
         11   -1    0    0    0    0 -0.00000000000E+00 -0.00000000000E+00 -0.45593999997E+02  0.45594000000E+02  0.51100000000E-03 0.  1.
    9900012    2    1    2    0    0  0.35277196637E+00 -0.10794615099E+01  0.32138994123E+00  0.90007755658E+02  0.90000017233E+02 0.  0.
        -12    1    1    2    0    0 -0.35277196637E+00  0.10794615099E+01 -0.32138994123E+00  0.11802443416E+01  0.00000000000E+00 0.  1.
         11    1    3    3    0    0 -0.35891845173E+02  0.67008654918E+01  0.19172189784E+02  0.41239532122E+02  0.51100000000E-03 0. -1.
        -11    1    3    3    0    0  0.74250099269E+01 -0.62661144151E+01  0.53618819863E+01  0.11097060015E+02  0.51100000000E-03 0.  1.
        -12    1    3    3    0    0  0.28819607213E+02 -0.15142125867E+01 -0.24212681829E+02  0.37671163521E+02  0.00000000000E+00 0.  1.
</event>
<event>
 7    1  0.1978681E-015  0.9000781E+02  0.7816164E-02  0.1186339E+00
        -11   -1    0    0    0    0  0.00000000000E+00  0.00000000000E+00  0.45593999997E+02  0.45594000000E+02  0.51100000000E-03 0. -1.
         11   -1    0    0    0    0 -0.00000000000E+00 -0.00000000000E+00 -0.45593999997E+02  0.45594000000E+02  0.51100000000E-03 0.  1.
    9900012    2    1    2    0    0 -0.11093980978E+01  0.14871455559E+00  0.37412778885E+00  0.90007808591E+02  0.90000070865E+02 0.  0.
        -12    1    1    2    0    0  0.11093980978E+01 -0.14871455559E+00 -0.37412778885E+00  0.11801914085E+01  0.00000000000E+00 0.  1.
         11    1    3    3    0    0 -0.10702759649E+01 -0.42819391615E+01 -0.52446400356E-01  0.44139828397E+01  0.51100000000E-03 0. -1.
        -11    1    3    3    0    0  0.74358679607E+01 -0.12675213156E+02 -0.39159956598E+02  0.41826491150E+02  0.51100000000E-03 0.  1.
         12    1    3    3    0    0 -0.74749900936E+01  0.17105866873E+02  0.39586530787E+02  0.43767334602E+02  0.00000000000E+00 0. -1.
</event>
<event>
 7    1  0.1978681E-015  0.9000774E+02  0.7816164E-02  0.1186339E+00
        -11   -1    0    0    0    0  0.00000000000E+00  0.00000000000E+00  0.45593999997E+02  0.45594000000E+02  0.51100000000E-03 0. -1.
         11   -1    0    0    0    0 -0.00000000000E+00 -0.00000000000E+00 -0.45593999997E+02  0.45594000000E+02  0.51100000000E-03 0.  1.
    9900012    2    1    2    0    0  0.62269287085E+00  0.73812370022E-01  0.99990901034E+00  0.90007740407E+02  0.90000001781E+02 0.  0.
        -12    1    1    2    0    0 -0.62269287085E+00 -0.73812370022E-01 -0.99990901034E+00  0.11802595928E+01  0.00000000000E+00 0.  1.
         11    1    3    3    0    0 -0.60805028080E+01  0.58223905661E+01 -0.48019341107E+01  0.96918170519E+01  0.51100000000E-03 0. -1.
        -11    1    3    3    0    0 -0.28436363823E+02  0.66219008055E+01 -0.19653932324E+02  0.35195928938E+02  0.51100000000E-03 0.  1.
         12    1    3    3    0    0  0.35139559502E+02 -0.12370479002E+02  0.25455775445E+02  0.45119994417E+02  0.00000000000E+00 0. -1.
</event>
<event>
 7    1  0.1978681E-015  0.9000779E+02  0.7816164E-02  0.1186339E+00
        -11   -1    0    0    0    0  0.00000000000E+00  0.00000000000E+00  0.45593999997E+02  0.45594000000E+02  0.51100000000E-03 0.  1.
         11   -1    0    0    0    0 -0.00000000000E+00 -0.00000000000E+00 -0.45593999997E+02  0.45594000000E+02  0.51100000000E-03 0. -1.
    9900012    2    1    2    0    0  0.71223270392E+00 -0.94036944666E+00  0.36328965325E-01  0.90007792427E+02  0.90000054487E+02 0.  0.
        -12    1    1    2    0    0 -0.71223270392E+00  0.94036944666E+00 -0.36328965325E-01  0.11802075726E+01  0.00000000000E+00 0.  1.
         11    1    3    3    0    0 -0.58719057523E+01 -0.27164255973E+02 -0.27166534879E+02  0.38863822475E+02  0.51100000000E-03 0. -1.
        -11    1    3    3    0    0 -0.93514060008E+01  0.59848042477E+00 -0.15086312204E+01  0.94912033711E+01  0.51100000000E-03 0.  1.
        -12    1    3    3    0    0  0.15935544457E+02  0.25625406102E+02  0.28711495065E+02  0.41652766581E+02  0.00000000000E+00 0.  1.
</event>
<event>
 7    1  0.1978681E-015  0.9000770E+02  0.7816164E-02  0.1186339E+00
        -11   -1    0    0    0    0  0.00000000000E+00  0.00000000000E+00  0.45593999997E+02  0.45594000000E+02  0.51100000000E-03 0.  1.
         11   -1    0    0    0    0 -0.00000000000E+00 -0.00000000000E+00 -0.45593999997E+02  0.45594000000E+02  0.51100000000E-03 0. -1.
    9900012    2    1    2    0    0 -0.95243321563E+00 -0.62975790556E+00  0.29898177370E+00  0.90007697432E+02  0.89999958239E+02 0.  0.
        -12    1    1    2    0    0  0.95243321563E+00  0.62975790556E+00 -0.29898177370E+00  0.11803025675E+01  0.00000000000E+00 0.  1.
         11    1    3    3    0    0  0.30481326603E+02 -0.16102765771E+02 -0.27211801288E+02  0.43919158309E+02  0.51100000000E-03 0. -1.
        -11    1    3    3    0    0 -0.93712072373E+01 -0.77668486186E+00  0.51470640314E+01  0.10719842950E+02  0.51100000000E-03 0.  1.
        -12    1    3    3    0    0 -0.22062552581E+02  0.16249692727E+02  0.22363719031E+02  0.35368696174E+02  0.00000000000E+00 0.  1.
</event>
<event>
 7    1  0.1978681E-015  0.9000781E+02  0.7816164E-02  0.1186339E+00
        -11   -1    0    0    0    0  0.00000000000E+00  0.00000000000E+00  0.45593999997E+02  0.45594000000E+02  0.51100000000E-03 0.  1.
         11   -1    0    0    0    0 -0.00000000000E+00 -0.00000000000E+00 -0.45593999997E+02  0.45594000000E+02  0.51100000000E-03 0. -1.
    9900012    2    1    2    0    0 -0.78579271095E+00  0.34476673985E+00 -0.81025507433E+00  0.90007810365E+02  0.90000072662E+02 0.  0.
        -12    1    1    2    0    0  0.78579271095E+00 -0.34476673985E+00  0.81025507433E+00  0.11801896352E+01  0.00000000000E+00 0.  1.
         11    1    3    3    0    0  0.79989843329E+01 -0.20881198768E+02 -0.29478867408E+02  0.37000159949E+02  0.51100000000E-03 0. -1.
        -11    1    3    3    0    0  0.97671867461E+01 -0.73716915891E+00 -0.29916978520E+01  0.10241660588E+02  0.51100000000E-03 0.  1.
        -12    1    3    3    0    0 -0.18551963790E+02  0.21963134667E+02  0.31660310186E+02  0.42765989827E+02  0.00000000000E+00 0.  1.
</event>
<event>
 7    1  0.1978681E-015  0.9000771E+02  0.7816164E-02  0.1186339E+00
        -11   -1    0    0    0    0  0.00000000000E+00  0.00000000000E+00  0.45593999997E+02  0.45594000000E+02  0.51100000000E-03 0.  1.
         11   -1    0    0    0    0 -0.00000000000E+00 -0.00000000000E+00 -0.45593999997E+02  0.45594000000E+02  0.51100000000E-03 0. -1.
    9900012    2    1    2    0    0 -0.87983628597E+00  0.64073142669E+00 -0.45654521398E+00  0.90007710975E+02  0.89999971959E+02 0.  0.
        -12    1    1    2    0    0  0.87983628597E+00 -0.64073142669E+00  0.45654521398E+00  0.11802890255E+01  0.00000000000E+00 0.  1.
         11    1    3    3    0    0  0.86534699097E+01  0.15373476622E+02 -0.27250758066E+02  0.32462750043E+02  0.51100000000E-03 0. -1.
        -11    1    3    3    0    0 -0.52619601046E+01  0.17498781976E+02  0.76126506206E+01  0.19795152046E+02  0.51100000000E-03 0.  1.
        -12    1    3    3    0    0 -0.42713460911E+01 -0.32231527171E+02  0.19181562232E+02  0.37749808885E+02  0.00000000000E+00 0.  1.
</event>
<event>
 7    1  0.1978681E-015  0.9000772E+02  0.7816164E-02  0.1186339E+00
        -11   -1    0    0    0    0  0.00000000000E+00  0.00000000000E+00  0.45593999997E+02  0.45594000000E+02  0.51100000000E-03 0.  1.
         11   -1    0    0    0    0 -0.00000000000E+00 -0.00000000000E+00 -0.45593999997E+02  0.45594000000E+02  0.51100000000E-03 0. -1.
    9900012    2    1    2    0    0  0.73432883304E+00 -0.79724641745E+00 -0.46715070666E+00  0.90007715938E+02  0.89999976988E+02 0.  0.
        -12    1    1    2    0    0 -0.73432883304E+00  0.79724641745E+00  0.46715070666E+00  0.11802840624E+01  0.00000000000E+00 0.  1.
         11    1    3    3    0    0 -0.88425959150E+01  0.39597545028E+01  0.29857816993E+01  0.10138345568E+02  0.51100000000E-03 0. -1.
        -11    1    3    3    0    0  0.23839665757E+02 -0.16208815448E+01  0.32918002916E+02  0.40676182670E+02  0.51100000000E-03 0.  1.
         12    1    3    3    0    0 -0.14262741009E+02 -0.31361193755E+01 -0.36370935322E+02  0.39193187699E+02  0.00000000000E+00 0. -1.
</event>
<event>
 7    1  0.1978681E-015  0.9000757E+02  0.7816164E-02  0.1186339E+00
        -11   -1    0    0    0    0  0.00000000000E+00  0.00000000000E+00  0.45593999997E+02  0.45594000000E+02  0.51100000000E-03 0. -1.
         11   -1    0    0    0    0 -0.00000000000E+00 -0.00000000000E+00 -0.45593999997E+02  0.45594000000E+02  0.51100000000E-03 0.  1.
    9900012    2    1    2    0    0 -0.91180337396E+00  0.66440210051E+00 -0.34728585293E+00  0.90007566602E+02  0.89999825681E+02 0.  0.
        -12    1    1    2    0    0  0.91180337396E+00 -0.66440210051E+00  0.34728585293E+00  0.11804333982E+01  0.00000000000E+00 0.  1.
         11    1    3    3    0    0  0.21737987089E+01 -0.67396262446E+01  0.47000311705E+01  0.84993091489E+01  0.51100000000E-03 0. -1.
        -11    1    3    3    0    0  0.67653599278E+01  0.38803368368E+02  0.15923917743E+02  0.42485793486E+02  0.51100000000E-03 0.  1.
         12    1    3    3    0    0 -0.98509620107E+01 -0.31399340023E+02 -0.20971234766E+02  0.39022463966E+02  0.00000000000E+00 0. -1.
</event>
<event>
 7    1  0.1978681E-015  0.9000768E+02  0.7816164E-02  0.1186339E+00
        -11   -1    0    0    0    0  0.00000000000E+00  0.00000000000E+00  0.45593999997E+02  0.45594000000E+02  0.51100000000E-03 0.  1.
         11   -1    0    0    0    0 -0.00000000000E+00 -0.00000000000E+00 -0.45593999997E+02  0.45594000000E+02  0.51100000000E-03 0. -1.
    9900012    2    1    2    0    0  0.45978416974E+00 -0.82081616826E+00 -0.71275780760E+00  0.90007676164E+02  0.89999936690E+02 0.  0.
        -12    1    1    2    0    0 -0.45978416974E+00  0.82081616826E+00  0.71275780760E+00  0.11803238357E+01  0.00000000000E+00 0.  1.
         11    1    3    3    0    0 -0.21970005643E+01 -0.87540853826E+01  0.34765671903E+01  0.96719874925E+01  0.51100000000E-03 0. -1.
        -11    1    3    3    0    0 -0.19282417817E+02 -0.30370398442E+02 -0.39731149500E+01  0.36193347193E+02  0.51100000000E-03 0.  1.
         12    1    3    3    0    0  0.21939202551E+02  0.38303667656E+02 -0.21621004790E+00  0.44142341479E+02  0.00000000000E+00 0. -1.
</event>
<event>
 7    1  0.1978681E-015  0.9000779E+02  0.7816164E-02  0.1186339E+00
        -11   -1    0    0    0    0  0.00000000000E+00  0.00000000000E+00  0.45593999997E+02  0.45594000000E+02  0.51100000000E-03 0.  1.
         11   -1    0    0    0    0 -0.00000000000E+00 -0.00000000000E+00 -0.45593999997E+02  0.45594000000E+02  0.51100000000E-03 0. -1.
    9900012    2    1    2    0    0  0.44483736101E+00  0.22177664996E+00 -0.10704344727E+01  0.90007790222E+02  0.90000052253E+02 0.  0.
        -12    1    1    2    0    0 -0.44483736101E+00 -0.22177664996E+00  0.10704344727E+01  0.11802097782E+01  0.00000000000E+00 0.  1.
         11    1    3    3    0    0 -0.45526472388E+01 -0.38096523229E+02  0.13122739400E+02  0.40549697517E+02  0.51100000000E-03 0. -1.
        -11    1    3    3    0    0  0.79830113720E+01 -0.78069175251E-01 -0.62411327501E+01  0.10133425069E+02  0.51100000000E-03 0.  1.
        -12    1    3    3    0    0 -0.29855267723E+01  0.38396369055E+02 -0.79520411229E+01  0.39324667636E+02  0.00000000000E+00 0.  1.
</event>
<event>
 7    1  0.1978681E-015  0.9000775E+02  0.7816164E-02  0.1186339E+00
        -11   -1    0    0    0    0  0.00000000000E+00  0.00000000000E+00  0.45593999997E+02  0.45594000000E+02  0.51100000000E-03 0. -1.
         11   -1    0    0    0    0 -0.00000000000E+00 -0.00000000000E+00 -0.45593999997E+02  0.45594000000E+02  0.51100000000E-03 0.  1.
    9900012    2    1    2    0    0 -0.79313620451E+00  0.47052323921E+00  0.73656706146E+00  0.90007750792E+02  0.90000012302E+02 0.  0.
        -12    1    1    2    0    0  0.79313620451E+00 -0.47052323921E+00 -0.73656706146E+00  0.11802492082E+01  0.00000000000E+00 0.  1.
         11    1    3    3    0    0 -0.23209714244E+02  0.21230284221E+02  0.22813963138E+02  0.38857338016E+02  0.51100000000E-03 0. -1.
        -11    1    3    3    0    0 -0.70879696507E+01  0.35347490335E+01 -0.37030738293E+01  0.87433700908E+01  0.51100000000E-03 0.  1.
        -12    1    3    3    0    0  0.29504547690E+02 -0.24294510015E+02 -0.18374322247E+02  0.42407042685E+02  0.00000000000E+00 0.  1.
</event>
<event>
 7    1  0.1978681E-015  0.9000775E+02  0.7816164E-02  0.1186339E+00
        -11   -1    0    0    0    0  0.00000000000E+00  0.00000000000E+00  0.45593999997E+02  0.45594000000E+02  0.51100000000E-03 0. -1.
         11   -1    0    0    0    0 -0.00000000000E+00 -0.00000000000E+00 -0.45593999997E+02  0.45594000000E+02  0.51100000000E-03 0.  1.
    9900012    2    1    2    0    0 -0.13952726376E+00 -0.58159286574E+00  0.10174857794E+01  0.90007747726E+02  0.90000009196E+02 0.  0.
        -12    1    1    2    0    0  0.13952726376E+00  0.58159286574E+00 -0.10174857794E+01  0.11802522740E+01  0.00000000000E+00 0.  1.
         11    1    3    3    0    0 -0.65942104171E+01  0.66817627949E+00 -0.15188344778E+01  0.67997741873E+01  0.51100000000E-03 0. -1.
        -11    1    3    3    0    0  0.78268443476E+01 -0.48860485666E+01 -0.39717822568E+02  0.40775463122E+02  0.51100000000E-03 0.  1.
         12    1    3    3    0    0 -0.13721611942E+01  0.36362794213E+01  0.42254142825E+02  0.42432510417E+02  0.00000000000E+00 0. -1.
</event>
<event>
 7    1  0.1978681E-015  0.9000764E+02  0.7816164E-02  0.1186339E+00
        -11   -1    0    0    0    0  0.00000000000E+00  0.00000000000E+00  0.45593999997E+02  0.45594000000E+02  0.51100000000E-03 0. -1.
         11   -1    0    0    0    0 -0.00000000000E+00 -0.00000000000E+00 -0.45593999997E+02  0.45594000000E+02  0.51100000000E-03 0.  1.
    9900012    2    1    2    0    0  0.60098757606E+00  0.88807784448E+00  0.49333829704E+00  0.90007639462E+02  0.89999899503E+02 0.  0.
        -12    1    1    2    0    0 -0.60098757606E+00 -0.88807784448E+00 -0.49333829704E+00  0.11803605380E+01  0.00000000000E+00 0.  1.
         11    1    3    3    0    0 -0.86892601393E+01 -0.97652068043E+00 -0.48267266723E+01  0.99876986858E+01  0.51100000000E-03 0. -1.
        -11    1    3    3    0    0 -0.39308602073E+01 -0.37614031336E+02 -0.14135872386E+01  0.37845280346E+02  0.51100000000E-03 0.  1.
         12    1    3    3    0    0  0.13221107923E+02  0.39478629861E+02  0.67336522080E+01  0.42174660431E+02  0.00000000000E+00 0. -1.
</event>
<event>
 7    1  0.1978681E-015  0.9000764E+02  0.7816164E-02  0.1186339E+00
        -11   -1    0    0    0    0  0.00000000000E+00  0.00000000000E+00  0.45593999997E+02  0.45594000000E+02  0.51100000000E-03 0.  1.
         11   -1    0    0    0    0 -0.00000000000E+00 -0.00000000000E+00 -0.45593999997E+02  0.45594000000E+02  0.51100000000E-03 0. -1.
    9900012    2    1    2    0    0  0.44295759947E+00 -0.76984487555E+00 -0.77741060496E+00  0.90007644199E+02  0.89999904303E+02 0.  0.
        -12    1    1    2    0    0 -0.44295759947E+00  0.76984487555E+00  0.77741060496E+00  0.11803558006E+01  0.00000000000E+00 0.  1.
         11    1    3    3    0    0  0.25386149372E+02  0.19128697842E+02  0.17904909111E+02  0.36482179645E+02  0.51100000000E-03 0. -1.
        -11    1    3    3    0    0  0.84308926873E+01 -0.22558290517E+01  0.38749699492E+01  0.95490370501E+01  0.51100000000E-03 0.  1.
        -12    1    3    3    0    0 -0.33374084460E+02 -0.17642713666E+02 -0.22557289665E+02  0.43976427505E+02  0.00000000000E+00 0.  1.
</event>
<event>
 7    1  0.1978681E-015  0.9000781E+02  0.7816164E-02  0.1186339E+00
        -11   -1    0    0    0    0  0.00000000000E+00  0.00000000000E+00  0.45593999997E+02  0.45594000000E+02  0.51100000000E-03 0.  1.
         11   -1    0    0    0    0 -0.00000000000E+00 -0.00000000000E+00 -0.45593999997E+02  0.45594000000E+02  0.51100000000E-03 0. -1.
    9900012    2    1    2    0    0  0.61060633602E+00  0.45791755082E+00  0.90017503981E+00  0.90007812014E+02  0.90000074332E+02 0.  0.
        -12    1    1    2    0    0 -0.61060633602E+00 -0.45791755082E+00 -0.90017503981E+00  0.11801879864E+01  0.00000000000E+00 0.  1.
         11    1    3    3    0    0  0.30165234779E+01 -0.28657980667E+02 -0.28145962436E+02  0.40281192529E+02  0.51100000000E-03 0. -1.
        -11    1    3    3    0    0  0.82850673587E+01  0.18881395166E+00  0.15949157746E+01  0.84392978639E+01  0.51100000000E-03 0.  1.
        -12    1    3    3    0    0 -0.10690984501E+02  0.28927084266E+02  0.27451221701E+02  0.41287321621E+02  0.00000000000E+00 0.  1.
</event>
<event>
 7    1  0.1978681E-015  0.9000775E+02  0.7816164E-02  0.1186339E+00
        -11   -1    0    0    0    0  0.00000000000E+00  0.00000000000E+00  0.45593999997E+02  0.45594000000E+02  0.51100000000E-03 0. -1.
         11   -1    0    0    0    0 -0.00000000000E+00 -0.00000000000E+00 -0.45593999997E+02  0.45594000000E+02  0.51100000000E-03 0.  1.
    9900012    2    1    2    0    0  0.10177086659E+01 -0.24526459177E+00  0.54508364834E+00  0.90007745014E+02  0.90000006448E+02 0.  0.
        -12    1    1    2    0    0 -0.10177086659E+01  0.24526459177E+00 -0.54508364834E+00  0.11802549861E+01  0.00000000000E+00 0.  1.
         11    1    3    3    0    0 -0.30526238985E+01  0.36993422708E+02  0.16347181923E+01  0.37155136121E+02  0.51100000000E-03 0. -1.
        -11    1    3    3    0    0 -0.66230203555E+01  0.40422066287E+01  0.57589210811E+01  0.96627638561E+01  0.51100000000E-03 0.  1.
        -12    1    3    3    0    0  0.10693352920E+02 -0.41280893928E+02 -0.68485556251E+01  0.43189845037E+02  0.00000000000E+00 0.  1.
</event>
<event>
 7    1  0.1978681E-015  0.9000775E+02  0.7816164E-02  0.1186339E+00
        -11   -1    0    0    0    0  0.00000000000E+00  0.00000000000E+00  0.45593999997E+02  0.45594000000E+02  0.51100000000E-03 0.  1.
         11   -1    0    0    0    0 -0.00000000000E+00 -0.00000000000E+00 -0.45593999997E+02  0.45594000000E+02  0.51100000000E-03 0. -1.
    9900012    2    1    2    0    0  0.99331318213E+00  0.68696525114E-01 -0.63372268619E+00  0.90007748021E+02  0.90000009495E+02 0.  0.
        -12    1    1    2    0    0 -0.99331318213E+00 -0.68696525114E-01  0.63372268619E+00  0.11802519788E+01  0.00000000000E+00 0.  1.
         11    1    3    3    0    0 -0.15673339068E+02  0.37110000331E+02  0.85915233952E+01  0.41190046815E+02  0.51100000000E-03 0. -1.
        -11    1    3    3    0    0  0.93254158284E+01  0.67109165887E+00 -0.34501200174E+01  0.99657951405E+01  0.51100000000E-03 0.  1.
        -12    1    3    3    0    0  0.73412364216E+01 -0.37712395465E+02 -0.57751260640E+01  0.38851906066E+02  0.00000000000E+00 0.  1.
</event>
<event>
 7    1  0.2301217E-015  0.9000780E+02  0.7816164E-02  0.1186339E+00
        -11   -1    0    0    0    0  0.00000000000E+00  0.00000000000E+00  0.45593999997E+02  0.45594000000E+02  0.51100000000E-03 0.  1.
         11   -1    0    0    0    0 -0.00000000000E+00 -0.00000000000E+00 -0.45593999997E+02  0.45594000000E+02  0.51100000000E-03 0. -1.
    9900012    2    1    2    0    0 -0.57787434908E+00  0.98621441730E+00 -0.29379734220E+00  0.90007798950E+02  0.90000061096E+02 0.  0.
        -12    1    1    2    0    0  0.57787434908E+00 -0.98621441730E+00  0.29379734220E+00  0.11802010500E+01  0.00000000000E+00 0.  1.
         11    1    3    3    0    0 -0.51374341414E+00 -0.85639758214E+01  0.36808266254E+01  0.93356359759E+01  0.51100000000E-03 0. -1.
        -11    1    3    3    0    0  0.36268284856E+02  0.37080252739E+01  0.14816254847E+02  0.39353009361E+02  0.51100000000E-03 0.  1.
         12    1    3    3    0    0 -0.36332415791E+02  0.58421649648E+01 -0.18790878815E+02  0.41319153613E+02  0.00000000000E+00 0. -1.
</event>
<event>
 7    1  0.1978681E-015  0.9000776E+02  0.7816164E-02  0.1186339E+00
        -11   -1    0    0    0    0  0.00000000000E+00  0.00000000000E+00  0.45593999997E+02  0.45594000000E+02  0.51100000000E-03 0. -1.
         11   -1    0    0    0    0 -0.00000000000E+00 -0.00000000000E+00 -0.45593999997E+02  0.45594000000E+02  0.51100000000E-03 0.  1.
    9900012    2    1    2    0    0 -0.57740802315E+00  0.24834835225E+00  0.99894136419E+00  0.90007762406E+02  0.90000024070E+02 0.  0.
        -12    1    1    2    0    0  0.57740802315E+00 -0.24834835225E+00 -0.99894136419E+00  0.11802375940E+01  0.00000000000E+00 0.  1.
         11    1    3    3    0    0 -0.12180870600E+02  0.28478907041E+02  0.25001274875E+02  0.39805596346E+02  0.51100000000E-03 0. -1.
        -11    1    3    3    0    0 -0.48690322676E+01  0.45785267792E+01 -0.72117590667E+01  0.98325913059E+01  0.51100000000E-03 0.  1.
        -12    1    3    3    0    0  0.16472494845E+02 -0.32809085468E+02 -0.16790574444E+02  0.40369574754E+02  0.00000000000E+00 0.  1.
</event>
<event>
 7    1  0.1978681E-015  0.9000778E+02  0.7816164E-02  0.1186339E+00
        -11   -1    0    0    0    0  0.00000000000E+00  0.00000000000E+00  0.45593999997E+02  0.45594000000E+02  0.51100000000E-03 0.  1.
         11   -1    0    0    0    0 -0.00000000000E+00 -0.00000000000E+00 -0.45593999997E+02  0.45594000000E+02  0.51100000000E-03 0. -1.
    9900012    2    1    2    0    0 -0.91207290431E+00 -0.69532693908E-01  0.74578920231E+00  0.90007782515E+02  0.90000044444E+02 0.  0.
        -12    1    1    2    0    0  0.91207290431E+00  0.69532693908E-01 -0.74578920231E+00  0.11802174853E+01  0.00000000000E+00 0.  1.
         11    1    3    3    0    0  0.28425810953E+02  0.36298928675E+01 -0.24299737934E+02  0.37572331768E+02  0.51100000000E-03 0. -1.
        -11    1    3    3    0    0  0.31409813194E+01  0.94019109386E+01  0.10203092124E+01  0.99650752178E+01  0.51100000000E-03 0.  1.
        -12    1    3    3    0    0 -0.32478865177E+02 -0.13101336500E+02  0.24025217924E+02  0.42470375529E+02  0.00000000000E+00 0.  1.
</event>
<event>
 7    1  0.1978681E-015  0.9000826E+02  0.7816164E-02  0.1186338E+00
        -11   -1    0    0    0    0  0.00000000000E+00  0.00000000000E+00  0.45593999997E+02  0.45594000000E+02  0.51100000000E-03 0. -1.
         11   -1    0    0    0    0 -0.00000000000E+00 -0.00000000000E+00 -0.45593999997E+02  0.45594000000E+02  0.51100000000E-03 0.  1.
    9900012    2    1    2    0    0 -0.10168267332E+01 -0.56934385442E+00  0.18358890593E+00  0.90008256843E+02  0.90000525032E+02 0.  0.
        -12    1    1    2    0    0  0.10168267332E+01  0.56934385442E+00 -0.18358890593E+00  0.11797431569E+01  0.00000000000E+00 0.  1.
         11    1    3    3    0    0 -0.42872915361E+01 -0.33388343656E+01 -0.65474079113E+01  0.85086564306E+01  0.51100000000E-03 0. -1.
        -11    1    3    3    0    0  0.23148204659E+02  0.14181645990E+01 -0.31069040608E+02  0.38770296031E+02  0.51100000000E-03 0.  1.
         12    1    3    3    0    0 -0.19877739856E+02  0.13513259122E+01  0.37800037426E+02  0.42729304381E+02  0.00000000000E+00 0. -1.
</event>
<event>
 7    1  0.1978681E-015  0.9000778E+02  0.7816164E-02  0.1186339E+00
        -11   -1    0    0    0    0  0.00000000000E+00  0.00000000000E+00  0.45593999997E+02  0.45594000000E+02  0.51100000000E-03 0.  1.
         11   -1    0    0    0    0 -0.00000000000E+00 -0.00000000000E+00 -0.45593999997E+02  0.45594000000E+02  0.51100000000E-03 0. -1.
    9900012    2    1    2    0    0 -0.95457889629E-01 -0.48046478134E+00 -0.10737655384E+01  0.90007775002E+02  0.90000036832E+02 0.  0.
        -12    1    1    2    0    0  0.95457889629E-01  0.48046478134E+00  0.10737655384E+01  0.11802249981E+01  0.00000000000E+00 0.  1.
         11    1    3    3    0    0  0.33665527987E+02  0.54062525191E+01  0.83224653418E+01  0.35097845669E+02  0.51100000000E-03 0. -1.
        -11    1    3    3    0    0  0.97165240881E+01 -0.23443453514E+01  0.10637414149E+01  0.10051783003E+02  0.51100000000E-03 0.  1.
        -12    1    3    3    0    0 -0.43477509965E+02 -0.35423719490E+01 -0.10459972295E+02  0.44858146330E+02  0.00000000000E+00 0.  1.
</event>
<event>
 7    1  0.2704909E-015  0.9000773E+02  0.7816164E-02  0.1186339E+00
        -11   -1    0    0    0    0  0.00000000000E+00  0.00000000000E+00  0.45593999997E+02  0.45594000000E+02  0.51100000000E-03 0.  1.
         11   -1    0    0    0    0 -0.00000000000E+00 -0.00000000000E+00 -0.45593999997E+02  0.45594000000E+02  0.51100000000E-03 0. -1.
    9900012    2    1    2    0    0 -0.75267788677E+00 -0.50233015809E+00 -0.75774807791E+00  0.90007728108E+02  0.89999989319E+02 0.  0.
        -12    1    1    2    0    0  0.75267788677E+00  0.50233015809E+00  0.75774807791E+00  0.11802718918E+01  0.00000000000E+00 0.  1.
         11    1    3    3    0    0 -0.59456294107E+01  0.29170390390E+01  0.74413014862E+01  0.99615557979E+01  0.51100000000E-03 0. -1.
        -11    1    3    3    0    0 -0.20160954025E+02 -0.92807836532E+01  0.27833605195E+02  0.35599249863E+02  0.51100000000E-03 0.  1.
         12    1    3    3    0    0  0.25353905549E+02  0.58614144561E+01 -0.36032654759E+02  0.44446922447E+02  0.00000000000E+00 0. -1.
</event>
<event>
 7    1  0.1978681E-015  0.9000772E+02  0.7816164E-02  0.1186339E+00
        -11   -1    0    0    0    0  0.00000000000E+00  0.00000000000E+00  0.45593999997E+02  0.45594000000E+02  0.51100000000E-03 0. -1.
         11   -1    0    0    0    0 -0.00000000000E+00 -0.00000000000E+00 -0.45593999997E+02  0.45594000000E+02  0.51100000000E-03 0.  1.
    9900012    2    1    2    0    0  0.32284431172E+00  0.63074033409E+00  0.94393280972E+00  0.90007715726E+02  0.89999976773E+02 0.  0.
        -12    1    1    2    0    0 -0.32284431172E+00 -0.63074033409E+00 -0.94393280972E+00  0.11802842742E+01  0.00000000000E+00 0.  1.
         11    1    3    3    0    0 -0.19495629297E+01  0.62226173755E+01 -0.47714863121E+01  0.80801512676E+01  0.51100000000E-03 0. -1.
        -11    1    3    3    0    0  0.19506615376E+02  0.31822446432E+02  0.14082571338E+02  0.39893545293E+02  0.51100000000E-03 0.  1.
         12    1    3    3    0    0 -0.17234208134E+02 -0.37414323473E+02 -0.83671522158E+01  0.42034019165E+02  0.00000000000E+00 0. -1.
</event>
<event>
 7    1  0.1978681E-015  0.9000775E+02  0.7816164E-02  0.1186339E+00
        -11   -1    0    0    0    0  0.00000000000E+00  0.00000000000E+00  0.45593999997E+02  0.45594000000E+02  0.51100000000E-03 0.  1.
         11   -1    0    0    0    0 -0.00000000000E+00 -0.00000000000E+00 -0.45593999997E+02  0.45594000000E+02  0.51100000000E-03 0. -1.
    9900012    2    1    2    0    0  0.81113339223E+00 -0.65976048106E+00 -0.54751611310E+00  0.90007747838E+02  0.90000009309E+02 0.  0.
        -12    1    1    2    0    0 -0.81113339223E+00  0.65976048106E+00  0.54751611310E+00  0.11802521622E+01  0.00000000000E+00 0.  1.
         11    1    3    3    0    0  0.18141005504E+02  0.84230754813E+01 -0.32816052460E+02  0.38430945612E+02  0.51100000000E-03 0. -1.
        -11    1    3    3    0    0 -0.45951734275E+01  0.73808961925E+01 -0.41468248418E+01  0.96327256767E+01  0.51100000000E-03 0.  1.
        -12    1    3    3    0    0 -0.12734698684E+02 -0.16463732155E+02  0.36415361189E+02  0.41944076549E+02  0.00000000000E+00 0.  1.
</event>
<event>
 7    1  0.1978681E-015  0.9000768E+02  0.7816164E-02  0.1186339E+00
        -11   -1    0    0    0    0  0.00000000000E+00  0.00000000000E+00  0.45593999997E+02  0.45594000000E+02  0.51100000000E-03 0. -1.
         11   -1    0    0    0    0 -0.00000000000E+00 -0.00000000000E+00 -0.45593999997E+02  0.45594000000E+02  0.51100000000E-03 0.  1.
    9900012    2    1    2    0    0 -0.38728285804E+00  0.11089573676E+01  0.11563243999E+00  0.90007684230E+02  0.89999944862E+02 0.  0.
        -12    1    1    2    0    0  0.38728285804E+00 -0.11089573676E+01 -0.11563243999E+00  0.11803157699E+01  0.00000000000E+00 0.  1.
         11    1    3    3    0    0 -0.86767972062E+01  0.54388825696E+01 -0.44097772537E+01  0.11149636274E+02  0.51100000000E-03 0. -1.
        -11    1    3    3    0    0 -0.12945293885E+01  0.31969186342E+02 -0.16318807374E+02  0.35916683534E+02  0.51100000000E-03 0.  1.
         12    1    3    3    0    0  0.95840437367E+01 -0.36299111544E+02  0.20844217068E+02  0.42941364422E+02  0.00000000000E+00 0. -1.
</event>
<event>
 7    1  0.1978681E-015  0.9000772E+02  0.7816164E-02  0.1186339E+00
        -11   -1    0    0    0    0  0.00000000000E+00  0.00000000000E+00  0.45593999997E+02  0.45594000000E+02  0.51100000000E-03 0. -1.
         11   -1    0    0    0    0 -0.00000000000E+00 -0.00000000000E+00 -0.45593999997E+02  0.45594000000E+02  0.51100000000E-03 0.  1.
    9900012    2    1    2    0    0  0.98573844082E+00  0.58498830792E+00  0.28136185213E+00  0.90007722030E+02  0.89999983161E+02 0.  0.
        -12    1    1    2    0    0 -0.98573844082E+00 -0.58498830792E+00 -0.28136185213E+00  0.11802779698E+01  0.00000000000E+00 0.  1.
         11    1    3    3    0    0 -0.23849834439E+02  0.27151691539E+02  0.10327452909E+02  0.37585705262E+02  0.51100000000E-03 0. -1.
        -11    1    3    3    0    0 -0.57991576023E+01 -0.13227812233E+01  0.70305208581E+01  0.92091369226E+01  0.51100000000E-03 0.  1.
        -12    1    3    3    0    0  0.30634730482E+02 -0.25243922008E+02 -0.17076611915E+02  0.43212879846E+02  0.00000000000E+00 0.  1.
</event>
<event>
 7    1  0.1978681E-015  0.9000776E+02  0.7816164E-02  0.1186339E+00
        -11   -1    0    0    0    0  0.00000000000E+00  0.00000000000E+00  0.45593999997E+02  0.45594000000E+02  0.51100000000E-03 0. -1.
         11   -1    0    0    0    0 -0.00000000000E+00 -0.00000000000E+00 -0.45593999997E+02  0.45594000000E+02  0.51100000000E-03 0.  1.
    9900012    2    1    2    0    0 -0.44202294005E+00  0.91136365959E+00 -0.60580318575E+00  0.90007760406E+02  0.90000022043E+02 0.  0.
        -12    1    1    2    0    0  0.44202294005E+00 -0.91136365959E+00  0.60580318575E+00  0.11802395941E+01  0.00000000000E+00 0.  1.
         11    1    3    3    0    0 -0.13565553099E+02 -0.63812446474E+00  0.22698429340E+02  0.26450900334E+02  0.51100000000E-03 0. -1.
        -11    1    3    3    0    0  0.29878221147E+02  0.18550610115E+02 -0.15614736535E+02  0.38479257163E+02  0.51100000000E-03 0.  1.
         12    1    3    3    0    0 -0.16754690988E+02 -0.17001121991E+02 -0.76894959910E+01  0.25077602909E+02  0.00000000000E+00 0. -1.
</event>
<event>
 7    1  0.1978681E-015  0.9000770E+02  0.7816164E-02  0.1186339E+00
        -11   -1    0    0    0    0  0.00000000000E+00  0.00000000000E+00  0.45593999997E+02  0.45594000000E+02  0.51100000000E-03 0. -1.
         11   -1    0    0    0    0 -0.00000000000E+00 -0.00000000000E+00 -0.45593999997E+02  0.45594000000E+02  0.51100000000E-03 0.  1.
    9900012    2    1    2    0    0 -0.67170689765E+00 -0.96871261460E+00  0.59219217860E-01  0.90007702918E+02  0.89999963797E+02 0.  0.
        -12    1    1    2    0    0  0.67170689765E+00  0.96871261460E+00 -0.59219217860E-01  0.11802970820E+01  0.00000000000E+00 0.  1.
         11    1    3    3    0    0  0.31981155187E+02  0.34650031586E+01  0.10130330702E+02  0.33725719183E+02  0.51100000000E-03 0. -1.
        -11    1    3    3    0    0 -0.55324187433E+00 -0.12649976147E+02  0.11202320995E+02  0.16906210960E+02  0.51100000000E-03 0.  1.
        -12    1    3    3    0    0 -0.32099620210E+02  0.82162603735E+01 -0.21273432480E+02  0.39375772775E+02  0.00000000000E+00 0.  1.
</event>
<event>
 7    1  0.2159730E-015  0.9000772E+02  0.7816164E-02  0.1186339E+00
        -11   -1    0    0    0    0  0.00000000000E+00  0.00000000000E+00  0.45593999997E+02  0.45594000000E+02  0.51100000000E-03 0. -1.
         11   -1    0    0    0    0 -0.00000000000E+00 -0.00000000000E+00 -0.45593999997E+02  0.45594000000E+02  0.51100000000E-03 0.  1.
    9900012    2    1    2    0    0  0.32071209550E+00  0.98709042425E+00  0.56200485486E+00  0.90007723248E+02  0.89999984395E+02 0.  0.
        -12    1    1    2    0    0 -0.32071209550E+00 -0.98709042425E+00 -0.56200485486E+00  0.11802767518E+01  0.00000000000E+00 0.  1.
         11    1    3    3    0    0 -0.84542105185E+01  0.34937915539E+01 -0.78001991501E+00  0.91808870073E+01  0.51100000000E-03 0. -1.
        -11    1    3    3    0    0 -0.34693028734E+02 -0.10752551502E+02  0.37754329805E+01  0.36516811210E+02  0.51100000000E-03 0.  1.
         12    1    3    3    0    0  0.43467951347E+02  0.82458503723E+01 -0.24334082107E+01  0.44310025031E+02  0.00000000000E+00 0. -1.
</event>
<event>
 7    1  0.1978681E-015  0.9000781E+02  0.7816164E-02  0.1186339E+00
        -11   -1    0    0    0    0  0.00000000000E+00  0.00000000000E+00  0.45593999997E+02  0.45594000000E+02  0.51100000000E-03 0. -1.
         11   -1    0    0    0    0 -0.00000000000E+00 -0.00000000000E+00 -0.45593999997E+02  0.45594000000E+02  0.51100000000E-03 0.  1.
    9900012    2    1    2    0    0  0.51509640150E+00  0.43189093968E+00  0.97004554685E+00  0.90007812536E+02  0.90000074862E+02 0.  0.
        -12    1    1    2    0    0 -0.51509640150E+00 -0.43189093968E+00 -0.97004554685E+00  0.11801874637E+01  0.00000000000E+00 0.  1.
         11    1    3    3    0    0  0.44184621223E+01  0.64974928447E+01  0.55999933314E+01  0.96488417111E+01  0.51100000000E-03 0. -1.
        -11    1    3    3    0    0 -0.40982041513E+02  0.11229251429E+01  0.52152776038E+01  0.41327809139E+02  0.51100000000E-03 0.  1.
         12    1    3    3    0    0  0.37078675792E+02 -0.71885270479E+01 -0.98452253884E+01  0.39031161686E+02  0.00000000000E+00 0. -1.
</event>
<event>
 7    1  0.2451386E-015  0.9000774E+02  0.7816164E-02  0.1186339E+00
        -11   -1    0    0    0    0  0.00000000000E+00  0.00000000000E+00  0.45593999997E+02  0.45594000000E+02  0.51100000000E-03 0. -1.
         11   -1    0    0    0    0 -0.00000000000E+00 -0.00000000000E+00 -0.45593999997E+02  0.45594000000E+02  0.51100000000E-03 0.  1.
    9900012    2    1    2    0    0 -0.64373332255E+00  0.40023296959E+00  0.90467088790E+00  0.90007742216E+02  0.90000003614E+02 0.  0.
        -12    1    1    2    0    0  0.64373332255E+00 -0.40023296959E+00 -0.90467088790E+00  0.11802577837E+01  0.00000000000E+00 0.  1.
         11    1    3    3    0    0 -0.78573669894E+01  0.42904080437E+01  0.19891041389E+01  0.91707334889E+01  0.51100000000E-03 0. -1.
        -11    1    3    3    0    0 -0.16816215226E+02 -0.76951521493E+01 -0.34712202195E+02  0.39331125621E+02  0.51100000000E-03 0.  1.
         12    1    3    3    0    0  0.24029848893E+02  0.38049770752E+01  0.33627768944E+02  0.41505883107E+02  0.00000000000E+00 0. -1.
</event>
<event>
 7    1  0.1978681E-015  0.9000769E+02  0.7816164E-02  0.1186339E+00
        -11   -1    0    0    0    0  0.00000000000E+00  0.00000000000E+00  0.45593999997E+02  0.45594000000E+02  0.51100000000E-03 0. -1.
         11   -1    0    0    0    0 -0.00000000000E+00 -0.00000000000E+00 -0.45593999997E+02  0.45594000000E+02  0.51100000000E-03 0.  1.
    9900012    2    1    2    0    0 -0.94705077527E+00 -0.41488163206E-01  0.70320896476E+00  0.90007691021E+02  0.89999951742E+02 0.  0.
        -12    1    1    2    0    0  0.94705077527E+00  0.41488163206E-01 -0.70320896476E+00  0.11803089794E+01  0.00000000000E+00 0.  1.
         11    1    3    3    0    0  0.44890440980E+01  0.38398216363E+01 -0.72546539576E+01  0.93555198369E+01  0.51100000000E-03 0. -1.
        -11    1    3    3    0    0 -0.35778817241E+02  0.18354451760E+02 -0.57363861223E+01  0.40619155438E+02  0.51100000000E-03 0.  1.
         12    1    3    3    0    0  0.30342722367E+02 -0.22235761559E+02  0.13694249045E+02  0.40033015745E+02  0.00000000000E+00 0. -1.
</event>
<event>
 7    1  0.1978681E-015  0.9000768E+02  0.7816164E-02  0.1186339E+00
        -11   -1    0    0    0    0  0.00000000000E+00  0.00000000000E+00  0.45593999997E+02  0.45594000000E+02  0.51100000000E-03 0. -1.
         11   -1    0    0    0    0 -0.00000000000E+00 -0.00000000000E+00 -0.45593999997E+02  0.45594000000E+02  0.51100000000E-03 0.  1.
    9900012    2    1    2    0    0  0.92588033727E+00 -0.65763611391E+00  0.32157145329E+00  0.90007683154E+02  0.89999943772E+02 0.  0.
        -12    1    1    2    0    0 -0.92588033727E+00  0.65763611391E+00 -0.32157145329E+00  0.11803168459E+01  0.00000000000E+00 0.  1.
         11    1    3    3    0    0 -0.24083938034E+02  0.68396272359E+01  0.27639404009E+02  0.37292803946E+02  0.51100000000E-03 0. -1.
        -11    1    3    3    0    0 -0.24885792158E+01  0.99984250338E+01 -0.18244038501E+00  0.10305086823E+02  0.51100000000E-03 0.  1.
        -12    1    3    3    0    0  0.27498397588E+02 -0.17495688384E+02 -0.27135392170E+02  0.42409792385E+02  0.00000000000E+00 0.  1.
</event>
<event>
 7    1  0.1978681E-015  0.9000779E+02  0.7816164E-02  0.1186339E+00
        -11   -1    0    0    0    0  0.00000000000E+00  0.00000000000E+00  0.45593999997E+02  0.45594000000E+02  0.51100000000E-03 0.  1.
         11   -1    0    0    0    0 -0.00000000000E+00 -0.00000000000E+00 -0.45593999997E+02  0.45594000000E+02  0.51100000000E-03 0. -1.
    9900012    2    1    2    0    0  0.11645920606E+01  0.12608048436E+00 -0.14398595910E+00  0.90007786921E+02  0.90000048908E+02 0.  0.
        -12    1    1    2    0    0 -0.11645920606E+01 -0.12608048436E+00  0.14398595910E+00  0.11802130793E+01  0.00000000000E+00 0.  1.
         11    1    3    3    0    0 -0.60899373314E+01 -0.31449865189E+02 -0.10178573898E+02  0.33612270438E+02  0.51100000000E-03 0. -1.
        -11    1    3    3    0    0 -0.35610994174E+01 -0.56991658908E+01 -0.10514627183E+02  0.12478754184E+02  0.51100000000E-03 0.  1.
        -12    1    3    3    0    0  0.10815628809E+02  0.37275111564E+02  0.20549215123E+02  0.43916762299E+02  0.00000000000E+00 0.  1.
</event>
<event>
 7    1  0.1978681E-015  0.9000772E+02  0.7816164E-02  0.1186339E+00
        -11   -1    0    0    0    0  0.00000000000E+00  0.00000000000E+00  0.45593999997E+02  0.45594000000E+02  0.51100000000E-03 0.  1.
         11   -1    0    0    0    0 -0.00000000000E+00 -0.00000000000E+00 -0.45593999997E+02  0.45594000000E+02  0.51100000000E-03 0. -1.
    9900012    2    1    2    0    0  0.30151865595E+00 -0.15754311737E+00 -0.11301891300E+01  0.90007720032E+02  0.89999981136E+02 0.  0.
        -12    1    1    2    0    0 -0.30151865595E+00  0.15754311737E+00  0.11301891300E+01  0.11802799682E+01  0.00000000000E+00 0.  1.
         11    1    3    3    0    0  0.28121785656E+01 -0.86105620515E+01  0.25230589797E+01  0.94029758058E+01  0.51100000000E-03 0. -1.
        -11    1    3    3    0    0 -0.71182096393E+01 -0.43954558129E+01  0.36889338931E+02  0.37826079195E+02  0.51100000000E-03 0.  1.
         12    1    3    3    0    0  0.46075497296E+01  0.12848474747E+02 -0.40542587041E+02  0.42778665031E+02  0.00000000000E+00 0. -1.
</event>
<event>
 7    1  0.1978681E-015  0.9000776E+02  0.7816164E-02  0.1186339E+00
        -11   -1    0    0    0    0  0.00000000000E+00  0.00000000000E+00  0.45593999997E+02  0.45594000000E+02  0.51100000000E-03 0.  1.
         11   -1    0    0    0    0 -0.00000000000E+00 -0.00000000000E+00 -0.45593999997E+02  0.45594000000E+02  0.51100000000E-03 0. -1.
    9900012    2    1    2    0    0 -0.34413525706E+00 -0.82327279964E+00 -0.77249779090E+00  0.90007762729E+02  0.90000024398E+02 0.  0.
        -12    1    1    2    0    0  0.34413525706E+00  0.82327279964E+00  0.77249779090E+00  0.11802372705E+01  0.00000000000E+00 0.  1.
         11    1    3    3    0    0 -0.75032345803E+01 -0.54317887602E+01 -0.77049707494E+00  0.92949730665E+01  0.51100000000E-03 0. -1.
        -11    1    3    3    0    0 -0.29319222073E+02  0.21455090636E+02  0.12834987328E+02  0.38531475408E+02  0.51100000000E-03 0.  1.
         12    1    3    3    0    0  0.36478321397E+02 -0.16846574675E+02 -0.12836988044E+02  0.42181314255E+02  0.00000000000E+00 0. -1.
</event>
<event>
 7    1  0.1978681E-015  0.9000767E+02  0.7816164E-02  0.1186339E+00
        -11   -1    0    0    0    0  0.00000000000E+00  0.00000000000E+00  0.45593999997E+02  0.45594000000E+02  0.51100000000E-03 0.  1.
         11   -1    0    0    0    0 -0.00000000000E+00 -0.00000000000E+00 -0.45593999997E+02  0.45594000000E+02  0.51100000000E-03 0. -1.
    9900012    2    1    2    0    0 -0.87302687275E+00  0.79039705826E+00  0.79183736203E-01  0.90007672294E+02  0.89999932768E+02 0.  0.
        -12    1    1    2    0    0  0.87302687275E+00 -0.79039705826E+00 -0.79183736203E-01  0.11803277063E+01  0.00000000000E+00 0.  1.
         11    1    3    3    0    0  0.78806292655E+01  0.51697190637E+01  0.22061011444E+01  0.96797311604E+01  0.51100000000E-03 0. -1.
        -11    1    3    3    0    0 -0.34183661988E+02  0.19491391617E+02  0.14178298591E+02  0.41826561481E+02  0.51100000000E-03 0.  1.
         12    1    3    3    0    0  0.25430005850E+02 -0.23870713623E+02 -0.16305215999E+02  0.38501379653E+02  0.00000000000E+00 0. -1.
</event>
<event>
 7    1  0.1978681E-015  0.9000775E+02  0.7816164E-02  0.1186339E+00
        -11   -1    0    0    0    0  0.00000000000E+00  0.00000000000E+00  0.45593999997E+02  0.45594000000E+02  0.51100000000E-03 0. -1.
         11   -1    0    0    0    0 -0.00000000000E+00 -0.00000000000E+00 -0.45593999997E+02  0.45594000000E+02  0.51100000000E-03 0.  1.
    9900012    2    1    2    0    0  0.81241763104E-01  0.10174317442E+01  0.59263550775E+00  0.90007752389E+02  0.90000013921E+02 0.  0.
        -12    1    1    2    0    0 -0.81241763104E-01 -0.10174317442E+01 -0.59263550775E+00  0.11802476109E+01  0.00000000000E+00 0.  1.
         11    1    3    3    0    0  0.26446411863E+01 -0.83062916333E+00  0.71855809030E+01  0.77017299996E+01  0.51100000000E-03 0. -1.
        -11    1    3    3    0    0  0.54464553556E+01 -0.36145566977E+02 -0.19447240691E+02  0.41404843422E+02  0.51100000000E-03 0.  1.
         12    1    3    3    0    0 -0.80098547788E+01  0.37993627884E+02  0.12854295296E+02  0.40901178968E+02  0.00000000000E+00 0. -1.
</event>
<event>
 7    1  0.1978681E-015  0.9000775E+02  0.7816164E-02  0.1186339E+00
        -11   -1    0    0    0    0  0.00000000000E+00  0.00000000000E+00  0.45593999997E+02  0.45594000000E+02  0.51100000000E-03 0. -1.
         11   -1    0    0    0    0 -0.00000000000E+00 -0.00000000000E+00 -0.45593999997E+02  0.45594000000E+02  0.51100000000E-03 0.  1.
    9900012    2    1    2    0    0 -0.11244487394E+01  0.10627714363E+00 -0.34249196286E+00  0.90007754033E+02  0.90000015586E+02 0.  0.
        -12    1    1    2    0    0  0.11244487394E+01 -0.10627714363E+00  0.34249196286E+00  0.11802459673E+01  0.00000000000E+00 0.  1.
         11    1    3    3    0    0  0.22433104532E+02  0.38592636387E+01  0.30686310459E+02  0.38207168759E+02  0.51100000000E-03 0. -1.
        -11    1    3    3    0    0  0.50010345122E+01  0.66445318915E+01  0.70385227242E-01  0.83165560535E+01  0.51100000000E-03 0.  1.
        -12    1    3    3    0    0 -0.28558587783E+02 -0.10397518387E+02 -0.31099187649E+02  0.43484029220E+02  0.00000000000E+00 0.  1.
</event>
<event>
 7    1  0.1978681E-015  0.9000773E+02  0.7816164E-02  0.1186339E+00
        -11   -1    0    0    0    0  0.00000000000E+00  0.00000000000E+00  0.45593999997E+02  0.45594000000E+02  0.51100000000E-03 0. -1.
         11   -1    0    0    0    0 -0.00000000000E+00 -0.00000000000E+00 -0.45593999997E+02  0.45594000000E+02  0.51100000000E-03 0.  1.
    9900012    2    1    2    0    0 -0.41797798431E+00 -0.99993030608E+00  0.46742011020E+00  0.90007725552E+02  0.89999986730E+02 0.  0.
        -12    1    1    2    0    0  0.41797798431E+00  0.99993030608E+00 -0.46742011020E+00  0.11802744477E+01  0.00000000000E+00 0.  1.
         11    1    3    3    0    0  0.61548953408E+01  0.68506507159E+01  0.36664015769E+01  0.99124493780E+01  0.51100000000E-03 0. -1.
        -11    1    3    3    0    0  0.16035770978E+02  0.28714462961E+02 -0.14038636633E+02  0.35759609237E+02  0.51100000000E-03 0.  1.
         12    1    3    3    0    0 -0.22608644304E+02 -0.36565043983E+02  0.10839655166E+02  0.44335666938E+02  0.00000000000E+00 0. -1.
</event>
<event>
 7    1  0.1978681E-015  0.9000785E+02  0.7816164E-02  0.1186339E+00
        -11   -1    0    0    0    0  0.00000000000E+00  0.00000000000E+00  0.45593999997E+02  0.45594000000E+02  0.51100000000E-03 0.  1.
         11   -1    0    0    0    0 -0.00000000000E+00 -0.00000000000E+00 -0.45593999997E+02  0.45594000000E+02  0.51100000000E-03 0. -1.
    9900012    2    1    2    0    0  0.56746029731E-01  0.40674187753E+00 -0.11063860639E+01  0.90007852048E+02  0.90000114895E+02 0.  0.
        -12    1    1    2    0    0 -0.56746029731E-01 -0.40674187753E+00  0.11063860639E+01  0.11801479522E+01  0.00000000000E+00 0.  1.
         11    1    3    3    0    0  0.13723097436E+01 -0.82784467294E+01 -0.45329551677E+01  0.95374837928E+01  0.51100000000E-03 0. -1.
        -11    1    3    3    0    0 -0.28856843851E+02 -0.18135815610E+02  0.18967030812E+02  0.39004788205E+02  0.51100000000E-03 0.  1.
         12    1    3    3    0    0  0.27541280137E+02  0.26821004217E+02 -0.15540461708E+02  0.41465580050E+02  0.00000000000E+00 0. -1.
</event>
<event>
 7    1  0.1978681E-015  0.9000813E+02  0.7816164E-02  0.1186338E+00
        -11   -1    0    0    0    0  0.00000000000E+00  0.00000000000E+00  0.45593999997E+02  0.45594000000E+02  0.51100000000E-03 0.  1.
         11   -1    0    0    0    0 -0.00000000000E+00 -0.00000000000E+00 -0.45593999997E+02  0.45594000000E+02  0.51100000000E-03 0. -1.
    9900012    2    1    2    0    0 -0.29872577394E+00 -0.15627084560E+00 -0.11306815375E+01  0.90008127802E+02  0.90000394288E+02 0.  0.
        -12    1    1    2    0    0  0.29872577394E+00  0.15627084560E+00  0.11306815375E+01  0.11798721984E+01  0.00000000000E+00 0.  1.
         11    1    3    3    0    0 -0.14591284209E+02 -0.20217661760E+02 -0.29721457137E+02  0.38794644431E+02  0.51100000000E-03 0. -1.
        -11    1    3    3    0    0 -0.47225000692E+01 -0.75312380058E+01  0.73900065994E+01  0.11560006514E+02  0.51100000000E-03 0.  1.
        -12    1    3    3    0    0  0.19015058505E+02  0.27592628920E+02  0.21200769000E+02  0.39653476857E+02  0.00000000000E+00 0.  1.
</event>
<event>
 7    1  0.1978681E-015  0.9000764E+02  0.7816164E-02  0.1186339E+00
        -11   -1    0    0    0    0  0.00000000000E+00  0.00000000000E+00  0.45593999997E+02  0.45594000000E+02  0.51100000000E-03 0. -1.
         11   -1    0    0    0    0 -0.00000000000E+00 -0.00000000000E+00 -0.45593999997E+02  0.45594000000E+02  0.51100000000E-03 0.  1.
    9900012    2    1    2    0    0 -0.33625468761E+00 -0.85378048389E+00  0.74245629236E+00  0.90007640023E+02  0.89999900071E+02 0.  0.
        -12    1    1    2    0    0  0.33625468761E+00  0.85378048389E+00 -0.74245629236E+00  0.11803599772E+01  0.00000000000E+00 0.  1.
         11    1    3    3    0    0 -0.37534467393E+02 -0.20747381808E+01 -0.34010202844E+01  0.37745300637E+02  0.51100000000E-03 0. -1.
        -11    1    3    3    0    0 -0.60845588318E+01  0.43704393476E+00  0.64925728680E+01  0.89087802917E+01  0.51100000000E-03 0.  1.
        -12    1    3    3    0    0  0.43282771537E+02  0.78391376213E+00 -0.23490962913E+01  0.43353559094E+02  0.00000000000E+00 0.  1.
</event>
<event>
 7    1  0.1978681E-015  0.9000778E+02  0.7816164E-02  0.1186339E+00
        -11   -1    0    0    0    0  0.00000000000E+00  0.00000000000E+00  0.45593999997E+02  0.45594000000E+02  0.51100000000E-03 0. -1.
         11   -1    0    0    0    0 -0.00000000000E+00 -0.00000000000E+00 -0.45593999997E+02  0.45594000000E+02  0.51100000000E-03 0.  1.
    9900012    2    1    2    0    0 -0.47083139308E+00  0.54229075022E+00  0.93656572003E+00  0.90007781035E+02  0.90000042944E+02 0.  0.
        -12    1    1    2    0    0  0.47083139308E+00 -0.54229075022E+00 -0.93656572003E+00  0.11802189655E+01  0.00000000000E+00 0.  1.
         11    1    3    3    0    0  0.52580574879E+01  0.56674559881E+01  0.36894842534E+01  0.85661846957E+01  0.51100000000E-03 0. -1.
        -11    1    3    3    0    0 -0.40029726125E+02  0.55966349292E+01  0.12635457010E+02  0.42348035023E+02  0.51100000000E-03 0.  1.
         12    1    3    3    0    0  0.34300837244E+02 -0.10721800167E+02 -0.15388375544E+02  0.39093561316E+02  0.00000000000E+00 0. -1.
</event>
<event>
 7    1  0.1978681E-015  0.9000745E+02  0.7816164E-02  0.1186340E+00
        -11   -1    0    0    0    0  0.00000000000E+00  0.00000000000E+00  0.45593999997E+02  0.45594000000E+02  0.51100000000E-03 0.  1.
         11   -1    0    0    0    0 -0.00000000000E+00 -0.00000000000E+00 -0.45593999997E+02  0.45594000000E+02  0.51100000000E-03 0. -1.
    9900012    2    1    2    0    0 -0.18096824601E+00  0.21767325871E+00 -0.11461119111E+01  0.90007447728E+02  0.89999705238E+02 0.  0.
        -12    1    1    2    0    0  0.18096824601E+00 -0.21767325871E+00  0.11461119111E+01  0.11805522718E+01  0.00000000000E+00 0.  1.
         11    1    3    3    0    0 -0.13452506139E+02 -0.29144822292E+01 -0.22212159264E+02  0.26131286756E+02  0.51100000000E-03 0. -1.
        -11    1    3    3    0    0  0.11528683179E+02  0.19738194514E+02 -0.12741783817E+02  0.26169828307E+02  0.51100000000E-03 0.  1.
        -12    1    3    3    0    0  0.17428547147E+01 -0.16606039026E+02  0.33807831170E+02  0.37706332666E+02  0.00000000000E+00 0.  1.
</event>
<event>
 7    1  0.1978681E-015  0.9000776E+02  0.7816164E-02  0.1186339E+00
        -11   -1    0    0    0    0  0.00000000000E+00  0.00000000000E+00  0.45593999997E+02  0.45594000000E+02  0.51100000000E-03 0.  1.
         11   -1    0    0    0    0 -0.00000000000E+00 -0.00000000000E+00 -0.45593999997E+02  0.45594000000E+02  0.51100000000E-03 0. -1.
    9900012    2    1    2    0    0  0.54849345146E+00  0.10429277770E+01 -0.66446537449E-01  0.90007763347E+02  0.90000025023E+02 0.  0.
        -12    1    1    2    0    0 -0.54849345146E+00 -0.10429277770E+01  0.66446537449E-01  0.11802366528E+01  0.00000000000E+00 0.  1.
         11    1    3    3    0    0 -0.26345789878E+01 -0.73245875367E+01  0.26124391321E+02  0.27259391247E+02  0.51100000000E-03 0. -1.
        -11    1    3    3    0    0  0.55154827553E+01 -0.16417062156E+02  0.90975664886E+01  0.19562878012E+02  0.51100000000E-03 0.  1.
         12    1    3    3    0    0 -0.23324103160E+01  0.24784577469E+02 -0.35288404347E+02  0.43185494087E+02  0.00000000000E+00 0. -1.
</event>
<event>
 7    1  0.1978681E-015  0.9000776E+02  0.7816164E-02  0.1186339E+00
        -11   -1    0    0    0    0  0.00000000000E+00  0.00000000000E+00  0.45593999997E+02  0.45594000000E+02  0.51100000000E-03 0.  1.
         11   -1    0    0    0    0 -0.00000000000E+00 -0.00000000000E+00 -0.45593999997E+02  0.45594000000E+02  0.51100000000E-03 0. -1.
    9900012    2    1    2    0    0 -0.13451254919E+00 -0.11708246781E+01 -0.63497985492E-01  0.90007764410E+02  0.90000026101E+02 0.  0.
        -12    1    1    2    0    0  0.13451254919E+00  0.11708246781E+01  0.63497985492E-01  0.11802355896E+01  0.00000000000E+00 0.  1.
         11    1    3    3    0    0 -0.22605124495E+02  0.17437941561E+01 -0.35494103153E+02  0.42117262855E+02  0.51100000000E-03 0. -1.
        -11    1    3    3    0    0  0.37790221003E+01  0.78583889939E+01  0.35911924518E+01  0.94303737519E+01  0.51100000000E-03 0.  1.
        -12    1    3    3    0    0  0.18691589846E+02 -0.10773007828E+02  0.31839412715E+02  0.38460127804E+02  0.00000000000E+00 0.  1.
</event>
<event>
 7    1  0.1978681E-015  0.9000774E+02  0.7816164E-02  0.1186339E+00
        -11   -1    0    0    0    0  0.00000000000E+00  0.00000000000E+00  0.45593999997E+02  0.45594000000E+02  0.51100000000E-03 0.  1.
         11   -1    0    0    0    0 -0.00000000000E+00 -0.00000000000E+00 -0.45593999997E+02  0.45594000000E+02  0.51100000000E-03 0. -1.
    9900012    2    1    2    0    0  0.37364367436E+00 -0.10464144816E+01  0.39802114250E+00  0.90007739989E+02  0.90000001357E+02 0.  0.
        -12    1    1    2    0    0 -0.37364367436E+00  0.10464144816E+01 -0.39802114250E+00  0.11802600105E+01  0.00000000000E+00 0.  1.
         11    1    3    3    0    0  0.10650682480E+02 -0.93827431704E+01 -0.81186941151E+01  0.16351944872E+02  0.51100000000E-03 0. -1.
        -11    1    3    3    0    0  0.17309953376E+02 -0.11929593549E+01  0.31862817174E+02  0.36280804242E+02  0.51100000000E-03 0.  1.
         12    1    3    3    0    0 -0.27586992182E+02  0.95292880437E+01 -0.23346101917E+02  0.37374990876E+02  0.00000000000E+00 0. -1.
</event>
<event>
 7    1  0.1978681E-015  0.9000774E+02  0.7816164E-02  0.1186339E+00
        -11   -1    0    0    0    0  0.00000000000E+00  0.00000000000E+00  0.45593999997E+02  0.45594000000E+02  0.51100000000E-03 0.  1.
         11   -1    0    0    0    0 -0.00000000000E+00 -0.00000000000E+00 -0.45593999997E+02  0.45594000000E+02  0.51100000000E-03 0. -1.
    9900012    2    1    2    0    0 -0.39273612215E+00  0.44499881838E+00 -0.10201728051E+01  0.90007738096E+02  0.89999999439E+02 0.  0.
        -12    1    1    2    0    0  0.39273612215E+00 -0.44499881838E+00  0.10201728051E+01  0.11802619041E+01  0.00000000000E+00 0.  1.
         11    1    3    3    0    0 -0.86485354352E+01  0.37358790220E+01  0.54504473003E+01  0.10883994362E+02  0.51100000000E-03 0. -1.
        -11    1    3    3    0    0 -0.29379438399E+02 -0.12499288256E+02 -0.20470559348E+02  0.37926605541E+02  0.51100000000E-03 0.  1.
         12    1    3    3    0    0  0.37635237712E+02  0.92084080521E+01  0.13999939243E+02  0.41197138193E+02  0.00000000000E+00 0. -1.
</event>
<event>
 7    1  0.1978681E-015  0.9000771E+02  0.7816164E-02  0.1186339E+00
        -11   -1    0    0    0    0  0.00000000000E+00  0.00000000000E+00  0.45593999997E+02  0.45594000000E+02  0.51100000000E-03 0.  1.
         11   -1    0    0    0    0 -0.00000000000E+00 -0.00000000000E+00 -0.45593999997E+02  0.45594000000E+02  0.51100000000E-03 0. -1.
    9900012    2    1    2    0    0 -0.25474852903E+00 -0.75963372667E+00  0.86668558487E+00  0.90007710156E+02  0.89999971131E+02 0.  0.
        -12    1    1    2    0    0  0.25474852903E+00  0.75963372667E+00 -0.86668558487E+00  0.11802898435E+01  0.00000000000E+00 0.  1.
         11    1    3    3    0    0  0.20120141944E+02 -0.27583707506E+02  0.53522490654E+01  0.34559045154E+02  0.51100000000E-03 0. -1.
        -11    1    3    3    0    0  0.13032541252E+02  0.13826266109E+01 -0.29228319139E+01  0.13427648137E+02  0.51100000000E-03 0.  1.
        -12    1    3    3    0    0 -0.33407431725E+02  0.25441447169E+02 -0.15627315666E+01  0.42021016866E+02  0.00000000000E+00 0.  1.
</event>
<event>
 7    1  0.1978681E-015  0.9000771E+02  0.7816164E-02  0.1186339E+00
        -11   -1    0    0    0    0  0.00000000000E+00  0.00000000000E+00  0.45593999997E+02  0.45594000000E+02  0.51100000000E-03 0.  1.
         11   -1    0    0    0    0 -0.00000000000E+00 -0.00000000000E+00 -0.45593999997E+02  0.45594000000E+02  0.51100000000E-03 0. -1.
    9900012    2    1    2    0    0 -0.68864712625E+00 -0.95339774621E+00 -0.99380263418E-01  0.90007712508E+02  0.89999973513E+02 0.  0.
        -12    1    1    2    0    0  0.68864712625E+00  0.95339774621E+00  0.99380263418E-01  0.11802874920E+01  0.00000000000E+00 0.  1.
         11    1    3    3    0    0  0.37168241595E+01 -0.86732954791E+01  0.30082901894E+01  0.99040722142E+01  0.51100000000E-03 0. -1.
        -11    1    3    3    0    0  0.24088373742E+02  0.30186977377E+02  0.12515469049E+02  0.40597294473E+02  0.51100000000E-03 0.  1.
         12    1    3    3    0    0 -0.28493845028E+02 -0.22467079644E+02 -0.15623139502E+02  0.39506345821E+02  0.00000000000E+00 0. -1.
</event>
<event>
 7    1  0.1978681E-015  0.9000771E+02  0.7816164E-02  0.1186339E+00
        -11   -1    0    0    0    0  0.00000000000E+00  0.00000000000E+00  0.45593999997E+02  0.45594000000E+02  0.51100000000E-03 0. -1.
         11   -1    0    0    0    0 -0.00000000000E+00 -0.00000000000E+00 -0.45593999997E+02  0.45594000000E+02  0.51100000000E-03 0.  1.
    9900012    2    1    2    0    0 -0.25178401754E+00  0.11362878921E+01 -0.19632627337E+00  0.90007707930E+02  0.89999968875E+02 0.  0.
        -12    1    1    2    0    0  0.25178401754E+00 -0.11362878921E+01  0.19632627337E+00  0.11802920701E+01  0.00000000000E+00 0.  1.
         11    1    3    3    0    0  0.24740964965E+02 -0.27048286653E+02 -0.23207329598E+02  0.43385542587E+02  0.51100000000E-03 0. -1.
        -11    1    3    3    0    0  0.37581814268E-01  0.90278173568E+01  0.51500372084E+01  0.10393545215E+02  0.51100000000E-03 0.  1.
        -12    1    3    3    0    0 -0.25030330797E+02  0.19156757189E+02  0.17860966116E+02  0.36228620128E+02  0.00000000000E+00 0.  1.
</event>
<event>
 7    1  0.1978681E-015  0.9000784E+02  0.7816164E-02  0.1186339E+00
        -11   -1    0    0    0    0  0.00000000000E+00  0.00000000000E+00  0.45593999997E+02  0.45594000000E+02  0.51100000000E-03 0. -1.
         11   -1    0    0    0    0 -0.00000000000E+00 -0.00000000000E+00 -0.45593999997E+02  0.45594000000E+02  0.51100000000E-03 0.  1.
    9900012    2    1    2    0    0  0.24168811396E+00  0.11485328152E+01  0.12347880150E+00  0.90007835695E+02  0.90000098326E+02 0.  0.
        -12    1    1    2    0    0 -0.24168811396E+00 -0.11485328152E+01 -0.12347880150E+00  0.11801643049E+01  0.00000000000E+00 0.  1.
         11    1    3    3    0    0  0.19172632922E+02 -0.11774097507E+01  0.33302028628E+02  0.38444781933E+02  0.51100000000E-03 0. -1.
        -11    1    3    3    0    0  0.28480569304E+01  0.13269774205E+02 -0.53991082798E+01  0.14606461112E+02  0.51100000000E-03 0.  1.
        -12    1    3    3    0    0 -0.21779001739E+02 -0.10943831639E+02 -0.27779441546E+02  0.36956592650E+02  0.00000000000E+00 0.  1.
</event>
<event>
 7    1  0.1978681E-015  0.9000762E+02  0.7816164E-02  0.1186339E+00
        -11   -1    0    0    0    0  0.00000000000E+00  0.00000000000E+00  0.45593999997E+02  0.45594000000E+02  0.51100000000E-03 0.  1.
         11   -1    0    0    0    0 -0.00000000000E+00 -0.00000000000E+00 -0.45593999997E+02  0.45594000000E+02  0.51100000000E-03 0. -1.
    9900012    2    1    2    0    0  0.55472450308E+00  0.99628432117E+00 -0.30495645334E+00  0.90007618637E+02  0.89999878403E+02 0.  0.
        -12    1    1    2    0    0 -0.55472450308E+00 -0.99628432117E+00  0.30495645334E+00  0.11803813627E+01  0.00000000000E+00 0.  1.
         11    1    3    3    0    0 -0.36852130413E+01 -0.78823524738E+01  0.13458943867E+01  0.88047548315E+01  0.51100000000E-03 0. -1.
        -11    1    3    3    0    0 -0.35453478364E+02  0.18910512362E+02  0.78196957027E+00  0.40189153793E+02  0.51100000000E-03 0.  1.
         12    1    3    3    0    0  0.39693415909E+02 -0.10031875567E+02 -0.24328204104E+01  0.41013710013E+02  0.00000000000E+00 0. -1.
</event>
<event>
 7    1  0.1978681E-015  0.9000765E+02  0.7816164E-02  0.1186339E+00
        -11   -1    0    0    0    0  0.00000000000E+00  0.00000000000E+00  0.45593999997E+02  0.45594000000E+02  0.51100000000E-03 0.  1.
         11   -1    0    0    0    0 -0.00000000000E+00 -0.00000000000E+00 -0.45593999997E+02  0.45594000000E+02  0.51100000000E-03 0. -1.
    9900012    2    1    2    0    0  0.10501917444E+01 -0.42914241191E+00  0.32581152034E+00  0.90007652993E+02  0.89999913213E+02 0.  0.
        -12    1    1    2    0    0 -0.10501917444E+01  0.42914241191E+00 -0.32581152034E+00  0.11803470068E+01  0.00000000000E+00 0.  1.
         11    1    3    3    0    0  0.29322380053E+02  0.20884815641E+02  0.90882255900E+01  0.37129144092E+02  0.51100000000E-03 0. -1.
        -11    1    3    3    0    0  0.94006458442E+01 -0.14294296363E+01 -0.80110798918E+00  0.95423888857E+01  0.51100000000E-03 0.  1.
        -12    1    3    3    0    0 -0.37672834153E+02 -0.19884528417E+02 -0.79613060805E+01  0.43336120016E+02  0.00000000000E+00 0.  1.
</event>
<event>
 7    1  0.1978681E-015  0.9000774E+02  0.7816164E-02  0.1186339E+00
        -11   -1    0    0    0    0  0.00000000000E+00  0.00000000000E+00  0.45593999997E+02  0.45594000000E+02  0.51100000000E-03 0. -1.
         11   -1    0    0    0    0 -0.00000000000E+00 -0.00000000000E+00 -0.45593999997E+02  0.45594000000E+02  0.51100000000E-03 0.  1.
    9900012    2    1    2    0    0 -0.52738574947E+00  0.39005885787E+00  0.98119277262E+00  0.90007736937E+02  0.89999998264E+02 0.  0.
        -12    1    1    2    0    0  0.52738574947E+00 -0.39005885787E+00 -0.98119277262E+00  0.11802630632E+01  0.00000000000E+00 0.  1.
         11    1    3    3    0    0 -0.86309622984E+01 -0.20501958089E+02  0.29427475673E+02  0.36889024390E+02  0.51100000000E-03 0. -1.
        -11    1    3    3    0    0 -0.29267938483E+01 -0.73110585050E+01  0.39178034371E+01  0.87958446283E+01  0.51100000000E-03 0.  1.
        -12    1    3    3    0    0  0.11030370397E+02  0.28203075452E+02 -0.32364086338E+02  0.44322867919E+02  0.00000000000E+00 0.  1.
</event>
<event>
 7    1  0.1978681E-015  0.9000748E+02  0.7816164E-02  0.1186340E+00
        -11   -1    0    0    0    0  0.00000000000E+00  0.00000000000E+00  0.45593999997E+02  0.45594000000E+02  0.51100000000E-03 0.  1.
         11   -1    0    0    0    0 -0.00000000000E+00 -0.00000000000E+00 -0.45593999997E+02  0.45594000000E+02  0.51100000000E-03 0. -1.
    9900012    2    1    2    0    0 -0.61345481574E-01 -0.11761444516E+01 -0.80990710955E-01  0.90007475314E+02  0.89999733188E+02 0.  0.
        -12    1    1    2    0    0  0.61345481574E-01  0.11761444516E+01  0.80990710955E-01  0.11805246860E+01  0.00000000000E+00 0.  1.
         11    1    3    3    0    0  0.90556497376E+01 -0.83698648391E+01 -0.27684685367E+00  0.12334345302E+02  0.51100000000E-03 0. -1.
        -11    1    3    3    0    0 -0.23036252929E+02 -0.32946355560E+01 -0.32882775291E+02  0.40283997859E+02  0.51100000000E-03 0.  1.
         12    1    3    3    0    0  0.13919257709E+02  0.10488355944E+02  0.33078631434E+02  0.37389132152E+02  0.00000000000E+00 0. -1.
</event>
<event>
 7    1  0.1978681E-015  0.9000786E+02  0.7816164E-02  0.1186339E+00
        -11   -1    0    0    0    0  0.00000000000E+00  0.00000000000E+00  0.45593999997E+02  0.45594000000E+02  0.51100000000E-03 0.  1.
         11   -1    0    0    0    0 -0.00000000000E+00 -0.00000000000E+00 -0.45593999997E+02  0.45594000000E+02  0.51100000000E-03 0. -1.
    9900012    2    1    2    0    0 -0.11097429919E+01  0.19438160639E+00 -0.35132147387E+00  0.90007855731E+02  0.90000118627E+02 0.  0.
        -12    1    1    2    0    0  0.11097429919E+01 -0.19438160639E+00  0.35132147387E+00  0.11801442687E+01  0.00000000000E+00 0.  1.
         11    1    3    3    0    0  0.28028091171E+02 -0.25835103186E+02  0.20674074095E+01  0.38174607070E+02  0.51100000000E-03 0. -1.
        -11    1    3    3    0    0  0.68111813916E+01  0.83979091997E+01 -0.45622226784E+01  0.11735882877E+02  0.51100000000E-03 0.  1.
        -12    1    3    3    0    0 -0.35949015554E+02  0.17631575593E+02  0.21434937950E+01  0.40097365784E+02  0.00000000000E+00 0.  1.
</event>
<event>
 7    1  0.1978681E-015  0.9000770E+02  0.7816164E-02  0.1186339E+00
        -11   -1    0    0    0    0  0.00000000000E+00  0.00000000000E+00  0.45593999997E+02  0.45594000000E+02  0.51100000000E-03 0.  1.
         11   -1    0    0    0    0 -0.00000000000E+00 -0.00000000000E+00 -0.45593999997E+02  0.45594000000E+02  0.51100000000E-03 0. -1.
    9900012    2    1    2    0    0  0.20830655177E+00  0.11180760143E+01 -0.31561847432E+00  0.90007703167E+02  0.89999964049E+02 0.  0.
        -12    1    1    2    0    0 -0.20830655177E+00 -0.11180760143E+01  0.31561847432E+00  0.11802968333E+01  0.00000000000E+00 0.  1.
         11    1    3    3    0    0  0.59384098033E+01  0.11909673824E+02 -0.36606288835E+02  0.38950294275E+02  0.51100000000E-03 0. -1.
        -11    1    3    3    0    0  0.87798848126E+01 -0.36654585209E+00 -0.18132067366E+01  0.89726502281E+01  0.51100000000E-03 0.  1.
        -12    1    3    3    0    0 -0.14509988064E+02 -0.10425051958E+02  0.38103877097E+02  0.42084758664E+02  0.00000000000E+00 0.  1.
</event>
<event>
 7    1  0.1978681E-015  0.9000777E+02  0.7816164E-02  0.1186339E+00
        -11   -1    0    0    0    0  0.00000000000E+00  0.00000000000E+00  0.45593999997E+02  0.45594000000E+02  0.51100000000E-03 0.  1.
         11   -1    0    0    0    0 -0.00000000000E+00 -0.00000000000E+00 -0.45593999997E+02  0.45594000000E+02  0.51100000000E-03 0. -1.
    9900012    2    1    2    0    0 -0.76163269660E+00 -0.49366146459E+00 -0.75442328466E+00  0.90007770997E+02  0.90000032775E+02 0.  0.
        -12    1    1    2    0    0  0.76163269660E+00  0.49366146459E+00  0.75442328466E+00  0.11802290026E+01  0.00000000000E+00 0.  1.
         11    1    3    3    0    0  0.32586798335E+02  0.18438691724E+02 -0.76233899815E+01  0.38209957515E+02  0.51100000000E-03 0. -1.
        -11    1    3    3    0    0  0.68841564064E+01 -0.48461675177E+01  0.32238865682E+01  0.90150093679E+01  0.51100000000E-03 0.  1.
        -12    1    3    3    0    0 -0.40232587438E+02 -0.14086185671E+02  0.36450801286E+01  0.42782804114E+02  0.00000000000E+00 0.  1.
</event>
<event>
 7    1  0.1978681E-015  0.9000758E+02  0.7816164E-02  0.1186339E+00
        -11   -1    0    0    0    0  0.00000000000E+00  0.00000000000E+00  0.45593999997E+02  0.45594000000E+02  0.51100000000E-03 0.  1.
         11   -1    0    0    0    0 -0.00000000000E+00 -0.00000000000E+00 -0.45593999997E+02  0.45594000000E+02  0.51100000000E-03 0. -1.
    9900012    2    1    2    0    0 -0.16654072481E+00  0.10988279345E+01 -0.39778008769E+00  0.90007581582E+02  0.89999840859E+02 0.  0.
        -12    1    1    2    0    0  0.16654072481E+00 -0.10988279345E+01  0.39778008769E+00  0.11804184177E+01  0.00000000000E+00 0.  1.
         11    1    3    3    0    0 -0.33486105675E+01  0.35009843030E+02 -0.16920502395E+02  0.39028268003E+02  0.51100000000E-03 0. -1.
        -11    1    3    3    0    0  0.79035904154E+01  0.47883489026E+01  0.31061578410E+01  0.97490124352E+01  0.51100000000E-03 0.  1.
        -12    1    3    3    0    0 -0.47215205727E+01 -0.38699363998E+02  0.13416564466E+02  0.41230301145E+02  0.00000000000E+00 0.  1.
</event>
<event>
 7    1  0.1978681E-015  0.9000774E+02  0.7816164E-02  0.1186339E+00
        -11   -1    0    0    0    0  0.00000000000E+00  0.00000000000E+00  0.45593999997E+02  0.45594000000E+02  0.51100000000E-03 0. -1.
         11   -1    0    0    0    0 -0.00000000000E+00 -0.00000000000E+00 -0.45593999997E+02  0.45594000000E+02  0.51100000000E-03 0.  1.
    9900012    2    1    2    0    0 -0.10840074346E+01  0.29460815391E+00 -0.36213818590E+00  0.90007741491E+02  0.90000002879E+02 0.  0.
        -12    1    1    2    0    0  0.10840074346E+01 -0.29460815391E+00  0.36213818590E+00  0.11802585091E+01  0.00000000000E+00 0.  1.
         11    1    3    3    0    0 -0.85294606416E+01 -0.40189680023E+01 -0.11631213665E+01  0.95003502153E+01  0.51100000000E-03 0. -1.
        -11    1    3    3    0    0  0.28839335652E+02 -0.25822912160E+02  0.14144723863E+02  0.41214115139E+02  0.51100000000E-03 0.  1.
         12    1    3    3    0    0 -0.21393882445E+02  0.30136488316E+02 -0.13343740682E+02  0.39293276136E+02  0.00000000000E+00 0. -1.
</event>
<event>
 7    1  0.1978681E-015  0.9000773E+02  0.7816164E-02  0.1186339E+00
        -11   -1    0    0    0    0  0.00000000000E+00  0.00000000000E+00  0.45593999997E+02  0.45594000000E+02  0.51100000000E-03 0.  1.
         11   -1    0    0    0    0 -0.00000000000E+00 -0.00000000000E+00 -0.45593999997E+02  0.45594000000E+02  0.51100000000E-03 0. -1.
    9900012    2    1    2    0    0  0.45396800874E-01  0.24607125204E+00 -0.11534440683E+01  0.90007726663E+02  0.89999987855E+02 0.  0.
        -12    1    1    2    0    0 -0.45396800874E-01 -0.24607125204E+00  0.11534440683E+01  0.11802733367E+01  0.00000000000E+00 0.  1.
         11    1    3    3    0    0 -0.35047490166E+02 -0.59993266579E+01  0.19029220601E+02  0.40329018389E+02  0.51100000000E-03 0. -1.
        -11    1    3    3    0    0 -0.26654917847E+01 -0.34090925947E+01 -0.75626722139E+01  0.87132525528E+01  0.51100000000E-03 0.  1.
        -12    1    3    3    0    0  0.37758378752E+02  0.96544905046E+01 -0.12619992455E+02  0.40965455721E+02  0.00000000000E+00 0.  1.
</event>
<event>
 7    1  0.1978681E-015  0.9000771E+02  0.7816164E-02  0.1186339E+00
        -11   -1    0    0    0    0  0.00000000000E+00  0.00000000000E+00  0.45593999997E+02  0.45594000000E+02  0.51100000000E-03 0.  1.
         11   -1    0    0    0    0 -0.00000000000E+00 -0.00000000000E+00 -0.45593999997E+02  0.45594000000E+02  0.51100000000E-03 0. -1.
    9900012    2    1    2    0    0 -0.59101435366E+00 -0.37175737971E+00 -0.95161585712E+00  0.90007714333E+02  0.89999975362E+02 0.  0.
        -12    1    1    2    0    0  0.59101435366E+00  0.37175737971E+00  0.95161585712E+00  0.11802856667E+01  0.00000000000E+00 0.  1.
         11    1    3    3    0    0  0.62264393300E+01 -0.24065519861E+01  0.20190517277E+01  0.69739952202E+01  0.51100000000E-03 0. -1.
        -11    1    3    3    0    0  0.78514023628E+01 -0.36961676515E+02  0.10548491276E+02  0.39231119259E+02  0.51100000000E-03 0.  1.
         12    1    3    3    0    0 -0.14668856046E+02  0.38996471122E+02 -0.13519158861E+02  0.43802599854E+02  0.00000000000E+00 0. -1.
</event>
<event>
 7    1  0.1978681E-015  0.9000776E+02  0.7816164E-02  0.1186339E+00
        -11   -1    0    0    0    0  0.00000000000E+00  0.00000000000E+00  0.45593999997E+02  0.45594000000E+02  0.51100000000E-03 0.  1.
         11   -1    0    0    0    0 -0.00000000000E+00 -0.00000000000E+00 -0.45593999997E+02  0.45594000000E+02  0.51100000000E-03 0. -1.
    9900012    2    1    2    0    0  0.22363760476E+00  0.79885459138E+00 -0.83952049473E+00  0.90007755492E+02  0.90000017065E+02 0.  0.
        -12    1    1    2    0    0 -0.22363760476E+00 -0.79885459138E+00  0.83952049473E+00  0.11802445075E+01  0.00000000000E+00 0.  1.
         11    1    3    3    0    0  0.12302497986E+02 -0.28935745692E+02 -0.22564508940E+02  0.38701238991E+02  0.51100000000E-03 0. -1.
        -11    1    3    3    0    0 -0.59818437707E+01 -0.64440544057E+01  0.25260295132E+00  0.87961412332E+01  0.51100000000E-03 0.  1.
        -12    1    3    3    0    0 -0.60970166105E+01  0.36178654689E+02  0.21472385494E+02  0.42510375269E+02  0.00000000000E+00 0.  1.
</event>
<event>
 7    1  0.1978681E-015  0.9000774E+02  0.7816164E-02  0.1186339E+00
        -11   -1    0    0    0    0  0.00000000000E+00  0.00000000000E+00  0.45593999997E+02  0.45594000000E+02  0.51100000000E-03 0.  1.
         11   -1    0    0    0    0 -0.00000000000E+00 -0.00000000000E+00 -0.45593999997E+02  0.45594000000E+02  0.51100000000E-03 0. -1.
    9900012    2    1    2    0    0 -0.87788156292E+00  0.46567529491E+00 -0.63676866986E+00  0.90007744156E+02  0.90000005579E+02 0.  0.
        -12    1    1    2    0    0  0.87788156292E+00 -0.46567529491E+00  0.63676866986E+00  0.11802558442E+01  0.00000000000E+00 0.  1.
         11    1    3    3    0    0  0.35532573280E+02 -0.12152150107E+02 -0.14883848656E+01  0.37582626384E+02  0.51100000000E-03 0. -1.
        -11    1    3    3    0    0 -0.84583467982E+01 -0.91706618664E+01  0.98085815903E+01  0.15869875321E+02  0.51100000000E-03 0.  1.
        -12    1    3    3    0    0 -0.27952108045E+02  0.21788487268E+02 -0.89569653945E+01  0.36555242451E+02  0.00000000000E+00 0.  1.
</event>
<event>
 7    1  0.3032948E-015  0.9000776E+02  0.7816164E-02  0.1186339E+00
        -11   -1    0    0    0    0  0.00000000000E+00  0.00000000000E+00  0.45593999997E+02  0.45594000000E+02  0.51100000000E-03 0. -1.
         11   -1    0    0    0    0 -0.00000000000E+00 -0.00000000000E+00 -0.45593999997E+02  0.45594000000E+02  0.51100000000E-03 0.  1.
    9900012    2    1    2    0    0 -0.31961534512E+00  0.56074395301E+00  0.98811710597E+00  0.90007761395E+02  0.90000023045E+02 0.  0.
        -12    1    1    2    0    0  0.31961534512E+00 -0.56074395301E+00 -0.98811710597E+00  0.11802386050E+01  0.00000000000E+00 0.  1.
         11    1    3    3    0    0  0.34464711822E+01 -0.67996066545E+01 -0.53090243375E+01  0.92897014991E+01  0.51100000000E-03 0. -1.
        -11    1    3    3    0    0  0.26020646253E+02  0.21778665884E+02 -0.19158699215E+02  0.38967166627E+02  0.51100000000E-03 0.  1.
         12    1    3    3    0    0 -0.29786732780E+02 -0.14418315276E+02  0.25455840658E+02  0.41750893269E+02  0.00000000000E+00 0. -1.
</event>
<event>
 7    1  0.1978681E-015  0.9000775E+02  0.7816164E-02  0.1186339E+00
        -11   -1    0    0    0    0  0.00000000000E+00  0.00000000000E+00  0.45593999997E+02  0.45594000000E+02  0.51100000000E-03 0.  1.
         11   -1    0    0    0    0 -0.00000000000E+00 -0.00000000000E+00 -0.45593999997E+02  0.45594000000E+02  0.51100000000E-03 0. -1.
    9900012    2    1    2    0    0  0.49899528263E+00  0.62385715518E+00 -0.86879627899E+00  0.90007745359E+02  0.90000006798E+02 0.  0.
        -12    1    1    2    0    0 -0.49899528263E+00 -0.62385715518E+00  0.86879627899E+00  0.11802546405E+01  0.00000000000E+00 0.  1.
         11    1    3    3    0    0  0.77053530870E+01 -0.60531908361E+01 -0.33811181795E+01  0.10365594334E+02  0.51100000000E-03 0. -1.
        -11    1    3    3    0    0  0.18933297878E+01 -0.17628336194E+02  0.34296466447E+02  0.38608166826E+02  0.51100000000E-03 0.  1.
         12    1    3    3    0    0 -0.90996875921E+01  0.24305384185E+02 -0.31784144547E+02  0.41033984199E+02  0.00000000000E+00 0. -1.
</event>
<event>
 7    1  0.1978681E-015  0.9000777E+02  0.7816164E-02  0.1186339E+00
        -11   -1    0    0    0    0  0.00000000000E+00  0.00000000000E+00  0.45593999997E+02  0.45594000000E+02  0.51100000000E-03 0.  1.
         11   -1    0    0    0    0 -0.00000000000E+00 -0.00000000000E+00 -0.45593999997E+02  0.45594000000E+02  0.51100000000E-03 0. -1.
    9900012    2    1    2    0    0 -0.60234811683E+00  0.96182138490E+00 -0.32406438979E+00  0.90007770633E+02  0.90000032405E+02 0.  0.
        -12    1    1    2    0    0  0.60234811683E+00 -0.96182138490E+00  0.32406438979E+00  0.11802293671E+01  0.00000000000E+00 0.  1.
         11    1    3    3    0    0 -0.32752416404E+02 -0.58184569710E+01  0.19496905206E+02  0.38557807701E+02  0.51100000000E-03 0. -1.
        -11    1    3    3    0    0 -0.50531811922E+01 -0.62618307993E+01 -0.37424469813E+01  0.88741802320E+01  0.51100000000E-03 0.  1.
        -12    1    3    3    0    0  0.37203249479E+02  0.13042109155E+02 -0.16078522615E+02  0.42575782700E+02  0.00000000000E+00 0.  1.
</event>
<event>
 7    1  0.1978681E-015  0.9000773E+02  0.7816164E-02  0.1186339E+00
        -11   -1    0    0    0    0  0.00000000000E+00  0.00000000000E+00  0.45593999997E+02  0.45594000000E+02  0.51100000000E-03 0.  1.
         11   -1    0    0    0    0 -0.00000000000E+00 -0.00000000000E+00 -0.45593999997E+02  0.45594000000E+02  0.51100000000E-03 0. -1.
    9900012    2    1    2    0    0 -0.10682034914E+00  0.11749620345E+01 -0.33205341178E-01  0.90007725047E+02  0.89999986218E+02 0.  0.
        -12    1    1    2    0    0  0.10682034914E+00 -0.11749620345E+01  0.33205341178E-01  0.11802749527E+01  0.00000000000E+00 0.  1.
         11    1    3    3    0    0 -0.34933117047E+02  0.88259150381E+01  0.99153753767E+01  0.37370230291E+02  0.51100000000E-03 0. -1.
        -11    1    3    3    0    0 -0.49596057384E+01  0.63536024580E+01  0.28668895372E+01  0.85548237360E+01  0.51100000000E-03 0.  1.
        -12    1    3    3    0    0  0.39785902437E+02 -0.14004555462E+02 -0.12815470255E+02  0.44082671020E+02  0.00000000000E+00 0.  1.
</event>
<event>
 7    1  0.1978681E-015  0.9000783E+02  0.7816164E-02  0.1186339E+00
        -11   -1    0    0    0    0  0.00000000000E+00  0.00000000000E+00  0.45593999997E+02  0.45594000000E+02  0.51100000000E-03 0.  1.
         11   -1    0    0    0    0 -0.00000000000E+00 -0.00000000000E+00 -0.45593999997E+02  0.45594000000E+02  0.51100000000E-03 0. -1.
    9900012    2    1    2    0    0 -0.49044822273E+00  0.69235752711E+00 -0.82031004366E+00  0.90007827567E+02  0.90000090091E+02 0.  0.
        -12    1    1    2    0    0  0.49044822273E+00 -0.69235752711E+00  0.82031004366E+00  0.11801724333E+01  0.00000000000E+00 0.  1.
         11    1    3    3    0    0 -0.25976784256E+02  0.73122727134E+01  0.28628939191E+02  0.39343091033E+02  0.51100000000E-03 0. -1.
        -11    1    3    3    0    0 -0.15142334866E+01  0.94838507151E+01 -0.49295018361E+01  0.10795198750E+02  0.51100000000E-03 0.  1.
        -12    1    3    3    0    0  0.27000569520E+02 -0.16103765901E+02 -0.24519747398E+02  0.39869537784E+02  0.00000000000E+00 0.  1.
</event>
<event>
 7    1  0.1978681E-015  0.9000773E+02  0.7816164E-02  0.1186339E+00
        -11   -1    0    0    0    0  0.00000000000E+00  0.00000000000E+00  0.45593999997E+02  0.45594000000E+02  0.51100000000E-03 0.  1.
         11   -1    0    0    0    0 -0.00000000000E+00 -0.00000000000E+00 -0.45593999997E+02  0.45594000000E+02  0.51100000000E-03 0. -1.
    9900012    2    1    2    0    0 -0.98536697378E+00  0.38791928999E+00 -0.52116434157E+00  0.90007728116E+02  0.89999989327E+02 0.  0.
        -12    1    1    2    0    0  0.98536697378E+00 -0.38791928999E+00  0.52116434157E+00  0.11802718837E+01  0.00000000000E+00 0.  1.
         11    1    3    3    0    0  0.32710217073E+02 -0.21455966851E+02 -0.10705015395E+02  0.40557541461E+02  0.51100000000E-03 0. -1.
        -11    1    3    3    0    0  0.11056969542E+01  0.22407220844E+01  0.91597443854E+01  0.94944361961E+01  0.51100000000E-03 0.  1.
        -12    1    3    3    0    0 -0.34801281001E+02  0.19603164057E+02  0.10241066684E+01  0.39955750460E+02  0.00000000000E+00 0.  1.
</event>
<event>
 7    1  0.1978681E-015  0.9000781E+02  0.7816164E-02  0.1186339E+00
        -11   -1    0    0    0    0  0.00000000000E+00  0.00000000000E+00  0.45593999997E+02  0.45594000000E+02  0.51100000000E-03 0.  1.
         11   -1    0    0    0    0 -0.00000000000E+00 -0.00000000000E+00 -0.45593999997E+02  0.45594000000E+02  0.51100000000E-03 0. -1.
    9900012    2    1    2    0    0 -0.14635244194E+00  0.17237218691E+00 -0.11583214865E+01  0.90007813627E+02  0.90000075967E+02 0.  0.
        -12    1    1    2    0    0  0.14635244194E+00 -0.17237218691E+00  0.11583214865E+01  0.11801863727E+01  0.00000000000E+00 0.  1.
         11    1    3    3    0    0 -0.25259508042E+02  0.12240845727E+02 -0.23983318906E+02  0.36919921948E+02  0.51100000000E-03 0. -1.
        -11    1    3    3    0    0 -0.97560139038E+01 -0.38247688133E+01 -0.22906591978E+00  0.10481466273E+02  0.51100000000E-03 0.  1.
        -12    1    3    3    0    0  0.34869169503E+02 -0.82437047266E+01  0.23054063340E+02  0.42606425407E+02  0.00000000000E+00 0.  1.
</event>
<event>
 7    1  0.1978681E-015  0.9000779E+02  0.7816164E-02  0.1186339E+00
        -11   -1    0    0    0    0  0.00000000000E+00  0.00000000000E+00  0.45593999997E+02  0.45594000000E+02  0.51100000000E-03 0.  1.
         11   -1    0    0    0    0 -0.00000000000E+00 -0.00000000000E+00 -0.45593999997E+02  0.45594000000E+02  0.51100000000E-03 0. -1.
    9900012    2    1    2    0    0 -0.86505471865E+00  0.66527342864E+00 -0.44942390381E+00  0.90007792287E+02  0.90000054345E+02 0.  0.
        -12    1    1    2    0    0  0.86505471865E+00 -0.66527342864E+00  0.44942390381E+00  0.11802077133E+01  0.00000000000E+00 0.  1.
         11    1    3    3    0    0  0.81981918362E+01 -0.33845175526E+01 -0.40798255198E+01  0.97626986525E+01  0.51100000000E-03 0. -1.
        -11    1    3    3    0    0  0.13168951218E+02 -0.28005349402E+02 -0.17835633341E+02  0.35718772210E+02  0.51100000000E-03 0.  1.
         12    1    3    3    0    0 -0.22232197772E+02  0.32055140383E+02  0.21466034957E+02  0.44526321424E+02  0.00000000000E+00 0. -1.
</event>
<event>
 7    1  0.1978681E-015  0.9000791E+02  0.7816164E-02  0.1186339E+00
        -11   -1    0    0    0    0  0.00000000000E+00  0.00000000000E+00  0.45593999997E+02  0.45594000000E+02  0.51100000000E-03 0.  1.
         11   -1    0    0    0    0 -0.00000000000E+00 -0.00000000000E+00 -0.45593999997E+02  0.45594000000E+02  0.51100000000E-03 0. -1.
    9900012    2    1    2    0    0 -0.32725539500E+00  0.10219896593E+01 -0.49098326077E+00  0.90007905292E+02  0.90000168842E+02 0.  0.
        -12    1    1    2    0    0  0.32725539500E+00 -0.10219896593E+01  0.49098326077E+00  0.11800947079E+01  0.00000000000E+00 0.  1.
         11    1    3    3    0    0  0.28143460059E+02  0.11281555950E+02 -0.28158136853E+02  0.41378841453E+02  0.51100000000E-03 0. -1.
        -11    1    3    3    0    0 -0.12655076626E+02 -0.15028924693E+01 -0.29427772255E+01  0.13079357333E+02  0.51100000000E-03 0.  1.
        -12    1    3    3    0    0 -0.15815638827E+02 -0.87566738213E+01  0.30609930818E+02  0.35549706505E+02  0.00000000000E+00 0.  1.
</event>
<event>
 7    1  0.1978681E-015  0.9000770E+02  0.7816164E-02  0.1186339E+00
        -11   -1    0    0    0    0  0.00000000000E+00  0.00000000000E+00  0.45593999997E+02  0.45594000000E+02  0.51100000000E-03 0.  1.
         11   -1    0    0    0    0 -0.00000000000E+00 -0.00000000000E+00 -0.45593999997E+02  0.45594000000E+02  0.51100000000E-03 0. -1.
    9900012    2    1    2    0    0 -0.63727940839E+00  0.12046122777E+00 -0.98613707071E+00  0.90007702464E+02  0.89999963336E+02 0.  0.
        -12    1    1    2    0    0  0.63727940839E+00 -0.12046122777E+00  0.98613707071E+00  0.11802975362E+01  0.00000000000E+00 0.  1.
         11    1    3    3    0    0 -0.31101379612E+02  0.18039137256E+02 -0.11316133541E+02  0.37692985625E+02  0.51100000000E-03 0. -1.
        -11    1    3    3    0    0 -0.82126785623E+01 -0.37010351083E+01 -0.21461671995E+01  0.92602259124E+01  0.51100000000E-03 0.  1.
        -12    1    3    3    0    0  0.38676778766E+02 -0.14217640920E+02  0.12476163670E+02  0.43054490927E+02  0.00000000000E+00 0.  1.
</event>
<event>
 7    1  0.1978681E-015  0.9000772E+02  0.7816164E-02  0.1186339E+00
        -11   -1    0    0    0    0  0.00000000000E+00  0.00000000000E+00  0.45593999997E+02  0.45594000000E+02  0.51100000000E-03 0. -1.
         11   -1    0    0    0    0 -0.00000000000E+00 -0.00000000000E+00 -0.45593999997E+02  0.45594000000E+02  0.51100000000E-03 0.  1.
    9900012    2    1    2    0    0  0.63017282246E+00  0.89134405687E+00  0.44882802103E+00  0.90007720963E+02  0.89999982079E+02 0.  0.
        -12    1    1    2    0    0 -0.63017282246E+00 -0.89134405687E+00 -0.44882802103E+00  0.11802790375E+01  0.00000000000E+00 0.  1.
         11    1    3    3    0    0  0.51471207715E+01 -0.63842526148E+01 -0.66982771047E+01  0.10588600008E+02  0.51100000000E-03 0. -1.
        -11    1    3    3    0    0  0.12528870458E+02 -0.31946868377E+02 -0.56529228903E+01  0.34778305473E+02  0.51100000000E-03 0.  1.
         12    1    3    3    0    0 -0.17045818407E+02  0.39222465049E+02  0.12800028016E+02  0.44640815482E+02  0.00000000000E+00 0. -1.
</event>
<event>
 7    1  0.1978681E-015  0.9000778E+02  0.7816164E-02  0.1186339E+00
        -11   -1    0    0    0    0  0.00000000000E+00  0.00000000000E+00  0.45593999997E+02  0.45594000000E+02  0.51100000000E-03 0.  1.
         11   -1    0    0    0    0 -0.00000000000E+00 -0.00000000000E+00 -0.45593999997E+02  0.45594000000E+02  0.51100000000E-03 0. -1.
    9900012    2    1    2    0    0  0.37837129429E+00 -0.10593922395E+01  0.35698233634E+00  0.90007782587E+02  0.90000044517E+02 0.  0.
        -12    1    1    2    0    0 -0.37837129429E+00  0.10593922395E+01 -0.35698233634E+00  0.11802174130E+01  0.00000000000E+00 0.  1.
         11    1    3    3    0    0  0.18431248574E+02 -0.20390180011E+02 -0.11841871669E+02  0.29928252367E+02  0.51100000000E-03 0. -1.
        -11    1    3    3    0    0 -0.73288637881E+01 -0.17243296764E+02 -0.31352241971E+01  0.18996661779E+02  0.51100000000E-03 0.  1.
         12    1    3    3    0    0 -0.10724013492E+02  0.36574084536E+02  0.15334078203E+02  0.41082868441E+02  0.00000000000E+00 0. -1.
</event>
<event>
 7    1  0.1978681E-015  0.9000789E+02  0.7816164E-02  0.1186339E+00
        -11   -1    0    0    0    0  0.00000000000E+00  0.00000000000E+00  0.45593999997E+02  0.45594000000E+02  0.51100000000E-03 0.  1.
         11   -1    0    0    0    0 -0.00000000000E+00 -0.00000000000E+00 -0.45593999997E+02  0.45594000000E+02  0.51100000000E-03 0. -1.
    9900012    2    1    2    0    0 -0.16495353382E-01  0.11741819782E+01  0.11696946959E+00  0.90007890992E+02  0.90000154353E+02 0.  0.
        -12    1    1    2    0    0  0.16495353382E-01 -0.11741819782E+01 -0.11696946959E+00  0.11801090082E+01  0.00000000000E+00 0.  1.
         11    1    3    3    0    0  0.15510601606E+02 -0.35953724991E+01 -0.35044595462E+02  0.38491935999E+02  0.51100000000E-03 0. -1.
        -11    1    3    3    0    0  0.82462050839E+01 -0.48477610724E+01  0.23110863932E+01  0.98408234553E+01  0.51100000000E-03 0.  1.
        -12    1    3    3    0    0 -0.23773302043E+02  0.96173155496E+01  0.32850478539E+02  0.41675131537E+02  0.00000000000E+00 0.  1.
</event>
<event>
 7    1  0.1978681E-015  0.9000779E+02  0.7816164E-02  0.1186339E+00
        -11   -1    0    0    0    0  0.00000000000E+00  0.00000000000E+00  0.45593999997E+02  0.45594000000E+02  0.51100000000E-03 0.  1.
         11   -1    0    0    0    0 -0.00000000000E+00 -0.00000000000E+00 -0.45593999997E+02  0.45594000000E+02  0.51100000000E-03 0. -1.
    9900012    2    1    2    0    0  0.57083193742E+00 -0.93645059912E+00  0.43600414575E+00  0.90007793052E+02  0.90000055120E+02 0.  0.
        -12    1    1    2    0    0 -0.57083193742E+00  0.93645059912E+00 -0.43600414575E+00  0.11802069482E+01  0.00000000000E+00 0.  1.
         11    1    3    3    0    0  0.25635710817E+01  0.11660459658E+02 -0.13157093730E+01  0.12011215906E+02  0.51100000000E-03 0. -1.
        -11    1    3    3    0    0  0.55162845899E+01  0.53015146228E+01  0.36986412254E+02  0.37769434000E+02  0.51100000000E-03 0.  1.
         12    1    3    3    0    0 -0.75090237342E+01 -0.17898424880E+02 -0.35234698736E+02  0.40227143145E+02  0.00000000000E+00 0. -1.
</event>
<event>
 7    1  0.1978681E-015  0.9000774E+02  0.7816164E-02  0.1186339E+00
        -11   -1    0    0    0    0  0.00000000000E+00  0.00000000000E+00  0.45593999997E+02  0.45594000000E+02  0.51100000000E-03 0. -1.
         11   -1    0    0    0    0 -0.00000000000E+00 -0.00000000000E+00 -0.45593999997E+02  0.45594000000E+02  0.51100000000E-03 0.  1.
    9900012    2    1    2    0    0 -0.88620277121E+00 -0.35419141520E+00  0.69441176259E+00  0.90007739602E+02  0.90000000965E+02 0.  0.
        -12    1    1    2    0    0  0.88620277121E+00  0.35419141520E+00 -0.69441176259E+00  0.11802603977E+01  0.00000000000E+00 0.  1.
         11    1    3    3    0    0  0.15255536804E+02  0.27734161886E+02  0.14884716073E+02  0.34978134763E+02  0.51100000000E-03 0. -1.
        -11    1    3    3    0    0  0.92629459492E+01 -0.24532146545E+01  0.81536794944E+01  0.12581848805E+02  0.51100000000E-03 0.  1.
        -12    1    3    3    0    0 -0.25404685525E+02 -0.25635138647E+02 -0.22343983805E+02  0.42447756034E+02  0.00000000000E+00 0.  1.
</event>
<event>
 7    1  0.1978681E-015  0.9000773E+02  0.7816164E-02  0.1186339E+00
        -11   -1    0    0    0    0  0.00000000000E+00  0.00000000000E+00  0.45593999997E+02  0.45594000000E+02  0.51100000000E-03 0.  1.
         11   -1    0    0    0    0 -0.00000000000E+00 -0.00000000000E+00 -0.45593999997E+02  0.45594000000E+02  0.51100000000E-03 0. -1.
    9900012    2    1    2    0    0  0.84022520446E-01 -0.11771449952E+01  0.17477016440E-01  0.90007730722E+02  0.89999991967E+02 0.  0.
        -12    1    1    2    0    0 -0.84022520446E-01  0.11771449952E+01 -0.17477016440E-01  0.11802692785E+01  0.00000000000E+00 0.  1.
         11    1    3    3    0    0  0.47499752662E+01  0.69884745718E+01 -0.34843238796E+01  0.91401069485E+01  0.51100000000E-03 0. -1.
        -11    1    3    3    0    0 -0.32543105078E+02  0.15538406893E+02  0.19424305064E+02  0.40960949750E+02  0.51100000000E-03 0.  1.
         12    1    3    3    0    0  0.27877152333E+02 -0.23704026460E+02 -0.15922504168E+02  0.39906674023E+02  0.00000000000E+00 0. -1.
</event>
<event>
 7    1  0.1978681E-015  0.9000771E+02  0.7816164E-02  0.1186339E+00
        -11   -1    0    0    0    0  0.00000000000E+00  0.00000000000E+00  0.45593999997E+02  0.45594000000E+02  0.51100000000E-03 0.  1.
         11   -1    0    0    0    0 -0.00000000000E+00 -0.00000000000E+00 -0.45593999997E+02  0.45594000000E+02  0.51100000000E-03 0. -1.
    9900012    2    1    2    0    0 -0.49461197089E+00 -0.52632882344E-01 -0.10703593316E+01  0.90007711764E+02  0.89999972759E+02 0.  0.
        -12    1    1    2    0    0  0.49461197089E+00  0.52632882344E-01  0.10703593316E+01  0.11802882363E+01  0.00000000000E+00 0.  1.
         11    1    3    3    0    0  0.12766186988E+02  0.38945920664E+02  0.74174878238E+01  0.41650682977E+02  0.51100000000E-03 0. -1.
        -11    1    3    3    0    0 -0.57194475054E+01 -0.14074972921E+00 -0.65924776860E+01  0.87288402755E+01  0.51100000000E-03 0.  1.
        -12    1    3    3    0    0 -0.75413514537E+01 -0.38857803817E+02 -0.18953694693E+01  0.39628188511E+02  0.00000000000E+00 0.  1.
</event>
<event>
 7    1  0.1978681E-015  0.9000818E+02  0.7816164E-02  0.1186338E+00
        -11   -1    0    0    0    0  0.00000000000E+00  0.00000000000E+00  0.45593999997E+02  0.45594000000E+02  0.51100000000E-03 0. -1.
         11   -1    0    0    0    0 -0.00000000000E+00 -0.00000000000E+00 -0.45593999997E+02  0.45594000000E+02  0.51100000000E-03 0.  1.
    9900012    2    1    2    0    0  0.30476872977E+00  0.31444239148E+00  0.10955488513E+01  0.90008175741E+02  0.90000442860E+02 0.  0.
        -12    1    1    2    0    0 -0.30476872977E+00 -0.31444239148E+00 -0.10955488513E+01  0.11798242589E+01  0.00000000000E+00 0.  1.
         11    1    3    3    0    0 -0.19553542743E+02 -0.23566255554E+02 -0.15899750225E+02  0.34503789533E+02  0.51100000000E-03 0. -1.
        -11    1    3    3    0    0  0.32450470305E+01  0.11759434642E+02 -0.13834637395E+02  0.18444831944E+02  0.51100000000E-03 0.  1.
        -12    1    3    3    0    0  0.16613264442E+02  0.12121263304E+02  0.30829936471E+02  0.37059554265E+02  0.00000000000E+00 0.  1.
</event>
<event>
 7    1  0.1978681E-015  0.9000776E+02  0.7816164E-02  0.1186339E+00
        -11   -1    0    0    0    0  0.00000000000E+00  0.00000000000E+00  0.45593999997E+02  0.45594000000E+02  0.51100000000E-03 0.  1.
         11   -1    0    0    0    0 -0.00000000000E+00 -0.00000000000E+00 -0.45593999997E+02  0.45594000000E+02  0.51100000000E-03 0. -1.
    9900012    2    1    2    0    0  0.66680286715E+00 -0.70463480293E+00  0.67218387327E+00  0.90007759589E+02  0.90000021215E+02 0.  0.
        -12    1    1    2    0    0 -0.66680286715E+00  0.70463480293E+00 -0.67218387327E+00  0.11802404114E+01  0.00000000000E+00 0.  1.
         11    1    3    3    0    0  0.57028065502E+01 -0.48526663165E+01  0.18009203222E+01  0.77015379760E+01  0.51100000000E-03 0. -1.
        -11    1    3    3    0    0  0.29601180892E+02  0.12365796425E+02  0.22848878053E+02  0.39385454929E+02  0.51100000000E-03 0.  1.
         12    1    3    3    0    0 -0.34637184575E+02 -0.82177649117E+01 -0.23977614502E+02  0.42920766683E+02  0.00000000000E+00 0. -1.
</event>
<event>
 7    1  0.1978681E-015  0.9000778E+02  0.7816164E-02  0.1186339E+00
        -11   -1    0    0    0    0  0.00000000000E+00  0.00000000000E+00  0.45593999997E+02  0.45594000000E+02  0.51100000000E-03 0. -1.
         11   -1    0    0    0    0 -0.00000000000E+00 -0.00000000000E+00 -0.45593999997E+02  0.45594000000E+02  0.51100000000E-03 0.  1.
    9900012    2    1    2    0    0  0.28814988990E+00 -0.82981606793E+00  0.78822808173E+00  0.90007776049E+02  0.90000037893E+02 0.  0.
        -12    1    1    2    0    0 -0.28814988990E+00  0.82981606793E+00 -0.78822808173E+00  0.11802239510E+01  0.00000000000E+00 0.  1.
         11    1    3    3    0    0 -0.80756201582E+00  0.12474431375E+02 -0.12292253404E+01  0.12560835551E+02  0.51100000000E-03 0. -1.
        -11    1    3    3    0    0 -0.10437913951E+02  0.17084469778E+02 -0.27178141808E+02  0.33756192730E+02  0.51100000000E-03 0.  1.
         12    1    3    3    0    0  0.11533625857E+02 -0.30388717221E+02  0.29195595230E+02  0.43690747768E+02  0.00000000000E+00 0. -1.
</event>
<event>
 7    1  0.1978681E-015  0.9000757E+02  0.7816164E-02  0.1186339E+00
        -11   -1    0    0    0    0  0.00000000000E+00  0.00000000000E+00  0.45593999997E+02  0.45594000000E+02  0.51100000000E-03 0. -1.
         11   -1    0    0    0    0 -0.00000000000E+00 -0.00000000000E+00 -0.45593999997E+02  0.45594000000E+02  0.51100000000E-03 0.  1.
    9900012    2    1    2    0    0  0.90624627489E+00  0.30754112016E+00  0.69105834349E+00  0.90007565552E+02  0.89999824617E+02 0.  0.
        -12    1    1    2    0    0 -0.90624627489E+00 -0.30754112016E+00 -0.69105834349E+00  0.11804344478E+01  0.00000000000E+00 0.  1.
         11    1    3    3    0    0  0.17375003753E+01  0.51924636981E+01 -0.62359999637E+01  0.82986916209E+01  0.51100000000E-03 0. -1.
        -11    1    3    3    0    0 -0.38008807835E+01  0.36902202580E+02 -0.66136824884E+01  0.37682357229E+02  0.51100000000E-03 0.  1.
         12    1    3    3    0    0  0.29696266830E+01 -0.41787125158E+02  0.13540740796E+02  0.44026516702E+02  0.00000000000E+00 0. -1.
</event>
<event>
 7    1  0.1978681E-015  0.9000705E+02  0.7816164E-02  0.1186340E+00
        -11   -1    0    0    0    0  0.00000000000E+00  0.00000000000E+00  0.45593999997E+02  0.45594000000E+02  0.51100000000E-03 0. -1.
         11   -1    0    0    0    0 -0.00000000000E+00 -0.00000000000E+00 -0.45593999997E+02  0.45594000000E+02  0.51100000000E-03 0.  1.
    9900012    2    1    2    0    0 -0.11031954961E+01  0.39322534593E+00  0.15156290046E+00  0.90007052165E+02  0.89999304451E+02 0.  0.
        -12    1    1    2    0    0  0.11031954961E+01 -0.39322534593E+00 -0.15156290046E+00  0.11809478346E+01  0.00000000000E+00 0.  1.
         11    1    3    3    0    0 -0.22669459988E+01 -0.67906394797E+01 -0.43573761582E+01  0.83808445845E+01  0.51100000000E-03 0. -1.
        -11    1    3    3    0    0  0.18791388175E+02 -0.20991744629E+02 -0.24632877281E+02  0.37423899523E+02  0.51100000000E-03 0.  1.
         12    1    3    3    0    0 -0.17627637673E+02  0.28175609455E+02  0.29141816339E+02  0.44202308058E+02  0.00000000000E+00 0. -1.
</event>
<event>
 7    1  0.1978681E-015  0.9000805E+02  0.7816164E-02  0.1186338E+00
        -11   -1    0    0    0    0  0.00000000000E+00  0.00000000000E+00  0.45593999997E+02  0.45594000000E+02  0.51100000000E-03 0.  1.
         11   -1    0    0    0    0 -0.00000000000E+00 -0.00000000000E+00 -0.45593999997E+02  0.45594000000E+02  0.51100000000E-03 0. -1.
    9900012    2    1    2    0    0 -0.55607884668E+00 -0.10033284652E+01 -0.27638623484E+00  0.90008050406E+02  0.90000315871E+02 0.  0.
        -12    1    1    2    0    0  0.55607884668E+00  0.10033284652E+01  0.27638623484E+00  0.11799495937E+01  0.00000000000E+00 0.  1.
         11    1    3    3    0    0 -0.13482180977E+02  0.36279124114E+02 -0.73392567394E+01  0.39393003695E+02  0.51100000000E-03 0. -1.
        -11    1    3    3    0    0  0.30595596671E+00  0.33517491344E+01 -0.53250363191E+01  0.62995113600E+01  0.51100000000E-03 0.  1.
        -12    1    3    3    0    0  0.12620146163E+02 -0.40634201713E+02  0.12387906824E+02  0.44315535352E+02  0.00000000000E+00 0.  1.
</event>
<event>
 7    1  0.1978681E-015  0.9000774E+02  0.7816164E-02  0.1186339E+00
        -11   -1    0    0    0    0  0.00000000000E+00  0.00000000000E+00  0.45593999997E+02  0.45594000000E+02  0.51100000000E-03 0. -1.
         11   -1    0    0    0    0 -0.00000000000E+00 -0.00000000000E+00 -0.45593999997E+02  0.45594000000E+02  0.51100000000E-03 0.  1.
    9900012    2    1    2    0    0  0.92195993228E+00  0.57804980579E+00  0.45701793424E+00  0.90007738551E+02  0.89999999900E+02 0.  0.
        -12    1    1    2    0    0 -0.92195993228E+00 -0.57804980579E+00 -0.45701793424E+00  0.11802614485E+01  0.00000000000E+00 0.  1.
         11    1    3    3    0    0 -0.67165254581E+01  0.32973992109E+01  0.13160793518E+02  0.15139056842E+02  0.51100000000E-03 0. -1.
        -11    1    3    3    0    0  0.36906922873E+02  0.23321396552E+01 -0.22863924711E+02  0.43477797607E+02  0.51100000000E-03 0.  1.
         12    1    3    3    0    0 -0.29268437483E+02 -0.50514890603E+01  0.10160149127E+02  0.31390884102E+02  0.00000000000E+00 0. -1.
</event>
<event>
 7    1  0.1978681E-015  0.9000775E+02  0.7816164E-02  0.1186339E+00
        -11   -1    0    0    0    0  0.00000000000E+00  0.00000000000E+00  0.45593999997E+02  0.45594000000E+02  0.51100000000E-03 0.  1.
         11   -1    0    0    0    0 -0.00000000000E+00 -0.00000000000E+00 -0.45593999997E+02  0.45594000000E+02  0.51100000000E-03 0. -1.
    9900012    2    1    2    0    0 -0.92397256961E+00  0.62279127087E+00 -0.38909765908E+00  0.90007749491E+02  0.90000010984E+02 0.  0.
        -12    1    1    2    0    0  0.92397256961E+00 -0.62279127087E+00  0.38909765908E+00  0.11802505093E+01  0.00000000000E+00 0.  1.
         11    1    3    3    0    0 -0.40527137966E+01  0.28518581021E+02 -0.10440073624E+02  0.30638686168E+02  0.51100000000E-03 0. -1.
        -11    1    3    3    0    0 -0.80007188276E+01  0.76183462512E+01 -0.11837918075E+02  0.16192189660E+02  0.51100000000E-03 0.  1.
        -12    1    3    3    0    0  0.11129460055E+02 -0.35514136001E+02  0.21888894040E+02  0.43176873663E+02  0.00000000000E+00 0.  1.
</event>
<event>
 7    1  0.1978681E-015  0.9000777E+02  0.7816164E-02  0.1186339E+00
        -11   -1    0    0    0    0  0.00000000000E+00  0.00000000000E+00  0.45593999997E+02  0.45594000000E+02  0.51100000000E-03 0.  1.
         11   -1    0    0    0    0 -0.00000000000E+00 -0.00000000000E+00 -0.45593999997E+02  0.45594000000E+02  0.51100000000E-03 0. -1.
    9900012    2    1    2    0    0  0.29810717302E+00  0.96690607821E+00 -0.60758738738E+00  0.90007772190E+02  0.90000033983E+02 0.  0.
        -12    1    1    2    0    0 -0.29810717302E+00 -0.96690607821E+00  0.60758738738E+00  0.11802278102E+01  0.00000000000E+00 0.  1.
         11    1    3    3    0    0  0.79659760864E+01  0.30617511888E+02  0.26774523715E+02  0.41445915717E+02  0.51100000000E-03 0. -1.
        -11    1    3    3    0    0  0.70332167958E+01 -0.37689439859E+00 -0.26870172127E+01  0.75384514090E+01  0.51100000000E-03 0.  1.
        -12    1    3    3    0    0 -0.14701085709E+02 -0.29273711411E+02 -0.24695093890E+02  0.41023405064E+02  0.00000000000E+00 0.  1.
</event>
<event>
 7    1  0.1978681E-015  0.9000776E+02  0.7816164E-02  0.1186339E+00
        -11   -1    0    0    0    0  0.00000000000E+00  0.00000000000E+00  0.45593999997E+02  0.45594000000E+02  0.51100000000E-03 0.  1.
         11   -1    0    0    0    0 -0.00000000000E+00 -0.00000000000E+00 -0.45593999997E+02  0.45594000000E+02  0.51100000000E-03 0. -1.
    9900012    2    1    2    0    0 -0.43778760336E+00  0.10273126286E+01  0.38201119845E+00  0.90007761982E+02  0.90000023640E+02 0.  0.
        -12    1    1    2    0    0  0.43778760336E+00 -0.10273126286E+01 -0.38201119845E+00  0.11802380177E+01  0.00000000000E+00 0.  1.
         11    1    3    3    0    0  0.26767936325E+02  0.15321575343E+02 -0.30476926792E+02  0.43360306192E+02  0.51100000000E-03 0. -1.
        -11    1    3    3    0    0 -0.22293108207E+01  0.29121650922E+01  0.75574833939E+01  0.84003623595E+01  0.51100000000E-03 0.  1.
        -12    1    3    3    0    0 -0.24976413108E+02 -0.17206427807E+02  0.23301454597E+02  0.38247093431E+02  0.00000000000E+00 0.  1.
</event>
<event>
 7    1  0.1978681E-015  0.9000782E+02  0.7816164E-02  0.1186339E+00
        -11   -1    0    0    0    0  0.00000000000E+00  0.00000000000E+00  0.45593999997E+02  0.45594000000E+02  0.51100000000E-03 0. -1.
         11   -1    0    0    0    0 -0.00000000000E+00 -0.00000000000E+00 -0.45593999997E+02  0.45594000000E+02  0.51100000000E-03 0.  1.
    9900012    2    1    2    0    0  0.10370781793E+01 -0.55715299302E+00  0.82858570756E-01  0.90007823678E+02  0.90000086151E+02 0.  0.
        -12    1    1    2    0    0 -0.10370781793E+01  0.55715299302E+00 -0.82858570756E-01  0.11801763217E+01  0.00000000000E+00 0.  1.
         11    1    3    3    0    0 -0.88418102947E+01 -0.16393368768E+01  0.25226139981E+01  0.93396261342E+01  0.51100000000E-03 0. -1.
        -11    1    3    3    0    0  0.23852531822E+02  0.35474256278E+02 -0.68195837115E+01  0.43288253084E+02  0.51100000000E-03 0.  1.
         12    1    3    3    0    0 -0.13973643348E+02 -0.34392072394E+02  0.43798282842E+01  0.37379944460E+02  0.00000000000E+00 0. -1.
</event>
<event>
 7    1  0.1978681E-015  0.9000766E+02  0.7816164E-02  0.1186339E+00
        -11   -1    0    0    0    0  0.00000000000E+00  0.00000000000E+00  0.45593999997E+02  0.45594000000E+02  0.51100000000E-03 0. -1.
         11   -1    0    0    0    0 -0.00000000000E+00 -0.00000000000E+00 -0.45593999997E+02  0.45594000000E+02  0.51100000000E-03 0.  1.
    9900012    2    1    2    0    0  0.70085866010E-01  0.51403327822E+00  0.10602137851E+01  0.90007662968E+02  0.89999923319E+02 0.  0.
        -12    1    1    2    0    0 -0.70085866010E-01 -0.51403327822E+00 -0.10602137851E+01  0.11803370323E+01  0.00000000000E+00 0.  1.
         11    1    3    3    0    0  0.23322206650E+01 -0.74940211796E+01 -0.65211659192E+01  0.10204176198E+02  0.51100000000E-03 0. -1.
        -11    1    3    3    0    0  0.11825349447E+02 -0.21649850904E+02 -0.23877036423E+02  0.34331731712E+02  0.51100000000E-03 0.  1.
         12    1    3    3    0    0 -0.14087484246E+02  0.29657905362E+02  0.31458416127E+02  0.45471755058E+02  0.00000000000E+00 0. -1.
</event>
<event>
 7    1  0.1978681E-015  0.9000766E+02  0.7816164E-02  0.1186339E+00
        -11   -1    0    0    0    0  0.00000000000E+00  0.00000000000E+00  0.45593999997E+02  0.45594000000E+02  0.51100000000E-03 0.  1.
         11   -1    0    0    0    0 -0.00000000000E+00 -0.00000000000E+00 -0.45593999997E+02  0.45594000000E+02  0.51100000000E-03 0. -1.
    9900012    2    1    2    0    0 -0.10862895985E+01  0.41143638101E+00 -0.20952498315E+00  0.90007658649E+02  0.89999918943E+02 0.  0.
        -12    1    1    2    0    0  0.10862895985E+01 -0.41143638101E+00  0.20952498315E+00  0.11803413515E+01  0.00000000000E+00 0.  1.
         11    1    3    3    0    0 -0.35996910899E+01 -0.18441660690E+02 -0.31463568329E+02  0.36647083884E+02  0.51100000000E-03 0. -1.
        -11    1    3    3    0    0  0.40308896169E+01 -0.52112208003E+01 -0.60484068955E+01  0.89436077490E+01  0.51100000000E-03 0.  1.
        -12    1    3    3    0    0 -0.15174881256E+01  0.24064317871E+02  0.37302450242E+02  0.44416967015E+02  0.00000000000E+00 0.  1.
</event>
<event>
 7    1  0.1978681E-015  0.9000773E+02  0.7816164E-02  0.1186339E+00
        -11   -1    0    0    0    0  0.00000000000E+00  0.00000000000E+00  0.45593999997E+02  0.45594000000E+02  0.51100000000E-03 0. -1.
         11   -1    0    0    0    0 -0.00000000000E+00 -0.00000000000E+00 -0.45593999997E+02  0.45594000000E+02  0.51100000000E-03 0.  1.
    9900012    2    1    2    0    0  0.47549431633E+00  0.10020171962E+01 -0.40359938295E+00  0.90007734874E+02  0.89999996174E+02 0.  0.
        -12    1    1    2    0    0 -0.47549431633E+00 -0.10020171962E+01  0.40359938295E+00  0.11802651262E+01  0.00000000000E+00 0.  1.
         11    1    3    3    0    0 -0.98823364244E+01 -0.33334533552E+01  0.46163151584E+01  0.11405386902E+02  0.51100000000E-03 0. -1.
        -11    1    3    3    0    0  0.23488653012E+01  0.14970521104E+02 -0.39143077276E+02  0.41973970139E+02  0.51100000000E-03 0.  1.
         12    1    3    3    0    0  0.80089654396E+01 -0.10635050552E+02  0.34123162735E+02  0.36628377833E+02  0.00000000000E+00 0. -1.
</event>
<event>
 7    1  0.1978681E-015  0.9000783E+02  0.7816164E-02  0.1186339E+00
        -11   -1    0    0    0    0  0.00000000000E+00  0.00000000000E+00  0.45593999997E+02  0.45594000000E+02  0.51100000000E-03 0. -1.
         11   -1    0    0    0    0 -0.00000000000E+00 -0.00000000000E+00 -0.45593999997E+02  0.45594000000E+02  0.51100000000E-03 0.  1.
    9900012    2    1    2    0    0  0.22842034143E+00  0.11574473774E+01  0.30837253982E-01  0.90007825767E+02  0.90000088267E+02 0.  0.
        -12    1    1    2    0    0 -0.22842034143E+00 -0.11574473774E+01 -0.30837253982E-01  0.11801742329E+01  0.00000000000E+00 0.  1.
         11    1    3    3    0    0  0.13486084425E+02 -0.30557111590E+02  0.23863086600E+02  0.41049463385E+02  0.51100000000E-03 0. -1.
        -11    1    3    3    0    0  0.91648577717E-01  0.99248444187E+01  0.44191081891E+01  0.10864596341E+02  0.51100000000E-03 0.  1.
        -12    1    3    3    0    0 -0.13349312661E+02  0.21789714549E+02 -0.28251357535E+02  0.38093766041E+02  0.00000000000E+00 0.  1.
</event>
<event>
 7    1  0.1978681E-015  0.9000772E+02  0.7816164E-02  0.1186339E+00
        -11   -1    0    0    0    0  0.00000000000E+00  0.00000000000E+00  0.45593999997E+02  0.45594000000E+02  0.51100000000E-03 0.  1.
         11   -1    0    0    0    0 -0.00000000000E+00 -0.00000000000E+00 -0.45593999997E+02  0.45594000000E+02  0.51100000000E-03 0. -1.
    9900012    2    1    2    0    0  0.71742650558E+00  0.56663631409E+00 -0.74651516638E+00  0.90007719357E+02  0.89999980452E+02 0.  0.
        -12    1    1    2    0    0 -0.71742650558E+00 -0.56663631409E+00  0.74651516638E+00  0.11802806433E+01  0.00000000000E+00 0.  1.
         11    1    3    3    0    0 -0.22632616485E+02  0.71063660656E+00 -0.34228665474E+02  0.41040734322E+02  0.51100000000E-03 0. -1.
        -11    1    3    3    0    0  0.90461574373E+01  0.48540236557E+01 -0.19330878440E+01  0.10446594608E+02  0.51100000000E-03 0.  1.
        -12    1    3    3    0    0  0.14303885553E+02 -0.49980239482E+01  0.35415238151E+02  0.38520390427E+02  0.00000000000E+00 0.  1.
</event>
<event>
 7    1  0.1978681E-015  0.9000771E+02  0.7816164E-02  0.1186339E+00
        -11   -1    0    0    0    0  0.00000000000E+00  0.00000000000E+00  0.45593999997E+02  0.45594000000E+02  0.51100000000E-03 0. -1.
         11   -1    0    0    0    0 -0.00000000000E+00 -0.00000000000E+00 -0.45593999997E+02  0.45594000000E+02  0.51100000000E-03 0.  1.
    9900012    2    1    2    0    0  0.10762471957E+01  0.10560969496E+00  0.47289134194E+00  0.90007708657E+02  0.89999969611E+02 0.  0.
        -12    1    1    2    0    0 -0.10762471957E+01 -0.10560969496E+00 -0.47289134194E+00  0.11802913434E+01  0.00000000000E+00 0.  1.
         11    1    3    3    0    0  0.37347944144E+01 -0.64898929521E+01 -0.51686055142E+01  0.90984549826E+01  0.51100000000E-03 0. -1.
        -11    1    3    3    0    0 -0.32724330457E+02  0.28531601911E+02  0.12531411909E+01  0.43433909271E+02  0.51100000000E-03 0.  1.
         12    1    3    3    0    0  0.30065783238E+02 -0.21936099264E+02  0.43883556651E+01  0.37475344403E+02  0.00000000000E+00 0. -1.
</event>
<event>
 7    1  0.1978681E-015  0.9000733E+02  0.7816164E-02  0.1186340E+00
        -11   -1    0    0    0    0  0.00000000000E+00  0.00000000000E+00  0.45593999997E+02  0.45594000000E+02  0.51100000000E-03 0.  1.
         11   -1    0    0    0    0 -0.00000000000E+00 -0.00000000000E+00 -0.45593999997E+02  0.45594000000E+02  0.51100000000E-03 0. -1.
    9900012    2    1    2    0    0 -0.54360578358E+00  0.82670959334E+00  0.64421773454E+00  0.90007333879E+02  0.89999589885E+02 0.  0.
        -12    1    1    2    0    0  0.54360578358E+00 -0.82670959334E+00 -0.64421773454E+00  0.11806661209E+01  0.00000000000E+00 0.  1.
         11    1    3    3    0    0  0.51104158861E+01  0.24874949716E+01 -0.26752404648E+00  0.56899517695E+01  0.51100000000E-03 0. -1.
        -11    1    3    3    0    0  0.25945809267E+02  0.28497852803E+02 -0.88847275793E+01  0.39550613362E+02  0.51100000000E-03 0.  1.
         12    1    3    3    0    0 -0.31599830937E+02 -0.30158638181E+02  0.97964693603E+01  0.44766768748E+02  0.00000000000E+00 0. -1.
</event>
<event>
 7    1  0.2261200E-015  0.9000780E+02  0.7816164E-02  0.1186339E+00
        -11   -1    0    0    0    0  0.00000000000E+00  0.00000000000E+00  0.45593999997E+02  0.45594000000E+02  0.51100000000E-03 0.  1.
         11   -1    0    0    0    0 -0.00000000000E+00 -0.00000000000E+00 -0.45593999997E+02  0.45594000000E+02  0.51100000000E-03 0. -1.
    9900012    2    1    2    0    0  0.48492181633E+00  0.83108150756E+00 -0.68339255809E+00  0.90007800428E+02  0.90000062594E+02 0.  0.
        -12    1    1    2    0    0 -0.48492181633E+00 -0.83108150756E+00  0.68339255809E+00  0.11801995715E+01  0.00000000000E+00 0.  1.
         11    1    3    3    0    0  0.69143795373E+01 -0.58932479422E+01  0.32026083073E+01  0.96330533024E+01  0.51100000000E-03 0. -1.
        -11    1    3    3    0    0 -0.23038904216E+02 -0.35659104315E+01  0.31954127048E+02  0.39554684430E+02  0.51100000000E-03 0.  1.
         12    1    3    3    0    0  0.16609446495E+02  0.10290239881E+02 -0.35840127913E+02  0.40820062696E+02  0.00000000000E+00 0. -1.
</event>
<event>
 7    1  0.1978681E-015  0.9000770E+02  0.7816164E-02  0.1186339E+00
        -11   -1    0    0    0    0  0.00000000000E+00  0.00000000000E+00  0.45593999997E+02  0.45594000000E+02  0.51100000000E-03 0. -1.
         11   -1    0    0    0    0 -0.00000000000E+00 -0.00000000000E+00 -0.45593999997E+02  0.45594000000E+02  0.51100000000E-03 0.  1.
    9900012    2    1    2    0    0 -0.11313380642E+01 -0.23912543389E+00 -0.23664470173E+00  0.90007700248E+02  0.89999961092E+02 0.  0.
        -12    1    1    2    0    0  0.11313380642E+01  0.23912543389E+00  0.23664470173E+00  0.11802997515E+01  0.00000000000E+00 0.  1.
         11    1    3    3    0    0 -0.58341585461E+01  0.55582150720E+00 -0.57560449300E+01  0.82145235398E+01  0.51100000000E-03 0. -1.
        -11    1    3    3    0    0 -0.31701634247E+02 -0.16256079887E+02 -0.13254121427E+02  0.38012175448E+02  0.51100000000E-03 0.  1.
         12    1    3    3    0    0  0.36404454729E+02  0.15461132946E+02  0.18773521655E+02  0.43781001261E+02  0.00000000000E+00 0. -1.
</event>
<event>
 7    1  0.1978681E-015  0.9000732E+02  0.7816164E-02  0.1186340E+00
        -11   -1    0    0    0    0  0.00000000000E+00  0.00000000000E+00  0.45593999997E+02  0.45594000000E+02  0.51100000000E-03 0.  1.
         11   -1    0    0    0    0 -0.00000000000E+00 -0.00000000000E+00 -0.45593999997E+02  0.45594000000E+02  0.51100000000E-03 0. -1.
    9900012    2    1    2    0    0  0.32510512767E+00  0.83591355033E+00  0.76783194636E+00  0.90007317695E+02  0.89999573487E+02 0.  0.
        -12    1    1    2    0    0 -0.32510512767E+00 -0.83591355033E+00 -0.76783194636E+00  0.11806823051E+01  0.00000000000E+00 0.  1.
         11    1    3    3    0    0  0.19361826463E+01  0.17403585412E+02 -0.29658279524E+02  0.34441938578E+02  0.51100000000E-03 0. -1.
        -11    1    3    3    0    0  0.97528245193E+01  0.90598248494E+01 -0.11249509387E+01  0.13359024189E+02  0.51100000000E-03 0.  1.
         12    1    3    3    0    0 -0.11363902038E+02 -0.25627496711E+02  0.31551062409E+02  0.42206354928E+02  0.00000000000E+00 0. -1.
</event>
<event>
 7    1  0.1978681E-015  0.9000763E+02  0.7816164E-02  0.1186339E+00
        -11   -1    0    0    0    0  0.00000000000E+00  0.00000000000E+00  0.45593999997E+02  0.45594000000E+02  0.51100000000E-03 0.  1.
         11   -1    0    0    0    0 -0.00000000000E+00 -0.00000000000E+00 -0.45593999997E+02  0.45594000000E+02  0.51100000000E-03 0. -1.
    9900012    2    1    2    0    0  0.78654478080E+00 -0.45016466131E+00 -0.75629324812E+00  0.90007627012E+02  0.89999886888E+02 0.  0.
        -12    1    1    2    0    0 -0.78654478080E+00  0.45016466131E+00  0.75629324812E+00  0.11803729884E+01  0.00000000000E+00 0.  1.
         11    1    3    3    0    0  0.17851080794E+02 -0.99077309865E+01 -0.18515504142E+02  0.27561714618E+02  0.51100000000E-03 0. -1.
        -11    1    3    3    0    0  0.46139727477E+01  0.84455840294E+00 -0.18635774178E+02  0.19217026380E+02  0.51100000000E-03 0.  1.
        -12    1    3    3    0    0 -0.21678508761E+02  0.86130079223E+01  0.36394985072E+02  0.43228886013E+02  0.00000000000E+00 0.  1.
</event>
<event>
 7    1  0.1978681E-015  0.9000779E+02  0.7816164E-02  0.1186339E+00
        -11   -1    0    0    0    0  0.00000000000E+00  0.00000000000E+00  0.45593999997E+02  0.45594000000E+02  0.51100000000E-03 0. -1.
         11   -1    0    0    0    0 -0.00000000000E+00 -0.00000000000E+00 -0.45593999997E+02  0.45594000000E+02  0.51100000000E-03 0.  1.
    9900012    2    1    2    0    0 -0.97547438422E-01  0.82767519396E+00  0.83566979025E+00  0.90007785728E+02  0.90000047700E+02 0.  0.
        -12    1    1    2    0    0  0.97547438422E-01 -0.82767519396E+00 -0.83566979025E+00  0.11802142720E+01  0.00000000000E+00 0.  1.
         11    1    3    3    0    0  0.62385193347E+01  0.64075568771E+01 -0.36330937889E+01  0.96527342947E+01  0.51100000000E-03 0. -1.
        -11    1    3    3    0    0  0.18104000625E+02 -0.17489631075E+02 -0.28234749548E+02  0.37826486964E+02  0.51100000000E-03 0.  1.
         12    1    3    3    0    0 -0.24440067398E+02  0.11909749392E+02  0.32703513127E+02  0.42528564469E+02  0.00000000000E+00 0. -1.
</event>
<event>
 7    1  0.1978681E-015  0.9000768E+02  0.7816164E-02  0.1186339E+00
        -11   -1    0    0    0    0  0.00000000000E+00  0.00000000000E+00  0.45593999997E+02  0.45594000000E+02  0.51100000000E-03 0. -1.
         11   -1    0    0    0    0 -0.00000000000E+00 -0.00000000000E+00 -0.45593999997E+02  0.45594000000E+02  0.51100000000E-03 0.  1.
    9900012    2    1    2    0    0 -0.13345694542E+00  0.24425106492E+00  0.11470322653E+01  0.90007681248E+02  0.89999941840E+02 0.  0.
        -12    1    1    2    0    0  0.13345694542E+00 -0.24425106492E+00 -0.11470322653E+01  0.11803187521E+01  0.00000000000E+00 0.  1.
         11    1    3    3    0    0 -0.19567826522E+01  0.78875167100E+01  0.51064439293E+01  0.95977960003E+01  0.51100000000E-03 0. -1.
        -11    1    3    3    0    0  0.36009699381E+02  0.87806469760E+01 -0.16349322919E+02  0.40510474830E+02  0.51100000000E-03 0.  1.
         12    1    3    3    0    0 -0.34186373674E+02 -0.16423912621E+02  0.12389911255E+02  0.39899410417E+02  0.00000000000E+00 0. -1.
</event>
<event>
 7    1  0.2053375E-015  0.9000768E+02  0.7816164E-02  0.1186339E+00
        -11   -1    0    0    0    0  0.00000000000E+00  0.00000000000E+00  0.45593999997E+02  0.45594000000E+02  0.51100000000E-03 0. -1.
         11   -1    0    0    0    0 -0.00000000000E+00 -0.00000000000E+00 -0.45593999997E+02  0.45594000000E+02  0.51100000000E-03 0.  1.
    9900012    2    1    2    0    0  0.83858706841E-01 -0.10452167440E+01  0.54189576144E+00  0.90007677442E+02  0.89999937984E+02 0.  0.
        -12    1    1    2    0    0 -0.83858706841E-01  0.10452167440E+01 -0.54189576144E+00  0.11803225580E+01  0.00000000000E+00 0.  1.
         11    1    3    3    0    0 -0.88689459523E+01 -0.53380444906E+01  0.15056306015E+01  0.10460394116E+02  0.51100000000E-03 0. -1.
        -11    1    3    3    0    0 -0.39136894122E+01 -0.20778434937E+02 -0.31536360322E+02  0.37968438812E+02  0.51100000000E-03 0.  1.
         12    1    3    3    0    0  0.12866494071E+02  0.25071262684E+02  0.30572625482E+02  0.41578844514E+02  0.00000000000E+00 0. -1.
</event>
<event>
 7    1  0.1978681E-015  0.9000758E+02  0.7816164E-02  0.1186339E+00
        -11   -1    0    0    0    0  0.00000000000E+00  0.00000000000E+00  0.45593999997E+02  0.45594000000E+02  0.51100000000E-03 0.  1.
         11   -1    0    0    0    0 -0.00000000000E+00 -0.00000000000E+00 -0.45593999997E+02  0.45594000000E+02  0.51100000000E-03 0. -1.
    9900012    2    1    2    0    0 -0.67634842134E+00  0.57135140882E+00 -0.78070488257E+00  0.90007580696E+02  0.89999839961E+02 0.  0.
        -12    1    1    2    0    0  0.67634842134E+00 -0.57135140882E+00  0.78070488257E+00  0.11804193039E+01  0.00000000000E+00 0.  1.
         11    1    3    3    0    0  0.29305305718E+02  0.22804176222E+02 -0.12986701488E+02  0.39338096194E+02  0.51100000000E-03 0. -1.
        -11    1    3    3    0    0 -0.21739506903E+01  0.47744421599E+01 -0.58916775270E+01  0.78888037043E+01  0.51100000000E-03 0.  1.
        -12    1    3    3    0    0 -0.27807703449E+02 -0.27007266973E+02  0.18097674132E+02  0.42780680797E+02  0.00000000000E+00 0.  1.
</event>
<event>
 7    1  0.1978681E-015  0.9000787E+02  0.7816164E-02  0.1186339E+00
        -11   -1    0    0    0    0  0.00000000000E+00  0.00000000000E+00  0.45593999997E+02  0.45594000000E+02  0.51100000000E-03 0. -1.
         11   -1    0    0    0    0 -0.00000000000E+00 -0.00000000000E+00 -0.45593999997E+02  0.45594000000E+02  0.51100000000E-03 0.  1.
    9900012    2    1    2    0    0 -0.72982626265E+00 -0.59094985824E+00  0.71473295831E+00  0.90007868096E+02  0.90000131155E+02 0.  0.
        -12    1    1    2    0    0  0.72982626265E+00  0.59094985824E+00 -0.71473295831E+00  0.11801319038E+01  0.00000000000E+00 0.  1.
         11    1    3    3    0    0 -0.10569029796E+02 -0.21943290008E+01 -0.27016694543E+01  0.11127375643E+02  0.51100000000E-03 0. -1.
        -11    1    3    3    0    0 -0.15517743961E+02  0.90171651982E+01 -0.30802681922E+02  0.35649892843E+02  0.51100000000E-03 0.  1.
         12    1    3    3    0    0  0.25356947495E+02 -0.74137860557E+01  0.34219084335E+02  0.43230599610E+02  0.00000000000E+00 0. -1.
</event>
<event>
 7    1  0.1978681E-015  0.9000775E+02  0.7816164E-02  0.1186339E+00
        -11   -1    0    0    0    0  0.00000000000E+00  0.00000000000E+00  0.45593999997E+02  0.45594000000E+02  0.51100000000E-03 0.  1.
         11   -1    0    0    0    0 -0.00000000000E+00 -0.00000000000E+00 -0.45593999997E+02  0.45594000000E+02  0.51100000000E-03 0. -1.
    9900012    2    1    2    0    0 -0.11759499883E+01  0.75790468438E-02 -0.10042627506E+00  0.90007745259E+02  0.90000006696E+02 0.  0.
        -12    1    1    2    0    0  0.11759499883E+01 -0.75790468438E-02  0.10042627506E+00  0.11802547410E+01  0.00000000000E+00 0.  1.
         11    1    3    3    0    0 -0.32342122516E+02 -0.61137976906E+01 -0.21128415302E+02  0.39112674985E+02  0.51100000000E-03 0. -1.
        -11    1    3    3    0    0  0.24070687688E+01 -0.89551846821E+01 -0.37979619450E+01  0.10020670035E+02  0.51100000000E-03 0.  1.
        -12    1    3    3    0    0  0.28759103759E+02  0.15076561420E+02  0.24825950972E+02  0.40874400239E+02  0.00000000000E+00 0.  1.
</event>
<event>
 7    1  0.1978681E-015  0.9000771E+02  0.7816164E-02  0.1186339E+00
        -11   -1    0    0    0    0  0.00000000000E+00  0.00000000000E+00  0.45593999997E+02  0.45594000000E+02  0.51100000000E-03 0. -1.
         11   -1    0    0    0    0 -0.00000000000E+00 -0.00000000000E+00 -0.45593999997E+02  0.45594000000E+02  0.51100000000E-03 0.  1.
    9900012    2    1    2    0    0  0.13317834026E+00 -0.11180723220E+01  0.35391347414E+00  0.90007713198E+02  0.89999974212E+02 0.  0.
        -12    1    1    2    0    0 -0.13317834026E+00  0.11180723220E+01 -0.35391347414E+00  0.11802868019E+01  0.00000000000E+00 0.  1.
         11    1    3    3    0    0  0.31964757402E+02 -0.17660636518E+02 -0.53348461528E+01  0.36906698332E+02  0.51100000000E-03 0. -1.
        -11    1    3    3    0    0  0.86985761038E+01 -0.86433277709E-01  0.30297704038E+01  0.92115257100E+01  0.51100000000E-03 0.  1.
        -12    1    3    3    0    0 -0.40530155166E+02  0.16628997474E+02  0.26589892231E+01  0.43889489157E+02  0.00000000000E+00 0.  1.
</event>
<event>
 7    1  0.1978681E-015  0.9000778E+02  0.7816164E-02  0.1186339E+00
        -11   -1    0    0    0    0  0.00000000000E+00  0.00000000000E+00  0.45593999997E+02  0.45594000000E+02  0.51100000000E-03 0. -1.
         11   -1    0    0    0    0 -0.00000000000E+00 -0.00000000000E+00 -0.45593999997E+02  0.45594000000E+02  0.51100000000E-03 0.  1.
    9900012    2    1    2    0    0 -0.27524711708E+00 -0.89540735183E+00  0.71790866546E+00  0.90007784701E+02  0.90000046659E+02 0.  0.
        -12    1    1    2    0    0  0.27524711708E+00  0.89540735183E+00 -0.71790866546E+00  0.11802152995E+01  0.00000000000E+00 0.  1.
         11    1    3    3    0    0 -0.82936648352E+01 -0.14702343867E+01 -0.54573046425E+01  0.10036365865E+02  0.51100000000E-03 0. -1.
        -11    1    3    3    0    0  0.13371946146E+02  0.28819926566E+01 -0.35420043079E+02  0.37969649424E+02  0.51100000000E-03 0.  1.
         12    1    3    3    0    0 -0.53535284281E+01 -0.23071656217E+01  0.41595256387E+02  0.42001769412E+02  0.00000000000E+00 0. -1.
</event>
<event>
 7    1  0.1978681E-015  0.9000770E+02  0.7816164E-02  0.1186339E+00
        -11   -1    0    0    0    0  0.00000000000E+00  0.00000000000E+00  0.45593999997E+02  0.45594000000E+02  0.51100000000E-03 0.  1.
         11   -1    0    0    0    0 -0.00000000000E+00 -0.00000000000E+00 -0.45593999997E+02  0.45594000000E+02  0.51100000000E-03 0. -1.
    9900012    2    1    2    0    0 -0.26080682253E+00  0.38948092990E+00 -0.10832305720E+01  0.90007701705E+02  0.89999962567E+02 0.  0.
        -12    1    1    2    0    0  0.26080682253E+00 -0.38948092990E+00  0.10832305720E+01  0.11802982952E+01  0.00000000000E+00 0.  1.
         11    1    3    3    0    0 -0.47473580174E+01 -0.74228593727E+01 -0.12479733492E+01  0.88990835008E+01  0.51100000000E-03 0. -1.
        -11    1    3    3    0    0 -0.32672454122E+02 -0.41567233198E+01  0.18720126913E+02  0.37884175575E+02  0.51100000000E-03 0.  1.
         12    1    3    3    0    0  0.37159005317E+02  0.11969063622E+02 -0.18555384136E+02  0.43224442629E+02  0.00000000000E+00 0. -1.
</event>
<event>
 7    1  0.1978681E-015  0.9000781E+02  0.7816164E-02  0.1186339E+00
        -11   -1    0    0    0    0  0.00000000000E+00  0.00000000000E+00  0.45593999997E+02  0.45594000000E+02  0.51100000000E-03 0. -1.
         11   -1    0    0    0    0 -0.00000000000E+00 -0.00000000000E+00 -0.45593999997E+02  0.45594000000E+02  0.51100000000E-03 0.  1.
    9900012    2    1    2    0    0  0.46457730111E+00 -0.22010776585E+00  0.10623459450E+01  0.90007805777E+02  0.90000068013E+02 0.  0.
        -12    1    1    2    0    0 -0.46457730111E+00  0.22010776585E+00 -0.10623459450E+01  0.11801942231E+01  0.00000000000E+00 0.  1.
         11    1    3    3    0    0  0.21022986673E+01  0.83902621047E+01 -0.30532137509E+01  0.91726916629E+01  0.51100000000E-03 0. -1.
        -11    1    3    3    0    0  0.28289554806E+02  0.13147679432E+02 -0.19641638685E+02  0.36863998101E+02  0.51100000000E-03 0.  1.
         12    1    3    3    0    0 -0.29927276172E+02 -0.21758049302E+02  0.23757198381E+02  0.43971116013E+02  0.00000000000E+00 0. -1.
</event>
<event>
 7    1  0.1978681E-015  0.9000759E+02  0.7816164E-02  0.1186339E+00
        -11   -1    0    0    0    0  0.00000000000E+00  0.00000000000E+00  0.45593999997E+02  0.45594000000E+02  0.51100000000E-03 0.  1.
         11   -1    0    0    0    0 -0.00000000000E+00 -0.00000000000E+00 -0.45593999997E+02  0.45594000000E+02  0.51100000000E-03 0. -1.
    9900012    2    1    2    0    0  0.97528273781E-01 -0.52932861251E+00  0.10505506482E+01  0.90007594473E+02  0.89999853920E+02 0.  0.
        -12    1    1    2    0    0 -0.97528273781E-01  0.52932861251E+00 -0.10505506482E+01  0.11804055272E+01  0.00000000000E+00 0.  1.
         11    1    3    3    0    0  0.31637202492E+02  0.19251681621E+02 -0.12812429283E+02  0.39187985036E+02  0.51100000000E-03 0. -1.
        -11    1    3    3    0    0  0.56188846995E+01 -0.36785446328E+01  0.70789376121E+01  0.97578129649E+01  0.51100000000E-03 0.  1.
        -12    1    3    3    0    0 -0.37158558918E+02 -0.16102465601E+02  0.67840423196E+01  0.41061796472E+02  0.00000000000E+00 0.  1.
</event>
<event>
 7    1  0.1978681E-015  0.9000767E+02  0.7816164E-02  0.1186339E+00
        -11   -1    0    0    0    0  0.00000000000E+00  0.00000000000E+00  0.45593999997E+02  0.45594000000E+02  0.51100000000E-03 0. -1.
         11   -1    0    0    0    0 -0.00000000000E+00 -0.00000000000E+00 -0.45593999997E+02  0.45594000000E+02  0.51100000000E-03 0.  1.
    9900012    2    1    2    0    0  0.61785790296E+00 -0.49977073423E+00  0.87273310472E+00  0.90007668586E+02  0.89999929011E+02 0.  0.
        -12    1    1    2    0    0 -0.61785790296E+00  0.49977073423E+00 -0.87273310472E+00  0.11803314141E+01  0.00000000000E+00 0.  1.
         11    1    3    3    0    0 -0.47312141239E+01  0.17302278401E+01 -0.77985693485E+01  0.92841671468E+01  0.51100000000E-03 0. -1.
        -11    1    3    3    0    0 -0.14093905996E+02  0.29132793223E+02 -0.16232301435E+02  0.36205599530E+02  0.51100000000E-03 0.  1.
         12    1    3    3    0    0  0.19442978023E+02 -0.31362791798E+02  0.24903603889E+02  0.44517901909E+02  0.00000000000E+00 0. -1.
</event>
<event>
 7    1  0.1978681E-015  0.9000804E+02  0.7816164E-02  0.1186338E+00
        -11   -1    0    0    0    0  0.00000000000E+00  0.00000000000E+00  0.45593999997E+02  0.45594000000E+02  0.51100000000E-03 0.  1.
         11   -1    0    0    0    0 -0.00000000000E+00 -0.00000000000E+00 -0.45593999997E+02  0.45594000000E+02  0.51100000000E-03 0. -1.
    9900012    2    1    2    0    0 -0.95209022731E+00 -0.47311921529E+00 -0.51184271477E+00  0.90008042137E+02  0.90000307493E+02 0.  0.
        -12    1    1    2    0    0  0.95209022731E+00  0.47311921529E+00  0.51184271477E+00  0.11799578626E+01  0.00000000000E+00 0.  1.
         11    1    3    3    0    0 -0.25175007200E+02 -0.29912267053E+02  0.41056469691E+01  0.39311334816E+02  0.51100000000E-03 0. -1.
        -11    1    3    3    0    0  0.61094501942E+01 -0.72385829211E+01 -0.21658945783E+01  0.97166642407E+01  0.51100000000E-03 0.  1.
        -12    1    3    3    0    0  0.18113466778E+02  0.36677730759E+02 -0.24515951056E+01  0.40980043081E+02  0.00000000000E+00 0.  1.
</event>
<event>
 7    1  0.1978681E-015  0.9000774E+02  0.7816164E-02  0.1186339E+00
        -11   -1    0    0    0    0  0.00000000000E+00  0.00000000000E+00  0.45593999997E+02  0.45594000000E+02  0.51100000000E-03 0.  1.
         11   -1    0    0    0    0 -0.00000000000E+00 -0.00000000000E+00 -0.45593999997E+02  0.45594000000E+02  0.51100000000E-03 0. -1.
    9900012    2    1    2    0    0  0.11794608359E+01  0.41232766875E-01  0.13954788827E-01  0.90007736156E+02  0.89999997474E+02 0.  0.
        -12    1    1    2    0    0 -0.11794608359E+01 -0.41232766875E-01 -0.13954788827E-01  0.11802638437E+01  0.00000000000E+00 0.  1.
         11    1    3    3    0    0  0.48808901273E-01 -0.50001323671E+01  0.33335373775E+01  0.60096736771E+01  0.51100000000E-03 0. -1.
        -11    1    3    3    0    0 -0.36173611541E+02  0.18363669093E+02  0.10739469441E+02  0.41965351406E+02  0.51100000000E-03 0.  1.
         12    1    3    3    0    0  0.37304263476E+02 -0.13322303959E+02 -0.14059052030E+02  0.42032711074E+02  0.00000000000E+00 0. -1.
</event>
<event>
 7    1  0.1978681E-015  0.9000773E+02  0.7816164E-02  0.1186339E+00
        -11   -1    0    0    0    0  0.00000000000E+00  0.00000000000E+00  0.45593999997E+02  0.45594000000E+02  0.51100000000E-03 0.  1.
         11   -1    0    0    0    0 -0.00000000000E+00 -0.00000000000E+00 -0.45593999997E+02  0.45594000000E+02  0.51100000000E-03 0. -1.
    9900012    2    1    2    0    0  0.17263827311E+00 -0.11387471983E+01 -0.25783231099E+00  0.90007734498E+02  0.89999995793E+02 0.  0.
        -12    1    1    2    0    0 -0.17263827311E+00  0.11387471983E+01  0.25783231099E+00  0.11802655021E+01  0.00000000000E+00 0.  1.
         11    1    3    3    0    0 -0.25122706584E+00 -0.18079746165E+02 -0.33319591022E+02  0.37909569801E+02  0.51100000000E-03 0. -1.
        -11    1    3    3    0    0 -0.56021266052E+01 -0.80425458059E+01 -0.51484007798E+00  0.98148574165E+01  0.51100000000E-03 0.  1.
        -12    1    3    3    0    0  0.60259919441E+01  0.24983544772E+02  0.33576598789E+02  0.42283307280E+02  0.00000000000E+00 0.  1.
</event>
<event>
 7    1  0.1978681E-015  0.9000828E+02  0.7816164E-02  0.1186338E+00
        -11   -1    0    0    0    0  0.00000000000E+00  0.00000000000E+00  0.45593999997E+02  0.45594000000E+02  0.51100000000E-03 0. -1.
         11   -1    0    0    0    0 -0.00000000000E+00 -0.00000000000E+00 -0.45593999997E+02  0.45594000000E+02  0.51100000000E-03 0.  1.
    9900012    2    1    2    0    0 -0.31294879171E-01 -0.68843563230E+00  0.95750156492E+00  0.90008282985E+02  0.90000551518E+02 0.  0.
        -12    1    1    2    0    0  0.31294879171E-01  0.68843563230E+00 -0.95750156492E+00  0.11797170153E+01  0.00000000000E+00 0.  1.
         11    1    3    3    0    0  0.24559501466E+02 -0.30998643992E+02 -0.82806461629E+00  0.39557183076E+02  0.51100000000E-03 0. -1.
        -11    1    3    3    0    0  0.11202723357E+01  0.28400319883E+01  0.11247280423E+02  0.11654274279E+02  0.51100000000E-03 0.  1.
        -12    1    3    3    0    0 -0.25711068680E+02  0.27470176372E+02 -0.94617142416E+01  0.38796825630E+02  0.00000000000E+00 0.  1.
</event>
<event>
 7    1  0.1978681E-015  0.9000705E+02  0.7816164E-02  0.1186340E+00
        -11   -1    0    0    0    0  0.00000000000E+00  0.00000000000E+00  0.45593999997E+02  0.45594000000E+02  0.51100000000E-03 0.  1.
         11   -1    0    0    0    0 -0.00000000000E+00 -0.00000000000E+00 -0.45593999997E+02  0.45594000000E+02  0.51100000000E-03 0. -1.
    9900012    2    1    2    0    0 -0.12137655724E+00  0.17093072829E+00 -0.11621886572E+01  0.90007054592E+02  0.89999306910E+02 0.  0.
        -12    1    1    2    0    0  0.12137655724E+00 -0.17093072829E+00  0.11621886572E+01  0.11809454083E+01  0.00000000000E+00 0.  1.
         11    1    3    3    0    0  0.10415374847E+02 -0.18740859857E+01 -0.21079005879E+01  0.10790527171E+02  0.51100000000E-03 0. -1.
        -11    1    3    3    0    0 -0.56226121647E+01  0.22812517806E+02  0.33120343606E+02  0.40607658109E+02  0.51100000000E-03 0.  1.
         12    1    3    3    0    0 -0.49141392392E+01 -0.20767501092E+02 -0.32174631676E+02  0.38608869312E+02  0.00000000000E+00 0. -1.
</event>
<event>
 7    1  0.1978681E-015  0.9000773E+02  0.7816164E-02  0.1186339E+00
        -11   -1    0    0    0    0  0.00000000000E+00  0.00000000000E+00  0.45593999997E+02  0.45594000000E+02  0.51100000000E-03 0.  1.
         11   -1    0    0    0    0 -0.00000000000E+00 -0.00000000000E+00 -0.45593999997E+02  0.45594000000E+02  0.51100000000E-03 0. -1.
    9900012    2    1    2    0    0  0.40562081833E+00  0.10860104116E+01 -0.22154657611E+00  0.90007733188E+02  0.89999994466E+02 0.  0.
        -12    1    1    2    0    0 -0.40562081833E+00 -0.10860104116E+01  0.22154657611E+00  0.11802668121E+01  0.00000000000E+00 0.  1.
         11    1    3    3    0    0 -0.33378052981E+02  0.50022788181E+01  0.17953470405E+02  0.38228841390E+02  0.51100000000E-03 0. -1.
        -11    1    3    3    0    0 -0.68278049892E+01 -0.28615189061E+01 -0.54989465185E+01  0.92220184610E+01  0.51100000000E-03 0.  1.
        -12    1    3    3    0    0  0.40611478788E+02 -0.10547495004E+01 -0.12676070462E+02  0.42556873337E+02  0.00000000000E+00 0.  1.
</event>
<event>
 7    1  0.1978681E-015  0.9000775E+02  0.7816164E-02  0.1186339E+00
        -11   -1    0    0    0    0  0.00000000000E+00  0.00000000000E+00  0.45593999997E+02  0.45594000000E+02  0.51100000000E-03 0. -1.
         11   -1    0    0    0    0 -0.00000000000E+00 -0.00000000000E+00 -0.45593999997E+02  0.45594000000E+02  0.51100000000E-03 0.  1.
    9900012    2    1    2    0    0 -0.20627405211E+00  0.17810261465E+00  0.11483509145E+01  0.90007754539E+02  0.90000016099E+02 0.  0.
        -12    1    1    2    0    0  0.20627405211E+00 -0.17810261465E+00 -0.11483509145E+01  0.11802454613E+01  0.00000000000E+00 0.  1.
         11    1    3    3    0    0 -0.95399802744E+00  0.84028964741E+01 -0.29436670934E+01  0.89545495481E+01  0.51100000000E-03 0. -1.
        -11    1    3    3    0    0  0.35497971333E+02  0.11285872886E+02 -0.10357015483E+02  0.38661927856E+02  0.51100000000E-03 0.  1.
         12    1    3    3    0    0 -0.34750247358E+02 -0.19510666746E+02  0.14449033491E+02  0.42391277135E+02  0.00000000000E+00 0. -1.
</event>
<event>
 7    1  0.1978681E-015  0.9000897E+02  0.7816164E-02  0.1186337E+00
        -11   -1    0    0    0    0  0.00000000000E+00  0.00000000000E+00  0.45593999997E+02  0.45594000000E+02  0.51100000000E-03 0.  1.
         11   -1    0    0    0    0 -0.00000000000E+00 -0.00000000000E+00 -0.45593999997E+02  0.45594000000E+02  0.51100000000E-03 0. -1.
    9900012    2    1    2    0    0  0.47627465964E+00  0.10524370186E+01  0.23591791182E+00  0.90008967138E+02  0.90001244695E+02 0.  0.
        -12    1    1    2    0    0 -0.47627465964E+00 -0.10524370186E+01 -0.23591791182E+00  0.11790328624E+01  0.00000000000E+00 0.  1.
         11    1    3    3    0    0 -0.30729909318E+02  0.93960994503E+01 -0.16773490534E+02  0.36248641306E+02  0.51100000000E-03 0. -1.
        -11    1    3    3    0    0 -0.10441404437E+01  0.67268579469E+01 -0.78130453812E+01  0.10362650505E+02  0.51100000000E-03 0.  1.
        -12    1    3    3    0    0  0.32250324421E+02 -0.15070520379E+02  0.24822453827E+02  0.43397675326E+02  0.00000000000E+00 0.  1.
</event>
<event>
 7    1  0.1978681E-015  0.9000774E+02  0.7816164E-02  0.1186339E+00
        -11   -1    0    0    0    0  0.00000000000E+00  0.00000000000E+00  0.45593999997E+02  0.45594000000E+02  0.51100000000E-03 0.  1.
         11   -1    0    0    0    0 -0.00000000000E+00 -0.00000000000E+00 -0.45593999997E+02  0.45594000000E+02  0.51100000000E-03 0. -1.
    9900012    2    1    2    0    0 -0.90689156223E+00 -0.75535367147E+00 -0.36672252134E-02  0.90007735232E+02  0.89999996537E+02 0.  0.
        -12    1    1    2    0    0  0.90689156223E+00  0.75535367147E+00  0.36672252134E-02  0.11802647683E+01  0.00000000000E+00 0.  1.
         11    1    3    3    0    0 -0.20917568201E+02  0.95970645425E+01 -0.23218380647E+02  0.32691612188E+02  0.51100000000E-03 0. -1.
        -11    1    3    3    0    0 -0.11076464892E+01  0.95947949993E+01 -0.95122819915E+01  0.13556197135E+02  0.51100000000E-03 0.  1.
        -12    1    3    3    0    0  0.21118323128E+02 -0.19947213213E+02  0.32726995414E+02  0.43759925909E+02  0.00000000000E+00 0.  1.
</event>
<event>
 7    1  0.1978681E-015  0.9000781E+02  0.7816164E-02  0.1186339E+00
        -11   -1    0    0    0    0  0.00000000000E+00  0.00000000000E+00  0.45593999997E+02  0.45594000000E+02  0.51100000000E-03 0.  1.
         11   -1    0    0    0    0 -0.00000000000E+00 -0.00000000000E+00 -0.45593999997E+02  0.45594000000E+02  0.51100000000E-03 0. -1.
    9900012    2    1    2    0    0  0.41195135795E+00  0.98676635535E+00  0.49943401678E+00  0.90007810990E+02  0.90000073295E+02 0.  0.
        -12    1    1    2    0    0 -0.41195135795E+00 -0.98676635535E+00 -0.49943401678E+00  0.11801890096E+01  0.00000000000E+00 0.  1.
         11    1    3    3    0    0 -0.38686538939E+02 -0.34846114367E-01  0.12820220664E+02  0.40755460585E+02  0.51100000000E-03 0. -1.
        -11    1    3    3    0    0  0.35588356917E+01  0.36449411470E+01  0.70450938460E+01  0.86939205774E+01  0.51100000000E-03 0.  1.
        -12    1    3    3    0    0  0.35539654606E+02 -0.26233286772E+01 -0.19365880493E+02  0.40558429828E+02  0.00000000000E+00 0.  1.
</event>
<event>
 7    1  0.1978681E-015  0.9000778E+02  0.7816164E-02  0.1186339E+00
        -11   -1    0    0    0    0  0.00000000000E+00  0.00000000000E+00  0.45593999997E+02  0.45594000000E+02  0.51100000000E-03 0.  1.
         11   -1    0    0    0    0 -0.00000000000E+00 -0.00000000000E+00 -0.45593999997E+02  0.45594000000E+02  0.51100000000E-03 0. -1.
    9900012    2    1    2    0    0 -0.96807870270E+00  0.66700356681E+00 -0.10412299536E+00  0.90007783185E+02  0.90000045123E+02 0.  0.
        -12    1    1    2    0    0  0.96807870270E+00 -0.66700356681E+00  0.10412299536E+00  0.11802168152E+01  0.00000000000E+00 0.  1.
         11    1    3    3    0    0 -0.80908580498E+01  0.57405787861E+01 -0.13404846755E+01  0.10010650738E+02  0.51100000000E-03 0. -1.
        -11    1    3    3    0    0  0.23768394103E+02  0.11299545563E+01  0.34720965388E+02  0.42092265243E+02  0.51100000000E-03 0.  1.
         12    1    3    3    0    0 -0.16645614756E+02 -0.62035297755E+01 -0.33484603708E+02  0.37904867204E+02  0.00000000000E+00 0. -1.
</event>
<event>
 7    1  0.1978681E-015  0.9000751E+02  0.7816164E-02  0.1186339E+00
        -11   -1    0    0    0    0  0.00000000000E+00  0.00000000000E+00  0.45593999997E+02  0.45594000000E+02  0.51100000000E-03 0.  1.
         11   -1    0    0    0    0 -0.00000000000E+00 -0.00000000000E+00 -0.45593999997E+02  0.45594000000E+02  0.51100000000E-03 0. -1.
    9900012    2    1    2    0    0  0.90583859316E+00  0.88068726487E-01 -0.75183246583E+00  0.90007512086E+02  0.89999770446E+02 0.  0.
        -12    1    1    2    0    0 -0.90583859316E+00 -0.88068726487E-01  0.75183246583E+00  0.11804879136E+01  0.00000000000E+00 0.  1.
         11    1    3    3    0    0 -0.14232566450E+01  0.76966246477E+00  0.67344131575E+01  0.69260638622E+01  0.51100000000E-03 0. -1.
        -11    1    3    3    0    0 -0.18822252120E+02  0.30252431237E+02  0.15784812128E+02  0.38969822488E+02  0.51100000000E-03 0.  1.
         12    1    3    3    0    0  0.21151347358E+02 -0.30934024975E+02 -0.23271057751E+02  0.44111625736E+02  0.00000000000E+00 0. -1.
</event>
<event>
 7    1  0.2380954E-015  0.9000772E+02  0.7816164E-02  0.1186339E+00
        -11   -1    0    0    0    0  0.00000000000E+00  0.00000000000E+00  0.45593999997E+02  0.45594000000E+02  0.51100000000E-03 0. -1.
         11   -1    0    0    0    0 -0.00000000000E+00 -0.00000000000E+00 -0.45593999997E+02  0.45594000000E+02  0.51100000000E-03 0.  1.
    9900012    2    1    2    0    0  0.10722445883E+01 -0.29605721361E+00  0.39458170900E+00  0.90007723314E+02  0.89999984462E+02 0.  0.
        -12    1    1    2    0    0 -0.10722445883E+01  0.29605721361E+00 -0.39458170900E+00  0.11802766862E+01  0.00000000000E+00 0.  1.
         11    1    3    3    0    0 -0.72955193130E+01 -0.54885388322E+01 -0.19084001714E+01  0.93268779360E+01  0.51100000000E-03 0. -1.
        -11    1    3    3    0    0  0.29029685775E+02 -0.23920327552E+02 -0.15626150870E+02  0.40731821929E+02  0.51100000000E-03 0.  1.
         12    1    3    3    0    0 -0.20661921874E+02  0.29112809170E+02  0.17929132751E+02  0.39949023449E+02  0.00000000000E+00 0. -1.
</event>
<event>
 7    1  0.1978681E-015  0.9000663E+02  0.7816164E-02  0.1186341E+00
        -11   -1    0    0    0    0  0.00000000000E+00  0.00000000000E+00  0.45593999997E+02  0.45594000000E+02  0.51100000000E-03 0. -1.
         11   -1    0    0    0    0 -0.00000000000E+00 -0.00000000000E+00 -0.45593999997E+02  0.45594000000E+02  0.51100000000E-03 0.  1.
    9900012    2    1    2    0    0  0.79036975018E+00  0.81689854730E+00  0.32192782585E+00  0.90006625756E+02  0.89998872409E+02 0.  0.
        -12    1    1    2    0    0 -0.79036975018E+00 -0.81689854730E+00 -0.32192782585E+00  0.11813742437E+01  0.00000000000E+00 0.  1.
         11    1    3    3    0    0 -0.16678491338E+01  0.24002791942E+01  0.72149397837E+01  0.77844985251E+01  0.51100000000E-03 0. -1.
        -11    1    3    3    0    0  0.36173289593E+02 -0.22053229419E+02 -0.58321260591E+01  0.42765237078E+02  0.51100000000E-03 0.  1.
         12    1    3    3    0    0 -0.33715070709E+02  0.20469848772E+02 -0.10608858988E+01  0.39456890153E+02  0.00000000000E+00 0. -1.
</event>
<event>
 7    1  0.1978681E-015  0.9000774E+02  0.7816164E-02  0.1186339E+00
        -11   -1    0    0    0    0  0.00000000000E+00  0.00000000000E+00  0.45593999997E+02  0.45594000000E+02  0.51100000000E-03 0.  1.
         11   -1    0    0    0    0 -0.00000000000E+00 -0.00000000000E+00 -0.45593999997E+02  0.45594000000E+02  0.51100000000E-03 0. -1.
    9900012    2    1    2    0    0  0.12354397452E+00 -0.16341221088E-01 -0.11736669962E+01  0.90007735467E+02  0.89999996775E+02 0.  0.
        -12    1    1    2    0    0 -0.12354397452E+00  0.16341221088E-01  0.11736669962E+01  0.11802645327E+01  0.00000000000E+00 0.  1.
         11    1    3    3    0    0 -0.31125637294E+02  0.26516202715E+02 -0.37201376416E+01  0.41057931362E+02  0.51100000000E-03 0. -1.
        -11    1    3    3    0    0  0.39629716353E+01  0.53525535883E+01  0.20917881978E+01  0.69807271987E+01  0.51100000000E-03 0.  1.
        -12    1    3    3    0    0  0.27286209633E+02 -0.31885097525E+02  0.45468244752E+00  0.41969076907E+02  0.00000000000E+00 0.  1.
</event>
<event>
 7    1  0.1978681E-015  0.9000767E+02  0.7816164E-02  0.1186339E+00
        -11   -1    0    0    0    0  0.00000000000E+00  0.00000000000E+00  0.45593999997E+02  0.45594000000E+02  0.51100000000E-03 0.  1.
         11   -1    0    0    0    0 -0.00000000000E+00 -0.00000000000E+00 -0.45593999997E+02  0.45594000000E+02  0.51100000000E-03 0. -1.
    9900012    2    1    2    0    0  0.60094179936E+00  0.22716712627E+00 -0.99017669106E+00  0.90007667069E+02  0.89999927474E+02 0.  0.
        -12    1    1    2    0    0 -0.60094179936E+00 -0.22716712627E+00  0.99017669106E+00  0.11803329314E+01  0.00000000000E+00 0.  1.
         11    1    3    3    0    0 -0.14775737953E+02  0.16250969253E+02  0.23551938260E+02  0.32204195841E+02  0.51100000000E-03 0. -1.
        -11    1    3    3    0    0  0.27123700226E+00  0.45757552158E+01  0.12212226347E+02  0.13044139601E+02  0.51100000000E-03 0.  1.
         12    1    3    3    0    0  0.15105442750E+02 -0.20599557342E+02 -0.36754341299E+02  0.44759331627E+02  0.00000000000E+00 0. -1.
</event>
<event>
 7    1  0.1978681E-015  0.9000794E+02  0.7816164E-02  0.1186339E+00
        -11   -1    0    0    0    0  0.00000000000E+00  0.00000000000E+00  0.45593999997E+02  0.45594000000E+02  0.51100000000E-03 0. -1.
         11   -1    0    0    0    0 -0.00000000000E+00 -0.00000000000E+00 -0.45593999997E+02  0.45594000000E+02  0.51100000000E-03 0.  1.
    9900012    2    1    2    0    0  0.11708925888E+01  0.13719156221E+00 -0.52291820624E-01  0.90007938386E+02  0.90000202372E+02 0.  0.
        -12    1    1    2    0    0 -0.11708925888E+01 -0.13719156221E+00  0.52291820624E-01  0.11800616144E+01  0.00000000000E+00 0.  1.
         11    1    3    3    0    0  0.17044645970E+02  0.28715322607E+02  0.17712218237E+02  0.37799634704E+02  0.51100000000E-03 0. -1.
        -11    1    3    3    0    0  0.11683606882E+01  0.83385107988E+01 -0.34974809023E+01  0.91174668610E+01  0.51100000000E-03 0.  1.
        -12    1    3    3    0    0 -0.17042114069E+02 -0.36916641843E+02 -0.14267029156E+02  0.43090836820E+02  0.00000000000E+00 0.  1.
</event>
<event>
 7    1  0.1978681E-015  0.9000700E+02  0.7816164E-02  0.1186341E+00
        -11   -1    0    0    0    0  0.00000000000E+00  0.00000000000E+00  0.45593999997E+02  0.45594000000E+02  0.51100000000E-03 0. -1.
         11   -1    0    0    0    0 -0.00000000000E+00 -0.00000000000E+00 -0.45593999997E+02  0.45594000000E+02  0.51100000000E-03 0.  1.
    9900012    2    1    2    0    0 -0.93103553999E+00 -0.43297603627E+00  0.58349340238E+00  0.90007000434E+02  0.89999252036E+02 0.  0.
        -12    1    1    2    0    0  0.93103553999E+00  0.43297603627E+00 -0.58349340238E+00  0.11809995662E+01  0.00000000000E+00 0.  1.
         11    1    3    3    0    0  0.60131778479E+01 -0.24127862946E+01 -0.56733940877E+01  0.86120407726E+01  0.51100000000E-03 0. -1.
        -11    1    3    3    0    0  0.35640079897E+02  0.20700374660E+01 -0.78155199057E+01  0.36545624934E+02  0.51100000000E-03 0.  1.
         12    1    3    3    0    0 -0.42584293285E+02 -0.90227207609E-01  0.14072407396E+02  0.44849334727E+02  0.00000000000E+00 0. -1.
</event>
<event>
 7    1  0.1978681E-015  0.9000766E+02  0.7816164E-02  0.1186339E+00
        -11   -1    0    0    0    0  0.00000000000E+00  0.00000000000E+00  0.45593999997E+02  0.45594000000E+02  0.51100000000E-03 0.  1.
         11   -1    0    0    0    0 -0.00000000000E+00 -0.00000000000E+00 -0.45593999997E+02  0.45594000000E+02  0.51100000000E-03 0. -1.
    9900012    2    1    2    0    0 -0.55480347778E+00 -0.46784689295E+00 -0.93086572362E+00  0.90007661655E+02  0.89999921988E+02 0.  0.
        -12    1    1    2    0    0  0.55480347778E+00  0.46784689295E+00  0.93086572362E+00  0.11803383454E+01  0.00000000000E+00 0.  1.
         11    1    3    3    0    0  0.28482980358E+02 -0.95252409041E+01  0.15445319514E+02  0.33772300477E+02  0.51100000000E-03 0. -1.
        -11    1    3    3    0    0 -0.24007363310E+00  0.21290844088E+02 -0.85665920791E+00  0.21309423798E+02  0.51100000000E-03 0.  1.
        -12    1    3    3    0    0 -0.28797710202E+02 -0.12233450077E+02 -0.15519526030E+02  0.34925937380E+02  0.00000000000E+00 0.  1.
</event>
<event>
 7    1  0.1978681E-015  0.9000781E+02  0.7816164E-02  0.1186339E+00
        -11   -1    0    0    0    0  0.00000000000E+00  0.00000000000E+00  0.45593999997E+02  0.45594000000E+02  0.51100000000E-03 0. -1.
         11   -1    0    0    0    0 -0.00000000000E+00 -0.00000000000E+00 -0.45593999997E+02  0.45594000000E+02  0.51100000000E-03 0.  1.
    9900012    2    1    2    0    0 -0.10411858534E+01 -0.31846865402E+00 -0.45537439174E+00  0.90007806752E+02  0.90000069002E+02 0.  0.
        -12    1    1    2    0    0  0.10411858534E+01  0.31846865402E+00  0.45537439174E+00  0.11801932476E+01  0.00000000000E+00 0.  1.
         11    1    3    3    0    0  0.84823915739E-01 -0.28722435519E+02  0.30065834372E+02  0.41580523013E+02  0.51100000000E-03 0. -1.
        -11    1    3    3    0    0 -0.20722193237E+01  0.14476928106E+02  0.26211060841E+00  0.14626832964E+02  0.51100000000E-03 0.  1.
        -12    1    3    3    0    0  0.94620955459E+00  0.13927038759E+02 -0.30783319372E+02  0.33800450776E+02  0.00000000000E+00 0.  1.
</event>
<event>
 7    1  0.1978681E-015  0.9000779E+02  0.7816164E-02  0.1186339E+00
        -11   -1    0    0    0    0  0.00000000000E+00  0.00000000000E+00  0.45593999997E+02  0.45594000000E+02  0.51100000000E-03 0.  1.
         11   -1    0    0    0    0 -0.00000000000E+00 -0.00000000000E+00 -0.45593999997E+02  0.45594000000E+02  0.51100000000E-03 0. -1.
    9900012    2    1    2    0    0 -0.22116562439E+00  0.26821077073E+00 -0.11278539252E+01  0.90007785728E+02  0.90000047700E+02 0.  0.
        -12    1    1    2    0    0  0.22116562439E+00 -0.26821077073E+00  0.11278539252E+01  0.11802142719E+01  0.00000000000E+00 0.  1.
         11    1    3    3    0    0 -0.57876246677E+01 -0.43214024224E+01 -0.65990062881E+01  0.97835577599E+01  0.51100000000E-03 0. -1.
        -11    1    3    3    0    0 -0.45752861027E+01 -0.35273924621E+02  0.13983295998E+02  0.38219308841E+02  0.51100000000E-03 0.  1.
         12    1    3    3    0    0  0.10141745146E+02  0.39863537814E+02 -0.85121436347E+01  0.42004919127E+02  0.00000000000E+00 0. -1.
</event>
<event>
 7    1  0.1978681E-015  0.9000771E+02  0.7816164E-02  0.1186339E+00
        -11   -1    0    0    0    0  0.00000000000E+00  0.00000000000E+00  0.45593999997E+02  0.45594000000E+02  0.51100000000E-03 0.  1.
         11   -1    0    0    0    0 -0.00000000000E+00 -0.00000000000E+00 -0.45593999997E+02  0.45594000000E+02  0.51100000000E-03 0. -1.
    9900012    2    1    2    0    0 -0.57225520566E+00  0.88958057485E+00 -0.52368727294E+00  0.90007712756E+02  0.89999973764E+02 0.  0.
        -12    1    1    2    0    0  0.57225520566E+00 -0.88958057485E+00  0.52368727294E+00  0.11802872444E+01  0.00000000000E+00 0.  1.
         11    1    3    3    0    0 -0.74169227251E+01 -0.21634197161E+01 -0.56629774806E+01  0.95791670715E+01  0.51100000000E-03 0. -1.
        -11    1    3    3    0    0  0.66023024326E+01  0.39555426448E+02  0.14669960946E+02  0.42701638298E+02  0.51100000000E-03 0.  1.
         12    1    3    3    0    0  0.24236508679E+00 -0.36502426157E+02 -0.95306707385E+01  0.37726907386E+02  0.00000000000E+00 0. -1.
</event>
<event>
 7    1  0.1978681E-015  0.9000779E+02  0.7816164E-02  0.1186339E+00
        -11   -1    0    0    0    0  0.00000000000E+00  0.00000000000E+00  0.45593999997E+02  0.45594000000E+02  0.51100000000E-03 0. -1.
         11   -1    0    0    0    0 -0.00000000000E+00 -0.00000000000E+00 -0.45593999997E+02  0.45594000000E+02  0.51100000000E-03 0.  1.
    9900012    2    1    2    0    0 -0.10274981674E+01 -0.58005063174E+00 -0.26264091807E-01  0.90007787722E+02  0.90000049720E+02 0.  0.
        -12    1    1    2    0    0  0.10274981674E+01  0.58005063174E+00  0.26264091807E-01  0.11802122783E+01  0.00000000000E+00 0.  1.
         11    1    3    3    0    0  0.56369958722E+01 -0.60548847174E+01  0.47497815419E+01  0.95392754631E+01  0.51100000000E-03 0. -1.
        -11    1    3    3    0    0  0.25269355300E+02  0.21694162970E+02  0.18163626102E+02  0.37935396896E+02  0.51100000000E-03 0.  1.
         12    1    3    3    0    0 -0.31933849339E+02 -0.16219328884E+02 -0.22939671736E+02  0.42533115362E+02  0.00000000000E+00 0. -1.
</event>
<event>
 7    1  0.1978681E-015  0.9000771E+02  0.7816164E-02  0.1186339E+00
        -11   -1    0    0    0    0  0.00000000000E+00  0.00000000000E+00  0.45593999997E+02  0.45594000000E+02  0.51100000000E-03 0. -1.
         11   -1    0    0    0    0 -0.00000000000E+00 -0.00000000000E+00 -0.45593999997E+02  0.45594000000E+02  0.51100000000E-03 0.  1.
    9900012    2    1    2    0    0 -0.51832926070E+00 -0.57415056934E+00 -0.89149235649E+00  0.90007714983E+02  0.89999976021E+02 0.  0.
        -12    1    1    2    0    0  0.51832926070E+00  0.57415056934E+00  0.89149235649E+00  0.11802850166E+01  0.00000000000E+00 0.  1.
         11    1    3    3    0    0  0.47378167528E+01  0.26559957742E+02  0.28132137259E+02  0.38978140154E+02  0.51100000000E-03 0. -1.
        -11    1    3    3    0    0 -0.45063587876E+01 -0.55467439327E+01  0.63646525940E+01  0.95698715081E+01  0.51100000000E-03 0.  1.
        -12    1    3    3    0    0 -0.74978722589E+00 -0.21587364379E+02 -0.35388282210E+02  0.41459703321E+02  0.00000000000E+00 0.  1.
</event>
<event>
 7    1  0.1978681E-015  0.9000778E+02  0.7816164E-02  0.1186339E+00
        -11   -1    0    0    0    0  0.00000000000E+00  0.00000000000E+00  0.45593999997E+02  0.45594000000E+02  0.51100000000E-03 0.  1.
         11   -1    0    0    0    0 -0.00000000000E+00 -0.00000000000E+00 -0.45593999997E+02  0.45594000000E+02  0.51100000000E-03 0. -1.
    9900012    2    1    2    0    0  0.57294185321E+00  0.70025352433E+00 -0.75782327720E+00  0.90007782442E+02  0.90000044370E+02 0.  0.
        -12    1    1    2    0    0 -0.57294185321E+00 -0.70025352433E+00  0.75782327720E+00  0.11802175583E+01  0.00000000000E+00 0.  1.
         11    1    3    3    0    0 -0.33430716065E+01  0.56935030192E+01  0.82794108468E+01  0.10589652904E+02  0.51100000000E-03 0. -1.
        -11    1    3    3    0    0 -0.18912072103E+02  0.30584681560E+02  0.99035570863E+00  0.35973184763E+02  0.51100000000E-03 0.  1.
         12    1    3    3    0    0  0.22828085562E+02 -0.35577931055E+02 -0.10027589833E+02  0.43444944774E+02  0.00000000000E+00 0. -1.
</event>
<event>
 7    1  0.1978681E-015  0.9000727E+02  0.7816164E-02  0.1186340E+00
        -11   -1    0    0    0    0  0.00000000000E+00  0.00000000000E+00  0.45593999997E+02  0.45594000000E+02  0.51100000000E-03 0.  1.
         11   -1    0    0    0    0 -0.00000000000E+00 -0.00000000000E+00 -0.45593999997E+02  0.45594000000E+02  0.51100000000E-03 0. -1.
    9900012    2    1    2    0    0  0.18722155132E+00  0.91282986381E+00 -0.72512936566E+00  0.90007270198E+02  0.89999525363E+02 0.  0.
        -12    1    1    2    0    0 -0.18722155132E+00 -0.91282986381E+00  0.72512936566E+00  0.11807298025E+01  0.00000000000E+00 0.  1.
         11    1    3    3    0    0  0.12378944084E+02  0.26914148210E+02 -0.22241182071E+02  0.37044295251E+02  0.51100000000E-03 0. -1.
        -11    1    3    3    0    0 -0.29994113467E+01  0.61134872560E+01 -0.64635100661E+01  0.93887250195E+01  0.51100000000E-03 0.  1.
        -12    1    3    3    0    0 -0.91923111860E+01 -0.32114805602E+02  0.27979562771E+02  0.43574249927E+02  0.00000000000E+00 0.  1.
</event>
<event>
 7    1  0.1978681E-015  0.9000774E+02  0.7816164E-02  0.1186339E+00
        -11   -1    0    0    0    0  0.00000000000E+00  0.00000000000E+00  0.45593999997E+02  0.45594000000E+02  0.51100000000E-03 0. -1.
         11   -1    0    0    0    0 -0.00000000000E+00 -0.00000000000E+00 -0.45593999997E+02  0.45594000000E+02  0.51100000000E-03 0.  1.
    9900012    2    1    2    0    0  0.36479575419E+00  0.80285498550E+00  0.78445281850E+00  0.90007738040E+02  0.89999999382E+02 0.  0.
        -12    1    1    2    0    0 -0.36479575419E+00 -0.80285498550E+00 -0.78445281850E+00  0.11802619601E+01  0.00000000000E+00 0.  1.
         11    1    3    3    0    0  0.37147447379E+01  0.89179517331E+01 -0.26429571325E+01  0.10015708375E+02  0.51100000000E-03 0. -1.
        -11    1    3    3    0    0  0.29697775299E+02  0.16445545232E+02  0.15159470775E+02  0.37178264754E+02  0.51100000000E-03 0.  1.
         12    1    3    3    0    0 -0.33047724282E+02 -0.24560641980E+02 -0.11732060824E+02  0.42813764911E+02  0.00000000000E+00 0. -1.
</event>
<event>
 7    1  0.1978681E-015  0.9000795E+02  0.7816164E-02  0.1186339E+00
        -11   -1    0    0    0    0  0.00000000000E+00  0.00000000000E+00  0.45593999997E+02  0.45594000000E+02  0.51100000000E-03 0.  1.
         11   -1    0    0    0    0 -0.00000000000E+00 -0.00000000000E+00 -0.45593999997E+02  0.45594000000E+02  0.51100000000E-03 0. -1.
    9900012    2    1    2    0    0 -0.66743409375E+00 -0.49220892190E+00 -0.83951102536E+00  0.90007950571E+02  0.90000214719E+02 0.  0.
        -12    1    1    2    0    0  0.66743409375E+00  0.49220892190E+00  0.83951102536E+00  0.11800494286E+01  0.00000000000E+00 0.  1.
         11    1    3    3    0    0  0.99386204476E+01  0.16959021042E+02  0.91827493890E+01  0.21695793549E+02  0.51100000000E-03 0. -1.
        -11    1    3    3    0    0 -0.33481523772E+02  0.57856568958E+01  0.70659509864E+00  0.33985078148E+02  0.51100000000E-03 0.  1.
         12    1    3    3    0    0  0.22875469231E+02 -0.23236886860E+02 -0.10728855513E+02  0.34327078875E+02  0.00000000000E+00 0. -1.
</event>
<event>
 7    1  0.1978681E-015  0.9000762E+02  0.7816164E-02  0.1186339E+00
        -11   -1    0    0    0    0  0.00000000000E+00  0.00000000000E+00  0.45593999997E+02  0.45594000000E+02  0.51100000000E-03 0. -1.
         11   -1    0    0    0    0 -0.00000000000E+00 -0.00000000000E+00 -0.45593999997E+02  0.45594000000E+02  0.51100000000E-03 0.  1.
    9900012    2    1    2    0    0  0.43209730821E+00  0.70396461050E-02  0.10984290900E+01  0.90007616966E+02  0.89999876710E+02 0.  0.
        -12    1    1    2    0    0 -0.43209730821E+00 -0.70396461050E-02 -0.10984290900E+01  0.11803830337E+01  0.00000000000E+00 0.  1.
         11    1    3    3    0    0  0.67691140270E+01 -0.76009683251E+01  0.15106640714E+01  0.10289690490E+02  0.51100000000E-03 0. -1.
        -11    1    3    3    0    0  0.35492142127E+02  0.72239511266E+01 -0.82783113937E+01  0.37153843172E+02  0.51100000000E-03 0.  1.
         12    1    3    3    0    0 -0.41829158846E+02  0.38405684466E+00  0.78660764123E+01  0.42564083304E+02  0.00000000000E+00 0. -1.
</event>
<event>
 7    1  0.3356278E-015  0.9000774E+02  0.7816164E-02  0.1186339E+00
        -11   -1    0    0    0    0  0.00000000000E+00  0.00000000000E+00  0.45593999997E+02  0.45594000000E+02  0.51100000000E-03 0. -1.
         11   -1    0    0    0    0 -0.00000000000E+00 -0.00000000000E+00 -0.45593999997E+02  0.45594000000E+02  0.51100000000E-03 0.  1.
    9900012    2    1    2    0    0 -0.49502518282E-01  0.45947603766E+00  0.10860278866E+01  0.90007735073E+02  0.89999996375E+02 0.  0.
        -12    1    1    2    0    0  0.49502518282E-01 -0.45947603766E+00 -0.10860278866E+01  0.11802649275E+01  0.00000000000E+00 0.  1.
         11    1    3    3    0    0  0.38465151331E+01  0.53877869800E+01 -0.70713312400E+01  0.96864675180E+01  0.51100000000E-03 0. -1.
        -11    1    3    3    0    0  0.83928709070E+01 -0.40836773534E+01 -0.34593847137E+02  0.35830866063E+02  0.51100000000E-03 0.  1.
         12    1    3    3    0    0 -0.12288888558E+02 -0.84463358892E+00  0.42751206264E+02  0.44490401492E+02  0.00000000000E+00 0. -1.
</event>
<event>
 7    1  0.1978681E-015  0.9000774E+02  0.7816164E-02  0.1186339E+00
        -11   -1    0    0    0    0  0.00000000000E+00  0.00000000000E+00  0.45593999997E+02  0.45594000000E+02  0.51100000000E-03 0.  1.
         11   -1    0    0    0    0 -0.00000000000E+00 -0.00000000000E+00 -0.45593999997E+02  0.45594000000E+02  0.51100000000E-03 0. -1.
    9900012    2    1    2    0    0 -0.35083986297E+00 -0.10945896807E+01  0.26794060415E+00  0.90007742678E+02  0.90000004081E+02 0.  0.
        -12    1    1    2    0    0  0.35083986297E+00  0.10945896807E+01 -0.26794060415E+00  0.11802573219E+01  0.00000000000E+00 0.  1.
         11    1    3    3    0    0  0.59104515219E+01 -0.10100714559E+01  0.64902276857E+01  0.88361041875E+01  0.51100000000E-03 0. -1.
        -11    1    3    3    0    0 -0.20020519557E+02 -0.15936637054E+02  0.29923670139E+02  0.39372879482E+02  0.51100000000E-03 0.  1.
         12    1    3    3    0    0  0.13759228172E+02  0.15852118829E+02 -0.36145957220E+02  0.41798759008E+02  0.00000000000E+00 0. -1.
</event>
<event>
 7    1  0.1978681E-015  0.9000772E+02  0.7816164E-02  0.1186339E+00
        -11   -1    0    0    0    0  0.00000000000E+00  0.00000000000E+00  0.45593999997E+02  0.45594000000E+02  0.51100000000E-03 0. -1.
         11   -1    0    0    0    0 -0.00000000000E+00 -0.00000000000E+00 -0.45593999997E+02  0.45594000000E+02  0.51100000000E-03 0.  1.
    9900012    2    1    2    0    0  0.68815591846E+00  0.95787043811E+00 -0.44606403764E-01  0.90007718646E+02  0.89999979732E+02 0.  0.
        -12    1    1    2    0    0 -0.68815591846E+00 -0.95787043811E+00  0.44606403764E-01  0.11802813544E+01  0.00000000000E+00 0.  1.
         11    1    3    3    0    0  0.16798862952E+02  0.26635979175E+02 -0.10661804287E+02  0.33246823217E+02  0.51100000000E-03 0. -1.
        -11    1    3    3    0    0  0.11638030857E+02  0.52622922947E+01  0.80991426336E+01  0.15123874969E+02  0.51100000000E-03 0.  1.
        -12    1    3    3    0    0 -0.27748737890E+02 -0.30940401032E+02  0.25180552494E+01  0.41637020460E+02  0.00000000000E+00 0.  1.
</event>
<event>
 7    1  0.1978681E-015  0.9000757E+02  0.7816164E-02  0.1186339E+00
        -11   -1    0    0    0    0  0.00000000000E+00  0.00000000000E+00  0.45593999997E+02  0.45594000000E+02  0.51100000000E-03 0. -1.
         11   -1    0    0    0    0 -0.00000000000E+00 -0.00000000000E+00 -0.45593999997E+02  0.45594000000E+02  0.51100000000E-03 0.  1.
    9900012    2    1    2    0    0  0.39713492334E+00  0.61176626404E+00  0.92814191186E+00  0.90007567233E+02  0.89999826320E+02 0.  0.
        -12    1    1    2    0    0 -0.39713492334E+00 -0.61176626404E+00 -0.92814191186E+00  0.11804327671E+01  0.00000000000E+00 0.  1.
         11    1    3    3    0    0 -0.55280496889E+01 -0.58971982338E+01 -0.43942903255E+01  0.92003297820E+01  0.51100000000E-03 0. -1.
        -11    1    3    3    0    0 -0.26315324028E+02 -0.10416782636E+01 -0.24702943345E+02  0.36108403211E+02  0.51100000000E-03 0.  1.
         12    1    3    3    0    0  0.32240508641E+02  0.75506427614E+01  0.30025375582E+02  0.44698834239E+02  0.00000000000E+00 0. -1.
</event>
<event>
 7    1  0.1978681E-015  0.9000780E+02  0.7816164E-02  0.1186339E+00
        -11   -1    0    0    0    0  0.00000000000E+00  0.00000000000E+00  0.45593999997E+02  0.45594000000E+02  0.51100000000E-03 0. -1.
         11   -1    0    0    0    0 -0.00000000000E+00 -0.00000000000E+00 -0.45593999997E+02  0.45594000000E+02  0.51100000000E-03 0.  1.
    9900012    2    1    2    0    0 -0.96533793343E+00 -0.36846405996E+00  0.57028623033E+00  0.90007801087E+02  0.90000063262E+02 0.  0.
        -12    1    1    2    0    0  0.96533793343E+00  0.36846405996E+00 -0.57028623033E+00  0.11801989128E+01  0.00000000000E+00 0.  1.
         11    1    3    3    0    0  0.21841439223E+00 -0.30580113045E+00 -0.12230813939E+02  0.12236585678E+02  0.51100000000E-03 0. -1.
        -11    1    3    3    0    0 -0.15986534591E+02  0.26713513060E+02 -0.16649733695E+02  0.35304315609E+02  0.51100000000E-03 0.  1.
         12    1    3    3    0    0  0.14802782265E+02 -0.26776175989E+02  0.29450833864E+02  0.42466899801E+02  0.00000000000E+00 0. -1.
</event>
<event>
 7    1  0.1978681E-015  0.9000780E+02  0.7816164E-02  0.1186339E+00
        -11   -1    0    0    0    0  0.00000000000E+00  0.00000000000E+00  0.45593999997E+02  0.45594000000E+02  0.51100000000E-03 0.  1.
         11   -1    0    0    0    0 -0.00000000000E+00 -0.00000000000E+00 -0.45593999997E+02  0.45594000000E+02  0.51100000000E-03 0. -1.
    9900012    2    1    2    0    0 -0.18910562060E+00  0.10583033791E+01 -0.48692880342E+00  0.90007802289E+02  0.90000064479E+02 0.  0.
        -12    1    1    2    0    0  0.18910562060E+00 -0.10583033791E+01  0.48692880342E+00  0.11801977112E+01  0.00000000000E+00 0.  1.
         11    1    3    3    0    0 -0.98992394035E+01  0.45897361202E+01  0.73294932943E+01  0.13144660157E+02  0.51100000000E-03 0. -1.
        -11    1    3    3    0    0  0.29094774442E+02  0.26791366651E+02 -0.10038933628E+02  0.40805188586E+02  0.51100000000E-03 0.  1.
         12    1    3    3    0    0 -0.19384640659E+02 -0.30322799392E+02  0.22225115298E+01  0.36057953547E+02  0.00000000000E+00 0. -1.
</event>
<event>
 7    1  0.1978681E-015  0.9000771E+02  0.7816164E-02  0.1186339E+00
        -11   -1    0    0    0    0  0.00000000000E+00  0.00000000000E+00  0.45593999997E+02  0.45594000000E+02  0.51100000000E-03 0.  1.
         11   -1    0    0    0    0 -0.00000000000E+00 -0.00000000000E+00 -0.45593999997E+02  0.45594000000E+02  0.51100000000E-03 0. -1.
    9900012    2    1    2    0    0 -0.18658479302E+00  0.70665904955E+00 -0.92676690677E+00  0.90007712833E+02  0.89999973842E+02 0.  0.
        -12    1    1    2    0    0  0.18658479302E+00 -0.70665904955E+00  0.92676690677E+00  0.11802871671E+01  0.00000000000E+00 0.  1.
         11    1    3    3    0    0  0.16725845244E+02  0.38980924570E+02 -0.65014594484E+01  0.42913114017E+02  0.51100000000E-03 0. -1.
        -11    1    3    3    0    0 -0.61020444991E+01 -0.50040543992E+01 -0.63568478289E+01  0.10133361835E+02  0.51100000000E-03 0.  1.
        -12    1    3    3    0    0 -0.10810385538E+02 -0.33270211121E+02  0.11931540371E+02  0.36961236981E+02  0.00000000000E+00 0.  1.
</event>
<event>
 7    1  0.1978681E-015  0.9000771E+02  0.7816164E-02  0.1186339E+00
        -11   -1    0    0    0    0  0.00000000000E+00  0.00000000000E+00  0.45593999997E+02  0.45594000000E+02  0.51100000000E-03 0. -1.
         11   -1    0    0    0    0 -0.00000000000E+00 -0.00000000000E+00 -0.45593999997E+02  0.45594000000E+02  0.51100000000E-03 0.  1.
    9900012    2    1    2    0    0  0.25045867766E+00 -0.58924416051E+00  0.99154126172E+00  0.90007706687E+02  0.89999967616E+02 0.  0.
        -12    1    1    2    0    0 -0.25045867766E+00  0.58924416051E+00 -0.99154126172E+00  0.11802933125E+01  0.00000000000E+00 0.  1.
         11    1    3    3    0    0 -0.18689578499E+01  0.13159855094E+01  0.99042428618E+01  0.10164587952E+02  0.51100000000E-03 0. -1.
        -11    1    3    3    0    0  0.21684514661E+01  0.25040570586E+02 -0.34499647449E+02  0.42684400328E+02  0.51100000000E-03 0.  1.
         12    1    3    3    0    0 -0.49034938545E-01 -0.26945800256E+02  0.25586945849E+02  0.37158718408E+02  0.00000000000E+00 0. -1.
</event>
<event>
 7    1  0.1978681E-015  0.9000775E+02  0.7816164E-02  0.1186339E+00
        -11   -1    0    0    0    0  0.00000000000E+00  0.00000000000E+00  0.45593999997E+02  0.45594000000E+02  0.51100000000E-03 0. -1.
         11   -1    0    0    0    0 -0.00000000000E+00 -0.00000000000E+00 -0.45593999997E+02  0.45594000000E+02  0.51100000000E-03 0.  1.
    9900012    2    1    2    0    0 -0.88010422935E+00  0.69941927835E+00  0.35946948310E+00  0.90007750412E+02  0.90000011917E+02 0.  0.
        -12    1    1    2    0    0  0.88010422935E+00 -0.69941927835E+00 -0.35946948310E+00  0.11802495883E+01  0.00000000000E+00 0.  1.
         11    1    3    3    0    0  0.14206934596E+02 -0.68942349327E+01  0.33182814547E+02  0.36748695861E+02  0.51100000000E-03 0. -1.
        -11    1    3    3    0    0 -0.27094951325E+01 -0.27789494198E+01  0.82541608286E+01  0.91211345236E+01  0.51100000000E-03 0.  1.
        -12    1    3    3    0    0 -0.12377543693E+02  0.10372603631E+02 -0.41077505893E+02  0.44137920027E+02  0.00000000000E+00 0.  1.
</event>
<event>
 7    1  0.2015320E-015  0.9000778E+02  0.7816164E-02  0.1186339E+00
        -11   -1    0    0    0    0  0.00000000000E+00  0.00000000000E+00  0.45593999997E+02  0.45594000000E+02  0.51100000000E-03 0. -1.
         11   -1    0    0    0    0 -0.00000000000E+00 -0.00000000000E+00 -0.45593999997E+02  0.45594000000E+02  0.51100000000E-03 0.  1.
    9900012    2    1    2    0    0 -0.39214729054E+00  0.83899642634E+00  0.73158385912E+00  0.90007784154E+02  0.90000046105E+02 0.  0.
        -12    1    1    2    0    0  0.39214729054E+00 -0.83899642634E+00 -0.73158385912E+00  0.11802158463E+01  0.00000000000E+00 0.  1.
         11    1    3    3    0    0  0.44879399302E+01 -0.39059392517E+01  0.64998432795E+01  0.88116927530E+01  0.51100000000E-03 0. -1.
        -11    1    3    3    0    0  0.97950213177E+01 -0.24259837133E+02 -0.30622682831E+02  0.40276926948E+02  0.51100000000E-03 0.  1.
         12    1    3    3    0    0 -0.14675108538E+02  0.29004772811E+02  0.24854423411E+02  0.40919164453E+02  0.00000000000E+00 0. -1.
</event>
<event>
 7    1  0.1978681E-015  0.9000777E+02  0.7816164E-02  0.1186339E+00
        -11   -1    0    0    0    0  0.00000000000E+00  0.00000000000E+00  0.45593999997E+02  0.45594000000E+02  0.51100000000E-03 0.  1.
         11   -1    0    0    0    0 -0.00000000000E+00 -0.00000000000E+00 -0.45593999997E+02  0.45594000000E+02  0.51100000000E-03 0. -1.
    9900012    2    1    2    0    0  0.10712110559E+00 -0.98250968884E+00 -0.64509479762E+00  0.90007768024E+02  0.90000029762E+02 0.  0.
        -12    1    1    2    0    0 -0.10712110559E+00  0.98250968884E+00  0.64509479762E+00  0.11802319763E+01  0.00000000000E+00 0.  1.
         11    1    3    3    0    0 -0.11010674380E+02  0.34659429151E+02 -0.92998607834E+01  0.37536627315E+02  0.51100000000E-03 0. -1.
        -11    1    3    3    0    0 -0.11319914888E+02 -0.24332407188E+01  0.32798026903E+01  0.12034045015E+02  0.51100000000E-03 0.  1.
        -12    1    3    3    0    0  0.22437710374E+02 -0.33208698121E+02  0.53749632955E+01  0.40437095694E+02  0.00000000000E+00 0.  1.
</event>
<event>
 7    1  0.1978681E-015  0.9000773E+02  0.7816164E-02  0.1186339E+00
        -11   -1    0    0    0    0  0.00000000000E+00  0.00000000000E+00  0.45593999997E+02  0.45594000000E+02  0.51100000000E-03 0.  1.
         11   -1    0    0    0    0 -0.00000000000E+00 -0.00000000000E+00 -0.45593999997E+02  0.45594000000E+02  0.51100000000E-03 0. -1.
    9900012    2    1    2    0    0 -0.54996657462E+00  0.25113210549E+00  0.10136582245E+01  0.90007731571E+02  0.89999992828E+02 0.  0.
        -12    1    1    2    0    0  0.54996657462E+00 -0.25113210549E+00 -0.10136582245E+01  0.11802684286E+01  0.00000000000E+00 0.  1.
         11    1    3    3    0    0 -0.17150663677E+02  0.35173094854E+01 -0.28770491159E+02  0.33678745410E+02  0.51100000000E-03 0. -1.
        -11    1    3    3    0    0 -0.44093701357E+01 -0.32486772032E+01 -0.99638009096E+01  0.11369862681E+02  0.51100000000E-03 0.  1.
        -12    1    3    3    0    0  0.21010067238E+02 -0.17500176700E-01  0.39747950293E+02  0.44959123480E+02  0.00000000000E+00 0.  1.
</event>
<event>
 7    1  0.1978681E-015  0.9000777E+02  0.7816164E-02  0.1186339E+00
        -11   -1    0    0    0    0  0.00000000000E+00  0.00000000000E+00  0.45593999997E+02  0.45594000000E+02  0.51100000000E-03 0. -1.
         11   -1    0    0    0    0 -0.00000000000E+00 -0.00000000000E+00 -0.45593999997E+02  0.45594000000E+02  0.51100000000E-03 0.  1.
    9900012    2    1    2    0    0 -0.77429930438E+00  0.37711235672E+00  0.80696024672E+00  0.90007772063E+02  0.90000033855E+02 0.  0.
        -12    1    1    2    0    0  0.77429930438E+00 -0.37711235672E+00 -0.80696024672E+00  0.11802279365E+01  0.00000000000E+00 0.  1.
         11    1    3    3    0    0  0.32487638265E+02 -0.19261106175E+02 -0.72753690637E+01  0.38462551220E+02  0.51100000000E-03 0. -1.
        -11    1    3    3    0    0  0.17764177526E+01 -0.32795603266E+01  0.89207239860E+01  0.96690481777E+01  0.51100000000E-03 0.  1.
        -12    1    3    3    0    0 -0.35038355322E+02  0.22917778858E+02 -0.83839467560E+00  0.41876172665E+02  0.00000000000E+00 0.  1.
</event>
<event>
 7    1  0.1978681E-015  0.9000772E+02  0.7816164E-02  0.1186339E+00
        -11   -1    0    0    0    0  0.00000000000E+00  0.00000000000E+00  0.45593999997E+02  0.45594000000E+02  0.51100000000E-03 0.  1.
         11   -1    0    0    0    0 -0.00000000000E+00 -0.00000000000E+00 -0.45593999997E+02  0.45594000000E+02  0.51100000000E-03 0. -1.
    9900012    2    1    2    0    0  0.99211988758E+00 -0.61197612930E+00 -0.18503582958E+00  0.90007722527E+02  0.89999983665E+02 0.  0.
        -12    1    1    2    0    0 -0.99211988758E+00  0.61197612930E+00  0.18503582958E+00  0.11802774726E+01  0.00000000000E+00 0.  1.
         11    1    3    3    0    0 -0.94228123875E+01 -0.76890989297E+00  0.26101530914E-01  0.94541682481E+01  0.51100000000E-03 0. -1.
        -11    1    3    3    0    0  0.22658285557E+02  0.32815362054E+02  0.14862744502E+02  0.42557573539E+02  0.51100000000E-03 0.  1.
         12    1    3    3    0    0 -0.12243353282E+02 -0.32658428291E+02 -0.15073881863E+02  0.37995980740E+02  0.00000000000E+00 0. -1.
</event>
<event>
 7    1  0.1978681E-015  0.9000791E+02  0.7816164E-02  0.1186339E+00
        -11   -1    0    0    0    0  0.00000000000E+00  0.00000000000E+00  0.45593999997E+02  0.45594000000E+02  0.51100000000E-03 0.  1.
         11   -1    0    0    0    0 -0.00000000000E+00 -0.00000000000E+00 -0.45593999997E+02  0.45594000000E+02  0.51100000000E-03 0. -1.
    9900012    2    1    2    0    0  0.69821684211E+00  0.24939329281E+00  0.91809928807E+00  0.90007910988E+02  0.90000174613E+02 0.  0.
        -12    1    1    2    0    0 -0.69821684211E+00 -0.24939329281E+00 -0.91809928807E+00  0.11800890118E+01  0.00000000000E+00 0.  1.
         11    1    3    3    0    0  0.65576439166E+01 -0.80163843109E+01  0.76579076819E+00  0.10385159937E+02  0.51100000000E-03 0. -1.
        -11    1    3    3    0    0 -0.14950828662E+02 -0.29135896234E+02 -0.17664537511E+02  0.37208380948E+02  0.51100000000E-03 0.  1.
         12    1    3    3    0    0  0.90914015877E+01  0.37401673838E+02  0.17816846031E+02  0.42414370103E+02  0.00000000000E+00 0. -1.
</event>
<event>
 7    1  0.1978681E-015  0.9000788E+02  0.7816164E-02  0.1186339E+00
        -11   -1    0    0    0    0  0.00000000000E+00  0.00000000000E+00  0.45593999997E+02  0.45594000000E+02  0.51100000000E-03 0. -1.
         11   -1    0    0    0    0 -0.00000000000E+00 -0.00000000000E+00 -0.45593999997E+02  0.45594000000E+02  0.51100000000E-03 0.  1.
    9900012    2    1    2    0    0 -0.11035757071E+01  0.41729196449E+00  0.25997200086E-01  0.90007878066E+02  0.90000141256E+02 0.  0.
        -12    1    1    2    0    0  0.11035757071E+01 -0.41729196449E+00 -0.25997200086E-01  0.11801219341E+01  0.00000000000E+00 0.  1.
         11    1    3    3    0    0 -0.95097293940E+01  0.12530649992E+02  0.17145485562E+02  0.23268429637E+02  0.51100000000E-03 0. -1.
        -11    1    3    3    0    0 -0.79025897478E+01 -0.23883759047E+02  0.14669799699E+02  0.29121948671E+02  0.51100000000E-03 0.  1.
        -12    1    3    3    0    0  0.16308743435E+02  0.11770401020E+02 -0.31789288061E+02  0.37617499757E+02  0.00000000000E+00 0.  1.
</event>
<event>
 7    1  0.1978681E-015  0.9000786E+02  0.7816164E-02  0.1186339E+00
        -11   -1    0    0    0    0  0.00000000000E+00  0.00000000000E+00  0.45593999997E+02  0.45594000000E+02  0.51100000000E-03 0.  1.
         11   -1    0    0    0    0 -0.00000000000E+00 -0.00000000000E+00 -0.45593999997E+02  0.45594000000E+02  0.51100000000E-03 0. -1.
    9900012    2    1    2    0    0 -0.87035280584E+00 -0.56899355888E+00  0.55809558253E+00  0.90007856638E+02  0.90000119545E+02 0.  0.
        -12    1    1    2    0    0  0.87035280584E+00  0.56899355888E+00 -0.55809558253E+00  0.11801433624E+01  0.00000000000E+00 0.  1.
         11    1    3    3    0    0 -0.12074161269E+01  0.65587495694E+01  0.98330363781E+01  0.11881231177E+02  0.51100000000E-03 0. -1.
        -11    1    3    3    0    0  0.16050409846E+02  0.31592162557E+02 -0.79625531461E+01  0.36319177360E+02  0.51100000000E-03 0.  1.
         12    1    3    3    0    0 -0.15713346525E+02 -0.38719905685E+02 -0.13123876494E+01  0.41807448100E+02  0.00000000000E+00 0. -1.
</event>
<event>
 7    1  0.1978681E-015  0.9000775E+02  0.7816164E-02  0.1186339E+00
        -11   -1    0    0    0    0  0.00000000000E+00  0.00000000000E+00  0.45593999997E+02  0.45594000000E+02  0.51100000000E-03 0. -1.
         11   -1    0    0    0    0 -0.00000000000E+00 -0.00000000000E+00 -0.45593999997E+02  0.45594000000E+02  0.51100000000E-03 0.  1.
    9900012    2    1    2    0    0  0.60913509917E+00  0.87777288848E+00  0.50144815145E+00  0.90007753813E+02  0.90000015364E+02 0.  0.
        -12    1    1    2    0    0 -0.60913509917E+00 -0.87777288848E+00 -0.50144815145E+00  0.11802461868E+01  0.00000000000E+00 0.  1.
         11    1    3    3    0    0 -0.11786666223E+01 -0.38614443509E+01  0.89446118396E+01  0.98135665639E+01  0.51100000000E-03 0. -1.
        -11    1    3    3    0    0  0.61312254096E+01 -0.35132312146E+02  0.84880426390E+01  0.36659489220E+02  0.51100000000E-03 0.  1.
         12    1    3    3    0    0 -0.43434236882E+01  0.39871529385E+02 -0.16931206327E+02  0.43534698030E+02  0.00000000000E+00 0. -1.
</event>
<event>
 7    1  0.1978681E-015  0.9000822E+02  0.7816164E-02  0.1186338E+00
        -11   -1    0    0    0    0  0.00000000000E+00  0.00000000000E+00  0.45593999997E+02  0.45594000000E+02  0.51100000000E-03 0.  1.
         11   -1    0    0    0    0 -0.00000000000E+00 -0.00000000000E+00 -0.45593999997E+02  0.45594000000E+02  0.51100000000E-03 0. -1.
    9900012    2    1    2    0    0  0.27523804176E+00  0.60891029453E+00  0.97229355773E+00  0.90008219305E+02  0.90000486998E+02 0.  0.
        -12    1    1    2    0    0 -0.27523804176E+00 -0.60891029453E+00 -0.97229355773E+00  0.11797806952E+01  0.00000000000E+00 0.  1.
         11    1    3    3    0    0  0.12903627152E+02  0.17024934949E+02 -0.28755759648E+02  0.35822419194E+02  0.51100000000E-03 0. -1.
        -11    1    3    3    0    0 -0.49471951077E+01  0.50338239410E+01 -0.76517068771E+01  0.10409742614E+02  0.51100000000E-03 0.  1.
        -12    1    3    3    0    0 -0.76811940023E+01 -0.21449848595E+02  0.37379760083E+02  0.43776057497E+02  0.00000000000E+00 0.  1.
</event>
<event>
 7    1  0.1978681E-015  0.9000820E+02  0.7816164E-02  0.1186338E+00
        -11   -1    0    0    0    0  0.00000000000E+00  0.00000000000E+00  0.45593999997E+02  0.45594000000E+02  0.51100000000E-03 0. -1.
         11   -1    0    0    0    0 -0.00000000000E+00 -0.00000000000E+00 -0.45593999997E+02  0.45594000000E+02  0.51100000000E-03 0.  1.
    9900012    2    1    2    0    0  0.32414648361E+00 -0.98163076561E+00  0.56855681242E+00  0.90008200546E+02  0.90000467992E+02 0.  0.
        -12    1    1    2    0    0 -0.32414648361E+00  0.98163076561E+00 -0.56855681242E+00  0.11797994541E+01  0.00000000000E+00 0.  1.
         11    1    3    3    0    0 -0.11302694914E+02 -0.29785015754E+02 -0.23516043093E+02  0.39596746821E+02  0.51100000000E-03 0. -1.
        -11    1    3    3    0    0  0.32172432467E+01 -0.68558661928E+01  0.52610457849E+01  0.92212883251E+01  0.51100000000E-03 0.  1.
        -12    1    3    3    0    0  0.84095981505E+01  0.35659251182E+02  0.18823554121E+02  0.41190165399E+02  0.00000000000E+00 0.  1.
</event>
<event>
 7    1  0.1978681E-015  0.9000781E+02  0.7816164E-02  0.1186339E+00
        -11   -1    0    0    0    0  0.00000000000E+00  0.00000000000E+00  0.45593999997E+02  0.45594000000E+02  0.51100000000E-03 0. -1.
         11   -1    0    0    0    0 -0.00000000000E+00 -0.00000000000E+00 -0.45593999997E+02  0.45594000000E+02  0.51100000000E-03 0.  1.
    9900012    2    1    2    0    0  0.52706736558E-01  0.80739830966E+00  0.85916727620E+00  0.90007814235E+02  0.90000076583E+02 0.  0.
        -12    1    1    2    0    0 -0.52706736558E-01 -0.80739830966E+00 -0.85916727620E+00  0.11801857646E+01  0.00000000000E+00 0.  1.
         11    1    3    3    0    0  0.55142447176E+00 -0.25608133397E+02  0.32563895136E+02  0.41430518121E+02  0.51100000000E-03 0. -1.
        -11    1    3    3    0    0 -0.37757092503E+01  0.62100906917E+01  0.33352204320E+01  0.79965556543E+01  0.51100000000E-03 0.  1.
        -12    1    3    3    0    0  0.32769915150E+01  0.20205441015E+02 -0.35039948292E+02  0.40580740460E+02  0.00000000000E+00 0.  1.
</event>
<event>
 7    1  0.1978681E-015  0.9000770E+02  0.7816164E-02  0.1186339E+00
        -11   -1    0    0    0    0  0.00000000000E+00  0.00000000000E+00  0.45593999997E+02  0.45594000000E+02  0.51100000000E-03 0. -1.
         11   -1    0    0    0    0 -0.00000000000E+00 -0.00000000000E+00 -0.45593999997E+02  0.45594000000E+02  0.51100000000E-03 0.  1.
    9900012    2    1    2    0    0  0.81562145886E+00  0.80581336501E+00 -0.28025364241E+00  0.90007696799E+02  0.89999957596E+02 0.  0.
        -12    1    1    2    0    0 -0.81562145886E+00 -0.80581336501E+00  0.28025364241E+00  0.11803032015E+01  0.00000000000E+00 0.  1.
         11    1    3    3    0    0  0.34535157368E+00 -0.75688616616E+01  0.85900168834E+01  0.11454052771E+02  0.51100000000E-03 0. -1.
        -11    1    3    3    0    0 -0.32259953250E+02  0.84078910120E+01 -0.25376249951E+02  0.41896912497E+02  0.51100000000E-03 0.  1.
         12    1    3    3    0    0  0.32730223135E+02 -0.33215985347E-01  0.16505979425E+02  0.36656731531E+02  0.00000000000E+00 0. -1.
</event>
<event>
 7    1  0.1978681E-015  0.9000751E+02  0.7816164E-02  0.1186340E+00
        -11   -1    0    0    0    0  0.00000000000E+00  0.00000000000E+00  0.45593999997E+02  0.45594000000E+02  0.51100000000E-03 0.  1.
         11   -1    0    0    0    0 -0.00000000000E+00 -0.00000000000E+00 -0.45593999997E+02  0.45594000000E+02  0.51100000000E-03 0. -1.
    9900012    2    1    2    0    0 -0.30298513624E+00  0.71051807543E-01 -0.11387296370E+01  0.90007511314E+02  0.89999769663E+02 0.  0.
        -12    1    1    2    0    0  0.30298513624E+00 -0.71051807543E-01  0.11387296370E+01  0.11804886862E+01  0.00000000000E+00 0.  1.
         11    1    3    3    0    0 -0.14078931628E+01 -0.87375668160E+01 -0.39454002385E+02  0.40434459827E+02  0.51100000000E-03 0. -1.
        -11    1    3    3    0    0 -0.72723814539E+01 -0.54764418583E+01  0.15292391165E+01  0.92313335968E+01  0.51100000000E-03 0.  1.
        -12    1    3    3    0    0  0.83772894804E+01  0.14285060482E+02  0.36786033632E+02  0.40341717890E+02  0.00000000000E+00 0.  1.
</event>
<event>
 7    1  0.1978681E-015  0.9000775E+02  0.7816164E-02  0.1186339E+00
        -11   -1    0    0    0    0  0.00000000000E+00  0.00000000000E+00  0.45593999997E+02  0.45594000000E+02  0.51100000000E-03 0.  1.
         11   -1    0    0    0    0 -0.00000000000E+00 -0.00000000000E+00 -0.45593999997E+02  0.45594000000E+02  0.51100000000E-03 0. -1.
    9900012    2    1    2    0    0 -0.11045674315E+01 -0.40913749829E+00  0.74393336630E-01  0.90007747031E+02  0.90000008491E+02 0.  0.
        -12    1    1    2    0    0  0.11045674315E+01  0.40913749829E+00 -0.74393336630E-01  0.11802529694E+01  0.00000000000E+00 0.  1.
         11    1    3    3    0    0 -0.15066081109E+02  0.10497832509E+02 -0.12933479619E+02  0.22460324635E+02  0.51100000000E-03 0. -1.
        -11    1    3    3    0    0 -0.19818473638E+02 -0.21532109251E+02 -0.14448929132E+01  0.29300022899E+02  0.51100000000E-03 0.  1.
         12    1    3    3    0    0  0.33779987315E+02  0.10625139243E+02  0.14452765869E+02  0.38247399496E+02  0.00000000000E+00 0. -1.
</event>
<event>
 7    1  0.1978681E-015  0.9000767E+02  0.7816164E-02  0.1186339E+00
        -11   -1    0    0    0    0  0.00000000000E+00  0.00000000000E+00  0.45593999997E+02  0.45594000000E+02  0.51100000000E-03 0. -1.
         11   -1    0    0    0    0 -0.00000000000E+00 -0.00000000000E+00 -0.45593999997E+02  0.45594000000E+02  0.51100000000E-03 0.  1.
    9900012    2    1    2    0    0  0.12081838240E+00  0.43046547150E+00  0.10923734058E+01  0.90007670698E+02  0.89999931151E+02 0.  0.
        -12    1    1    2    0    0 -0.12081838240E+00 -0.43046547150E+00 -0.10923734058E+01  0.11803293021E+01  0.00000000000E+00 0.  1.
         11    1    3    3    0    0 -0.64549280186E+01 -0.10282591670E+02  0.28410992374E+01  0.12468746221E+02  0.51100000000E-03 0. -1.
        -11    1    3    3    0    0 -0.30194433995E+02  0.68564776222E+01  0.17802175290E+02  0.35715998866E+02  0.51100000000E-03 0.  1.
         12    1    3    3    0    0  0.36770180396E+02  0.38565795198E+01 -0.19550901122E+02  0.41822925611E+02  0.00000000000E+00 0. -1.
</event>
<event>
 7    1  0.1978681E-015  0.9000769E+02  0.7816164E-02  0.1186339E+00
        -11   -1    0    0    0    0  0.00000000000E+00  0.00000000000E+00  0.45593999997E+02  0.45594000000E+02  0.51100000000E-03 0.  1.
         11   -1    0    0    0    0 -0.00000000000E+00 -0.00000000000E+00 -0.45593999997E+02  0.45594000000E+02  0.51100000000E-03 0. -1.
    9900012    2    1    2    0    0  0.61863242766E+00  0.56876857785E+00 -0.82881294871E+00  0.90007688736E+02  0.89999949427E+02 0.  0.
        -12    1    1    2    0    0 -0.61863242766E+00 -0.56876857785E+00  0.82881294871E+00  0.11803112639E+01  0.00000000000E+00 0.  1.
         11    1    3    3    0    0  0.27728049235E+02 -0.26366047464E+02  0.13138195822E+02  0.40455226646E+02  0.51100000000E-03 0. -1.
        -11    1    3    3    0    0  0.14323853115E+01  0.89706178451E+01  0.54932415779E+01  0.10615998092E+02  0.51100000000E-03 0.  1.
        -12    1    3    3    0    0 -0.28541802118E+02  0.17964198197E+02 -0.19460250349E+02  0.38936463998E+02  0.00000000000E+00 0.  1.
</event>
<event>
 7    1  0.1978681E-015  0.9000776E+02  0.7816164E-02  0.1186339E+00
        -11   -1    0    0    0    0  0.00000000000E+00  0.00000000000E+00  0.45593999997E+02  0.45594000000E+02  0.51100000000E-03 0.  1.
         11   -1    0    0    0    0 -0.00000000000E+00 -0.00000000000E+00 -0.45593999997E+02  0.45594000000E+02  0.51100000000E-03 0. -1.
    9900012    2    1    2    0    0  0.11633155748E+00  0.10465462806E+01 -0.53308624298E+00  0.90007757190E+02  0.90000018785E+02 0.  0.
        -12    1    1    2    0    0 -0.11633155748E+00 -0.10465462806E+01  0.53308624298E+00  0.11802428102E+01  0.00000000000E+00 0.  1.
         11    1    3    3    0    0  0.14756449690E+00 -0.10073616831E+02  0.23822474121E+01  0.10352518260E+02  0.51100000000E-03 0. -1.
        -11    1    3    3    0    0  0.72981301593E+01 -0.23499228837E+02  0.24626981663E+02  0.34813283181E+02  0.51100000000E-03 0.  1.
         12    1    3    3    0    0 -0.73293630988E+01  0.34619391948E+02 -0.27542315318E+02  0.44841955749E+02  0.00000000000E+00 0. -1.
</event>
<event>
 7    1  0.1978681E-015  0.9000765E+02  0.7816164E-02  0.1186339E+00
        -11   -1    0    0    0    0  0.00000000000E+00  0.00000000000E+00  0.45593999997E+02  0.45594000000E+02  0.51100000000E-03 0.  1.
         11   -1    0    0    0    0 -0.00000000000E+00 -0.00000000000E+00 -0.45593999997E+02  0.45594000000E+02  0.51100000000E-03 0. -1.
    9900012    2    1    2    0    0  0.41716529612E+00 -0.10410339943E+01 -0.36802367275E+00  0.90007652557E+02  0.89999912771E+02 0.  0.
        -12    1    1    2    0    0 -0.41716529612E+00  0.10410339943E+01  0.36802367275E+00  0.11803474426E+01  0.00000000000E+00 0.  1.
         11    1    3    3    0    0  0.36988362952E+02  0.79047317136E+01  0.48233094826E+00  0.37826662828E+02  0.51100000000E-03 0. -1.
        -11    1    3    3    0    0  0.48954572921E+01 -0.26486013751E+01  0.75759695965E+01  0.94008460753E+01  0.51100000000E-03 0.  1.
        -12    1    3    3    0    0 -0.41466654948E+02 -0.62971643328E+01 -0.84263242175E+01  0.42780143654E+02  0.00000000000E+00 0.  1.
</event>
<event>
 7    1  0.1978681E-015  0.9000744E+02  0.7816164E-02  0.1186340E+00
        -11   -1    0    0    0    0  0.00000000000E+00  0.00000000000E+00  0.45593999997E+02  0.45594000000E+02  0.51100000000E-03 0.  1.
         11   -1    0    0    0    0 -0.00000000000E+00 -0.00000000000E+00 -0.45593999997E+02  0.45594000000E+02  0.51100000000E-03 0. -1.
    9900012    2    1    2    0    0 -0.45777001193E+00 -0.10054914621E+01 -0.41612236948E+00  0.90007438993E+02  0.89999696388E+02 0.  0.
        -12    1    1    2    0    0  0.45777001193E+00  0.10054914621E+01  0.41612236948E+00  0.11805610067E+01  0.00000000000E+00 0.  1.
         11    1    3    3    0    0 -0.72981690349E+00 -0.22144162262E+02 -0.25714575313E+02  0.33943128005E+02  0.51100000000E-03 0. -1.
        -11    1    3    3    0    0  0.10385326233E+02  0.42223041401E+01 -0.10396581340E+02  0.15289596366E+02  0.51100000000E-03 0.  1.
        -12    1    3    3    0    0 -0.10113279341E+02  0.16916366660E+02  0.35695034283E+02  0.40774714622E+02  0.00000000000E+00 0.  1.
</event>
<event>
 7    1  0.1978681E-015  0.9000787E+02  0.7816164E-02  0.1186339E+00
        -11   -1    0    0    0    0  0.00000000000E+00  0.00000000000E+00  0.45593999997E+02  0.45594000000E+02  0.51100000000E-03 0.  1.
         11   -1    0    0    0    0 -0.00000000000E+00 -0.00000000000E+00 -0.45593999997E+02  0.45594000000E+02  0.51100000000E-03 0. -1.
    9900012    2    1    2    0    0  0.10704776065E+01 -0.43637192059E-01 -0.49486022049E+00  0.90007867318E+02  0.90000130366E+02 0.  0.
        -12    1    1    2    0    0 -0.10704776065E+01  0.43637192059E-01  0.49486022049E+00  0.11801326825E+01  0.00000000000E+00 0.  1.
         11    1    3    3    0    0  0.96137383606E+01 -0.64722335849E+01 -0.37748598153E+01  0.12188656190E+02  0.51100000000E-03 0. -1.
        -11    1    3    3    0    0  0.22131349810E+02 -0.24686541538E+02 -0.44363647977E+01  0.33450012113E+02  0.51100000000E-03 0.  1.
         12    1    3    3    0    0 -0.30674610564E+02  0.31115137930E+02  0.77163643925E+01  0.44369199014E+02  0.00000000000E+00 0. -1.
</event>
<event>
 7    1  0.1978681E-015  0.9000790E+02  0.7816164E-02  0.1186339E+00
        -11   -1    0    0    0    0  0.00000000000E+00  0.00000000000E+00  0.45593999997E+02  0.45594000000E+02  0.51100000000E-03 0.  1.
         11   -1    0    0    0    0 -0.00000000000E+00 -0.00000000000E+00 -0.45593999997E+02  0.45594000000E+02  0.51100000000E-03 0. -1.
    9900012    2    1    2    0    0  0.45350866219E+00 -0.16308024657E+00 -0.10772062663E+01  0.90007898897E+02  0.90000162362E+02 0.  0.
        -12    1    1    2    0    0 -0.45350866219E+00  0.16308024657E+00  0.10772062663E+01  0.11801011032E+01  0.00000000000E+00 0.  1.
         11    1    3    3    0    0 -0.83744662792E+01 -0.28260558569E+01  0.26519423574E+01  0.92277340500E+01  0.51100000000E-03 0. -1.
        -11    1    3    3    0    0 -0.76375556429E+01 -0.84999060381E+01  0.35229580772E+02  0.37036522792E+02  0.51100000000E-03 0.  1.
         12    1    3    3    0    0  0.16465530584E+02  0.11162881648E+02 -0.38958729396E+02  0.43743642055E+02  0.00000000000E+00 0. -1.
</event>
<event>
 7    1  0.1978681E-015  0.9000773E+02  0.7816164E-02  0.1186339E+00
        -11   -1    0    0    0    0  0.00000000000E+00  0.00000000000E+00  0.45593999997E+02  0.45594000000E+02  0.51100000000E-03 0.  1.
         11   -1    0    0    0    0 -0.00000000000E+00 -0.00000000000E+00 -0.45593999997E+02  0.45594000000E+02  0.51100000000E-03 0. -1.
    9900012    2    1    2    0    0 -0.12167665233E+00 -0.63132268714E+00 -0.98977963643E+00  0.90007730001E+02  0.89999991237E+02 0.  0.
        -12    1    1    2    0    0  0.12167665233E+00  0.63132268714E+00  0.98977963643E+00  0.11802699995E+01  0.00000000000E+00 0.  1.
         11    1    3    3    0    0  0.27750651936E+02  0.18729572154E+00  0.15617947773E+02  0.31844215417E+02  0.51100000000E-03 0. -1.
        -11    1    3    3    0    0  0.57648806284E+01  0.55602914805E+01  0.11398518610E+02  0.13931149155E+02  0.51100000000E-03 0.  1.
        -12    1    3    3    0    0 -0.33637209217E+02 -0.63789098891E+01 -0.28006246020E+02  0.44232365429E+02  0.00000000000E+00 0.  1.
</event>
<event>
 7    1  0.1978681E-015  0.9000769E+02  0.7816164E-02  0.1186339E+00
        -11   -1    0    0    0    0  0.00000000000E+00  0.00000000000E+00  0.45593999997E+02  0.45594000000E+02  0.51100000000E-03 0. -1.
         11   -1    0    0    0    0 -0.00000000000E+00 -0.00000000000E+00 -0.45593999997E+02  0.45594000000E+02  0.51100000000E-03 0.  1.
    9900012    2    1    2    0    0 -0.11510212006E+01 -0.25092921878E+00  0.72980146451E-01  0.90007685898E+02  0.89999946552E+02 0.  0.
        -12    1    1    2    0    0  0.11510212006E+01  0.25092921878E+00 -0.72980146451E-01  0.11803141017E+01  0.00000000000E+00 0.  1.
         11    1    3    3    0    0  0.69928004791E+01 -0.28595379848E+01 -0.30274648909E+01  0.81389041003E+01  0.51100000000E-03 0. -1.
        -11    1    3    3    0    0 -0.85389558463E+01 -0.20784016041E+02  0.35434425678E+02  0.41958165035E+02  0.51100000000E-03 0.  1.
         12    1    3    3    0    0  0.39513416663E+00  0.23392624807E+02 -0.32333980640E+02  0.39910616763E+02  0.00000000000E+00 0. -1.
</event>
<event>
 7    1  0.1978681E-015  0.9000770E+02  0.7816164E-02  0.1186339E+00
        -11   -1    0    0    0    0  0.00000000000E+00  0.00000000000E+00  0.45593999997E+02  0.45594000000E+02  0.51100000000E-03 0. -1.
         11   -1    0    0    0    0 -0.00000000000E+00 -0.00000000000E+00 -0.45593999997E+02  0.45594000000E+02  0.51100000000E-03 0.  1.
    9900012    2    1    2    0    0 -0.89047708693E+00 -0.26838684251E+00  0.72671680583E+00  0.90007704166E+02  0.89999965061E+02 0.  0.
        -12    1    1    2    0    0  0.89047708693E+00  0.26838684251E+00 -0.72671680583E+00  0.11802958339E+01  0.00000000000E+00 0.  1.
         11    1    3    3    0    0 -0.81000417872E+01  0.23022982400E+00 -0.11207927779E+02  0.13830449309E+02  0.51100000000E-03 0. -1.
        -11    1    3    3    0    0 -0.30793651513E+02 -0.15382630903E+02  0.56117738237E+01  0.34876443522E+02  0.51100000000E-03 0.  1.
         12    1    3    3    0    0  0.38003216213E+02  0.14884014237E+02  0.63228707607E+01  0.41300811336E+02  0.00000000000E+00 0. -1.
</event>
<event>
 7    1  0.1978681E-015  0.9000737E+02  0.7816164E-02  0.1186340E+00
        -11   -1    0    0    0    0  0.00000000000E+00  0.00000000000E+00  0.45593999997E+02  0.45594000000E+02  0.51100000000E-03 0. -1.
         11   -1    0    0    0    0 -0.00000000000E+00 -0.00000000000E+00 -0.45593999997E+02  0.45594000000E+02  0.51100000000E-03 0.  1.
    9900012    2    1    2    0    0 -0.96669195235E+00 -0.95709955068E-01 -0.67099938593E+00  0.90007367160E+02  0.89999623606E+02 0.  0.
        -12    1    1    2    0    0  0.96669195235E+00  0.95709955067E-01  0.67099938593E+00  0.11806328397E+01  0.00000000000E+00 0.  1.
         11    1    3    3    0    0  0.18817468749E+02 -0.25926313649E+02  0.29480323807E+02  0.43535736603E+02  0.51100000000E-03 0. -1.
        -11    1    3    3    0    0  0.14682337223E+01  0.63981398354E+01 -0.57194029469E+01  0.87065190488E+01  0.51100000000E-03 0.  1.
        -12    1    3    3    0    0 -0.21252394423E+02  0.19432463858E+02 -0.24431920246E+02  0.37765111509E+02  0.00000000000E+00 0.  1.
</event>
<event>
 7    1  0.1978681E-015  0.9000772E+02  0.7816164E-02  0.1186339E+00
        -11   -1    0    0    0    0  0.00000000000E+00  0.00000000000E+00  0.45593999997E+02  0.45594000000E+02  0.51100000000E-03 0.  1.
         11   -1    0    0    0    0 -0.00000000000E+00 -0.00000000000E+00 -0.45593999997E+02  0.45594000000E+02  0.51100000000E-03 0. -1.
    9900012    2    1    2    0    0 -0.60943207905E+00 -0.22818350540E+00 -0.98467331015E+00  0.90007721771E+02  0.89999982898E+02 0.  0.
        -12    1    1    2    0    0  0.60943207905E+00  0.22818350540E+00  0.98467331015E+00  0.11802782294E+01  0.00000000000E+00 0.  1.
         11    1    3    3    0    0 -0.41903052743E+01  0.36872120778E+02 -0.13488658504E+01  0.37133965427E+02  0.51100000000E-03 0. -1.
        -11    1    3    3    0    0 -0.54446171527E+01  0.54304542619E+01  0.49645824860E+01  0.91531835419E+01  0.51100000000E-03 0.  1.
        -12    1    3    3    0    0  0.90254903480E+01 -0.42530758545E+02 -0.46003899457E+01  0.43720572802E+02  0.00000000000E+00 0.  1.
</event>
<event>
 7    1  0.1978681E-015  0.9000752E+02  0.7816164E-02  0.1186339E+00
        -11   -1    0    0    0    0  0.00000000000E+00  0.00000000000E+00  0.45593999997E+02  0.45594000000E+02  0.51100000000E-03 0. -1.
         11   -1    0    0    0    0 -0.00000000000E+00 -0.00000000000E+00 -0.45593999997E+02  0.45594000000E+02  0.51100000000E-03 0.  1.
    9900012    2    1    2    0    0 -0.92721799718E+00  0.60447159412E+00  0.41039602835E+00  0.90007515344E+02  0.89999773747E+02 0.  0.
        -12    1    1    2    0    0  0.92721799718E+00 -0.60447159412E+00 -0.41039602835E+00  0.11804846558E+01  0.00000000000E+00 0.  1.
         11    1    3    3    0    0  0.38288175221E+01  0.29375018379E+01 -0.88139872038E+01  0.10048638284E+02  0.51100000000E-03 0. -1.
        -11    1    3    3    0    0 -0.95547578910E+01  0.37024617040E+02 -0.32972355119E+01  0.38379518334E+02  0.51100000000E-03 0.  1.
         12    1    3    3    0    0  0.47987223717E+01 -0.39357647284E+02  0.12521618744E+02  0.41579358726E+02  0.00000000000E+00 0. -1.
</event>
<event>
 7    1  0.1978681E-015  0.9000811E+02  0.7816164E-02  0.1186338E+00
        -11   -1    0    0    0    0  0.00000000000E+00  0.00000000000E+00  0.45593999997E+02  0.45594000000E+02  0.51100000000E-03 0.  1.
         11   -1    0    0    0    0 -0.00000000000E+00 -0.00000000000E+00 -0.45593999997E+02  0.45594000000E+02  0.51100000000E-03 0. -1.
    9900012    2    1    2    0    0  0.50302675713E+00 -0.22573979632E+00 -0.10431461651E+01  0.90008106659E+02  0.90000372866E+02 0.  0.
        -12    1    1    2    0    0 -0.50302675713E+00  0.22573979632E+00  0.10431461651E+01  0.11798933409E+01  0.00000000000E+00 0.  1.
         11    1    3    3    0    0  0.22199062557E+00  0.31868925848E+02  0.15649878517E+02  0.35504878712E+02  0.51100000000E-03 0. -1.
        -11    1    3    3    0    0  0.75351076842E+01 -0.26820885516E+01  0.10904583356E+02  0.13523364420E+02  0.51100000000E-03 0.  1.
        -12    1    3    3    0    0 -0.72540715526E+01 -0.29412577092E+02 -0.27597608038E+02  0.40979863527E+02  0.00000000000E+00 0.  1.
</event>
<event>
 7    1  0.2196632E-015  0.9000772E+02  0.7816164E-02  0.1186339E+00
        -11   -1    0    0    0    0  0.00000000000E+00  0.00000000000E+00  0.45593999997E+02  0.45594000000E+02  0.51100000000E-03 0. -1.
         11   -1    0    0    0    0 -0.00000000000E+00 -0.00000000000E+00 -0.45593999997E+02  0.45594000000E+02  0.51100000000E-03 0.  1.
    9900012    2    1    2    0    0  0.10996028698E+01  0.26689241446E-02  0.42886170159E+00  0.90007722086E+02  0.89999983218E+02 0.  0.
        -12    1    1    2    0    0 -0.10996028698E+01 -0.26689241446E-02 -0.42886170159E+00  0.11802779137E+01  0.00000000000E+00 0.  1.
         11    1    3    3    0    0 -0.70908280678E+01 -0.28526225431E+01  0.68118751668E+01  0.10238112209E+02  0.51100000000E-03 0. -1.
        -11    1    3    3    0    0  0.30523646113E+02 -0.27283139695E+02  0.31659754006E+01  0.41061978571E+02  0.51100000000E-03 0.  1.
         12    1    3    3    0    0 -0.22333215175E+02  0.30138431162E+02 -0.95489888658E+01  0.38707631306E+02  0.00000000000E+00 0. -1.
</event>
<event>
 7    1  0.2093107E-015  0.9000773E+02  0.7816164E-02  0.1186339E+00
        -11   -1    0    0    0    0  0.00000000000E+00  0.00000000000E+00  0.45593999997E+02  0.45594000000E+02  0.51100000000E-03 0. -1.
         11   -1    0    0    0    0 -0.00000000000E+00 -0.00000000000E+00 -0.45593999997E+02  0.45594000000E+02  0.51100000000E-03 0.  1.
    9900012    2    1    2    0    0  0.12829864033E+00  0.10904334880E+01  0.43303993455E+00  0.90007733370E+02  0.89999994651E+02 0.  0.
        -12    1    1    2    0    0 -0.12829864033E+00 -0.10904334880E+01 -0.43303993455E+00  0.11802666299E+01  0.00000000000E+00 0.  1.
         11    1    3    3    0    0 -0.73251009942E+01 -0.53672237114E+01  0.12225351571E+01  0.91629027832E+01  0.51100000000E-03 0. -1.
        -11    1    3    3    0    0 -0.29766926501E+02 -0.53225100003E+01 -0.21065797103E+02  0.36853315100E+02  0.51100000000E-03 0.  1.
         12    1    3    3    0    0  0.37220326136E+02  0.11780167200E+02  0.20276301880E+02  0.43991515487E+02  0.00000000000E+00 0. -1.
</event>
<event>
 7    1  0.1978681E-015  0.9000771E+02  0.7816164E-02  0.1186339E+00
        -11   -1    0    0    0    0  0.00000000000E+00  0.00000000000E+00  0.45593999997E+02  0.45594000000E+02  0.51100000000E-03 0. -1.
         11   -1    0    0    0    0 -0.00000000000E+00 -0.00000000000E+00 -0.45593999997E+02  0.45594000000E+02  0.51100000000E-03 0.  1.
    9900012    2    1    2    0    0  0.25571468048E+00  0.10652892945E+01  0.43914536756E+00  0.90007711928E+02  0.89999972926E+02 0.  0.
        -12    1    1    2    0    0 -0.25571468048E+00 -0.10652892945E+01 -0.43914536756E+00  0.11802880719E+01  0.00000000000E+00 0.  1.
         11    1    3    3    0    0 -0.10184977966E+02  0.14077949841E+01 -0.37426892496E+01  0.10941818220E+02  0.51100000000E-03 0. -1.
        -11    1    3    3    0    0 -0.15356597203E+02  0.27563932239E+02 -0.16703471138E+02  0.35701560000E+02  0.51100000000E-03 0.  1.
         12    1    3    3    0    0  0.25797289850E+02 -0.27906437928E+02  0.20885305755E+02  0.43364333708E+02  0.00000000000E+00 0. -1.
</event>
<event>
 7    1  0.1978681E-015  0.9000773E+02  0.7816164E-02  0.1186339E+00
        -11   -1    0    0    0    0  0.00000000000E+00  0.00000000000E+00  0.45593999997E+02  0.45594000000E+02  0.51100000000E-03 0. -1.
         11   -1    0    0    0    0 -0.00000000000E+00 -0.00000000000E+00 -0.45593999997E+02  0.45594000000E+02  0.51100000000E-03 0.  1.
    9900012    2    1    2    0    0  0.85959126349E+00 -0.12544723155E+00  0.79900240804E+00  0.90007729270E+02  0.89999990496E+02 0.  0.
        -12    1    1    2    0    0 -0.85959126349E+00  0.12544723155E+00 -0.79900240804E+00  0.11802707301E+01  0.00000000000E+00 0.  1.
         11    1    3    3    0    0  0.12272918271E+02 -0.25818751832E+02  0.26254351777E+02  0.38813959557E+02  0.51100000000E-03 0. -1.
        -11    1    3    3    0    0 -0.16980174888E+01  0.63060403338E+01  0.86132174530E+01  0.10809112972E+02  0.51100000000E-03 0.  1.
        -12    1    3    3    0    0 -0.97153095183E+01  0.19387264266E+02 -0.34068566822E+02  0.40384656741E+02  0.00000000000E+00 0.  1.
</event>
<event>
 7    1  0.1998230E-015  0.9000773E+02  0.7816164E-02  0.1186339E+00
        -11   -1    0    0    0    0  0.00000000000E+00  0.00000000000E+00  0.45593999997E+02  0.45594000000E+02  0.51100000000E-03 0. -1.
         11   -1    0    0    0    0 -0.00000000000E+00 -0.00000000000E+00 -0.45593999997E+02  0.45594000000E+02  0.51100000000E-03 0.  1.
    9900012    2    1    2    0    0 -0.21566983066E+00  0.75189234856E-01  0.11579561044E+01  0.90007733404E+02  0.89999994685E+02 0.  0.
        -12    1    1    2    0    0  0.21566983066E+00 -0.75189234856E-01 -0.11579561044E+01  0.11802665956E+01  0.00000000000E+00 0.  1.
         11    1    3    3    0    0 -0.10835612741E+01  0.88099704557E+01  0.42761682804E+01  0.98526798329E+01  0.51100000000E-03 0. -1.
        -11    1    3    3    0    0  0.38363912244E+02  0.77283665501E+01 -0.93178167445E+00  0.39145697459E+02  0.51100000000E-03 0.  1.
         12    1    3    3    0    0 -0.37496020801E+02 -0.16463147771E+02 -0.21864305015E+01  0.41009356112E+02  0.00000000000E+00 0. -1.
</event>
<event>
 7    1  0.1978681E-015  0.9000782E+02  0.7816164E-02  0.1186339E+00
        -11   -1    0    0    0    0  0.00000000000E+00  0.00000000000E+00  0.45593999997E+02  0.45594000000E+02  0.51100000000E-03 0.  1.
         11   -1    0    0    0    0 -0.00000000000E+00 -0.00000000000E+00 -0.45593999997E+02  0.45594000000E+02  0.51100000000E-03 0. -1.
    9900012    2    1    2    0    0  0.28395834683E+00 -0.38823049935E+00 -0.10777187402E+01  0.90007816562E+02  0.90000078941E+02 0.  0.
        -12    1    1    2    0    0 -0.28395834683E+00  0.38823049935E+00  0.10777187402E+01  0.11801834376E+01  0.00000000000E+00 0.  1.
         11    1    3    3    0    0  0.13712049202E+02  0.44873425907E+01 -0.33328707905E+02  0.36317479369E+02  0.51100000000E-03 0. -1.
        -11    1    3    3    0    0  0.85543760284E+01 -0.12256355730E+01 -0.52187156516E+01  0.10095272414E+02  0.51100000000E-03 0.  1.
        -12    1    3    3    0    0 -0.21982466883E+02 -0.36499375171E+01  0.37469704816E+02  0.43595064780E+02  0.00000000000E+00 0.  1.
</event>
<event>
 7    1  0.1978681E-015  0.9000775E+02  0.7816164E-02  0.1186339E+00
        -11   -1    0    0    0    0  0.00000000000E+00  0.00000000000E+00  0.45593999997E+02  0.45594000000E+02  0.51100000000E-03 0. -1.
         11   -1    0    0    0    0 -0.00000000000E+00 -0.00000000000E+00 -0.45593999997E+02  0.45594000000E+02  0.51100000000E-03 0.  1.
    9900012    2    1    2    0    0  0.39637002401E-01  0.92870042353E-02  0.11795503555E+01  0.90007747323E+02  0.90000008788E+02 0.  0.
        -12    1    1    2    0    0 -0.39637002401E-01 -0.92870042353E-02 -0.11795503555E+01  0.11802526770E+01  0.00000000000E+00 0.  1.
         11    1    3    3    0    0 -0.71551198874E+01  0.11124124114E+01 -0.52616381400E+01  0.89508680112E+01  0.51100000000E-03 0. -1.
        -11    1    3    3    0    0 -0.31399986047E+02  0.19094022112E+02 -0.14935134895E+01  0.36780040605E+02  0.51100000000E-03 0.  1.
         12    1    3    3    0    0  0.38594742937E+02 -0.20197147519E+02  0.79347019850E+01  0.44276838706E+02  0.00000000000E+00 0. -1.
</event>
<event>
 7    1  0.1978681E-015  0.9000774E+02  0.7816164E-02  0.1186339E+00
        -11   -1    0    0    0    0  0.00000000000E+00  0.00000000000E+00  0.45593999997E+02  0.45594000000E+02  0.51100000000E-03 0.  1.
         11   -1    0    0    0    0 -0.00000000000E+00 -0.00000000000E+00 -0.45593999997E+02  0.45594000000E+02  0.51100000000E-03 0. -1.
    9900012    2    1    2    0    0 -0.27597515992E+00  0.80749291776E+00 -0.81535213437E+00  0.90007743162E+02  0.90000004572E+02 0.  0.
        -12    1    1    2    0    0  0.27597515992E+00 -0.80749291776E+00  0.81535213437E+00  0.11802568382E+01  0.00000000000E+00 0.  1.
         11    1    3    3    0    0 -0.10373446219E+02  0.65595734374E+01  0.72428625283E+01  0.14251156023E+02  0.51100000000E-03 0. -1.
        -11    1    3    3    0    0  0.14284741645E+01  0.16396992306E+02  0.28047694962E+02  0.32520379580E+02  0.51100000000E-03 0.  1.
         12    1    3    3    0    0  0.86689968944E+01 -0.22149072826E+02 -0.36105909624E+02  0.43236207558E+02  0.00000000000E+00 0. -1.
</event>
<event>
 7    1  0.1978681E-015  0.9000765E+02  0.7816164E-02  0.1186339E+00
        -11   -1    0    0    0    0  0.00000000000E+00  0.00000000000E+00  0.45593999997E+02  0.45594000000E+02  0.51100000000E-03 0.  1.
         11   -1    0    0    0    0 -0.00000000000E+00 -0.00000000000E+00 -0.45593999997E+02  0.45594000000E+02  0.51100000000E-03 0. -1.
    9900012    2    1    2    0    0  0.69738524274E+00 -0.63427535816E+00 -0.71033790773E+00  0.90007647786E+02  0.89999907936E+02 0.  0.
        -12    1    1    2    0    0 -0.69738524274E+00  0.63427535816E+00  0.71033790773E+00  0.11803522143E+01  0.00000000000E+00 0.  1.
         11    1    3    3    0    0 -0.47247309395E+01 -0.37349748599E+02 -0.90707353537E+01  0.38724734254E+02  0.51100000000E-03 0. -1.
        -11    1    3    3    0    0  0.76309238617E+01 -0.47798568339E+01  0.72800006055E+00  0.90337154419E+01  0.51100000000E-03 0.  1.
        -12    1    3    3    0    0 -0.22088076794E+01  0.41495330075E+02  0.76323973854E+01  0.42249198090E+02  0.00000000000E+00 0.  1.
</event>
<event>
 7    1  0.1978681E-015  0.9000772E+02  0.7816164E-02  0.1186339E+00
        -11   -1    0    0    0    0  0.00000000000E+00  0.00000000000E+00  0.45593999997E+02  0.45594000000E+02  0.51100000000E-03 0.  1.
         11   -1    0    0    0    0 -0.00000000000E+00 -0.00000000000E+00 -0.45593999997E+02  0.45594000000E+02  0.51100000000E-03 0. -1.
    9900012    2    1    2    0    0 -0.11289352533E+00 -0.96648774275E+00 -0.66798876674E+00  0.90007723550E+02  0.89999984701E+02 0.  0.
        -12    1    1    2    0    0  0.11289352533E+00  0.96648774275E+00  0.66798876674E+00  0.11802764496E+01  0.00000000000E+00 0.  1.
         11    1    3    3    0    0 -0.35199472190E+01 -0.17828290134E+02 -0.30920886882E+02  0.35865571282E+02  0.51100000000E-03 0. -1.
        -11    1    3    3    0    0 -0.15726174668E+01 -0.11930976293E+02 -0.66161359628E-01  0.12034354930E+02  0.51100000000E-03 0.  1.
        -12    1    3    3    0    0  0.49796711605E+01  0.28792778684E+02  0.30319059475E+02  0.42107797338E+02  0.00000000000E+00 0.  1.
</event>
<event>
 7    1  0.3013389E-015  0.9000775E+02  0.7816164E-02  0.1186339E+00
        -11   -1    0    0    0    0  0.00000000000E+00  0.00000000000E+00  0.45593999997E+02  0.45594000000E+02  0.51100000000E-03 0. -1.
         11   -1    0    0    0    0 -0.00000000000E+00 -0.00000000000E+00 -0.45593999997E+02  0.45594000000E+02  0.51100000000E-03 0.  1.
    9900012    2    1    2    0    0  0.46452837813E-01 -0.21042023269E+00  0.11604129103E+01  0.90007748898E+02  0.90000010384E+02 0.  0.
        -12    1    1    2    0    0 -0.46452837813E-01  0.21042023269E+00 -0.11604129103E+01  0.11802511016E+01  0.00000000000E+00 0.  1.
         11    1    3    3    0    0  0.71126014789E+01 -0.70418427066E+01 -0.10984319164E+01  0.10068922556E+02  0.51100000000E-03 0. -1.
        -11    1    3    3    0    0  0.23498827523E+02  0.89775448343E+01 -0.27469210579E+02  0.37247130578E+02  0.51100000000E-03 0.  1.
         12    1    3    3    0    0 -0.30564976164E+02 -0.21461223604E+01  0.29728055406E+02  0.42691695765E+02  0.00000000000E+00 0. -1.
</event>
<event>
 7    1  0.1978681E-015  0.9000786E+02  0.7816164E-02  0.1186339E+00
        -11   -1    0    0    0    0  0.00000000000E+00  0.00000000000E+00  0.45593999997E+02  0.45594000000E+02  0.51100000000E-03 0. -1.
         11   -1    0    0    0    0 -0.00000000000E+00 -0.00000000000E+00 -0.45593999997E+02  0.45594000000E+02  0.51100000000E-03 0.  1.
    9900012    2    1    2    0    0  0.51676303378E+00  0.72211007875E+00  0.77732995526E+00  0.90007860662E+02  0.90000123622E+02 0.  0.
        -12    1    1    2    0    0 -0.51676303378E+00 -0.72211007875E+00 -0.77732995526E+00  0.11801393385E+01  0.00000000000E+00 0.  1.
         11    1    3    3    0    0 -0.22666014322E+02  0.25287534932E+02 -0.18538888395E+02  0.38689766236E+02  0.51100000000E-03 0. -1.
        -11    1    3    3    0    0 -0.85714203791E+01 -0.33880429682E+01  0.21330522226E+01  0.94603379704E+01  0.51100000000E-03 0.  1.
        -12    1    3    3    0    0  0.31754197735E+02 -0.21177381885E+02  0.17183166128E+02  0.41857756455E+02  0.00000000000E+00 0.  1.
</event>
<event>
 7    1  0.1978681E-015  0.9000778E+02  0.7816164E-02  0.1186339E+00
        -11   -1    0    0    0    0  0.00000000000E+00  0.00000000000E+00  0.45593999997E+02  0.45594000000E+02  0.51100000000E-03 0. -1.
         11   -1    0    0    0    0 -0.00000000000E+00 -0.00000000000E+00 -0.45593999997E+02  0.45594000000E+02  0.51100000000E-03 0.  1.
    9900012    2    1    2    0    0 -0.54095979437E+00  0.48294781171E+00  0.93115720052E+00  0.90007775521E+02  0.90000037358E+02 0.  0.
        -12    1    1    2    0    0  0.54095979437E+00 -0.48294781171E+00 -0.93115720052E+00  0.11802244787E+01  0.00000000000E+00 0.  1.
         11    1    3    3    0    0 -0.74742210094E+01 -0.62398840493E+01 -0.36575117703E+01  0.10400842526E+02  0.51100000000E-03 0. -1.
        -11    1    3    3    0    0  0.46583877127E+01 -0.34333857057E+02 -0.98576265085E+01  0.36023424561E+02  0.51100000000E-03 0.  1.
         12    1    3    3    0    0  0.22748735023E+01  0.41056688918E+02  0.14446295479E+02  0.43583508434E+02  0.00000000000E+00 0. -1.
</event>
<event>
 7    1  0.1978681E-015  0.9000779E+02  0.7816164E-02  0.1186339E+00
        -11   -1    0    0    0    0  0.00000000000E+00  0.00000000000E+00  0.45593999997E+02  0.45594000000E+02  0.51100000000E-03 0. -1.
         11   -1    0    0    0    0 -0.00000000000E+00 -0.00000000000E+00 -0.45593999997E+02  0.45594000000E+02  0.51100000000E-03 0.  1.
    9900012    2    1    2    0    0 -0.88034621356E+00  0.16597340313E+00  0.76833290479E+00  0.90007791510E+02  0.90000053558E+02 0.  0.
        -12    1    1    2    0    0  0.88034621356E+00 -0.16597340313E+00 -0.76833290479E+00  0.11802084896E+01  0.00000000000E+00 0.  1.
         11    1    3    3    0    0  0.33432784005E+02 -0.13529181895E+02  0.26755720629E+01  0.36165570578E+02  0.51100000000E-03 0. -1.
        -11    1    3    3    0    0  0.72873106138E+01  0.11128548188E+01  0.61982084814E+01  0.96312579900E+01  0.51100000000E-03 0.  1.
        -12    1    3    3    0    0 -0.41600440833E+02  0.12582300480E+02 -0.81054476395E+01  0.44210962942E+02  0.00000000000E+00 0.  1.
</event>
<event>
 7    1  0.1978681E-015  0.9000766E+02  0.7816164E-02  0.1186339E+00
        -11   -1    0    0    0    0  0.00000000000E+00  0.00000000000E+00  0.45593999997E+02  0.45594000000E+02  0.51100000000E-03 0.  1.
         11   -1    0    0    0    0 -0.00000000000E+00 -0.00000000000E+00 -0.45593999997E+02  0.45594000000E+02  0.51100000000E-03 0. -1.
    9900012    2    1    2    0    0 -0.10368892138E+01 -0.35239812212E+00  0.44032003471E+00  0.90007658773E+02  0.89999919069E+02 0.  0.
        -12    1    1    2    0    0  0.10368892138E+01  0.35239812212E+00 -0.44032003471E+00  0.11803412266E+01  0.00000000000E+00 0.  1.
         11    1    3    3    0    0 -0.35800172617E+01 -0.31716718759E+00  0.49506236444E+01  0.61176624088E+01  0.51100000000E-03 0. -1.
        -11    1    3    3    0    0 -0.13398758119E+01 -0.19173178254E+02  0.34936414465E+02  0.39874291060E+02  0.51100000000E-03 0.  1.
         12    1    3    3    0    0  0.38830038597E+01  0.19137947320E+02 -0.39446718075E+02  0.44015705305E+02  0.00000000000E+00 0. -1.
</event>
<event>
 7    1  0.1978681E-015  0.9000772E+02  0.7816164E-02  0.1186339E+00
        -11   -1    0    0    0    0  0.00000000000E+00  0.00000000000E+00  0.45593999997E+02  0.45594000000E+02  0.51100000000E-03 0. -1.
         11   -1    0    0    0    0 -0.00000000000E+00 -0.00000000000E+00 -0.45593999997E+02  0.45594000000E+02  0.51100000000E-03 0.  1.
    9900012    2    1    2    0    0  0.31706901323E+00  0.11177922692E+01 -0.20753731083E+00  0.90007718656E+02  0.89999979742E+02 0.  0.
        -12    1    1    2    0    0 -0.31706901323E+00 -0.11177922692E+01  0.20753731083E+00  0.11802813443E+01  0.00000000000E+00 0.  1.
         11    1    3    3    0    0 -0.78363876093E+01  0.71711633614E+01 -0.46456224358E+01  0.11593807088E+02  0.51100000000E-03 0. -1.
        -11    1    3    3    0    0  0.23103906723E+01 -0.26422446563E+02 -0.28700455819E+02  0.39079403167E+02  0.51100000000E-03 0.  1.
         12    1    3    3    0    0  0.58430659502E+01  0.20369075471E+02  0.33138540944E+02  0.39334508401E+02  0.00000000000E+00 0. -1.
</event>
<event>
 7    1  0.1978681E-015  0.9000773E+02  0.7816164E-02  0.1186339E+00
        -11   -1    0    0    0    0  0.00000000000E+00  0.00000000000E+00  0.45593999997E+02  0.45594000000E+02  0.51100000000E-03 0. -1.
         11   -1    0    0    0    0 -0.00000000000E+00 -0.00000000000E+00 -0.45593999997E+02  0.45594000000E+02  0.51100000000E-03 0.  1.
    9900012    2    1    2    0    0  0.11265631705E+01 -0.54884604804E-01  0.34768622672E+00  0.90007727739E+02  0.89999988945E+02 0.  0.
        -12    1    1    2    0    0 -0.11265631705E+01  0.54884604804E-01 -0.34768622672E+00  0.11802722607E+01  0.00000000000E+00 0.  1.
         11    1    3    3    0    0  0.18642935085E+00 -0.22271165009E+02  0.22660156706E+02  0.31772979856E+02  0.51100000000E-03 0. -1.
        -11    1    3    3    0    0  0.12652575033E+02 -0.50202401931E+00  0.10634481467E+02  0.16535775742E+02  0.51100000000E-03 0.  1.
        -12    1    3    3    0    0 -0.11712441213E+02  0.22718304423E+02 -0.32946951946E+02  0.41698972141E+02  0.00000000000E+00 0.  1.
</event>
<event>
 7    1  0.1978681E-015  0.9000752E+02  0.7816164E-02  0.1186339E+00
        -11   -1    0    0    0    0  0.00000000000E+00  0.00000000000E+00  0.45593999997E+02  0.45594000000E+02  0.51100000000E-03 0. -1.
         11   -1    0    0    0    0 -0.00000000000E+00 -0.00000000000E+00 -0.45593999997E+02  0.45594000000E+02  0.51100000000E-03 0.  1.
    9900012    2    1    2    0    0 -0.11340770532E+01  0.10424592237E+00  0.31070347988E+00  0.90007519324E+02  0.89999777778E+02 0.  0.
        -12    1    1    2    0    0  0.11340770532E+01 -0.10424592237E+00 -0.31070347988E+00  0.11804806764E+01  0.00000000000E+00 0.  1.
         11    1    3    3    0    0  0.14782618524E+01 -0.90433773942E+01  0.56398278923E-01  0.91635753844E+01  0.51100000000E-03 0. -1.
        -11    1    3    3    0    0  0.53900274954E+01 -0.10465355280E+02  0.36781323525E+02  0.38619189765E+02  0.51100000000E-03 0.  1.
         12    1    3    3    0    0 -0.80023664010E+01  0.19612978597E+02 -0.36527018324E+02  0.42224754175E+02  0.00000000000E+00 0. -1.
</event>
<event>
 7    1  0.1978681E-015  0.9000771E+02  0.7816164E-02  0.1186339E+00
        -11   -1    0    0    0    0  0.00000000000E+00  0.00000000000E+00  0.45593999997E+02  0.45594000000E+02  0.51100000000E-03 0. -1.
         11   -1    0    0    0    0 -0.00000000000E+00 -0.00000000000E+00 -0.45593999997E+02  0.45594000000E+02  0.51100000000E-03 0.  1.
    9900012    2    1    2    0    0 -0.11014214997E+01  0.14061326493E+00  0.40022719669E+00  0.90007710536E+02  0.89999971515E+02 0.  0.
        -12    1    1    2    0    0  0.11014214997E+01 -0.14061326493E+00 -0.40022719669E+00  0.11802894642E+01  0.00000000000E+00 0.  1.
         11    1    3    3    0    0  0.10324803190E+02 -0.76424928735E+01  0.10619481424E+02  0.16666812659E+02  0.51100000000E-03 0. -1.
        -11    1    3    3    0    0 -0.24171057261E+02 -0.24102668658E+02 -0.17317677926E+02  0.38276371491E+02  0.51100000000E-03 0.  1.
        -12    1    3    3    0    0  0.12744832571E+02  0.31885774796E+02  0.70984236988E+01  0.35064526386E+02  0.00000000000E+00 0.  1.
</event>
<event>
 7    1  0.1978681E-015  0.9000774E+02  0.7816164E-02  0.1186339E+00
        -11   -1    0    0    0    0  0.00000000000E+00  0.00000000000E+00  0.45593999997E+02  0.45594000000E+02  0.51100000000E-03 0.  1.
         11   -1    0    0    0    0 -0.00000000000E+00 -0.00000000000E+00 -0.45593999997E+02  0.45594000000E+02  0.51100000000E-03 0. -1.
    9900012    2    1    2    0    0  0.69838376940E+00 -0.71600518186E+00 -0.62659069817E+00  0.90007737651E+02  0.89999998988E+02 0.  0.
        -12    1    1    2    0    0 -0.69838376940E+00  0.71600518186E+00  0.62659069817E+00  0.11802623492E+01  0.00000000000E+00 0.  1.
         11    1    3    3    0    0  0.33847553282E+02  0.14196647251E+02 -0.13465674345E+02  0.39096368657E+02  0.51100000000E-03 0. -1.
        -11    1    3    3    0    0 -0.19800234692E+01  0.94108987208E+01  0.11654995549E+01  0.96873059797E+01  0.51100000000E-03 0.  1.
        -12    1    3    3    0    0 -0.31169146043E+02 -0.24323551154E+02  0.11673584092E+02  0.41224063014E+02  0.00000000000E+00 0.  1.
</event>
<event>
 7    1  0.1978681E-015  0.9000760E+02  0.7816164E-02  0.1186339E+00
        -11   -1    0    0    0    0  0.00000000000E+00  0.00000000000E+00  0.45593999997E+02  0.45594000000E+02  0.51100000000E-03 0.  1.
         11   -1    0    0    0    0 -0.00000000000E+00 -0.00000000000E+00 -0.45593999997E+02  0.45594000000E+02  0.51100000000E-03 0. -1.
    9900012    2    1    2    0    0  0.90434136144E+00  0.22579779951E+00 -0.72423802692E+00  0.90007602328E+02  0.89999861879E+02 0.  0.
        -12    1    1    2    0    0 -0.90434136144E+00 -0.22579779951E+00  0.72423802692E+00  0.11803976719E+01  0.00000000000E+00 0.  1.
         11    1    3    3    0    0 -0.80527674630E+00 -0.33710964494E+01  0.95033782206E+01  0.10115678908E+02  0.51100000000E-03 0. -1.
        -11    1    3    3    0    0 -0.86829225043E+00 -0.11943649884E+02  0.32349083557E+02  0.34494462037E+02  0.51100000000E-03 0.  1.
         12    1    3    3    0    0  0.25779103582E+01  0.15540544133E+02 -0.42576699804E+02  0.45397461383E+02  0.00000000000E+00 0. -1.
</event>
<event>
 7    1  0.1978681E-015  0.9000769E+02  0.7816164E-02  0.1186339E+00
        -11   -1    0    0    0    0  0.00000000000E+00  0.00000000000E+00  0.45593999997E+02  0.45594000000E+02  0.51100000000E-03 0. -1.
         11   -1    0    0    0    0 -0.00000000000E+00 -0.00000000000E+00 -0.45593999997E+02  0.45594000000E+02  0.51100000000E-03 0.  1.
    9900012    2    1    2    0    0 -0.98365541787E+00  0.11247664562E+00  0.64256625058E+00  0.90007694801E+02  0.89999955572E+02 0.  0.
        -12    1    1    2    0    0  0.98365541787E+00 -0.11247664562E+00 -0.64256625058E+00  0.11803051992E+01  0.00000000000E+00 0.  1.
         11    1    3    3    0    0  0.24336400081E+02 -0.13460904364E+02  0.25114744104E+02  0.37472745922E+02  0.51100000000E-03 0. -1.
        -11    1    3    3    0    0  0.16690630409E+01 -0.83271497421E+01  0.21419607877E+01  0.87587208278E+01  0.51100000000E-03 0.  1.
        -12    1    3    3    0    0 -0.26989118540E+02  0.21900530752E+02 -0.26614138641E+02  0.43776228051E+02  0.00000000000E+00 0.  1.
</event>
<event>
 7    1  0.1978681E-015  0.9000773E+02  0.7816164E-02  0.1186339E+00
        -11   -1    0    0    0    0  0.00000000000E+00  0.00000000000E+00  0.45593999997E+02  0.45594000000E+02  0.51100000000E-03 0.  1.
         11   -1    0    0    0    0 -0.00000000000E+00 -0.00000000000E+00 -0.45593999997E+02  0.45594000000E+02  0.51100000000E-03 0. -1.
    9900012    2    1    2    0    0 -0.53762044002E+00  0.18376431870E+00 -0.10345205734E+01  0.90007729743E+02  0.89999990976E+02 0.  0.
        -12    1    1    2    0    0  0.53762044002E+00 -0.18376431870E+00  0.10345205734E+01  0.11802702568E+01  0.00000000000E+00 0.  1.
         11    1    3    3    0    0 -0.60400357776E+01  0.25613267952E+01  0.60149491848E+01  0.89006764408E+01  0.51100000000E-03 0. -1.
        -11    1    3    3    0    0  0.22609374177E+01 -0.36379486038E+02  0.16098121954E+02  0.39846309404E+02  0.51100000000E-03 0.  1.
         12    1    3    3    0    0  0.32414779199E+01  0.34001923562E+02 -0.23147591712E+02  0.41260743899E+02  0.00000000000E+00 0. -1.
</event>
<event>
 7    1  0.1978681E-015  0.9000782E+02  0.7816164E-02  0.1186339E+00
        -11   -1    0    0    0    0  0.00000000000E+00  0.00000000000E+00  0.45593999997E+02  0.45594000000E+02  0.51100000000E-03 0. -1.
         11   -1    0    0    0    0 -0.00000000000E+00 -0.00000000000E+00 -0.45593999997E+02  0.45594000000E+02  0.51100000000E-03 0.  1.
    9900012    2    1    2    0    0  0.11472356869E+01 -0.19760678276E+00  0.19396623440E+00  0.90007821597E+02  0.90000084042E+02 0.  0.
        -12    1    1    2    0    0 -0.11472356869E+01  0.19760678276E+00 -0.19396623440E+00  0.11801784026E+01  0.00000000000E+00 0.  1.
         11    1    3    3    0    0 -0.21178152721E+02  0.31947196521E+02  0.17067271068E+02  0.41957469659E+02  0.51100000000E-03 0. -1.
        -11    1    3    3    0    0 -0.34484990080E+01 -0.34880364904E+00 -0.36587076033E+01  0.50398364042E+01  0.51100000000E-03 0.  1.
        -12    1    3    3    0    0  0.25773887415E+02 -0.31795999655E+02 -0.13214597230E+02  0.43010515534E+02  0.00000000000E+00 0.  1.
</event>
<event>
 7    1  0.1978681E-015  0.9000690E+02  0.7816164E-02  0.1186341E+00
        -11   -1    0    0    0    0  0.00000000000E+00  0.00000000000E+00  0.45593999997E+02  0.45594000000E+02  0.51100000000E-03 0. -1.
         11   -1    0    0    0    0 -0.00000000000E+00 -0.00000000000E+00 -0.45593999997E+02  0.45594000000E+02  0.51100000000E-03 0.  1.
    9900012    2    1    2    0    0 -0.75856363972E+00  0.23364611192E+00  0.87463477458E+00  0.90006900813E+02  0.89999151100E+02 0.  0.
        -12    1    1    2    0    0  0.75856363972E+00 -0.23364611192E+00 -0.87463477458E+00  0.11810991872E+01  0.00000000000E+00 0.  1.
         11    1    3    3    0    0  0.25074291111E+01  0.18619718093E+02  0.38772149583E+02  0.43084343864E+02  0.51100000000E-03 0. -1.
        -11    1    3    3    0    0  0.53001840758E+01 -0.73427588910E+01 -0.33508939952E+01  0.96559075284E+01  0.51100000000E-03 0.  1.
        -12    1    3    3    0    0 -0.85661768266E+01 -0.11043313090E+02 -0.34546620813E+02  0.37266649421E+02  0.00000000000E+00 0.  1.
</event>
<event>
 7    1  0.1978681E-015  0.9000773E+02  0.7816164E-02  0.1186339E+00
        -11   -1    0    0    0    0  0.00000000000E+00  0.00000000000E+00  0.45593999997E+02  0.45594000000E+02  0.51100000000E-03 0. -1.
         11   -1    0    0    0    0 -0.00000000000E+00 -0.00000000000E+00 -0.45593999997E+02  0.45594000000E+02  0.51100000000E-03 0.  1.
    9900012    2    1    2    0    0 -0.19485326044E+00 -0.49324054189E+00  0.10544091723E+01  0.90007731925E+02  0.89999993187E+02 0.  0.
        -12    1    1    2    0    0  0.19485326044E+00  0.49324054189E+00 -0.10544091723E+01  0.11802680746E+01  0.00000000000E+00 0.  1.
         11    1    3    3    0    0  0.30148772835E+02  0.21028389654E+02  0.20886654778E+02  0.42277582984E+02  0.51100000000E-03 0. -1.
        -11    1    3    3    0    0 -0.13265655215E+02  0.18754080102E+00  0.74281216468E+00  0.13287759405E+02  0.51100000000E-03 0.  1.
        -12    1    3    3    0    0 -0.17077970880E+02 -0.21709170997E+02 -0.20575057770E+02  0.34442389537E+02  0.00000000000E+00 0.  1.
</event>
<event>
 7    1  0.1978681E-015  0.9000758E+02  0.7816164E-02  0.1186339E+00
        -11   -1    0    0    0    0  0.00000000000E+00  0.00000000000E+00  0.45593999997E+02  0.45594000000E+02  0.51100000000E-03 0.  1.
         11   -1    0    0    0    0 -0.00000000000E+00 -0.00000000000E+00 -0.45593999997E+02  0.45594000000E+02  0.51100000000E-03 0. -1.
    9900012    2    1    2    0    0  0.28272052171E+00  0.62489263499E+00  0.96071901564E+00  0.90007575193E+02  0.89999834385E+02 0.  0.
        -12    1    1    2    0    0 -0.28272052171E+00 -0.62489263499E+00 -0.96071901564E+00  0.11804248073E+01  0.00000000000E+00 0.  1.
         11    1    3    3    0    0 -0.35437844326E+01 -0.11509095084E+02  0.47683134804E+01  0.12952007237E+02  0.51100000000E-03 0. -1.
        -11    1    3    3    0    0 -0.23186908678E+02 -0.89527672920E+00  0.25946450288E+02  0.34808799710E+02  0.51100000000E-03 0.  1.
         12    1    3    3    0    0  0.27013413632E+02  0.13029264448E+02 -0.29754044752E+02  0.42246768246E+02  0.00000000000E+00 0. -1.
</event>
<event>
 7    1  0.1978681E-015  0.9000771E+02  0.7816164E-02  0.1186339E+00
        -11   -1    0    0    0    0  0.00000000000E+00  0.00000000000E+00  0.45593999997E+02  0.45594000000E+02  0.51100000000E-03 0. -1.
         11   -1    0    0    0    0 -0.00000000000E+00 -0.00000000000E+00 -0.45593999997E+02  0.45594000000E+02  0.51100000000E-03 0.  1.
    9900012    2    1    2    0    0 -0.56690789444E+00  0.88037676206E+00  0.54464237252E+00  0.90007710579E+02  0.89999971558E+02 0.  0.
        -12    1    1    2    0    0  0.56690789444E+00 -0.88037676206E+00 -0.54464237252E+00  0.11802894212E+01  0.00000000000E+00 0.  1.
         11    1    3    3    0    0  0.30784625414E+02 -0.18439176504E+02  0.17839726107E+02  0.40074333680E+02  0.51100000000E-03 0. -1.
        -11    1    3    3    0    0 -0.77921543225E+01 -0.59694910190E+01  0.24651298201E+01  0.10120738970E+02  0.51100000000E-03 0.  1.
        -12    1    3    3    0    0 -0.23559378986E+02  0.25289044285E+02 -0.19760213555E+02  0.39812637928E+02  0.00000000000E+00 0.  1.
</event>
<event>
 7    1  0.1978681E-015  0.9000761E+02  0.7816164E-02  0.1186339E+00
        -11   -1    0    0    0    0  0.00000000000E+00  0.00000000000E+00  0.45593999997E+02  0.45594000000E+02  0.51100000000E-03 0. -1.
         11   -1    0    0    0    0 -0.00000000000E+00 -0.00000000000E+00 -0.45593999997E+02  0.45594000000E+02  0.51100000000E-03 0.  1.
    9900012    2    1    2    0    0 -0.96432766658E+00 -0.67604626249E+00  0.79744708403E-01  0.90007607855E+02  0.89999867479E+02 0.  0.
        -12    1    1    2    0    0  0.96432766658E+00  0.67604626249E+00 -0.79744708403E-01  0.11803921450E+01  0.00000000000E+00 0.  1.
         11    1    3    3    0    0 -0.35532272371E+02  0.20517679689E+02 -0.15092153628E+02  0.43718310364E+02  0.51100000000E-03 0. -1.
        -11    1    3    3    0    0  0.17634188277E+01 -0.59353314006E+01 -0.16240691457E+01  0.64012034530E+01  0.51100000000E-03 0.  1.
        -12    1    3    3    0    0  0.32804525877E+02 -0.15258394551E+02  0.16795967483E+02  0.39888094038E+02  0.00000000000E+00 0.  1.
</event>
<event>
 7    1  0.1978681E-015  0.9000785E+02  0.7816164E-02  0.1186339E+00
        -11   -1    0    0    0    0  0.00000000000E+00  0.00000000000E+00  0.45593999997E+02  0.45594000000E+02  0.51100000000E-03 0. -1.
         11   -1    0    0    0    0 -0.00000000000E+00 -0.00000000000E+00 -0.45593999997E+02  0.45594000000E+02  0.51100000000E-03 0.  1.
    9900012    2    1    2    0    0 -0.81782554545E+00 -0.49559282962E+00  0.69159156602E+00  0.90007851802E+02  0.90000114646E+02 0.  0.
        -12    1    1    2    0    0  0.81782554545E+00  0.49559282962E+00 -0.69159156602E+00  0.11801481982E+01  0.00000000000E+00 0.  1.
         11    1    3    3    0    0  0.44030622316E+01 -0.71364201397E+00  0.37965765118E+02  0.38226895809E+02  0.51100000000E-03 0. -1.
        -11    1    3    3    0    0  0.98161427188E+01 -0.10834958554E+01  0.16684712971E+01  0.10015708556E+02  0.51100000000E-03 0.  1.
        -12    1    3    3    0    0 -0.15037030496E+02  0.13015450397E+01 -0.38942644849E+02  0.41765247437E+02  0.00000000000E+00 0.  1.
</event>
<event>
 7    1  0.1978681E-015  0.9000783E+02  0.7816164E-02  0.1186339E+00
        -11   -1    0    0    0    0  0.00000000000E+00  0.00000000000E+00  0.45593999997E+02  0.45594000000E+02  0.51100000000E-03 0. -1.
         11   -1    0    0    0    0 -0.00000000000E+00 -0.00000000000E+00 -0.45593999997E+02  0.45594000000E+02  0.51100000000E-03 0.  1.
    9900012    2    1    2    0    0 -0.15120672491E+00 -0.84319706354E+00  0.81176647073E+00  0.90007826468E+02  0.90000088978E+02 0.  0.
        -12    1    1    2    0    0  0.15120672491E+00  0.84319706354E+00 -0.81176647073E+00  0.11801735316E+01  0.00000000000E+00 0.  1.
         11    1    3    3    0    0  0.93754398564E+01  0.14814659241E+02  0.37075960314E+02  0.41012191289E+02  0.51100000000E-03 0. -1.
        -11    1    3    3    0    0 -0.78375053410E+01 -0.38818762329E+01  0.19598771427E+01  0.89630670941E+01  0.51100000000E-03 0.  1.
        -12    1    3    3    0    0 -0.16891412403E+01 -0.11775980072E+02 -0.38224070985E+02  0.40032568085E+02  0.00000000000E+00 0.  1.
</event>
<event>
 7    1  0.1978681E-015  0.9000780E+02  0.7816164E-02  0.1186339E+00
        -11   -1    0    0    0    0  0.00000000000E+00  0.00000000000E+00  0.45593999997E+02  0.45594000000E+02  0.51100000000E-03 0.  1.
         11   -1    0    0    0    0 -0.00000000000E+00 -0.00000000000E+00 -0.45593999997E+02  0.45594000000E+02  0.51100000000E-03 0. -1.
    9900012    2    1    2    0    0  0.23679064024E+00  0.97640670663E+00  0.61922353479E+00  0.90007797623E+02  0.90000059752E+02 0.  0.
        -12    1    1    2    0    0 -0.23679064024E+00 -0.97640670663E+00 -0.61922353479E+00  0.11802023768E+01  0.00000000000E+00 0.  1.
         11    1    3    3    0    0  0.17859298627E+02  0.14488034735E+02  0.30638733529E+01  0.23200108149E+02  0.51100000000E-03 0. -1.
        -11    1    3    3    0    0 -0.17896488696E+02  0.23534037945E+02  0.11417799552E+01  0.29587816942E+02  0.51100000000E-03 0.  1.
         12    1    3    3    0    0  0.27398070894E+00 -0.37045665974E+02 -0.35864297732E+01  0.37219872533E+02  0.00000000000E+00 0. -1.
</event>
<event>
 7    1  0.1978681E-015  0.9000785E+02  0.7816164E-02  0.1186339E+00
        -11   -1    0    0    0    0  0.00000000000E+00  0.00000000000E+00  0.45593999997E+02  0.45594000000E+02  0.51100000000E-03 0. -1.
         11   -1    0    0    0    0 -0.00000000000E+00 -0.00000000000E+00 -0.45593999997E+02  0.45594000000E+02  0.51100000000E-03 0.  1.
    9900012    2    1    2    0    0  0.50386273864E+00 -0.88610347684E+00  0.59472109303E+00  0.90007851615E+02  0.90000114457E+02 0.  0.
        -12    1    1    2    0    0 -0.50386273864E+00  0.88610347684E+00 -0.59472109303E+00  0.11801483846E+01  0.00000000000E+00 0.  1.
         11    1    3    3    0    0  0.54390098736E+01  0.16348967332E+01  0.97566421329E+01  0.11289277289E+02  0.51100000000E-03 0. -1.
        -11    1    3    3    0    0 -0.22408537603E+02  0.26329292924E+02 -0.23775093061E+02  0.41959853118E+02  0.51100000000E-03 0.  1.
         12    1    3    3    0    0  0.17473390468E+02 -0.28850293134E+02  0.14613172022E+02  0.36758721208E+02  0.00000000000E+00 0. -1.
</event>
<event>
 7    1  0.1978681E-015  0.9000775E+02  0.7816164E-02  0.1186339E+00
        -11   -1    0    0    0    0  0.00000000000E+00  0.00000000000E+00  0.45593999997E+02  0.45594000000E+02  0.51100000000E-03 0.  1.
         11   -1    0    0    0    0 -0.00000000000E+00 -0.00000000000E+00 -0.45593999997E+02  0.45594000000E+02  0.51100000000E-03 0. -1.
    9900012    2    1    2    0    0 -0.18940472152E+00  0.10705695440E+01 -0.45935247050E+00  0.90007746642E+02  0.90000008098E+02 0.  0.
        -12    1    1    2    0    0  0.18940472152E+00 -0.10705695440E+01  0.45935247050E+00  0.11802533581E+01  0.00000000000E+00 0.  1.
         11    1    3    3    0    0  0.90890764933E+01 -0.12374975071E+00 -0.33931743457E+01  0.97025902677E+01  0.51100000000E-03 0. -1.
        -11    1    3    3    0    0 -0.41630826466E+01 -0.21758274350E+02 -0.31559554646E+02  0.38558517211E+02  0.51100000000E-03 0.  1.
         12    1    3    3    0    0 -0.51153985683E+01  0.22952593645E+02  0.34493376521E+02  0.41746639163E+02  0.00000000000E+00 0. -1.
</event>
<event>
 7    1  0.1978681E-015  0.9000770E+02  0.7816164E-02  0.1186339E+00
        -11   -1    0    0    0    0  0.00000000000E+00  0.00000000000E+00  0.45593999997E+02  0.45594000000E+02  0.51100000000E-03 0.  1.
         11   -1    0    0    0    0 -0.00000000000E+00 -0.00000000000E+00 -0.45593999997E+02  0.45594000000E+02  0.51100000000E-03 0. -1.
    9900012    2    1    2    0    0  0.10208598981E+00 -0.11493084209E+01 -0.24856071810E+00  0.90007697570E+02  0.89999958378E+02 0.  0.
        -12    1    1    2    0    0 -0.10208598981E+00  0.11493084209E+01  0.24856071810E+00  0.11803024300E+01  0.00000000000E+00 0.  1.
         11    1    3    3    0    0 -0.88032944306E+01  0.67731888238E+00  0.50894837135E+01  0.10191152949E+02  0.51100000000E-03 0. -1.
        -11    1    3    3    0    0  0.29624085944E+01 -0.88042339612E+01  0.36151913427E+02  0.37326280890E+02  0.51100000000E-03 0.  1.
         12    1    3    3    0    0  0.59429718260E+01  0.69776066579E+01 -0.41489957859E+02  0.42490263731E+02  0.00000000000E+00 0. -1.
</event>
<event>
 7    1  0.1978681E-015  0.9000781E+02  0.7816164E-02  0.1186339E+00
        -11   -1    0    0    0    0  0.00000000000E+00  0.00000000000E+00  0.45593999997E+02  0.45594000000E+02  0.51100000000E-03 0.  1.
         11   -1    0    0    0    0 -0.00000000000E+00 -0.00000000000E+00 -0.45593999997E+02  0.45594000000E+02  0.51100000000E-03 0. -1.
    9900012    2    1    2    0    0  0.62205244299E-02 -0.92339543266E+00 -0.73495545118E+00  0.90007806230E+02  0.90000068472E+02 0.  0.
        -12    1    1    2    0    0 -0.62205244299E-02  0.92339543266E+00  0.73495545118E+00  0.11801937702E+01  0.00000000000E+00 0.  1.
         11    1    3    3    0    0 -0.13671294743E+02 -0.29432102483E+02 -0.18177811331E+02  0.37196582929E+02  0.51100000000E-03 0. -1.
        -11    1    3    3    0    0  0.12885688404E+01 -0.91126289699E+01  0.77549267999E+01  0.12034920288E+02  0.51100000000E-03 0.  1.
        -12    1    3    3    0    0  0.12388946428E+02  0.37621336021E+02  0.96879290795E+01  0.40776303013E+02  0.00000000000E+00 0.  1.
</event>
<event>
 7    1  0.1978681E-015  0.9000770E+02  0.7816164E-02  0.1186339E+00
        -11   -1    0    0    0    0  0.00000000000E+00  0.00000000000E+00  0.45593999997E+02  0.45594000000E+02  0.51100000000E-03 0.  1.
         11   -1    0    0    0    0 -0.00000000000E+00 -0.00000000000E+00 -0.45593999997E+02  0.45594000000E+02  0.51100000000E-03 0. -1.
    9900012    2    1    2    0    0  0.76179395914E+00  0.74209170402E+00 -0.51194602359E+00  0.90007695436E+02  0.89999956215E+02 0.  0.
        -12    1    1    2    0    0 -0.76179395914E+00 -0.74209170402E+00  0.51194602359E+00  0.11803045643E+01  0.00000000000E+00 0.  1.
         11    1    3    3    0    0 -0.26361150097E+02 -0.26509834468E+02  0.98360689305E+01  0.38657855738E+02  0.51100000000E-03 0. -1.
        -11    1    3    3    0    0 -0.75560505305E+01  0.43149039984E+01 -0.22978185497E+01  0.89995703499E+01  0.51100000000E-03 0.  1.
        -12    1    3    3    0    0  0.34678994586E+02  0.22937022174E+02 -0.80501964044E+01  0.42350269348E+02  0.00000000000E+00 0.  1.
</event>
<event>
 7    1  0.1978681E-015  0.9000773E+02  0.7816164E-02  0.1186339E+00
        -11   -1    0    0    0    0  0.00000000000E+00  0.00000000000E+00  0.45593999997E+02  0.45594000000E+02  0.51100000000E-03 0. -1.
         11   -1    0    0    0    0 -0.00000000000E+00 -0.00000000000E+00 -0.45593999997E+02  0.45594000000E+02  0.51100000000E-03 0.  1.
    9900012    2    1    2    0    0 -0.10640665821E+01  0.44958875599E+00 -0.24223573894E+00  0.90007726348E+02  0.89999987536E+02 0.  0.
        -12    1    1    2    0    0  0.10640665821E+01 -0.44958875599E+00  0.24223573894E+00  0.11802736521E+01  0.00000000000E+00 0.  1.
         11    1    3    3    0    0 -0.35468190985E+02 -0.28473491827E+01 -0.57433687938E+01  0.36042839157E+02  0.51100000000E-03 0. -1.
        -11    1    3    3    0    0 -0.66914726706E+01 -0.25552592751E+01 -0.75930921314E+01  0.10438400492E+02  0.51100000000E-03 0.  1.
        -12    1    3    3    0    0  0.41095597074E+02  0.58521972137E+01  0.13094225186E+02  0.43526486698E+02  0.00000000000E+00 0.  1.
</event>
<event>
 7    1  0.1978681E-015  0.9000775E+02  0.7816164E-02  0.1186339E+00
        -11   -1    0    0    0    0  0.00000000000E+00  0.00000000000E+00  0.45593999997E+02  0.45594000000E+02  0.51100000000E-03 0.  1.
         11   -1    0    0    0    0 -0.00000000000E+00 -0.00000000000E+00 -0.45593999997E+02  0.45594000000E+02  0.51100000000E-03 0. -1.
    9900012    2    1    2    0    0  0.64943268165E+00 -0.77813117995E+00 -0.60477007064E+00  0.90007746731E+02  0.90000008188E+02 0.  0.
        -12    1    1    2    0    0 -0.64943268165E+00  0.77813117995E+00  0.60477007064E+00  0.11802532692E+01  0.00000000000E+00 0.  1.
         11    1    3    3    0    0 -0.25531206545E+02  0.28121349287E+02 -0.12022864411E+02  0.39839704596E+02  0.51100000000E-03 0. -1.
        -11    1    3    3    0    0  0.15237812759E+01  0.35100432292E+01  0.85229816238E+01  0.93425654329E+01  0.51100000000E-03 0.  1.
        -12    1    3    3    0    0  0.24656857951E+02 -0.32409523697E+02  0.28951127170E+01  0.40825476702E+02  0.00000000000E+00 0.  1.
</event>
<event>
 7    1  0.1978681E-015  0.9000767E+02  0.7816164E-02  0.1186339E+00
        -11   -1    0    0    0    0  0.00000000000E+00  0.00000000000E+00  0.45593999997E+02  0.45594000000E+02  0.51100000000E-03 0. -1.
         11   -1    0    0    0    0 -0.00000000000E+00 -0.00000000000E+00 -0.45593999997E+02  0.45594000000E+02  0.51100000000E-03 0.  1.
    9900012    2    1    2    0    0 -0.18791128410E+00 -0.10834514613E+00  0.11602278146E+01  0.90007670426E+02  0.89999930876E+02 0.  0.
        -12    1    1    2    0    0  0.18791128410E+00  0.10834514613E+00 -0.11602278146E+01  0.11803295739E+01  0.00000000000E+00 0.  1.
         11    1    3    3    0    0  0.47941779132E+01 -0.63558852609E+01 -0.10604573492E+02  0.13260407177E+02  0.51100000000E-03 0. -1.
        -11    1    3    3    0    0  0.17814039926E+02 -0.25468415277E+02 -0.92061773952E+01  0.32415025801E+02  0.51100000000E-03 0.  1.
         12    1    3    3    0    0 -0.22796129123E+02  0.31715955392E+02  0.20970978701E+02  0.44332237447E+02  0.00000000000E+00 0. -1.
</event>
<event>
 7    1  0.1978681E-015  0.9000776E+02  0.7816164E-02  0.1186339E+00
        -11   -1    0    0    0    0  0.00000000000E+00  0.00000000000E+00  0.45593999997E+02  0.45594000000E+02  0.51100000000E-03 0. -1.
         11   -1    0    0    0    0 -0.00000000000E+00 -0.00000000000E+00 -0.45593999997E+02  0.45594000000E+02  0.51100000000E-03 0.  1.
    9900012    2    1    2    0    0 -0.49187045486E+00  0.94377397587E+00  0.51021483737E+00  0.90007760600E+02  0.90000022240E+02 0.  0.
        -12    1    1    2    0    0  0.49187045486E+00 -0.94377397587E+00 -0.51021483737E+00  0.11802394004E+01  0.00000000000E+00 0.  1.
         11    1    3    3    0    0 -0.74212378667E+01 -0.59632042937E+01  0.27421887975E+01  0.99072789698E+01  0.51100000000E-03 0. -1.
        -11    1    3    3    0    0 -0.13580539725E+02  0.39381320094E+02 -0.15284731871E+01  0.41685197158E+02  0.51100000000E-03 0.  1.
         12    1    3    3    0    0  0.20509907137E+02 -0.32474341824E+02 -0.70350077295E+00  0.38415284472E+02  0.00000000000E+00 0. -1.
</event>
<event>
 7    1  0.1978681E-015  0.9000779E+02  0.7816164E-02  0.1186339E+00
        -11   -1    0    0    0    0  0.00000000000E+00  0.00000000000E+00  0.45593999997E+02  0.45594000000E+02  0.51100000000E-03 0.  1.
         11   -1    0    0    0    0 -0.00000000000E+00 -0.00000000000E+00 -0.45593999997E+02  0.45594000000E+02  0.51100000000E-03 0. -1.
    9900012    2    1    2    0    0 -0.21519542004E+00 -0.10774097148E+01 -0.43101824937E+00  0.90007789216E+02  0.90000051234E+02 0.  0.
        -12    1    1    2    0    0  0.21519542004E+00  0.10774097148E+01  0.43101824937E+00  0.11802107836E+01  0.00000000000E+00 0.  1.
         11    1    3    3    0    0 -0.24034993001E+02 -0.71773529090E+01 -0.24796570595E+02  0.35271308409E+02  0.51100000000E-03 0. -1.
        -11    1    3    3    0    0 -0.12073145422E+02  0.60450797219E+00  0.24808478558E+01  0.12340213799E+02  0.51100000000E-03 0.  1.
        -12    1    3    3    0    0  0.35892943003E+02  0.54954352220E+01  0.21884704490E+02  0.42396267009E+02  0.00000000000E+00 0.  1.
</event>
<event>
 7    1  0.1978681E-015  0.9000799E+02  0.7816164E-02  0.1186339E+00
        -11   -1    0    0    0    0  0.00000000000E+00  0.00000000000E+00  0.45593999997E+02  0.45594000000E+02  0.51100000000E-03 0.  1.
         11   -1    0    0    0    0 -0.00000000000E+00 -0.00000000000E+00 -0.45593999997E+02  0.45594000000E+02  0.51100000000E-03 0. -1.
    9900012    2    1    2    0    0  0.11133088277E+01  0.12953854683E+00 -0.36904733445E+00  0.90007986137E+02  0.90000250754E+02 0.  0.
        -12    1    1    2    0    0 -0.11133088277E+01 -0.12953854683E+00  0.36904733445E+00  0.11800138626E+01  0.00000000000E+00 0.  1.
         11    1    3    3    0    0  0.22977730018E+01  0.40081397888E+02  0.31654290940E+01  0.40271803524E+02  0.51100000000E-03 0. -1.
        -11    1    3    3    0    0 -0.36971783981E+01 -0.22647930292E+00 -0.88349843648E+01  0.95800506246E+01  0.51100000000E-03 0.  1.
        -12    1    3    3    0    0  0.25127142239E+01 -0.39725380038E+02  0.53005079364E+01  0.40156131989E+02  0.00000000000E+00 0.  1.
</event>
<event>
 7    1  0.1978681E-015  0.9000736E+02  0.7816164E-02  0.1186340E+00
        -11   -1    0    0    0    0  0.00000000000E+00  0.00000000000E+00  0.45593999997E+02  0.45594000000E+02  0.51100000000E-03 0.  1.
         11   -1    0    0    0    0 -0.00000000000E+00 -0.00000000000E+00 -0.45593999997E+02  0.45594000000E+02  0.51100000000E-03 0. -1.
    9900012    2    1    2    0    0 -0.82055279842E+00 -0.37531167140E+00 -0.76140563936E+00  0.90007362760E+02  0.89999619147E+02 0.  0.
        -12    1    1    2    0    0  0.82055279842E+00  0.37531167140E+00  0.76140563936E+00  0.11806372404E+01  0.00000000000E+00 0.  1.
         11    1    3    3    0    0 -0.49192709983E+01  0.69518633460E+01  0.31184744990E+01  0.90693172068E+01  0.51100000000E-03 0. -1.
        -11    1    3    3    0    0  0.20812738449E+02 -0.36142936619E+02  0.12875535949E+02  0.43649299827E+02  0.51100000000E-03 0.  1.
         12    1    3    3    0    0 -0.16714020249E+02  0.28815761601E+02 -0.16755416087E+02  0.37288745726E+02  0.00000000000E+00 0. -1.
</event>
<event>
 7    1  0.1978681E-015  0.9000769E+02  0.7816164E-02  0.1186339E+00
        -11   -1    0    0    0    0  0.00000000000E+00  0.00000000000E+00  0.45593999997E+02  0.45594000000E+02  0.51100000000E-03 0.  1.
         11   -1    0    0    0    0 -0.00000000000E+00 -0.00000000000E+00 -0.45593999997E+02  0.45594000000E+02  0.51100000000E-03 0. -1.
    9900012    2    1    2    0    0 -0.53368363157E+00  0.84387785769E+00 -0.62943417679E+00  0.90007688414E+02  0.89999949101E+02 0.  0.
        -12    1    1    2    0    0  0.53368363157E+00 -0.84387785769E+00  0.62943417679E+00  0.11803115861E+01  0.00000000000E+00 0.  1.
         11    1    3    3    0    0  0.53718817219E+01 -0.27696185355E+01 -0.10924294994E+01  0.61417670534E+01  0.51100000000E-03 0. -1.
        -11    1    3    3    0    0  0.15959318719E+02 -0.28332750994E+02 -0.21855927656E+02  0.39180686656E+02  0.51100000000E-03 0.  1.
         12    1    3    3    0    0 -0.21864884072E+02  0.31946247388E+02  0.22318922979E+02  0.44685234704E+02  0.00000000000E+00 0. -1.
</event>
<event>
 7    1  0.1978681E-015  0.9000778E+02  0.7816164E-02  0.1186339E+00
        -11   -1    0    0    0    0  0.00000000000E+00  0.00000000000E+00  0.45593999997E+02  0.45594000000E+02  0.51100000000E-03 0.  1.
         11   -1    0    0    0    0 -0.00000000000E+00 -0.00000000000E+00 -0.45593999997E+02  0.45594000000E+02  0.51100000000E-03 0. -1.
    9900012    2    1    2    0    0 -0.90096273121E+00  0.35865541084E+00 -0.67272298412E+00  0.90007778089E+02  0.90000039959E+02 0.  0.
        -12    1    1    2    0    0  0.90096273121E+00 -0.35865541084E+00  0.67272298412E+00  0.11802219114E+01  0.00000000000E+00 0.  1.
         11    1    3    3    0    0 -0.15336195848E+01  0.11529383776E+02 -0.40431046750E+02  0.42070752559E+02  0.51100000000E-03 0. -1.
        -11    1    3    3    0    0 -0.25718248303E+01 -0.65513446245E+01 -0.71573472393E+00  0.70743675196E+01  0.51100000000E-03 0.  1.
        -12    1    3    3    0    0  0.32044816839E+01 -0.46193837406E+01  0.40474058490E+02  0.40862658010E+02  0.00000000000E+00 0.  1.
</event>
<event>
 7    1  0.1978681E-015  0.9000770E+02  0.7816164E-02  0.1186339E+00
        -11   -1    0    0    0    0  0.00000000000E+00  0.00000000000E+00  0.45593999997E+02  0.45594000000E+02  0.51100000000E-03 0.  1.
         11   -1    0    0    0    0 -0.00000000000E+00 -0.00000000000E+00 -0.45593999997E+02  0.45594000000E+02  0.51100000000E-03 0. -1.
    9900012    2    1    2    0    0 -0.10759583399E+01  0.45719168627E+00  0.16247343741E+00  0.90007699951E+02  0.89999960791E+02 0.  0.
        -12    1    1    2    0    0  0.10759583399E+01 -0.45719168627E+00 -0.16247343741E+00  0.11803000487E+01  0.00000000000E+00 0.  1.
         11    1    3    3    0    0  0.83186403751E+01 -0.53380833694E+01 -0.17611781797E+01  0.10039754010E+02  0.51100000000E-03 0. -1.
        -11    1    3    3    0    0  0.62046255110E+01  0.44116824517E+01  0.38991464383E+02  0.39727756227E+02  0.51100000000E-03 0.  1.
         12    1    3    3    0    0 -0.15599224226E+02  0.13835926040E+01 -0.37067812766E+02  0.40240189714E+02  0.00000000000E+00 0. -1.
</event>
<event>
 7    1  0.1978681E-015  0.9000765E+02  0.7816164E-02  0.1186339E+00
        -11   -1    0    0    0    0  0.00000000000E+00  0.00000000000E+00  0.45593999997E+02  0.45594000000E+02  0.51100000000E-03 0. -1.
         11   -1    0    0    0    0 -0.00000000000E+00 -0.00000000000E+00 -0.45593999997E+02  0.45594000000E+02  0.51100000000E-03 0.  1.
    9900012    2    1    2    0    0 -0.62858314711E+00  0.40072552212E+00  0.91517012791E+00  0.90007646629E+02  0.89999906765E+02 0.  0.
        -12    1    1    2    0    0  0.62858314711E+00 -0.40072552212E+00 -0.91517012791E+00  0.11803533708E+01  0.00000000000E+00 0.  1.
         11    1    3    3    0    0 -0.33872343565E+02  0.19781574886E+02  0.17390802171E+01  0.39264115472E+02  0.51100000000E-03 0. -1.
        -11    1    3    3    0    0 -0.57844446322E+01 -0.80197588082E+01 -0.19550378944E+01  0.10079608349E+02  0.51100000000E-03 0.  1.
        -12    1    3    3    0    0  0.39028205050E+02 -0.11361090556E+02  0.11311278052E+01  0.40663922808E+02  0.00000000000E+00 0.  1.
</event>
<event>
 7    1  0.1978681E-015  0.9000809E+02  0.7816164E-02  0.1186338E+00
        -11   -1    0    0    0    0  0.00000000000E+00  0.00000000000E+00  0.45593999997E+02  0.45594000000E+02  0.51100000000E-03 0. -1.
         11   -1    0    0    0    0 -0.00000000000E+00 -0.00000000000E+00 -0.45593999997E+02  0.45594000000E+02  0.51100000000E-03 0.  1.
    9900012    2    1    2    0    0  0.76042045642E+00  0.69624933590E-01  0.89949864878E+00  0.90008091223E+02  0.90000357227E+02 0.  0.
        -12    1    1    2    0    0 -0.76042045642E+00 -0.69624933590E-01 -0.89949864878E+00  0.11799087766E+01  0.00000000000E+00 0.  1.
         11    1    3    3    0    0 -0.94810521689E+00  0.79482768388E+01  0.20833038755E+01  0.82712854809E+01  0.51100000000E-03 0. -1.
        -11    1    3    3    0    0 -0.63988712586E+00 -0.53487788159E+01 -0.41210728775E+02  0.41561316831E+02  0.51100000000E-03 0.  1.
         12    1    3    3    0    0  0.23484127992E+01 -0.25298730893E+01  0.40026923548E+02  0.40175488911E+02  0.00000000000E+00 0. -1.
</event>
<event>
 7    1  0.1978681E-015  0.9000774E+02  0.7816164E-02  0.1186339E+00
        -11   -1    0    0    0    0  0.00000000000E+00  0.00000000000E+00  0.45593999997E+02  0.45594000000E+02  0.51100000000E-03 0. -1.
         11   -1    0    0    0    0 -0.00000000000E+00 -0.00000000000E+00 -0.45593999997E+02  0.45594000000E+02  0.51100000000E-03 0.  1.
    9900012    2    1    2    0    0  0.16937728935E+00 -0.56828306274E+00  0.10204854377E+01  0.90007735269E+02  0.89999996575E+02 0.  0.
        -12    1    1    2    0    0 -0.16937728935E+00  0.56828306274E+00 -0.10204854377E+01  0.11802647305E+01  0.00000000000E+00 0.  1.
         11    1    3    3    0    0 -0.51046247152E+01  0.97204230187E+01  0.42306534352E-01  0.10979326357E+02  0.51100000000E-03 0. -1.
        -11    1    3    3    0    0  0.68003037649E+01 -0.12946874074E+01 -0.38189779825E+02  0.38812106747E+02  0.51100000000E-03 0.  1.
         12    1    3    3    0    0 -0.15263017603E+01 -0.89940186740E+01  0.39167958728E+02  0.40216302166E+02  0.00000000000E+00 0. -1.
</event>
<event>
 7    1  0.1978681E-015  0.9000779E+02  0.7816164E-02  0.1186339E+00
        -11   -1    0    0    0    0  0.00000000000E+00  0.00000000000E+00  0.45593999997E+02  0.45594000000E+02  0.51100000000E-03 0. -1.
         11   -1    0    0    0    0 -0.00000000000E+00 -0.00000000000E+00 -0.45593999997E+02  0.45594000000E+02  0.51100000000E-03 0.  1.
    9900012    2    1    2    0    0  0.23853082066E+00 -0.17851376642E+00  0.11419853209E+01  0.90007790446E+02  0.90000052480E+02 0.  0.
        -12    1    1    2    0    0 -0.23853082066E+00  0.17851376642E+00 -0.11419853209E+01  0.11802095536E+01  0.00000000000E+00 0.  1.
         11    1    3    3    0    0  0.26314942942E+01  0.78786542271E+01 -0.23160278834E+01  0.86233369450E+01  0.51100000000E-03 0. -1.
        -11    1    3    3    0    0  0.27483074092E+02  0.14229517824E+02 -0.20457593156E+02  0.37098674600E+02  0.51100000000E-03 0.  1.
         12    1    3    3    0    0 -0.29876037566E+02 -0.22286685817E+02  0.23915606360E+02  0.44285778902E+02  0.00000000000E+00 0. -1.
</event>
<event>
 7    1  0.1978681E-015  0.9000774E+02  0.7816164E-02  0.1186339E+00
        -11   -1    0    0    0    0  0.00000000000E+00  0.00000000000E+00  0.45593999997E+02  0.45594000000E+02  0.51100000000E-03 0. -1.
         11   -1    0    0    0    0 -0.00000000000E+00 -0.00000000000E+00 -0.45593999997E+02  0.45594000000E+02  0.51100000000E-03 0.  1.
    9900012    2    1    2    0    0 -0.10261057553E+01  0.51097079892E+00  0.28113303797E+00  0.90007737333E+02  0.89999998666E+02 0.  0.
        -12    1    1    2    0    0  0.10261057553E+01 -0.51097079892E+00 -0.28113303797E+00  0.11802626671E+01  0.00000000000E+00 0.  1.
         11    1    3    3    0    0  0.25017981022E+00  0.63334988427E+01 -0.10830727364E+02  0.12549121604E+02  0.51100000000E-03 0. -1.
        -11    1    3    3    0    0 -0.15689163608E+02 -0.35413681797E+02 -0.77809748893E+01  0.39507243432E+02  0.51100000000E-03 0.  1.
         12    1    3    3    0    0  0.14412878042E+02  0.29591153753E+02  0.18892835292E+02  0.37951372297E+02  0.00000000000E+00 0. -1.
</event>
<event>
 7    1  0.1978681E-015  0.9000775E+02  0.7816164E-02  0.1186339E+00
        -11   -1    0    0    0    0  0.00000000000E+00  0.00000000000E+00  0.45593999997E+02  0.45594000000E+02  0.51100000000E-03 0. -1.
         11   -1    0    0    0    0 -0.00000000000E+00 -0.00000000000E+00 -0.45593999997E+02  0.45594000000E+02  0.51100000000E-03 0.  1.
    9900012    2    1    2    0    0  0.11471834816E+01  0.21890486359E+00 -0.17044444057E+00  0.90007745541E+02  0.90000006983E+02 0.  0.
        -12    1    1    2    0    0 -0.11471834816E+01 -0.21890486359E+00  0.17044444057E+00  0.11802544586E+01  0.00000000000E+00 0.  1.
         11    1    3    3    0    0  0.22833954931E+02  0.29456656047E+02  0.44594926755E+01  0.37536264577E+02  0.51100000000E-03 0. -1.
        -11    1    3    3    0    0  0.34822424573E+01  0.63058423383E+01 -0.52514979379E+01  0.89144764838E+01  0.51100000000E-03 0.  1.
        -12    1    3    3    0    0 -0.25169013906E+02 -0.35543593522E+02  0.62156082181E+00  0.43557004480E+02  0.00000000000E+00 0.  1.
</event>
<event>
 7    1  0.1978681E-015  0.9000776E+02  0.7816164E-02  0.1186339E+00
        -11   -1    0    0    0    0  0.00000000000E+00  0.00000000000E+00  0.45593999997E+02  0.45594000000E+02  0.51100000000E-03 0.  1.
         11   -1    0    0    0    0 -0.00000000000E+00 -0.00000000000E+00 -0.45593999997E+02  0.45594000000E+02  0.51100000000E-03 0. -1.
    9900012    2    1    2    0    0  0.35799283922E+00  0.10579666781E+01 -0.38145300513E+00  0.90007763261E+02  0.90000024936E+02 0.  0.
        -12    1    1    2    0    0 -0.35799283922E+00 -0.10579666781E+01  0.38145300513E+00  0.11802367389E+01  0.00000000000E+00 0.  1.
         11    1    3    3    0    0  0.33606712879E+02 -0.43681448085E+01 -0.48546760711E+01  0.34235357741E+02  0.51100000000E-03 0. -1.
        -11    1    3    3    0    0  0.82747058843E+01 -0.79064358430E+01 -0.21974810732E+01  0.11653815192E+02  0.51100000000E-03 0.  1.
        -12    1    3    3    0    0 -0.41523425925E+02  0.13332547329E+02  0.66707041391E+01  0.44118590328E+02  0.00000000000E+00 0.  1.
</event>
<event>
 7    1  0.1978681E-015  0.9000747E+02  0.7816164E-02  0.1186340E+00
        -11   -1    0    0    0    0  0.00000000000E+00  0.00000000000E+00  0.45593999997E+02  0.45594000000E+02  0.51100000000E-03 0.  1.
         11   -1    0    0    0    0 -0.00000000000E+00 -0.00000000000E+00 -0.45593999997E+02  0.45594000000E+02  0.51100000000E-03 0. -1.
    9900012    2    1    2    0    0  0.75070930434E+00  0.90584900651E+00 -0.97615996656E-01  0.90007468016E+02  0.89999725793E+02 0.  0.
        -12    1    1    2    0    0 -0.75070930434E+00 -0.90584900651E+00  0.97615996656E-01  0.11805319839E+01  0.00000000000E+00 0.  1.
         11    1    3    3    0    0 -0.71047228646E+01 -0.57581935193E+01  0.12246097927E+01  0.92267843258E+01  0.51100000000E-03 0. -1.
        -11    1    3    3    0    0 -0.23699760926E+02 -0.88656375810E+01  0.25973452250E+02  0.36261528093E+02  0.51100000000E-03 0.  1.
         12    1    3    3    0    0  0.31555193095E+02  0.15529680107E+02 -0.27295678039E+02  0.44519155597E+02  0.00000000000E+00 0. -1.
</event>
<event>
 7    1  0.1978681E-015  0.9000766E+02  0.7816164E-02  0.1186339E+00
        -11   -1    0    0    0    0  0.00000000000E+00  0.00000000000E+00  0.45593999997E+02  0.45594000000E+02  0.51100000000E-03 0.  1.
         11   -1    0    0    0    0 -0.00000000000E+00 -0.00000000000E+00 -0.45593999997E+02  0.45594000000E+02  0.51100000000E-03 0. -1.
    9900012    2    1    2    0    0 -0.56587910849E+00 -0.63682078271E+00 -0.81697235129E+00  0.90007659499E+02  0.89999919805E+02 0.  0.
        -12    1    1    2    0    0  0.56587910849E+00  0.63682078271E+00  0.81697235129E+00  0.11803405007E+01  0.00000000000E+00 0.  1.
         11    1    3    3    0    0  0.18453628726E+01 -0.89331785109E+01 -0.47012748740E+00  0.91338963512E+01  0.51100000000E-03 0. -1.
        -11    1    3    3    0    0  0.20631749970E+02 -0.79994815668E+01  0.31388349093E+02  0.38404287146E+02  0.51100000000E-03 0.  1.
         12    1    3    3    0    0 -0.23042991951E+02  0.16295839295E+02 -0.31735193957E+02  0.42469476002E+02  0.00000000000E+00 0. -1.
</event>
<event>
 7    1  0.1978681E-015  0.9000767E+02  0.7816164E-02  0.1186339E+00
        -11   -1    0    0    0    0  0.00000000000E+00  0.00000000000E+00  0.45593999997E+02  0.45594000000E+02  0.51100000000E-03 0.  1.
         11   -1    0    0    0    0 -0.00000000000E+00 -0.00000000000E+00 -0.45593999997E+02  0.45594000000E+02  0.51100000000E-03 0. -1.
    9900012    2    1    2    0    0  0.89099213408E+00  0.77402896219E+00  0.13464611410E-01  0.90007674150E+02  0.89999934648E+02 0.  0.
        -12    1    1    2    0    0 -0.89099213408E+00 -0.77402896219E+00 -0.13464611410E-01  0.11803258504E+01  0.00000000000E+00 0.  1.
         11    1    3    3    0    0 -0.12722354541E+02  0.31439524021E+02  0.57025829430E+01  0.34392171031E+02  0.51100000000E-03 0. -1.
        -11    1    3    3    0    0 -0.84749736683E+01  0.74367394310E+01 -0.80824505158E+00  0.11304137843E+02  0.51100000000E-03 0.  1.
        -12    1    3    3    0    0  0.22088320343E+02 -0.38102234489E+02 -0.48808732800E+01  0.44311365276E+02  0.00000000000E+00 0.  1.
</event>
<event>
 7    1  0.1978681E-015  0.9000795E+02  0.7816164E-02  0.1186339E+00
        -11   -1    0    0    0    0  0.00000000000E+00  0.00000000000E+00  0.45593999997E+02  0.45594000000E+02  0.51100000000E-03 0. -1.
         11   -1    0    0    0    0 -0.00000000000E+00 -0.00000000000E+00 -0.45593999997E+02  0.45594000000E+02  0.51100000000E-03 0.  1.
    9900012    2    1    2    0    0  0.48679587420E+00  0.15486729398E+00  0.10637484003E+01  0.90007951373E+02  0.90000215531E+02 0.  0.
        -12    1    1    2    0    0 -0.48679587420E+00 -0.15486729398E+00 -0.10637484003E+01  0.11800486265E+01  0.00000000000E+00 0.  1.
         11    1    3    3    0    0  0.11971009665E+02  0.36171695006E+02  0.93829237181E+01  0.39239468010E+02  0.51100000000E-03 0. -1.
        -11    1    3    3    0    0 -0.18444791024E+02 -0.99202215457E+01 -0.10947535691E+02  0.23631962454E+02  0.51100000000E-03 0.  1.
        -12    1    3    3    0    0  0.69605772333E+01 -0.26096606166E+02  0.26283603736E+01  0.27136520909E+02  0.00000000000E+00 0.  1.
</event>
<event>
 7    1  0.1978681E-015  0.9000773E+02  0.7816164E-02  0.1186339E+00
        -11   -1    0    0    0    0  0.00000000000E+00  0.00000000000E+00  0.45593999997E+02  0.45594000000E+02  0.51100000000E-03 0.  1.
         11   -1    0    0    0    0 -0.00000000000E+00 -0.00000000000E+00 -0.45593999997E+02  0.45594000000E+02  0.51100000000E-03 0. -1.
    9900012    2    1    2    0    0 -0.25219993635E+00  0.11189268476E+01 -0.27827568582E+00  0.90007729075E+02  0.89999990299E+02 0.  0.
        -12    1    1    2    0    0  0.25219993635E+00 -0.11189268476E+01  0.27827568582E+00  0.11802709247E+01  0.00000000000E+00 0.  1.
         11    1    3    3    0    0 -0.20261708484E+01  0.82580724713E+01  0.46093540494E+01  0.96719839879E+01  0.51100000000E-03 0. -1.
        -11    1    3    3    0    0 -0.49626354722E+01 -0.27975465078E+02  0.28606373495E+02  0.40318469738E+02  0.51100000000E-03 0.  1.
         12    1    3    3    0    0  0.67366063842E+01  0.20836319455E+02 -0.33494003231E+02  0.40017275350E+02  0.00000000000E+00 0. -1.
</event>
<event>
 7    1  0.1978681E-015  0.9000767E+02  0.7816164E-02  0.1186339E+00
        -11   -1    0    0    0    0  0.00000000000E+00  0.00000000000E+00  0.45593999997E+02  0.45594000000E+02  0.51100000000E-03 0.  1.
         11   -1    0    0    0    0 -0.00000000000E+00 -0.00000000000E+00 -0.45593999997E+02  0.45594000000E+02  0.51100000000E-03 0. -1.
    9900012    2    1    2    0    0  0.51281724036E+00  0.18298380463E+00 -0.10472443390E+01  0.90007667293E+02  0.89999927701E+02 0.  0.
        -12    1    1    2    0    0 -0.51281724036E+00 -0.18298380463E+00  0.10472443390E+01  0.11803327074E+01  0.00000000000E+00 0.  1.
         11    1    3    3    0    0  0.34189799092E+02  0.11235557771E+02  0.14438264819E+02  0.38776843755E+02  0.51100000000E-03 0. -1.
        -11    1    3    3    0    0 -0.51544698685E+01  0.59760779031E+01  0.74582277955E+01  0.10858509513E+02  0.51100000000E-03 0.  1.
        -12    1    3    3    0    0 -0.28522511983E+02 -0.17028651870E+02 -0.22943736953E+02  0.40372314025E+02  0.00000000000E+00 0.  1.
</event>
<event>
 7    1  0.1978681E-015  0.9000773E+02  0.7816164E-02  0.1186339E+00
        -11   -1    0    0    0    0  0.00000000000E+00  0.00000000000E+00  0.45593999997E+02  0.45594000000E+02  0.51100000000E-03 0.  1.
         11   -1    0    0    0    0 -0.00000000000E+00 -0.00000000000E+00 -0.45593999997E+02  0.45594000000E+02  0.51100000000E-03 0. -1.
    9900012    2    1    2    0    0  0.29730268192E+00 -0.10341336057E+01 -0.48497902224E+00  0.90007734839E+02  0.89999996139E+02 0.  0.
        -12    1    1    2    0    0 -0.29730268192E+00  0.10341336057E+01  0.48497902224E+00  0.11802651613E+01  0.00000000000E+00 0.  1.
         11    1    3    3    0    0  0.10831902445E+01  0.20903960222E+01  0.10285974569E+02  0.10551982265E+02  0.51100000000E-03 0. -1.
        -11    1    3    3    0    0  0.24442623486E+02 -0.12134911446E+00  0.25401808258E+02  0.35252069890E+02  0.51100000000E-03 0.  1.
         12    1    3    3    0    0 -0.25228511049E+02 -0.30031805134E+01 -0.36172761849E+02  0.44203682683E+02  0.00000000000E+00 0. -1.
</event>
<event>
 7    1  0.1978681E-015  0.9000779E+02  0.7816164E-02  0.1186339E+00
        -11   -1    0    0    0    0  0.00000000000E+00  0.00000000000E+00  0.45593999997E+02  0.45594000000E+02  0.51100000000E-03 0.  1.
         11   -1    0    0    0    0 -0.00000000000E+00 -0.00000000000E+00 -0.45593999997E+02  0.45594000000E+02  0.51100000000E-03 0. -1.
    9900012    2    1    2    0    0 -0.10867044576E+01  0.16963760954E-01 -0.46008369281E+00  0.90007791819E+02  0.90000053870E+02 0.  0.
        -12    1    1    2    0    0  0.10867044576E+01 -0.16963760954E-01  0.46008369281E+00  0.11802081815E+01  0.00000000000E+00 0.  1.
         11    1    3    3    0    0 -0.22992186079E+02  0.28894781204E+02 -0.16657227147E+01  0.36963815197E+02  0.51100000000E-03 0. -1.
        -11    1    3    3    0    0 -0.51975300086E+01  0.89473175336E+00 -0.99537863502E+01  0.11264667153E+02  0.51100000000E-03 0.  1.
        -12    1    3    3    0    0  0.27103011630E+02 -0.29772549196E+02  0.11159425372E+02  0.41779309469E+02  0.00000000000E+00 0.  1.
</event>
<event>
 7    1  0.1978681E-015  0.9000773E+02  0.7816164E-02  0.1186339E+00
        -11   -1    0    0    0    0  0.00000000000E+00  0.00000000000E+00  0.45593999997E+02  0.45594000000E+02  0.51100000000E-03 0. -1.
         11   -1    0    0    0    0 -0.00000000000E+00 -0.00000000000E+00 -0.45593999997E+02  0.45594000000E+02  0.51100000000E-03 0.  1.
    9900012    2    1    2    0    0  0.10680679631E+01  0.38277036287E+00 -0.32519395347E+00  0.90007731627E+02  0.89999992885E+02 0.  0.
        -12    1    1    2    0    0 -0.10680679631E+01 -0.38277036287E+00  0.32519395347E+00  0.11802683728E+01  0.00000000000E+00 0.  1.
         11    1    3    3    0    0  0.80467614912E+01 -0.22594939704E+02  0.27033160581E+02  0.36139638100E+02  0.51100000000E-03 0. -1.
        -11    1    3    3    0    0  0.53597476958E-01 -0.11052807198E+02 -0.30688870163E+01  0.11471071764E+02  0.51100000000E-03 0.  1.
        -12    1    3    3    0    0 -0.70322910051E+01  0.34030517265E+02 -0.24289467518E+02  0.42397021763E+02  0.00000000000E+00 0.  1.
</event>
<event>
 7    1  0.1978681E-015  0.9000771E+02  0.7816164E-02  0.1186339E+00
        -11   -1    0    0    0    0  0.00000000000E+00  0.00000000000E+00  0.45593999997E+02  0.45594000000E+02  0.51100000000E-03 0.  1.
         11   -1    0    0    0    0 -0.00000000000E+00 -0.00000000000E+00 -0.45593999997E+02  0.45594000000E+02  0.51100000000E-03 0. -1.
    9900012    2    1    2    0    0 -0.10043297775E+01 -0.61629942278E+00  0.67727062337E-01  0.90007707564E+02  0.89999968503E+02 0.  0.
        -12    1    1    2    0    0  0.10043297775E+01  0.61629942278E+00 -0.67727062337E-01  0.11802924364E+01  0.00000000000E+00 0.  1.
         11    1    3    3    0    0  0.24245206222E+01  0.76337621037E+01 -0.62066446882E+01  0.10132870405E+02  0.51100000000E-03 0. -1.
        -11    1    3    3    0    0 -0.40303012775E+01  0.30388588522E+02  0.22436082371E+02  0.37987990644E+02  0.51100000000E-03 0.  1.
         12    1    3    3    0    0  0.60145087779E+00 -0.38638650049E+02 -0.16161710620E+02  0.41886846514E+02  0.00000000000E+00 0. -1.
</event>
<event>
 7    1  0.1978681E-015  0.9000778E+02  0.7816164E-02  0.1186339E+00
        -11   -1    0    0    0    0  0.00000000000E+00  0.00000000000E+00  0.45593999997E+02  0.45594000000E+02  0.51100000000E-03 0.  1.
         11   -1    0    0    0    0 -0.00000000000E+00 -0.00000000000E+00 -0.45593999997E+02  0.45594000000E+02  0.51100000000E-03 0. -1.
    9900012    2    1    2    0    0 -0.55622895494E-01  0.11614665078E+01 -0.20202715384E+00  0.90007782509E+02  0.90000044438E+02 0.  0.
        -12    1    1    2    0    0  0.55622895494E-01 -0.11614665078E+01  0.20202715384E+00  0.11802174910E+01  0.00000000000E+00 0.  1.
         11    1    3    3    0    0 -0.14170821905E+02  0.26007684104E+02 -0.18626354356E+02  0.34987896518E+02  0.51100000000E-03 0. -1.
        -11    1    3    3    0    0 -0.91904439309E+01  0.75127564088E+01  0.56449949122E+01  0.13144266291E+02  0.51100000000E-03 0.  1.
        -12    1    3    3    0    0  0.23305642940E+02 -0.32358974005E+02  0.12779332290E+02  0.41875619700E+02  0.00000000000E+00 0.  1.
</event>
<event>
 7    1  0.1978681E-015  0.9000781E+02  0.7816164E-02  0.1186339E+00
        -11   -1    0    0    0    0  0.00000000000E+00  0.00000000000E+00  0.45593999997E+02  0.45594000000E+02  0.51100000000E-03 0. -1.
         11   -1    0    0    0    0 -0.00000000000E+00 -0.00000000000E+00 -0.45593999997E+02  0.45594000000E+02  0.51100000000E-03 0.  1.
    9900012    2    1    2    0    0  0.13351988703E+00 -0.59095767638E+00  0.10128159596E+01  0.90007807345E+02  0.90000069602E+02 0.  0.
        -12    1    1    2    0    0 -0.13351988703E+00  0.59095767638E+00 -0.10128159596E+01  0.11801926553E+01  0.00000000000E+00 0.  1.
         11    1    3    3    0    0 -0.46225246207E+01  0.78680490017E+01 -0.39699061417E+00  0.91340862034E+01  0.51100000000E-03 0. -1.
        -11    1    3    3    0    0 -0.25831077072E+02  0.22120757534E+02 -0.11227496339E+02  0.35813812013E+02  0.51100000000E-03 0.  1.
         12    1    3    3    0    0  0.30587121579E+02 -0.30579764212E+02  0.12637302913E+02  0.45059909129E+02  0.00000000000E+00 0. -1.
</event>
<event>
 7    1  0.1978681E-015  0.9000771E+02  0.7816164E-02  0.1186339E+00
        -11   -1    0    0    0    0  0.00000000000E+00  0.00000000000E+00  0.45593999997E+02  0.45594000000E+02  0.51100000000E-03 0.  1.
         11   -1    0    0    0    0 -0.00000000000E+00 -0.00000000000E+00 -0.45593999997E+02  0.45594000000E+02  0.51100000000E-03 0. -1.
    9900012    2    1    2    0    0  0.68077556407E+00 -0.93253233739E+00 -0.24495383423E+00  0.90007714310E+02  0.89999975339E+02 0.  0.
        -12    1    1    2    0    0 -0.68077556407E+00  0.93253233739E+00  0.24495383423E+00  0.11802856899E+01  0.00000000000E+00 0.  1.
         11    1    3    3    0    0 -0.37422414347E+02  0.39665472436E+01  0.29715907958E+00  0.37633215334E+02  0.51100000000E-03 0. -1.
        -11    1    3    3    0    0 -0.24876769976E+01  0.90987266170E+01 -0.28852078454E+00  0.94370868068E+01  0.51100000000E-03 0.  1.
        -12    1    3    3    0    0  0.40590866909E+02 -0.13997806198E+02 -0.25359212927E+00  0.42937412169E+02  0.00000000000E+00 0.  1.
</event>
<event>
 7    1  0.1978681E-015  0.9000778E+02  0.7816164E-02  0.1186339E+00
        -11   -1    0    0    0    0  0.00000000000E+00  0.00000000000E+00  0.45593999997E+02  0.45594000000E+02  0.51100000000E-03 0.  1.
         11   -1    0    0    0    0 -0.00000000000E+00 -0.00000000000E+00 -0.45593999997E+02  0.45594000000E+02  0.51100000000E-03 0. -1.
    9900012    2    1    2    0    0  0.11687235212E+01  0.14335666745E+00 -0.80297438356E-01  0.90007782443E+02  0.90000044371E+02 0.  0.
        -12    1    1    2    0    0 -0.11687235212E+01 -0.14335666745E+00  0.80297438356E-01  0.11802175569E+01  0.00000000000E+00 0.  1.
         11    1    3    3    0    0 -0.92967359462E+01 -0.47173545404E+01  0.88119743910E+00  0.10462277109E+02  0.51100000000E-03 0. -1.
        -11    1    3    3    0    0 -0.12547847097E+02  0.37025081786E+02  0.54771961778E+01  0.39475369869E+02  0.51100000000E-03 0.  1.
         12    1    3    3    0    0  0.23013306564E+02 -0.32164370578E+02 -0.64386910553E+01  0.40070135466E+02  0.00000000000E+00 0. -1.
</event>
<event>
 7    1  0.1978681E-015  0.9000771E+02  0.7816164E-02  0.1186339E+00
        -11   -1    0    0    0    0  0.00000000000E+00  0.00000000000E+00  0.45593999997E+02  0.45594000000E+02  0.51100000000E-03 0.  1.
         11   -1    0    0    0    0 -0.00000000000E+00 -0.00000000000E+00 -0.45593999997E+02  0.45594000000E+02  0.51100000000E-03 0. -1.
    9900012    2    1    2    0    0 -0.43101801493E+00  0.81823224756E+00 -0.73335162228E+00  0.90007709721E+02  0.89999970690E+02 0.  0.
        -12    1    1    2    0    0  0.43101801493E+00 -0.81823224756E+00  0.73335162228E+00  0.11802902787E+01  0.00000000000E+00 0.  1.
         11    1    3    3    0    0  0.11497717200E+02 -0.28467870241E+02 -0.20160333728E+02  0.36729500312E+02  0.51100000000E-03 0. -1.
        -11    1    3    3    0    0 -0.12422127646E+01 -0.27022476400E+01 -0.88059588409E+01  0.92946299673E+01  0.51100000000E-03 0.  1.
        -12    1    3    3    0    0 -0.10686522451E+02  0.31988350129E+02  0.28232940947E+02  0.43983579442E+02  0.00000000000E+00 0.  1.
</event>
<event>
 7    1  0.1978681E-015  0.9000779E+02  0.7816164E-02  0.1186339E+00
        -11   -1    0    0    0    0  0.00000000000E+00  0.00000000000E+00  0.45593999997E+02  0.45594000000E+02  0.51100000000E-03 0.  1.
         11   -1    0    0    0    0 -0.00000000000E+00 -0.00000000000E+00 -0.45593999997E+02  0.45594000000E+02  0.51100000000E-03 0. -1.
    9900012    2    1    2    0    0  0.11097843227E+01  0.20382889522E+00  0.34600674749E+00  0.90007793183E+02  0.90000055253E+02 0.  0.
        -12    1    1    2    0    0 -0.11097843227E+01 -0.20382889522E+00 -0.34600674749E+00  0.11802068170E+01  0.00000000000E+00 0.  1.
         11    1    3    3    0    0 -0.16318141399E+02 -0.19176375416E+02 -0.31984790846E+02  0.40706780253E+02  0.51100000000E-03 0. -1.
        -11    1    3    3    0    0 -0.68711066118E+01  0.18826535143E+01  0.45369238286E+01  0.84463109352E+01  0.51100000000E-03 0.  1.
        -12    1    3    3    0    0  0.24299032334E+02  0.17497550797E+02  0.27793873765E+02  0.40854701995E+02  0.00000000000E+00 0.  1.
</event>
<event>
 7    1  0.1978681E-015  0.9000802E+02  0.7816164E-02  0.1186338E+00
        -11   -1    0    0    0    0  0.00000000000E+00  0.00000000000E+00  0.45593999997E+02  0.45594000000E+02  0.51100000000E-03 0.  1.
         11   -1    0    0    0    0 -0.00000000000E+00 -0.00000000000E+00 -0.45593999997E+02  0.45594000000E+02  0.51100000000E-03 0. -1.
    9900012    2    1    2    0    0  0.17143356128E+00 -0.29896921294E+00 -0.11285265616E+01  0.90008023620E+02  0.90000288732E+02 0.  0.
        -12    1    1    2    0    0 -0.17143356128E+00  0.29896921294E+00  0.11285265616E+01  0.11799763796E+01  0.00000000000E+00 0.  1.
         11    1    3    3    0    0  0.83134671113E+01 -0.39489543989E+01  0.33081504423E+01  0.97801756562E+01  0.51100000000E-03 0. -1.
        -11    1    3    3    0    0  0.92582046371E+01 -0.35375412831E+02 -0.77207251071E+01  0.37373035500E+02  0.51100000000E-03 0.  1.
         12    1    3    3    0    0 -0.17400238187E+02  0.39025398017E+02  0.32840481032E+01  0.42854812464E+02  0.00000000000E+00 0. -1.
</event>
<event>
 7    1  0.1978681E-015  0.9000704E+02  0.7816164E-02  0.1186340E+00
        -11   -1    0    0    0    0  0.00000000000E+00  0.00000000000E+00  0.45593999997E+02  0.45594000000E+02  0.51100000000E-03 0.  1.
         11   -1    0    0    0    0 -0.00000000000E+00 -0.00000000000E+00 -0.45593999997E+02  0.45594000000E+02  0.51100000000E-03 0. -1.
    9900012    2    1    2    0    0 -0.31614890396E+00 -0.99064258195E+00  0.55977782029E+00  0.90007036807E+02  0.89999288890E+02 0.  0.
        -12    1    1    2    0    0  0.31614890396E+00  0.99064258195E+00 -0.55977782029E+00  0.11809631928E+01  0.00000000000E+00 0.  1.
         11    1    3    3    0    0 -0.91925191271E+00 -0.12988507506E+02 -0.26974224130E+02  0.29952547787E+02  0.51100000000E-03 0. -1.
        -11    1    3    3    0    0  0.16721517589E+02 -0.10827271947E+02  0.25044724933E+02  0.32001206470E+02  0.51100000000E-03 0.  1.
        -12    1    3    3    0    0 -0.16118414580E+02  0.22825136871E+02  0.24892770171E+01  0.28053282550E+02  0.00000000000E+00 0.  1.
</event>
<event>
 7    1  0.1978681E-015  0.9000772E+02  0.7816164E-02  0.1186339E+00
        -11   -1    0    0    0    0  0.00000000000E+00  0.00000000000E+00  0.45593999997E+02  0.45594000000E+02  0.51100000000E-03 0. -1.
         11   -1    0    0    0    0 -0.00000000000E+00 -0.00000000000E+00 -0.45593999997E+02  0.45594000000E+02  0.51100000000E-03 0.  1.
    9900012    2    1    2    0    0  0.19154543445E+00  0.11238781985E+01 -0.30539904909E+00  0.90007720187E+02  0.89999981293E+02 0.  0.
        -12    1    1    2    0    0 -0.19154543445E+00 -0.11238781985E+01  0.30539904909E+00  0.11802798133E+01  0.00000000000E+00 0.  1.
         11    1    3    3    0    0  0.94045591382E+01  0.21231591145E+01  0.37363521100E+01  0.10339916081E+02  0.51100000000E-03 0. -1.
        -11    1    3    3    0    0  0.26070306331E+02  0.24037095752E+02  0.39245595388E+01  0.35676953517E+02  0.51100000000E-03 0.  1.
         12    1    3    3    0    0 -0.35283320035E+02 -0.25036376668E+02 -0.79663106979E+01  0.43990850589E+02  0.00000000000E+00 0. -1.
</event>
<event>
 7    1  0.1978681E-015  0.9000752E+02  0.7816164E-02  0.1186339E+00
        -11   -1    0    0    0    0  0.00000000000E+00  0.00000000000E+00  0.45593999997E+02  0.45594000000E+02  0.51100000000E-03 0. -1.
         11   -1    0    0    0    0 -0.00000000000E+00 -0.00000000000E+00 -0.45593999997E+02  0.45594000000E+02  0.51100000000E-03 0.  1.
    9900012    2    1    2    0    0 -0.49982871208E+00  0.50145896789E+00  0.94459018461E+00  0.90007516855E+02  0.89999775278E+02 0.  0.
        -12    1    1    2    0    0  0.49982871208E+00 -0.50145896789E+00 -0.94459018461E+00  0.11804831446E+01  0.00000000000E+00 0.  1.
         11    1    3    3    0    0 -0.31036220855E+02 -0.19881296045E+02  0.18945321449E+02  0.41441985262E+02  0.51100000000E-03 0. -1.
        -11    1    3    3    0    0  0.74316230819E+01  0.16768641252E+01  0.65217228278E+01  0.10028647158E+02  0.51100000000E-03 0.  1.
        -12    1    3    3    0    0  0.23104769061E+02  0.18705890888E+02 -0.24522454092E+02  0.38536884435E+02  0.00000000000E+00 0.  1.
</event>
<event>
 7    1  0.1978681E-015  0.9000774E+02  0.7816164E-02  0.1186339E+00
        -11   -1    0    0    0    0  0.00000000000E+00  0.00000000000E+00  0.45593999997E+02  0.45594000000E+02  0.51100000000E-03 0. -1.
         11   -1    0    0    0    0 -0.00000000000E+00 -0.00000000000E+00 -0.45593999997E+02  0.45594000000E+02  0.51100000000E-03 0.  1.
    9900012    2    1    2    0    0  0.95793270491E+00  0.48220348649E+00  0.49281275278E+00  0.90007737453E+02  0.89999998788E+02 0.  0.
        -12    1    1    2    0    0 -0.95793270491E+00 -0.48220348649E+00 -0.49281275278E+00  0.11802625466E+01  0.00000000000E+00 0.  1.
         11    1    3    3    0    0  0.10968761303E+02 -0.96441600550E+01  0.30488949511E+02  0.33806797989E+02  0.51100000000E-03 0. -1.
        -11    1    3    3    0    0  0.13984869908E+02 -0.58812710127E+01 -0.85091682820E+00  0.15195064817E+02  0.51100000000E-03 0.  1.
        -12    1    3    3    0    0 -0.23995698506E+02  0.16007634554E+02 -0.29145219930E+02  0.41005874648E+02  0.00000000000E+00 0.  1.
</event>
<event>
 7    1  0.1978681E-015  0.9000774E+02  0.7816164E-02  0.1186339E+00
        -11   -1    0    0    0    0  0.00000000000E+00  0.00000000000E+00  0.45593999997E+02  0.45594000000E+02  0.51100000000E-03 0. -1.
         11   -1    0    0    0    0 -0.00000000000E+00 -0.00000000000E+00 -0.45593999997E+02  0.45594000000E+02  0.51100000000E-03 0.  1.
    9900012    2    1    2    0    0  0.91328050791E+00  0.73750258154E+00  0.12256738868E+00  0.90007739813E+02  0.90000001179E+02 0.  0.
        -12    1    1    2    0    0 -0.91328050791E+00 -0.73750258154E+00 -0.12256738868E+00  0.11802601869E+01  0.00000000000E+00 0.  1.
         11    1    3    3    0    0  0.10127955883E+02  0.24691439422E+01 -0.61635203938E+01  0.12110373490E+02  0.51100000000E-03 0. -1.
        -11    1    3    3    0    0  0.12656421081E+02  0.16866194116E+02 -0.26793989175E+02  0.34096500622E+02  0.51100000000E-03 0.  1.
         12    1    3    3    0    0 -0.21871096456E+02 -0.18597835476E+02  0.33080076957E+02  0.43800865700E+02  0.00000000000E+00 0. -1.
</event>
<event>
 7    1  0.1978681E-015  0.9000776E+02  0.7816164E-02  0.1186339E+00
        -11   -1    0    0    0    0  0.00000000000E+00  0.00000000000E+00  0.45593999997E+02  0.45594000000E+02  0.51100000000E-03 0.  1.
         11   -1    0    0    0    0 -0.00000000000E+00 -0.00000000000E+00 -0.45593999997E+02  0.45594000000E+02  0.51100000000E-03 0. -1.
    9900012    2    1    2    0    0 -0.85176416648E+00 -0.67593065636E+00  0.45888157675E+00  0.90007764113E+02  0.90000025799E+02 0.  0.
        -12    1    1    2    0    0  0.85176416648E+00  0.67593065636E+00 -0.45888157675E+00  0.11802358870E+01  0.00000000000E+00 0.  1.
         11    1    3    3    0    0  0.58845112312E+01 -0.41888798212E+01  0.36377283687E+01  0.80874751642E+01  0.51100000000E-03 0. -1.
        -11    1    3    3    0    0  0.34858868449E+02 -0.77788820150E+01 -0.12468229835E+02  0.37829994322E+02  0.51100000000E-03 0.  1.
         12    1    3    3    0    0 -0.41595143846E+02  0.11291831180E+02  0.92893830426E+01  0.44090294627E+02  0.00000000000E+00 0. -1.
</event>
<event>
 7    1  0.1978681E-015  0.9000780E+02  0.7816164E-02  0.1186339E+00
        -11   -1    0    0    0    0  0.00000000000E+00  0.00000000000E+00  0.45593999997E+02  0.45594000000E+02  0.51100000000E-03 0.  1.
         11   -1    0    0    0    0 -0.00000000000E+00 -0.00000000000E+00 -0.45593999997E+02  0.45594000000E+02  0.51100000000E-03 0. -1.
    9900012    2    1    2    0    0  0.99561955605E+00  0.18746256039E+00 -0.60536157646E+00  0.90007803766E+02  0.90000065976E+02 0.  0.
        -12    1    1    2    0    0 -0.99561955605E+00 -0.18746256039E+00  0.60536157646E+00  0.11801962338E+01  0.00000000000E+00 0.  1.
         11    1    3    3    0    0 -0.30460265644E+01 -0.37923758319E+02 -0.89366161177E+01  0.39081361680E+02  0.51100000000E-03 0. -1.
        -11    1    3    3    0    0 -0.45808816155E+00 -0.62587824840E+00 -0.84399296849E+01  0.84754930058E+01  0.51100000000E-03 0.  1.
        -12    1    3    3    0    0  0.44997342820E+01  0.38737099128E+02  0.16771184226E+02  0.42450949080E+02  0.00000000000E+00 0.  1.
</event>
<event>
 7    1  0.1978681E-015  0.9000783E+02  0.7816164E-02  0.1186339E+00
        -11   -1    0    0    0    0  0.00000000000E+00  0.00000000000E+00  0.45593999997E+02  0.45594000000E+02  0.51100000000E-03 0.  1.
         11   -1    0    0    0    0 -0.00000000000E+00 -0.00000000000E+00 -0.45593999997E+02  0.45594000000E+02  0.51100000000E-03 0. -1.
    9900012    2    1    2    0    0  0.85508156815E+00  0.65017641591E+00 -0.48878410508E+00  0.90007828927E+02  0.90000091469E+02 0.  0.
        -12    1    1    2    0    0 -0.85508156815E+00 -0.65017641591E+00  0.48878410508E+00  0.11801710729E+01  0.00000000000E+00 0.  1.
         11    1    3    3    0    0 -0.32604657301E+02  0.19399385750E+02  0.39509207898E+00  0.37941480509E+02  0.51100000000E-03 0. -1.
        -11    1    3    3    0    0 -0.68131840145E+01 -0.50322930789E+01 -0.40801035156E+01  0.94016325713E+01  0.51100000000E-03 0.  1.
        -12    1    3    3    0    0  0.40272922884E+02 -0.13716916255E+02  0.31962273316E+01  0.42664715847E+02  0.00000000000E+00 0.  1.
</event>
<event>
 7    1  0.1978681E-015  0.9000778E+02  0.7816164E-02  0.1186339E+00
        -11   -1    0    0    0    0  0.00000000000E+00  0.00000000000E+00  0.45593999997E+02  0.45594000000E+02  0.51100000000E-03 0. -1.
         11   -1    0    0    0    0 -0.00000000000E+00 -0.00000000000E+00 -0.45593999997E+02  0.45594000000E+02  0.51100000000E-03 0.  1.
    9900012    2    1    2    0    0  0.67357757951E+00  0.81156717441E+00 -0.52968099467E+00  0.90007783922E+02  0.90000045870E+02 0.  0.
        -12    1    1    2    0    0 -0.67357757951E+00 -0.81156717441E+00  0.52968099467E+00  0.11802160778E+01  0.00000000000E+00 0.  1.
         11    1    3    3    0    0 -0.31064292840E+02  0.56428442143E+00  0.75620790466E+01  0.31976456125E+02  0.51100000000E-03 0. -1.
        -11    1    3    3    0    0 -0.98717200186E+01 -0.10563527501E+02 -0.26161007682E+01  0.14692955893E+02  0.51100000000E-03 0.  1.
        -12    1    3    3    0    0  0.41609590438E+02  0.10810810254E+02 -0.54756592730E+01  0.43338371904E+02  0.00000000000E+00 0.  1.
</event>
<event>
 7    1  0.1978681E-015  0.9000768E+02  0.7816164E-02  0.1186339E+00
        -11   -1    0    0    0    0  0.00000000000E+00  0.00000000000E+00  0.45593999997E+02  0.45594000000E+02  0.51100000000E-03 0.  1.
         11   -1    0    0    0    0 -0.00000000000E+00 -0.00000000000E+00 -0.45593999997E+02  0.45594000000E+02  0.51100000000E-03 0. -1.
    9900012    2    1    2    0    0 -0.38288570515E+00  0.76264306206E+00 -0.81543078458E+00  0.90007680862E+02  0.89999941449E+02 0.  0.
        -12    1    1    2    0    0  0.38288570515E+00 -0.76264306206E+00  0.81543078458E+00  0.11803191381E+01  0.00000000000E+00 0.  1.
         11    1    3    3    0    0  0.87023579813E+01  0.26137009773E+02 -0.25129389604E+02  0.37287538622E+02  0.51100000000E-03 0. -1.
        -11    1    3    3    0    0 -0.94213964642E+00  0.99269783934E-01 -0.95345804813E+01  0.95815294614E+01  0.51100000000E-03 0.  1.
        -12    1    3    3    0    0 -0.81431040400E+01 -0.25473636495E+02  0.33848539301E+02  0.43138612779E+02  0.00000000000E+00 0.  1.
</event>
<event>
 7    1  0.1978681E-015  0.9000770E+02  0.7816164E-02  0.1186339E+00
        -11   -1    0    0    0    0  0.00000000000E+00  0.00000000000E+00  0.45593999997E+02  0.45594000000E+02  0.51100000000E-03 0.  1.
         11   -1    0    0    0    0 -0.00000000000E+00 -0.00000000000E+00 -0.45593999997E+02  0.45594000000E+02  0.51100000000E-03 0. -1.
    9900012    2    1    2    0    0 -0.45216891564E+00 -0.62899317760E+00 -0.89051634269E+00  0.90007699825E+02  0.89999960663E+02 0.  0.
        -12    1    1    2    0    0  0.45216891564E+00  0.62899317760E+00  0.89051634269E+00  0.11803001747E+01  0.00000000000E+00 0.  1.
         11    1    3    3    0    0 -0.69850850727E+00 -0.27714511516E+01 -0.97474095653E+01  0.10157797454E+02  0.51100000000E-03 0. -1.
        -11    1    3    3    0    0 -0.23208629320E+02  0.13505904246E+02 -0.25294376105E+02  0.36889773478E+02  0.51100000000E-03 0.  1.
         12    1    3    3    0    0  0.23454968912E+02 -0.11363446272E+02  0.34151269328E+02  0.42960128893E+02  0.00000000000E+00 0. -1.
</event>
<event>
 7    1  0.1978681E-015  0.9000801E+02  0.7816164E-02  0.1186339E+00
        -11   -1    0    0    0    0  0.00000000000E+00  0.00000000000E+00  0.45593999997E+02  0.45594000000E+02  0.51100000000E-03 0. -1.
         11   -1    0    0    0    0 -0.00000000000E+00 -0.00000000000E+00 -0.45593999997E+02  0.45594000000E+02  0.51100000000E-03 0.  1.
    9900012    2    1    2    0    0  0.50110290118E-01  0.11079028302E+01 -0.40302364261E+00  0.90008005178E+02  0.90000270046E+02 0.  0.
        -12    1    1    2    0    0 -0.50110290118E-01 -0.11079028302E+01  0.40302364261E+00  0.11799948216E+01  0.00000000000E+00 0.  1.
         11    1    3    3    0    0  0.82267254836E+01 -0.26775128368E+01 -0.37379676004E+01  0.94244622773E+01  0.51100000000E-03 0. -1.
        -11    1    3    3    0    0  0.27147088289E+02  0.55961171511E+01  0.26463890811E+02  0.38322557937E+02  0.51100000000E-03 0.  1.
         12    1    3    3    0    0 -0.35323703482E+02 -0.18107014841E+01 -0.23128946853E+02  0.42260984964E+02  0.00000000000E+00 0. -1.
</event>
<event>
 7    1  0.1978681E-015  0.9000773E+02  0.7816164E-02  0.1186339E+00
        -11   -1    0    0    0    0  0.00000000000E+00  0.00000000000E+00  0.45593999997E+02  0.45594000000E+02  0.51100000000E-03 0.  1.
         11   -1    0    0    0    0 -0.00000000000E+00 -0.00000000000E+00 -0.45593999997E+02  0.45594000000E+02  0.51100000000E-03 0. -1.
    9900012    2    1    2    0    0  0.15223998984E+00 -0.36693372080E+00 -0.11114018971E+01  0.90007732426E+02  0.89999993694E+02 0.  0.
        -12    1    1    2    0    0 -0.15223998984E+00  0.36693372080E+00  0.11114018971E+01  0.11802675743E+01  0.00000000000E+00 0.  1.
         11    1    3    3    0    0 -0.83112146756E+01 -0.72339736418E+00 -0.34560234249E+01  0.90301545560E+01  0.51100000000E-03 0. -1.
        -11    1    3    3    0    0 -0.26623953639E+02  0.26060097242E+02  0.38709359881E+01  0.37455943738E+02  0.51100000000E-03 0.  1.
         12    1    3    3    0    0  0.35087408304E+02 -0.25703633599E+02 -0.15263144604E+01  0.43521634132E+02  0.00000000000E+00 0. -1.
</event>
<event>
 7    1  0.1978681E-015  0.9000778E+02  0.7816164E-02  0.1186339E+00
        -11   -1    0    0    0    0  0.00000000000E+00  0.00000000000E+00  0.45593999997E+02  0.45594000000E+02  0.51100000000E-03 0.  1.
         11   -1    0    0    0    0 -0.00000000000E+00 -0.00000000000E+00 -0.45593999997E+02  0.45594000000E+02  0.51100000000E-03 0. -1.
    9900012    2    1    2    0    0  0.62973518645E+00 -0.42642030409E+00 -0.90250582856E+00  0.90007780761E+02  0.90000042667E+02 0.  0.
        -12    1    1    2    0    0 -0.62973518645E+00  0.42642030409E+00  0.90250582856E+00  0.11802192387E+01  0.00000000000E+00 0.  1.
         11    1    3    3    0    0  0.12624954291E+02 -0.21350952861E+02 -0.24526319783E+02  0.34882560417E+02  0.51100000000E-03 0. -1.
        -11    1    3    3    0    0 -0.13792493055E+02 -0.11082696983E+02  0.71630049702E+01  0.19088417366E+02  0.51100000000E-03 0.  1.
        -12    1    3    3    0    0  0.17972739504E+01  0.32007229540E+02  0.16460808984E+02  0.36036802978E+02  0.00000000000E+00 0.  1.
</event>
<event>
 7    1  0.1978681E-015  0.9000763E+02  0.7816164E-02  0.1186339E+00
        -11   -1    0    0    0    0  0.00000000000E+00  0.00000000000E+00  0.45593999997E+02  0.45594000000E+02  0.51100000000E-03 0. -1.
         11   -1    0    0    0    0 -0.00000000000E+00 -0.00000000000E+00 -0.45593999997E+02  0.45594000000E+02  0.51100000000E-03 0.  1.
    9900012    2    1    2    0    0  0.47327262954E+00  0.10799841265E+01  0.53978870307E-01  0.90007632933E+02  0.89999892887E+02 0.  0.
        -12    1    1    2    0    0 -0.47327262954E+00 -0.10799841265E+01 -0.53978870307E-01  0.11803670674E+01  0.00000000000E+00 0.  1.
         11    1    3    3    0    0  0.17271377240E+02 -0.12946889953E+02  0.37070213807E+02  0.42896657016E+02  0.51100000000E-03 0. -1.
        -11    1    3    3    0    0  0.37902612510E+01 -0.83321222451E-01 -0.78876141362E+01  0.87514273007E+01  0.51100000000E-03 0.  1.
        -12    1    3    3    0    0 -0.20588365861E+02  0.14110195302E+02 -0.29128620800E+02  0.38359548616E+02  0.00000000000E+00 0.  1.
</event>
<event>
 7    1  0.1978681E-015  0.9000775E+02  0.7816164E-02  0.1186339E+00
        -11   -1    0    0    0    0  0.00000000000E+00  0.00000000000E+00  0.45593999997E+02  0.45594000000E+02  0.51100000000E-03 0.  1.
         11   -1    0    0    0    0 -0.00000000000E+00 -0.00000000000E+00 -0.45593999997E+02  0.45594000000E+02  0.51100000000E-03 0. -1.
    9900012    2    1    2    0    0  0.81813573455E+00 -0.84006231648E+00  0.13393183419E+00  0.90007750657E+02  0.90000012166E+02 0.  0.
        -12    1    1    2    0    0 -0.81813573455E+00  0.84006231648E+00 -0.13393183419E+00  0.11802493431E+01  0.00000000000E+00 0.  1.
         11    1    3    3    0    0  0.53543342466E+01  0.34665130885E+00 -0.41484120050E+02  0.41829669840E+02  0.51100000000E-03 0. -1.
        -11    1    3    3    0    0 -0.73719295348E+01  0.17513695805E+01  0.13413569158E+01  0.76949255429E+01  0.51100000000E-03 0.  1.
        -12    1    3    3    0    0  0.28357310228E+01 -0.29380832059E+01  0.40276694968E+02  0.40483155274E+02  0.00000000000E+00 0.  1.
</event>
<event>
 7    1  0.1978681E-015  0.9000786E+02  0.7816164E-02  0.1186339E+00
        -11   -1    0    0    0    0  0.00000000000E+00  0.00000000000E+00  0.45593999997E+02  0.45594000000E+02  0.51100000000E-03 0.  1.
         11   -1    0    0    0    0 -0.00000000000E+00 -0.00000000000E+00 -0.45593999997E+02  0.45594000000E+02  0.51100000000E-03 0. -1.
    9900012    2    1    2    0    0  0.83596637222E-01 -0.11041861742E+01 -0.40805845926E+00  0.90007861359E+02  0.90000124329E+02 0.  0.
        -12    1    1    2    0    0 -0.83596637222E-01  0.11041861742E+01  0.40805845926E+00  0.11801386407E+01  0.00000000000E+00 0.  1.
         11    1    3    3    0    0  0.14600848503E+01  0.71659668849E+01  0.36127679966E+00  0.73221206186E+01  0.51100000000E-03 0. -1.
        -11    1    3    3    0    0 -0.13120536771E+02  0.73932005484E+01  0.37108347705E+02  0.40047938388E+02  0.51100000000E-03 0.  1.
         12    1    3    3    0    0  0.11744048558E+02 -0.15663353608E+02 -0.37877682964E+02  0.42637802353E+02  0.00000000000E+00 0. -1.
</event>
<event>
 7    1  0.1978681E-015  0.9000778E+02  0.7816164E-02  0.1186339E+00
        -11   -1    0    0    0    0  0.00000000000E+00  0.00000000000E+00  0.45593999997E+02  0.45594000000E+02  0.51100000000E-03 0. -1.
         11   -1    0    0    0    0 -0.00000000000E+00 -0.00000000000E+00 -0.45593999997E+02  0.45594000000E+02  0.51100000000E-03 0.  1.
    9900012    2    1    2    0    0  0.50086675489E+00 -0.98537211905E+00  0.41363798900E+00  0.90007778790E+02  0.90000040670E+02 0.  0.
        -12    1    1    2    0    0 -0.50086675489E+00  0.98537211905E+00 -0.41363798900E+00  0.11802212102E+01  0.00000000000E+00 0.  1.
         11    1    3    3    0    0  0.36300830318E+02 -0.13843559059E+02 -0.59459836827E+01  0.39303296699E+02  0.51100000000E-03 0. -1.
        -11    1    3    3    0    0  0.38529517922E+01  0.94265358454E+01  0.36250450605E+01  0.10809522076E+02  0.51100000000E-03 0.  1.
        -12    1    3    3    0    0 -0.39652915355E+02  0.34316510941E+01  0.27345766112E+01  0.39894960015E+02  0.00000000000E+00 0.  1.
</event>
<event>
 7    1  0.1978681E-015  0.9000778E+02  0.7816164E-02  0.1186339E+00
        -11   -1    0    0    0    0  0.00000000000E+00  0.00000000000E+00  0.45593999997E+02  0.45594000000E+02  0.51100000000E-03 0.  1.
         11   -1    0    0    0    0 -0.00000000000E+00 -0.00000000000E+00 -0.45593999997E+02  0.45594000000E+02  0.51100000000E-03 0. -1.
    9900012    2    1    2    0    0 -0.25245664091E+00  0.80689414506E+00 -0.82347774659E+00  0.90007776243E+02  0.90000038090E+02 0.  0.
        -12    1    1    2    0    0  0.25245664091E+00 -0.80689414506E+00  0.82347774659E+00  0.11802237567E+01  0.00000000000E+00 0.  1.
         11    1    3    3    0    0 -0.88216552101E+01 -0.77782968330E+00  0.90421062218E+01  0.12656472844E+02  0.51100000000E-03 0. -1.
        -11    1    3    3    0    0  0.26972867421E+02 -0.26738660305E+02  0.84772949329E+01  0.38914728079E+02  0.51100000000E-03 0.  1.
         12    1    3    3    0    0 -0.18403668851E+02  0.28323384134E+02 -0.18342878901E+02  0.38436575320E+02  0.00000000000E+00 0. -1.
</event>
<event>
 7    1  0.1978681E-015  0.9000824E+02  0.7816164E-02  0.1186338E+00
        -11   -1    0    0    0    0  0.00000000000E+00  0.00000000000E+00  0.45593999997E+02  0.45594000000E+02  0.51100000000E-03 0.  1.
         11   -1    0    0    0    0 -0.00000000000E+00 -0.00000000000E+00 -0.45593999997E+02  0.45594000000E+02  0.51100000000E-03 0. -1.
    9900012    2    1    2    0    0 -0.59286058849E+00 -0.10190005251E+01 -0.44512994524E-01  0.90008242756E+02  0.90000510759E+02 0.  0.
        -12    1    1    2    0    0  0.59286058849E+00  0.10190005251E+01  0.44512994524E-01  0.11797572437E+01  0.00000000000E+00 0.  1.
         11    1    3    3    0    0  0.10400391646E+02  0.42582049266E+00  0.45520675010E+01  0.11360932544E+02  0.51100000000E-03 0. -1.
        -11    1    3    3    0    0  0.16654635445E+02  0.26612769178E+02  0.14836517927E+02  0.34723747344E+02  0.51100000000E-03 0.  1.
         12    1    3    3    0    0 -0.27647887679E+02 -0.28057590196E+02 -0.19433098422E+02  0.43923562868E+02  0.00000000000E+00 0. -1.
</event>
<event>
 7    1  0.1978681E-015  0.9000856E+02  0.7816164E-02  0.1186337E+00
        -11   -1    0    0    0    0  0.00000000000E+00  0.00000000000E+00  0.45593999997E+02  0.45594000000E+02  0.51100000000E-03 0.  1.
         11   -1    0    0    0    0 -0.00000000000E+00 -0.00000000000E+00 -0.45593999997E+02  0.45594000000E+02  0.51100000000E-03 0. -1.
    9900012    2    1    2    0    0 -0.68875033799E+00 -0.94668615376E+00 -0.14315451653E+00  0.90008557370E+02  0.90000829523E+02 0.  0.
        -12    1    1    2    0    0  0.68875033799E+00  0.94668615376E+00  0.14315451653E+00  0.11794426300E+01  0.00000000000E+00 0.  1.
         11    1    3    3    0    0  0.15889531516E+02 -0.28540775322E+01 -0.11457450816E+02  0.19796367086E+02  0.51100000000E-03 0. -1.
        -11    1    3    3    0    0 -0.11870184987E+02 -0.28599836931E+02 -0.10182000074E+02  0.32596396885E+02  0.51100000000E-03 0.  1.
         12    1    3    3    0    0 -0.47080968664E+01  0.30507228309E+02  0.21496296374E+02  0.37615793399E+02  0.00000000000E+00 0. -1.
</event>
<event>
 7    1  0.1978681E-015  0.9000808E+02  0.7816164E-02  0.1186338E+00
        -11   -1    0    0    0    0  0.00000000000E+00  0.00000000000E+00  0.45593999997E+02  0.45594000000E+02  0.51100000000E-03 0.  1.
         11   -1    0    0    0    0 -0.00000000000E+00 -0.00000000000E+00 -0.45593999997E+02  0.45594000000E+02  0.51100000000E-03 0. -1.
    9900012    2    1    2    0    0 -0.83788549064E-01  0.11766279042E+01  0.27317771360E-01  0.90008076271E+02  0.90000342077E+02 0.  0.
        -12    1    1    2    0    0  0.83788549064E-01 -0.11766279042E+01 -0.27317771360E-01  0.11799237291E+01  0.00000000000E+00 0.  1.
         11    1    3    3    0    0 -0.26675622991E+01 -0.51650096988E+01 -0.80577354895E+01  0.99358097450E+01  0.51100000000E-03 0. -1.
        -11    1    3    3    0    0 -0.29440842074E+02 -0.90356352175E+01  0.25983236934E+02  0.40293107198E+02  0.51100000000E-03 0.  1.
         12    1    3    3    0    0  0.32024615824E+02  0.15377272821E+02 -0.17898183673E+02  0.39779159328E+02  0.00000000000E+00 0. -1.
</event>
<event>
 7    1  0.1978681E-015  0.9000778E+02  0.7816164E-02  0.1186339E+00
        -11   -1    0    0    0    0  0.00000000000E+00  0.00000000000E+00  0.45593999997E+02  0.45594000000E+02  0.51100000000E-03 0. -1.
         11   -1    0    0    0    0 -0.00000000000E+00 -0.00000000000E+00 -0.45593999997E+02  0.45594000000E+02  0.51100000000E-03 0.  1.
    9900012    2    1    2    0    0 -0.28741669793E+00 -0.40837990815E+00  0.10693646499E+01  0.90007778300E+02  0.90000040173E+02 0.  0.
        -12    1    1    2    0    0  0.28741669793E+00  0.40837990815E+00 -0.10693646499E+01  0.11802217004E+01  0.00000000000E+00 0.  1.
         11    1    3    3    0    0 -0.97642882607E-01  0.28024802889E+02 -0.34851417967E+01  0.28240844971E+02  0.51100000000E-03 0. -1.
        -11    1    3    3    0    0  0.42270704136E+01 -0.26382877382E+02 -0.22097888239E+02  0.34673347229E+02  0.51100000000E-03 0.  1.
         12    1    3    3    0    0 -0.44168442289E+01 -0.20503054152E+01  0.26652394685E+02  0.27093586099E+02  0.00000000000E+00 0. -1.
</event>
<event>
 7    1  0.1978681E-015  0.9000775E+02  0.7816164E-02  0.1186339E+00
        -11   -1    0    0    0    0  0.00000000000E+00  0.00000000000E+00  0.45593999997E+02  0.45594000000E+02  0.51100000000E-03 0.  1.
         11   -1    0    0    0    0 -0.00000000000E+00 -0.00000000000E+00 -0.45593999997E+02  0.45594000000E+02  0.51100000000E-03 0. -1.
    9900012    2    1    2    0    0 -0.53743030420E+00 -0.94978853732E+00 -0.44950841255E+00  0.90007751124E+02  0.90000012638E+02 0.  0.
        -12    1    1    2    0    0  0.53743030420E+00  0.94978853732E+00  0.44950841255E+00  0.11802488765E+01  0.00000000000E+00 0.  1.
         11    1    3    3    0    0  0.64248215894E+01 -0.17042773751E+02 -0.33698100540E+02  0.38305305767E+02  0.51100000000E-03 0. -1.
        -11    1    3    3    0    0  0.67876599174E+01 -0.87037061729E+01  0.70422319184E+01  0.13092740697E+02  0.51100000000E-03 0.  1.
        -12    1    3    3    0    0 -0.13749911811E+02  0.24796691386E+02  0.26206360210E+02  0.38609704660E+02  0.00000000000E+00 0.  1.
</event>
<event>
 7    1  0.1978681E-015  0.9000772E+02  0.7816164E-02  0.1186339E+00
        -11   -1    0    0    0    0  0.00000000000E+00  0.00000000000E+00  0.45593999997E+02  0.45594000000E+02  0.51100000000E-03 0. -1.
         11   -1    0    0    0    0 -0.00000000000E+00 -0.00000000000E+00 -0.45593999997E+02  0.45594000000E+02  0.51100000000E-03 0.  1.
    9900012    2    1    2    0    0 -0.48540027947E+00 -0.10383278663E+01  0.28163323215E+00  0.90007722293E+02  0.89999983427E+02 0.  0.
        -12    1    1    2    0    0  0.48540027947E+00  0.10383278663E+01 -0.28163323215E+00  0.11802777074E+01  0.00000000000E+00 0.  1.
         11    1    3    3    0    0 -0.60039508864E+01 -0.23035917811E+02  0.28709875781E+02  0.37295548035E+02  0.51100000000E-03 0. -1.
        -11    1    3    3    0    0  0.52217147825E+00  0.69472382491E+00  0.91696320328E+01  0.92107250596E+01  0.51100000000E-03 0.  1.
        -12    1    3    3    0    0  0.49963791287E+01  0.21302866119E+02 -0.37597874581E+02  0.43501449198E+02  0.00000000000E+00 0.  1.
</event>
<event>
 7    1  0.1978681E-015  0.9000777E+02  0.7816164E-02  0.1186339E+00
        -11   -1    0    0    0    0  0.00000000000E+00  0.00000000000E+00  0.45593999997E+02  0.45594000000E+02  0.51100000000E-03 0. -1.
         11   -1    0    0    0    0 -0.00000000000E+00 -0.00000000000E+00 -0.45593999997E+02  0.45594000000E+02  0.51100000000E-03 0.  1.
    9900012    2    1    2    0    0 -0.45139274843E+00  0.10836697168E+01 -0.12189408048E+00  0.90007765432E+02  0.90000027136E+02 0.  0.
        -12    1    1    2    0    0  0.45139274843E+00 -0.10836697168E+01  0.12189408048E+00  0.11802345679E+01  0.00000000000E+00 0.  1.
         11    1    3    3    0    0  0.37916623222E+00 -0.75678234150E+01 -0.11962263835E+01  0.76711587191E+01  0.51100000000E-03 0. -1.
        -11    1    3    3    0    0  0.18851109765E+02 -0.10041434902E+02 -0.32668469851E+02  0.39031060413E+02  0.51100000000E-03 0.  1.
         12    1    3    3    0    0 -0.19681668746E+02  0.18692928033E+02  0.33742802155E+02  0.43305546300E+02  0.00000000000E+00 0. -1.
</event>
<event>
 7    1  0.1978681E-015  0.9000772E+02  0.7816164E-02  0.1186339E+00
        -11   -1    0    0    0    0  0.00000000000E+00  0.00000000000E+00  0.45593999997E+02  0.45594000000E+02  0.51100000000E-03 0. -1.
         11   -1    0    0    0    0 -0.00000000000E+00 -0.00000000000E+00 -0.45593999997E+02  0.45594000000E+02  0.51100000000E-03 0.  1.
    9900012    2    1    2    0    0 -0.34114516328E+00  0.72023364873E+00  0.87059734192E+00  0.90007721955E+02  0.89999983085E+02 0.  0.
        -12    1    1    2    0    0  0.34114516328E+00 -0.72023364873E+00 -0.87059734192E+00  0.11802780448E+01  0.00000000000E+00 0.  1.
         11    1    3    3    0    0  0.38368621192E+00  0.79539715971E+01 -0.63728320429E+01  0.10199307221E+02  0.51100000000E-03 0. -1.
        -11    1    3    3    0    0 -0.12794824036E+02 -0.20730726864E+02 -0.29851478609E+02  0.38530265167E+02  0.51100000000E-03 0.  1.
         12    1    3    3    0    0  0.12069992661E+02  0.13496988916E+02  0.37094907994E+02  0.41278149567E+02  0.00000000000E+00 0. -1.
</event>
<event>
 7    1  0.1978681E-015  0.9000771E+02  0.7816164E-02  0.1186339E+00
        -11   -1    0    0    0    0  0.00000000000E+00  0.00000000000E+00  0.45593999997E+02  0.45594000000E+02  0.51100000000E-03 0. -1.
         11   -1    0    0    0    0 -0.00000000000E+00 -0.00000000000E+00 -0.45593999997E+02  0.45594000000E+02  0.51100000000E-03 0.  1.
    9900012    2    1    2    0    0  0.20250247511E+00  0.10344185306E+01  0.53108549354E+00  0.90007711582E+02  0.89999972575E+02 0.  0.
        -12    1    1    2    0    0 -0.20250247511E+00 -0.10344185306E+01 -0.53108549354E+00  0.11802884183E+01  0.00000000000E+00 0.  1.
         11    1    3    3    0    0 -0.70086942822E+01  0.10019147998E+02 -0.41787473142E+01  0.12921573106E+02  0.51100000000E-03 0. -1.
        -11    1    3    3    0    0 -0.21203984648E+00  0.28329353311E+02 -0.17239571843E+02  0.33163233520E+02  0.51100000000E-03 0.  1.
         12    1    3    3    0    0  0.74232366038E+01 -0.37314082778E+02  0.21949404651E+02  0.43922904956E+02  0.00000000000E+00 0. -1.
</event>
<event>
 7    1  0.1978681E-015  0.9000778E+02  0.7816164E-02  0.1186339E+00
        -11   -1    0    0    0    0  0.00000000000E+00  0.00000000000E+00  0.45593999997E+02  0.45594000000E+02  0.51100000000E-03 0.  1.
         11   -1    0    0    0    0 -0.00000000000E+00 -0.00000000000E+00 -0.45593999997E+02  0.45594000000E+02  0.51100000000E-03 0. -1.
    9900012    2    1    2    0    0  0.53100157486E+00  0.61471652807E+00 -0.85619871811E+00  0.90007781661E+02  0.90000043579E+02 0.  0.
        -12    1    1    2    0    0 -0.53100157486E+00 -0.61471652807E+00  0.85619871811E+00  0.11802183388E+01  0.00000000000E+00 0.  1.
         11    1    3    3    0    0  0.13760032476E+02  0.24363951195E+02 -0.28020425523E+02  0.39599051230E+02  0.51100000000E-03 0. -1.
        -11    1    3    3    0    0  0.94610110836E+01 -0.94533389567E+00  0.23855021929E+01  0.98028061223E+01  0.51100000000E-03 0.  1.
        -12    1    3    3    0    0 -0.22690041984E+02 -0.22803900771E+02  0.24778724612E+02  0.40605924309E+02  0.00000000000E+00 0.  1.
</event>
<event>
 7    1  0.1978681E-015  0.9000776E+02  0.7816164E-02  0.1186339E+00
        -11   -1    0    0    0    0  0.00000000000E+00  0.00000000000E+00  0.45593999997E+02  0.45594000000E+02  0.51100000000E-03 0.  1.
         11   -1    0    0    0    0 -0.00000000000E+00 -0.00000000000E+00 -0.45593999997E+02  0.45594000000E+02  0.51100000000E-03 0. -1.
    9900012    2    1    2    0    0 -0.82237450555E+00  0.72333393363E+00  0.43983380738E+00  0.90007760370E+02  0.90000022007E+02 0.  0.
        -12    1    1    2    0    0  0.82237450555E+00 -0.72333393363E+00 -0.43983380738E+00  0.11802396303E+01  0.00000000000E+00 0.  1.
         11    1    3    3    0    0 -0.10372013491E+02  0.30642014289E+01 -0.55394623544E+01  0.12151281319E+02  0.51100000000E-03 0. -1.
        -11    1    3    3    0    0 -0.10611010234E+02  0.26884511582E+02  0.24429625479E+02  0.37844115824E+02  0.51100000000E-03 0.  1.
         12    1    3    3    0    0  0.20160649219E+02 -0.29225379077E+02 -0.18450329318E+02  0.40012363227E+02  0.00000000000E+00 0. -1.
</event>
<event>
 7    1  0.1978681E-015  0.9000772E+02  0.7816164E-02  0.1186339E+00
        -11   -1    0    0    0    0  0.00000000000E+00  0.00000000000E+00  0.45593999997E+02  0.45594000000E+02  0.51100000000E-03 0.  1.
         11   -1    0    0    0    0 -0.00000000000E+00 -0.00000000000E+00 -0.45593999997E+02  0.45594000000E+02  0.51100000000E-03 0. -1.
    9900012    2    1    2    0    0 -0.97379915534E-01 -0.58527424549E+00 -0.10203122683E+01  0.90007717866E+02  0.89999978942E+02 0.  0.
        -12    1    1    2    0    0  0.97379915534E-01  0.58527424549E+00  0.10203122683E+01  0.11802821337E+01  0.00000000000E+00 0.  1.
         11    1    3    3    0    0 -0.95656872591E+01 -0.81026950069E+01  0.78477857904E+01  0.14789989222E+02  0.51100000000E-03 0. -1.
        -11    1    3    3    0    0  0.22229266894E+02 -0.19153673437E+02 -0.27545169602E+02  0.40245992116E+02  0.51100000000E-03 0.  1.
         12    1    3    3    0    0 -0.12760959551E+02  0.26671094198E+02  0.18677071543E+02  0.34971736528E+02  0.00000000000E+00 0. -1.
</event>
<event>
 7    1  0.1978681E-015  0.9000773E+02  0.7816164E-02  0.1186339E+00
        -11   -1    0    0    0    0  0.00000000000E+00  0.00000000000E+00  0.45593999997E+02  0.45594000000E+02  0.51100000000E-03 0.  1.
         11   -1    0    0    0    0 -0.00000000000E+00 -0.00000000000E+00 -0.45593999997E+02  0.45594000000E+02  0.51100000000E-03 0. -1.
    9900012    2    1    2    0    0 -0.16119839664E+00 -0.11251884321E+01  0.31779308654E+00  0.90007734616E+02  0.89999995913E+02 0.  0.
        -12    1    1    2    0    0  0.16119839664E+00  0.11251884321E+01 -0.31779308654E+00  0.11802653840E+01  0.00000000000E+00 0.  1.
         11    1    3    3    0    0  0.37409159319E+01  0.31075520025E+02 -0.16472704171E+02  0.35369936101E+02  0.51100000000E-03 0. -1.
        -11    1    3    3    0    0  0.19647320713E+01  0.94766459556E+01  0.11888943224E+01  0.97509210155E+01  0.51100000000E-03 0.  1.
        -12    1    3    3    0    0 -0.58668463998E+01 -0.41677354413E+02  0.15601602935E+02  0.44886877499E+02  0.00000000000E+00 0.  1.
</event>
<event>
 7    1  0.1978681E-015  0.9000789E+02  0.7816164E-02  0.1186339E+00
        -11   -1    0    0    0    0  0.00000000000E+00  0.00000000000E+00  0.45593999997E+02  0.45594000000E+02  0.51100000000E-03 0. -1.
         11   -1    0    0    0    0 -0.00000000000E+00 -0.00000000000E+00 -0.45593999997E+02  0.45594000000E+02  0.51100000000E-03 0.  1.
    9900012    2    1    2    0    0  0.89417153194E+00  0.66796434552E+00  0.38332532508E+00  0.90007890937E+02  0.90000154297E+02 0.  0.
        -12    1    1    2    0    0 -0.89417153194E+00 -0.66796434552E+00 -0.38332532508E+00  0.11801090629E+01  0.00000000000E+00 0.  1.
         11    1    3    3    0    0 -0.74249083905E+01  0.10243993723E+01 -0.10790793334E+01  0.75725207923E+01  0.51100000000E-03 0. -1.
        -11    1    3    3    0    0 -0.23308085141E+02 -0.10905942138E+01 -0.29874169063E+02  0.37906756735E+02  0.51100000000E-03 0.  1.
         12    1    3    3    0    0  0.31627165063E+02  0.73415918700E+00  0.31336573721E+02  0.44528613410E+02  0.00000000000E+00 0. -1.
</event>
<event>
 7    1  0.2426538E-015  0.9000772E+02  0.7816164E-02  0.1186339E+00
        -11   -1    0    0    0    0  0.00000000000E+00  0.00000000000E+00  0.45593999997E+02  0.45594000000E+02  0.51100000000E-03 0.  1.
         11   -1    0    0    0    0 -0.00000000000E+00 -0.00000000000E+00 -0.45593999997E+02  0.45594000000E+02  0.51100000000E-03 0. -1.
    9900012    2    1    2    0    0  0.10732721184E+01 -0.23335364114E+00 -0.43209123873E+00  0.90007716220E+02  0.89999977274E+02 0.  0.
        -12    1    1    2    0    0 -0.10732721184E+01  0.23335364114E+00  0.43209123873E+00  0.11802837797E+01  0.00000000000E+00 0.  1.
         11    1    3    3    0    0  0.61867874752E+01  0.10326401029E+01 -0.71027177204E+01  0.94758263029E+01  0.51100000000E-03 0. -1.
        -11    1    3    3    0    0  0.35347694183E+02 -0.11771492759E+02  0.10063927191E+02  0.38591581422E+02  0.51100000000E-03 0.  1.
         12    1    3    3    0    0 -0.40461209540E+02  0.10505499015E+02 -0.33933007094E+01  0.41940308496E+02  0.00000000000E+00 0. -1.
</event>
<event>
 7    1  0.1978681E-015  0.9000777E+02  0.7816164E-02  0.1186339E+00
        -11   -1    0    0    0    0  0.00000000000E+00  0.00000000000E+00  0.45593999997E+02  0.45594000000E+02  0.51100000000E-03 0.  1.
         11   -1    0    0    0    0 -0.00000000000E+00 -0.00000000000E+00 -0.45593999997E+02  0.45594000000E+02  0.51100000000E-03 0. -1.
    9900012    2    1    2    0    0  0.10918273815E+01  0.25442925386E+00 -0.36894414213E+00  0.90007770761E+02  0.90000032535E+02 0.  0.
        -12    1    1    2    0    0 -0.10918273815E+01 -0.25442925386E+00  0.36894414213E+00  0.11802292388E+01  0.00000000000E+00 0.  1.
         11    1    3    3    0    0 -0.82352419209E+01 -0.33843060330E+01 -0.19854588249E+01  0.91222137569E+01  0.51100000000E-03 0. -1.
        -11    1    3    3    0    0 -0.14825035005E+02 -0.29781965046E+02  0.16388077124E+02  0.37085255520E+02  0.51100000000E-03 0.  1.
         12    1    3    3    0    0  0.24152104307E+02  0.33420700333E+02 -0.14771562441E+02  0.43800301485E+02  0.00000000000E+00 0. -1.
</event>
<event>
 7    1  0.1978681E-015  0.9000720E+02  0.7816164E-02  0.1186340E+00
        -11   -1    0    0    0    0  0.00000000000E+00  0.00000000000E+00  0.45593999997E+02  0.45594000000E+02  0.51100000000E-03 0.  1.
         11   -1    0    0    0    0 -0.00000000000E+00 -0.00000000000E+00 -0.45593999997E+02  0.45594000000E+02  0.51100000000E-03 0. -1.
    9900012    2    1    2    0    0 -0.99157103762E+00  0.63962517649E+00 -0.44322568675E-01  0.90007196045E+02  0.89999450232E+02 0.  0.
        -12    1    1    2    0    0  0.99157103762E+00 -0.63962517649E+00  0.44322568675E-01  0.11808039546E+01  0.00000000000E+00 0.  1.
         11    1    3    3    0    0  0.43637536307E+01 -0.83738067667E+01 -0.18821158381E+01  0.96283615328E+01  0.51100000000E-03 0. -1.
        -11    1    3    3    0    0 -0.29033516401E+02 -0.17351784939E+02 -0.19471988986E+02  0.39028039542E+02  0.51100000000E-03 0.  1.
         12    1    3    3    0    0  0.23678191733E+02  0.26365216882E+02  0.21309782255E+02  0.41350794971E+02  0.00000000000E+00 0. -1.
</event>
<event>
 7    1  0.1978681E-015  0.9000786E+02  0.7816164E-02  0.1186339E+00
        -11   -1    0    0    0    0  0.00000000000E+00  0.00000000000E+00  0.45593999997E+02  0.45594000000E+02  0.51100000000E-03 0.  1.
         11   -1    0    0    0    0 -0.00000000000E+00 -0.00000000000E+00 -0.45593999997E+02  0.45594000000E+02  0.51100000000E-03 0. -1.
    9900012    2    1    2    0    0  0.10363885104E+01  0.43349431659E+00  0.36153405048E+00  0.90007862153E+02  0.90000125134E+02 0.  0.
        -12    1    1    2    0    0 -0.10363885104E+01 -0.43349431659E+00 -0.36153405048E+00  0.11801378465E+01  0.00000000000E+00 0.  1.
         11    1    3    3    0    0 -0.28215235314E+02  0.23111822635E+02 -0.19009552480E+02  0.41129295339E+02  0.51100000000E-03 0. -1.
        -11    1    3    3    0    0 -0.68389441592E+00 -0.94043180434E+01 -0.21785206921E+01  0.96775442184E+01  0.51100000000E-03 0.  1.
        -12    1    3    3    0    0  0.29935518240E+02 -0.13274010275E+02  0.21549607223E+02  0.39201022596E+02  0.00000000000E+00 0.  1.
</event>
<event>
 7    1  0.1978681E-015  0.9000771E+02  0.7816164E-02  0.1186339E+00
        -11   -1    0    0    0    0  0.00000000000E+00  0.00000000000E+00  0.45593999997E+02  0.45594000000E+02  0.51100000000E-03 0.  1.
         11   -1    0    0    0    0 -0.00000000000E+00 -0.00000000000E+00 -0.45593999997E+02  0.45594000000E+02  0.51100000000E-03 0. -1.
    9900012    2    1    2    0    0 -0.81236549047E+00  0.72767475062E+00 -0.45125813878E+00  0.90007710993E+02  0.89999971978E+02 0.  0.
        -12    1    1    2    0    0  0.81236549047E+00 -0.72767475062E+00  0.45125813878E+00  0.11802890072E+01  0.00000000000E+00 0.  1.
         11    1    3    3    0    0 -0.15821991087E+02 -0.21682290596E+02 -0.28774361113E+02  0.39349980752E+02  0.51100000000E-03 0. -1.
        -11    1    3    3    0    0 -0.91598468695E+01  0.11450074834E+01  0.30241250147E+01  0.97138647909E+01  0.51100000000E-03 0.  1.
        -12    1    3    3    0    0  0.24169472466E+02  0.21264957864E+02  0.25298977959E+02  0.40943865450E+02  0.00000000000E+00 0.  1.
</event>
<event>
 7    1  0.1978681E-015  0.9000772E+02  0.7816164E-02  0.1186339E+00
        -11   -1    0    0    0    0  0.00000000000E+00  0.00000000000E+00  0.45593999997E+02  0.45594000000E+02  0.51100000000E-03 0.  1.
         11   -1    0    0    0    0 -0.00000000000E+00 -0.00000000000E+00 -0.45593999997E+02  0.45594000000E+02  0.51100000000E-03 0. -1.
    9900012    2    1    2    0    0 -0.55013188575E+00  0.87172432581E-01 -0.10405841601E+01  0.90007720576E+02  0.89999981687E+02 0.  0.
        -12    1    1    2    0    0  0.55013188575E+00 -0.87172432581E-01  0.10405841601E+01  0.11802794241E+01  0.00000000000E+00 0.  1.
         11    1    3    3    0    0  0.83227100018E+00 -0.61309699070E+01  0.61987331746E+01  0.87581824741E+01  0.51100000000E-03 0. -1.
        -11    1    3    3    0    0 -0.69948177549E+01 -0.35941977541E+02  0.50854873433E+01  0.36967761722E+02  0.51100000000E-03 0.  1.
         12    1    3    3    0    0  0.56124148690E+01  0.42160119880E+02 -0.12324804678E+02  0.44281776380E+02  0.00000000000E+00 0. -1.
</event>
<event>
 7    1  0.3019519E-015  0.9000762E+02  0.7816164E-02  0.1186339E+00
        -11   -1    0    0    0    0  0.00000000000E+00  0.00000000000E+00  0.45593999997E+02  0.45594000000E+02  0.51100000000E-03 0. -1.
         11   -1    0    0    0    0 -0.00000000000E+00 -0.00000000000E+00 -0.45593999997E+02  0.45594000000E+02  0.51100000000E-03 0.  1.
    9900012    2    1    2    0    0 -0.25264332879E+00 -0.10176291116E+00  0.11485242111E+01  0.90007622008E+02  0.89999881818E+02 0.  0.
        -12    1    1    2    0    0  0.25264332879E+00  0.10176291116E+00 -0.11485242111E+01  0.11803779925E+01  0.00000000000E+00 0.  1.
         11    1    3    3    0    0 -0.84583727550E+01 -0.43375484818E+01 -0.45025749002E+00  0.95163610988E+01  0.51100000000E-03 0. -1.
        -11    1    3    3    0    0 -0.23872477120E+02 -0.11046716328E+02 -0.24857262585E+02  0.36191278078E+02  0.51100000000E-03 0.  1.
         12    1    3    3    0    0  0.32078206547E+02  0.15282501898E+02  0.26456044286E+02  0.44299982830E+02  0.00000000000E+00 0. -1.
</event>
<event>
 7    1  0.1978681E-015  0.9000770E+02  0.7816164E-02  0.1186339E+00
        -11   -1    0    0    0    0  0.00000000000E+00  0.00000000000E+00  0.45593999997E+02  0.45594000000E+02  0.51100000000E-03 0. -1.
         11   -1    0    0    0    0 -0.00000000000E+00 -0.00000000000E+00 -0.45593999997E+02  0.45594000000E+02  0.51100000000E-03 0.  1.
    9900012    2    1    2    0    0  0.30104810192E+00  0.27582310761E+00  0.11074240863E+01  0.90007704930E+02  0.89999965835E+02 0.  0.
        -12    1    1    2    0    0 -0.30104810192E+00 -0.27582310761E+00 -0.11074240863E+01  0.11802950705E+01  0.00000000000E+00 0.  1.
         11    1    3    3    0    0 -0.13446607314E+02 -0.33025462729E+02  0.83831845444E+01  0.36630181819E+02  0.51100000000E-03 0. -1.
        -11    1    3    3    0    0  0.24888633573E+01 -0.75265126540E+01  0.48885592173E+01  0.93134765272E+01  0.51100000000E-03 0.  1.
        -12    1    3    3    0    0  0.11258792059E+02  0.40827798490E+02 -0.12164319675E+02  0.44064046584E+02  0.00000000000E+00 0.  1.
</event>
<event>
 7    1  0.1978681E-015  0.9000773E+02  0.7816164E-02  0.1186339E+00
        -11   -1    0    0    0    0  0.00000000000E+00  0.00000000000E+00  0.45593999997E+02  0.45594000000E+02  0.51100000000E-03 0.  1.
         11   -1    0    0    0    0 -0.00000000000E+00 -0.00000000000E+00 -0.45593999997E+02  0.45594000000E+02  0.51100000000E-03 0. -1.
    9900012    2    1    2    0    0 -0.40112187444E+00  0.64428507990E+00 -0.90390274954E+00  0.90007727911E+02  0.89999989120E+02 0.  0.
        -12    1    1    2    0    0  0.40112187444E+00 -0.64428507990E+00  0.90390274954E+00  0.11802720885E+01  0.00000000000E+00 0.  1.
         11    1    3    3    0    0  0.79501184616E+01 -0.56719961231E+01 -0.33120624476E+00  0.97716744426E+01  0.51100000000E-03 0. -1.
        -11    1    3    3    0    0  0.25198107400E+02 -0.24152494807E+02 -0.87729691630E+00  0.34915000674E+02  0.51100000000E-03 0.  1.
         12    1    3    3    0    0 -0.33549347736E+02  0.30468776010E+02  0.30460041152E+00  0.45321052795E+02  0.00000000000E+00 0. -1.
</event>
<event>
 7    1  0.1978681E-015  0.9000775E+02  0.7816164E-02  0.1186339E+00
        -11   -1    0    0    0    0  0.00000000000E+00  0.00000000000E+00  0.45593999997E+02  0.45594000000E+02  0.51100000000E-03 0. -1.
         11   -1    0    0    0    0 -0.00000000000E+00 -0.00000000000E+00 -0.45593999997E+02  0.45594000000E+02  0.51100000000E-03 0.  1.
    9900012    2    1    2    0    0  0.10709658606E+01  0.44756692434E+00  0.21381277065E+00  0.90007745821E+02  0.90000007266E+02 0.  0.
        -12    1    1    2    0    0 -0.10709658606E+01 -0.44756692434E+00 -0.21381277065E+00  0.11802541791E+01  0.00000000000E+00 0.  1.
         11    1    3    3    0    0 -0.27366383266E+02 -0.27238232371E+02  0.50003585650E+01  0.38933839032E+02  0.51100000000E-03 0. -1.
        -11    1    3    3    0    0  0.22356740209E+01 -0.50305044020E+01  0.56401211768E+01  0.78813184187E+01  0.51100000000E-03 0.  1.
        -12    1    3    3    0    0  0.26201675106E+02  0.32716303697E+02 -0.10426666971E+02  0.43192588370E+02  0.00000000000E+00 0.  1.
</event>
<event>
 7    1  0.1978681E-015  0.9000781E+02  0.7816164E-02  0.1186339E+00
        -11   -1    0    0    0    0  0.00000000000E+00  0.00000000000E+00  0.45593999997E+02  0.45594000000E+02  0.51100000000E-03 0.  1.
         11   -1    0    0    0    0 -0.00000000000E+00 -0.00000000000E+00 -0.45593999997E+02  0.45594000000E+02  0.51100000000E-03 0. -1.
    9900012    2    1    2    0    0 -0.95168327492E+00  0.40801605789E+00  0.56626836807E+00  0.90007814411E+02  0.90000076761E+02 0.  0.
        -12    1    1    2    0    0  0.95168327492E+00 -0.40801605789E+00 -0.56626836807E+00  0.11801855888E+01  0.00000000000E+00 0.  1.
         11    1    3    3    0    0  0.28534742602E+02  0.11656935627E+01 -0.19773669273E+02  0.34735980965E+02  0.51100000000E-03 0. -1.
        -11    1    3    3    0    0  0.80187597670E+01 -0.23580322565E+01 -0.52223441499E+01  0.98556432061E+01  0.51100000000E-03 0.  1.
        -12    1    3    3    0    0 -0.37505185644E+02  0.16003547517E+01  0.25562281791E+02  0.45416190240E+02  0.00000000000E+00 0.  1.
</event>
<event>
 7    1  0.1978681E-015  0.9000778E+02  0.7816164E-02  0.1186339E+00
        -11   -1    0    0    0    0  0.00000000000E+00  0.00000000000E+00  0.45593999997E+02  0.45594000000E+02  0.51100000000E-03 0. -1.
         11   -1    0    0    0    0 -0.00000000000E+00 -0.00000000000E+00 -0.45593999997E+02  0.45594000000E+02  0.51100000000E-03 0.  1.
    9900012    2    1    2    0    0  0.10431024582E+01 -0.46445582200E+00  0.29856094644E+00  0.90007779433E+02  0.90000041321E+02 0.  0.
        -12    1    1    2    0    0 -0.10431024582E+01  0.46445582200E+00 -0.29856094644E+00  0.11802205674E+01  0.00000000000E+00 0.  1.
         11    1    3    3    0    0  0.14972173980E+01 -0.76644183121E+01  0.25424719037E+00  0.78134249785E+01  0.51100000000E-03 0. -1.
        -11    1    3    3    0    0 -0.33633155224E+02  0.14325874649E+02 -0.21101102298E+02  0.42209907998E+02  0.51100000000E-03 0.  1.
         12    1    3    3    0    0  0.33179040284E+02 -0.71259121588E+01  0.21145416054E+02  0.39984446456E+02  0.00000000000E+00 0. -1.
</event>
<event>
 7    1  0.1978681E-015  0.9000775E+02  0.7816164E-02  0.1186339E+00
        -11   -1    0    0    0    0  0.00000000000E+00  0.00000000000E+00  0.45593999997E+02  0.45594000000E+02  0.51100000000E-03 0.  1.
         11   -1    0    0    0    0 -0.00000000000E+00 -0.00000000000E+00 -0.45593999997E+02  0.45594000000E+02  0.51100000000E-03 0. -1.
    9900012    2    1    2    0    0 -0.10304524067E+01 -0.43853784185E+00  0.37262168366E+00  0.90007748111E+02  0.90000009587E+02 0.  0.
        -12    1    1    2    0    0  0.10304524067E+01  0.43853784185E+00 -0.37262168366E+00  0.11802518885E+01  0.00000000000E+00 0.  1.
         11    1    3    3    0    0 -0.34554227587E+02 -0.12992377310E+02  0.71050029480E+01  0.37593584286E+02  0.51100000000E-03 0. -1.
        -11    1    3    3    0    0 -0.28015881780E+01 -0.85820528211E+01  0.25364700935E+01  0.93773241247E+01  0.51100000000E-03 0.  1.
        -12    1    3    3    0    0  0.36325363358E+02  0.21135892289E+02 -0.92688513579E+01  0.43036839701E+02  0.00000000000E+00 0.  1.
</event>
<event>
 7    1  0.1978681E-015  0.9000782E+02  0.7816164E-02  0.1186339E+00
        -11   -1    0    0    0    0  0.00000000000E+00  0.00000000000E+00  0.45593999997E+02  0.45594000000E+02  0.51100000000E-03 0.  1.
         11   -1    0    0    0    0 -0.00000000000E+00 -0.00000000000E+00 -0.45593999997E+02  0.45594000000E+02  0.51100000000E-03 0. -1.
    9900012    2    1    2    0    0 -0.70843869708E+00  0.94248509076E+00  0.51635189120E-01  0.90007817927E+02  0.90000080323E+02 0.  0.
        -12    1    1    2    0    0  0.70843869708E+00 -0.94248509076E+00 -0.51635189120E-01  0.11801820735E+01  0.00000000000E+00 0.  1.
         11    1    3    3    0    0  0.11675340557E+02  0.35436941531E+02 -0.12235358270E+02  0.39265689787E+02  0.51100000000E-03 0. -1.
        -11    1    3    3    0    0 -0.15905332726E+01  0.17675306461E+00 -0.86698334388E+01  0.88162945648E+01  0.51100000000E-03 0.  1.
        -12    1    3    3    0    0 -0.10793245981E+02 -0.34671209505E+02  0.20956826897E+02  0.41925833575E+02  0.00000000000E+00 0.  1.
</event>
<event>
 7    1  0.1978681E-015  0.9000776E+02  0.7816164E-02  0.1186339E+00
        -11   -1    0    0    0    0  0.00000000000E+00  0.00000000000E+00  0.45593999997E+02  0.45594000000E+02  0.51100000000E-03 0.  1.
         11   -1    0    0    0    0 -0.00000000000E+00 -0.00000000000E+00 -0.45593999997E+02  0.45594000000E+02  0.51100000000E-03 0. -1.
    9900012    2    1    2    0    0  0.34291411809E+00  0.92533015577E+00 -0.64740289977E+00  0.90007764217E+02  0.90000025904E+02 0.  0.
        -12    1    1    2    0    0 -0.34291411809E+00 -0.92533015577E+00  0.64740289977E+00  0.11802357833E+01  0.00000000000E+00 0.  1.
         11    1    3    3    0    0  0.32465884744E+02 -0.15956031879E+02  0.15639073727E+02  0.39410775847E+02  0.51100000000E-03 0. -1.
        -11    1    3    3    0    0  0.33177264299E+01  0.86462533024E+01  0.25772157130E+01  0.96128583639E+01  0.51100000000E-03 0.  1.
        -12    1    3    3    0    0 -0.35440697056E+02  0.82351087323E+01 -0.18863692340E+02  0.40984130006E+02  0.00000000000E+00 0.  1.
</event>
<event>
 7    1  0.1978681E-015  0.9000746E+02  0.7816164E-02  0.1186340E+00
        -11   -1    0    0    0    0  0.00000000000E+00  0.00000000000E+00  0.45593999997E+02  0.45594000000E+02  0.51100000000E-03 0. -1.
         11   -1    0    0    0    0 -0.00000000000E+00 -0.00000000000E+00 -0.45593999997E+02  0.45594000000E+02  0.51100000000E-03 0.  1.
    9900012    2    1    2    0    0  0.40505049170E+00  0.56851741209E+00  0.95205195268E+00  0.90007457384E+02  0.89999715021E+02 0.  0.
        -12    1    1    2    0    0 -0.40505049170E+00 -0.56851741209E+00 -0.95205195268E+00  0.11805426165E+01  0.00000000000E+00 0.  1.
         11    1    3    3    0    0 -0.68348422569E+01  0.50899349082E+01  0.11428572325E+02  0.14256043340E+02  0.51100000000E-03 0. -1.
        -11    1    3    3    0    0  0.13264904451E+02  0.25233543683E+02  0.18337028927E+02  0.33895959155E+02  0.51100000000E-03 0.  1.
         12    1    3    3    0    0 -0.60250117027E+01 -0.29754961179E+02 -0.28813549299E+02  0.41855454889E+02  0.00000000000E+00 0. -1.
</event>
<event>
 7    1  0.1978681E-015  0.9000779E+02  0.7816164E-02  0.1186339E+00
        -11   -1    0    0    0    0  0.00000000000E+00  0.00000000000E+00  0.45593999997E+02  0.45594000000E+02  0.51100000000E-03 0.  1.
         11   -1    0    0    0    0 -0.00000000000E+00 -0.00000000000E+00 -0.45593999997E+02  0.45594000000E+02  0.51100000000E-03 0. -1.
    9900012    2    1    2    0    0  0.16377262296E+00  0.75302507379E+00 -0.89388684367E+00  0.90007787340E+02  0.90000049333E+02 0.  0.
        -12    1    1    2    0    0 -0.16377262296E+00 -0.75302507379E+00  0.89388684367E+00  0.11802126601E+01  0.00000000000E+00 0.  1.
         11    1    3    3    0    0 -0.85784230474E+01  0.32897999532E+02  0.16796055909E+02  0.37920643580E+02  0.51100000000E-03 0. -1.
        -11    1    3    3    0    0  0.70478038345E+01  0.62960386373E+01  0.62748923384E+00  0.94712926473E+01  0.51100000000E-03 0.  1.
        -12    1    3    3    0    0  0.16943918359E+01 -0.38441013095E+02 -0.18317431986E+02  0.42615851113E+02  0.00000000000E+00 0.  1.
</event>
<event>
 7    1  0.1978681E-015  0.9000743E+02  0.7816164E-02  0.1186340E+00
        -11   -1    0    0    0    0  0.00000000000E+00  0.00000000000E+00  0.45593999997E+02  0.45594000000E+02  0.51100000000E-03 0.  1.
         11   -1    0    0    0    0 -0.00000000000E+00 -0.00000000000E+00 -0.45593999997E+02  0.45594000000E+02  0.51100000000E-03 0. -1.
    9900012    2    1    2    0    0  0.79081778454E+00  0.67898720965E+00 -0.55436937915E+00  0.90007431574E+02  0.89999688871E+02 0.  0.
        -12    1    1    2    0    0 -0.79081778454E+00 -0.67898720965E+00  0.55436937915E+00  0.11805684257E+01  0.00000000000E+00 0.  1.
         11    1    3    3    0    0  0.21453445918E+02  0.12866382149E+02 -0.20664450156E+01  0.25101082180E+02  0.51100000000E-03 0. -1.
        -11    1    3    3    0    0 -0.12124582557E+02  0.22754291221E+02 -0.92003564913E+01  0.27375350792E+02  0.51100000000E-03 0.  1.
         12    1    3    3    0    0 -0.85380455761E+01 -0.34941686160E+02  0.10712432128E+02  0.37530998602E+02  0.00000000000E+00 0. -1.
</event>
<event>
 7    1  0.1978681E-015  0.9000750E+02  0.7816164E-02  0.1186340E+00
        -11   -1    0    0    0    0  0.00000000000E+00  0.00000000000E+00  0.45593999997E+02  0.45594000000E+02  0.51100000000E-03 0.  1.
         11   -1    0    0    0    0 -0.00000000000E+00 -0.00000000000E+00 -0.45593999997E+02  0.45594000000E+02  0.51100000000E-03 0. -1.
    9900012    2    1    2    0    0  0.10646856246E+01 -0.13392978915E+00 -0.49202003492E+00  0.90007501638E+02  0.89999759859E+02 0.  0.
        -12    1    1    2    0    0 -0.10646856246E+01  0.13392978915E+00  0.49202003492E+00  0.11804983618E+01  0.00000000000E+00 0.  1.
         11    1    3    3    0    0 -0.17151081906E+02  0.12189289521E+02 -0.30365864140E+02  0.36943525749E+02  0.51100000000E-03 0. -1.
        -11    1    3    3    0    0  0.54891978545E-01  0.45613209632E+00 -0.86156216605E+01  0.86278622193E+01  0.51100000000E-03 0.  1.
        -12    1    3    3    0    0  0.18160875552E+02 -0.12779351406E+02  0.38489465765E+02  0.44436113670E+02  0.00000000000E+00 0.  1.
</event>
<event>
 7    1  0.1978681E-015  0.9000775E+02  0.7816164E-02  0.1186339E+00
        -11   -1    0    0    0    0  0.00000000000E+00  0.00000000000E+00  0.45593999997E+02  0.45594000000E+02  0.51100000000E-03 0.  1.
         11   -1    0    0    0    0 -0.00000000000E+00 -0.00000000000E+00 -0.45593999997E+02  0.45594000000E+02  0.51100000000E-03 0. -1.
    9900012    2    1    2    0    0 -0.11214792610E+01 -0.15767836894E+00  0.33227272917E+00  0.90007752836E+02  0.90000014374E+02 0.  0.
        -12    1    1    2    0    0  0.11214792610E+01  0.15767836894E+00 -0.33227272917E+00  0.11802471637E+01  0.00000000000E+00 0.  1.
         11    1    3    3    0    0  0.18854123101E+01  0.61116736802E+01  0.67309158849E+01  0.92850720871E+01  0.51100000000E-03 0. -1.
        -11    1    3    3    0    0  0.33697662239E+02  0.63236587486E+01  0.13820161803E+02  0.36966443876E+02  0.51100000000E-03 0.  1.
         12    1    3    3    0    0 -0.36704553810E+02 -0.12593010798E+02 -0.20218804958E+02  0.43756236873E+02  0.00000000000E+00 0. -1.
</event>
<event>
 7    1  0.1978681E-015  0.9000794E+02  0.7816164E-02  0.1186339E+00
        -11   -1    0    0    0    0  0.00000000000E+00  0.00000000000E+00  0.45593999997E+02  0.45594000000E+02  0.51100000000E-03 0. -1.
         11   -1    0    0    0    0 -0.00000000000E+00 -0.00000000000E+00 -0.45593999997E+02  0.45594000000E+02  0.51100000000E-03 0.  1.
    9900012    2    1    2    0    0 -0.96164499448E+00  0.68365953063E+00 -0.19887489390E-01  0.90007937730E+02  0.90000201708E+02 0.  0.
        -12    1    1    2    0    0  0.96164499448E+00 -0.68365953063E+00  0.19887489390E-01  0.11800622702E+01  0.00000000000E+00 0.  1.
         11    1    3    3    0    0 -0.36696346288E+01  0.16202446394E+02  0.34784421915E+01  0.16973068309E+02  0.51100000000E-03 0. -1.
        -11    1    3    3    0    0 -0.11774438790E+02  0.16205749891E+02 -0.25022909793E+02  0.32053233115E+02  0.51100000000E-03 0.  1.
         12    1    3    3    0    0  0.14482428424E+02 -0.31724536755E+02  0.21524580112E+02  0.40981636306E+02  0.00000000000E+00 0. -1.
</event>
<event>
 7    1  0.1978681E-015  0.9000780E+02  0.7816164E-02  0.1186339E+00
        -11   -1    0    0    0    0  0.00000000000E+00  0.00000000000E+00  0.45593999997E+02  0.45594000000E+02  0.51100000000E-03 0. -1.
         11   -1    0    0    0    0 -0.00000000000E+00 -0.00000000000E+00 -0.45593999997E+02  0.45594000000E+02  0.51100000000E-03 0.  1.
    9900012    2    1    2    0    0  0.60154880265E+00 -0.26851829484E+00  0.97923827966E+00  0.90007800591E+02  0.90000062759E+02 0.  0.
        -12    1    1    2    0    0 -0.60154880265E+00  0.26851829484E+00 -0.97923827966E+00  0.11801994090E+01  0.00000000000E+00 0.  1.
         11    1    3    3    0    0 -0.35808179584E+02  0.10645481237E+02 -0.16362222131E+02  0.40783260159E+02  0.51100000000E-03 0. -1.
        -11    1    3    3    0    0 -0.14904147801E+01 -0.41452267268E+01  0.87225468411E+01  0.97717482821E+01  0.51100000000E-03 0.  1.
        -12    1    3    3    0    0  0.37900143166E+02 -0.67687728048E+01  0.86189135695E+01  0.39452792150E+02  0.00000000000E+00 0.  1.
</event>
<event>
 7    1  0.1978681E-015  0.9000774E+02  0.7816164E-02  0.1186339E+00
        -11   -1    0    0    0    0  0.00000000000E+00  0.00000000000E+00  0.45593999997E+02  0.45594000000E+02  0.51100000000E-03 0.  1.
         11   -1    0    0    0    0 -0.00000000000E+00 -0.00000000000E+00 -0.45593999997E+02  0.45594000000E+02  0.51100000000E-03 0. -1.
    9900012    2    1    2    0    0 -0.89482719764E+00 -0.72622105128E+00 -0.25474166384E+00  0.90007743230E+02  0.90000004640E+02 0.  0.
        -12    1    1    2    0    0  0.89482719764E+00  0.72622105128E+00  0.25474166384E+00  0.11802567705E+01  0.00000000000E+00 0.  1.
         11    1    3    3    0    0 -0.13387480478E+02  0.33862080121E+02 -0.15625509563E+02  0.39623498748E+02  0.51100000000E-03 0. -1.
        -11    1    3    3    0    0  0.71940210281E+01  0.14363528724E+01 -0.47918415527E+01  0.87623509319E+01  0.51100000000E-03 0.  1.
        -12    1    3    3    0    0  0.52986322520E+01 -0.36024654044E+02  0.20162609452E+02  0.41621893550E+02  0.00000000000E+00 0.  1.
</event>
<event>
 7    1  0.1978681E-015  0.9000770E+02  0.7816164E-02  0.1186339E+00
        -11   -1    0    0    0    0  0.00000000000E+00  0.00000000000E+00  0.45593999997E+02  0.45594000000E+02  0.51100000000E-03 0. -1.
         11   -1    0    0    0    0 -0.00000000000E+00 -0.00000000000E+00 -0.45593999997E+02  0.45594000000E+02  0.51100000000E-03 0.  1.
    9900012    2    1    2    0    0 -0.37786746565E-01 -0.10935142198E+01 -0.44261809663E+00  0.90007698358E+02  0.89999959176E+02 0.  0.
        -12    1    1    2    0    0  0.37786746565E-01  0.10935142198E+01  0.44261809663E+00  0.11803016422E+01  0.00000000000E+00 0.  1.
         11    1    3    3    0    0 -0.75333793541E+01  0.56723511578E+00  0.59588823172E+01  0.96219456921E+01  0.51100000000E-03 0. -1.
        -11    1    3    3    0    0 -0.25893765873E+02  0.75387196930E+01 -0.28551604968E+02  0.39274846304E+02  0.51100000000E-03 0.  1.
         12    1    3    3    0    0  0.33389358480E+02 -0.91994690286E+01  0.22150104554E+02  0.41110906362E+02  0.00000000000E+00 0. -1.
</event>
<event>
 7    1  0.1978681E-015  0.9000789E+02  0.7816164E-02  0.1186339E+00
        -11   -1    0    0    0    0  0.00000000000E+00  0.00000000000E+00  0.45593999997E+02  0.45594000000E+02  0.51100000000E-03 0.  1.
         11   -1    0    0    0    0 -0.00000000000E+00 -0.00000000000E+00 -0.45593999997E+02  0.45594000000E+02  0.51100000000E-03 0. -1.
    9900012    2    1    2    0    0  0.67890939257E+00  0.73704804062E+00  0.62329338666E+00  0.90007893046E+02  0.90000156434E+02 0.  0.
        -12    1    1    2    0    0 -0.67890939257E+00 -0.73704804062E+00 -0.62329338666E+00  0.11801069542E+01  0.00000000000E+00 0.  1.
         11    1    3    3    0    0  0.11821202293E+02 -0.34069477402E+02 -0.22314015765E+02  0.42407374523E+02  0.51100000000E-03 0. -1.
        -11    1    3    3    0    0 -0.34131157950E+01  0.71449773704E-01  0.85700101425E+01  0.92249411165E+01  0.51100000000E-03 0.  1.
        -12    1    3    3    0    0 -0.77291771054E+01  0.34735075669E+02  0.14367299009E+02  0.38375577406E+02  0.00000000000E+00 0.  1.
</event>
<event>
 7    1  0.1978681E-015  0.9000709E+02  0.7816164E-02  0.1186340E+00
        -11   -1    0    0    0    0  0.00000000000E+00  0.00000000000E+00  0.45593999997E+02  0.45594000000E+02  0.51100000000E-03 0.  1.
         11   -1    0    0    0    0 -0.00000000000E+00 -0.00000000000E+00 -0.45593999997E+02  0.45594000000E+02  0.51100000000E-03 0. -1.
    9900012    2    1    2    0    0  0.20292254041E+00  0.71346211643E+00 -0.91887688161E+00  0.90007093368E+02  0.89999346198E+02 0.  0.
        -12    1    1    2    0    0 -0.20292254041E+00 -0.71346211643E+00  0.91887688161E+00  0.11809066316E+01  0.00000000000E+00 0.  1.
         11    1    3    3    0    0 -0.87993492823E+01 -0.35510221081E+01 -0.14682867201E+01  0.96017796245E+01  0.51100000000E-03 0. -1.
        -11    1    3    3    0    0 -0.19494419649E+02  0.19752508264E+02  0.26875020380E+02  0.38632378919E+02  0.51100000000E-03 0.  1.
         12    1    3    3    0    0  0.28496691472E+02 -0.15488024040E+02 -0.26325610542E+02  0.41772934825E+02  0.00000000000E+00 0. -1.
</event>
<event>
 7    1  0.1978681E-015  0.9000712E+02  0.7816164E-02  0.1186340E+00
        -11   -1    0    0    0    0  0.00000000000E+00  0.00000000000E+00  0.45593999997E+02  0.45594000000E+02  0.51100000000E-03 0.  1.
         11   -1    0    0    0    0 -0.00000000000E+00 -0.00000000000E+00 -0.45593999997E+02  0.45594000000E+02  0.51100000000E-03 0. -1.
    9900012    2    1    2    0    0 -0.96235821312E+00 -0.56364133157E+00 -0.38812717500E+00  0.90007124230E+02  0.89999377467E+02 0.  0.
        -12    1    1    2    0    0  0.96235821312E+00  0.56364133157E+00  0.38812717500E+00  0.11808757703E+01  0.00000000000E+00 0.  1.
         11    1    3    3    0    0 -0.10666356236E+02 -0.26608293044E+01 -0.17680083849E+02  0.20819138626E+02  0.51100000000E-03 0. -1.
        -11    1    3    3    0    0 -0.81389982417E+01  0.45727278726E+00  0.39682130422E+02  0.40510787031E+02  0.51100000000E-03 0.  1.
         12    1    3    3    0    0  0.17842996265E+02  0.16399151856E+01 -0.22390173748E+02  0.28677198573E+02  0.00000000000E+00 0. -1.
</event>
<event>
 7    1  0.1978681E-015  0.9000761E+02  0.7816164E-02  0.1186339E+00
        -11   -1    0    0    0    0  0.00000000000E+00  0.00000000000E+00  0.45593999997E+02  0.45594000000E+02  0.51100000000E-03 0.  1.
         11   -1    0    0    0    0 -0.00000000000E+00 -0.00000000000E+00 -0.45593999997E+02  0.45594000000E+02  0.51100000000E-03 0. -1.
    9900012    2    1    2    0    0  0.89809306578E+00 -0.53635033845E+00 -0.54688737334E+00  0.90007606574E+02  0.89999866181E+02 0.  0.
        -12    1    1    2    0    0 -0.89809306578E+00  0.53635033845E+00  0.54688737334E+00  0.11803934257E+01  0.00000000000E+00 0.  1.
         11    1    3    3    0    0 -0.34171959905E+02 -0.69235304522E+01  0.12236733142E+02  0.36951261899E+02  0.51100000000E-03 0. -1.
        -11    1    3    3    0    0 -0.23783958963E-01 -0.11844712499E+02 -0.43621257435E+01  0.12622437210E+02  0.51100000000E-03 0.  1.
        -12    1    3    3    0    0  0.35093836930E+02  0.18231892613E+02 -0.84214947722E+01  0.40433907465E+02  0.00000000000E+00 0.  1.
</event>
<event>
 7    1  0.1978681E-015  0.9000772E+02  0.7816164E-02  0.1186339E+00
        -11   -1    0    0    0    0  0.00000000000E+00  0.00000000000E+00  0.45593999997E+02  0.45594000000E+02  0.51100000000E-03 0.  1.
         11   -1    0    0    0    0 -0.00000000000E+00 -0.00000000000E+00 -0.45593999997E+02  0.45594000000E+02  0.51100000000E-03 0. -1.
    9900012    2    1    2    0    0 -0.11174446134E+01  0.13180717825E+00 -0.35637781741E+00  0.90007720057E+02  0.89999981161E+02 0.  0.
        -12    1    1    2    0    0  0.11174446134E+01 -0.13180717825E+00  0.35637781741E+00  0.11802799435E+01  0.00000000000E+00 0.  1.
         11    1    3    3    0    0 -0.27862836669E+02  0.24591498079E+02 -0.32923235095E+01  0.37308428530E+02  0.51100000000E-03 0. -1.
        -11    1    3    3    0    0 -0.79757773271E+01 -0.13699388262E+02 -0.21418412891E+01  0.15996054111E+02  0.51100000000E-03 0.  1.
        -12    1    3    3    0    0  0.34721169383E+02 -0.10760302638E+02  0.50777869812E+01  0.36703237416E+02  0.00000000000E+00 0.  1.
</event>
<event>
 7    1  0.1978681E-015  0.9000779E+02  0.7816164E-02  0.1186339E+00
        -11   -1    0    0    0    0  0.00000000000E+00  0.00000000000E+00  0.45593999997E+02  0.45594000000E+02  0.51100000000E-03 0.  1.
         11   -1    0    0    0    0 -0.00000000000E+00 -0.00000000000E+00 -0.45593999997E+02  0.45594000000E+02  0.51100000000E-03 0. -1.
    9900012    2    1    2    0    0  0.85980821761E-01 -0.26991576563E+00 -0.11457133045E+01  0.90007785529E+02  0.90000047498E+02 0.  0.
        -12    1    1    2    0    0 -0.85980821761E-01  0.26991576563E+00  0.11457133045E+01  0.11802144714E+01  0.00000000000E+00 0.  1.
         11    1    3    3    0    0  0.18013188102E+02 -0.31087526368E+02 -0.19105986179E+02  0.40693340357E+02  0.51100000000E-03 0. -1.
        -11    1    3    3    0    0  0.30486883466E+01  0.15008185787E+02 -0.31269389849E+01  0.15630671416E+02  0.51100000000E-03 0.  1.
        -12    1    3    3    0    0 -0.20975895627E+02  0.15809424816E+02  0.21087211860E+02  0.33683773755E+02  0.00000000000E+00 0.  1.
</event>
<event>
 7    1  0.1978681E-015  0.9000824E+02  0.7816164E-02  0.1186338E+00
        -11   -1    0    0    0    0  0.00000000000E+00  0.00000000000E+00  0.45593999997E+02  0.45594000000E+02  0.51100000000E-03 0. -1.
         11   -1    0    0    0    0 -0.00000000000E+00 -0.00000000000E+00 -0.45593999997E+02  0.45594000000E+02  0.51100000000E-03 0.  1.
    9900012    2    1    2    0    0  0.89203038873E+00  0.73725661141E+00  0.22925313261E+00  0.90008244718E+02  0.90000512747E+02 0.  0.
        -12    1    1    2    0    0 -0.89203038873E+00 -0.73725661141E+00 -0.22925313261E+00  0.11797552815E+01  0.00000000000E+00 0.  1.
         11    1    3    3    0    0  0.23892302305E+01  0.34458978442E+02  0.77029938764E+01  0.35390192586E+02  0.51100000000E-03 0. -1.
        -11    1    3    3    0    0 -0.40544890174E+01  0.95877477352E+01 -0.37852461325E+01  0.11076636510E+02  0.51100000000E-03 0.  1.
        -12    1    3    3    0    0  0.25572891756E+01 -0.43309469565E+02 -0.36884946113E+01  0.43541415623E+02  0.00000000000E+00 0.  1.
</event>
<event>
 7    1  0.1978681E-015  0.9000775E+02  0.7816164E-02  0.1186339E+00
        -11   -1    0    0    0    0  0.00000000000E+00  0.00000000000E+00  0.45593999997E+02  0.45594000000E+02  0.51100000000E-03 0. -1.
         11   -1    0    0    0    0 -0.00000000000E+00 -0.00000000000E+00 -0.45593999997E+02  0.45594000000E+02  0.51100000000E-03 0.  1.
    9900012    2    1    2    0    0  0.17232161453E+00 -0.10155823401E+01  0.57610636590E+00  0.90007745463E+02  0.90000006903E+02 0.  0.
        -12    1    1    2    0    0 -0.17232161453E+00  0.10155823401E+01 -0.57610636590E+00  0.11802545375E+01  0.00000000000E+00 0.  1.
         11    1    3    3    0    0  0.39426528586E+02 -0.11501064348E+02 -0.83794221579E+01  0.41915872333E+02  0.51100000000E-03 0. -1.
        -11    1    3    3    0    0 -0.40052067719E-01  0.13276808036E+01  0.76887782902E+01  0.78026695650E+01  0.51100000000E-03 0.  1.
        -12    1    3    3    0    0 -0.39214154904E+02  0.91578012040E+01  0.12667502336E+01  0.40289203565E+02  0.00000000000E+00 0.  1.
</event>
<event>
 7    1  0.1978681E-015  0.9000667E+02  0.7816164E-02  0.1186341E+00
        -11   -1    0    0    0    0  0.00000000000E+00  0.00000000000E+00  0.45593999997E+02  0.45594000000E+02  0.51100000000E-03 0. -1.
         11   -1    0    0    0    0 -0.00000000000E+00 -0.00000000000E+00 -0.45593999997E+02  0.45594000000E+02  0.51100000000E-03 0.  1.
    9900012    2    1    2    0    0  0.55577942190E+00  0.66934317995E+00  0.79914832407E+00  0.90006666388E+02  0.89998913578E+02 0.  0.
        -12    1    1    2    0    0 -0.55577942190E+00 -0.66934317995E+00 -0.79914832407E+00  0.11813336117E+01  0.00000000000E+00 0.  1.
         11    1    3    3    0    0  0.45040810381E+01 -0.64640997352E+01 -0.58699906586E+01  0.98248726189E+01  0.51100000000E-03 0. -1.
        -11    1    3    3    0    0 -0.19985842257E+02 -0.26756335164E+02 -0.15291291017E+02  0.36730899028E+02  0.51100000000E-03 0.  1.
         12    1    3    3    0    0  0.16037540641E+02  0.33889778079E+02  0.21960430000E+02  0.43450894742E+02  0.00000000000E+00 0. -1.
</event>
<event>
 7    1  0.1978681E-015  0.9000775E+02  0.7816164E-02  0.1186339E+00
        -11   -1    0    0    0    0  0.00000000000E+00  0.00000000000E+00  0.45593999997E+02  0.45594000000E+02  0.51100000000E-03 0.  1.
         11   -1    0    0    0    0 -0.00000000000E+00 -0.00000000000E+00 -0.45593999997E+02  0.45594000000E+02  0.51100000000E-03 0. -1.
    9900012    2    1    2    0    0 -0.73845478842E+00  0.65515680218E+00 -0.64687694318E+00  0.90007747616E+02  0.90000009085E+02 0.  0.
        -12    1    1    2    0    0  0.73845478842E+00 -0.65515680218E+00  0.64687694318E+00  0.11802523839E+01  0.00000000000E+00 0.  1.
         11    1    3    3    0    0 -0.10969371358E+02  0.85261310004E-02 -0.34927924072E+02  0.36609931179E+02  0.51100000000E-03 0. -1.
        -11    1    3    3    0    0 -0.47110198469E+00 -0.94610217413E+01 -0.55186177163E+01  0.10963029291E+02  0.51100000000E-03 0.  1.
        -12    1    3    3    0    0  0.10702018554E+02  0.10107652413E+02  0.39799664845E+02  0.42434787147E+02  0.00000000000E+00 0.  1.
</event>
<event>
 7    1  0.1978681E-015  0.9000777E+02  0.7816164E-02  0.1186339E+00
        -11   -1    0    0    0    0  0.00000000000E+00  0.00000000000E+00  0.45593999997E+02  0.45594000000E+02  0.51100000000E-03 0. -1.
         11   -1    0    0    0    0 -0.00000000000E+00 -0.00000000000E+00 -0.45593999997E+02  0.45594000000E+02  0.51100000000E-03 0.  1.
    9900012    2    1    2    0    0 -0.11182854545E+01  0.33624722550E+00  0.17121111717E+00  0.90007772140E+02  0.90000033932E+02 0.  0.
        -12    1    1    2    0    0  0.11182854545E+01 -0.33624722550E+00 -0.17121111717E+00  0.11802278598E+01  0.00000000000E+00 0.  1.
         11    1    3    3    0    0  0.92053563674E+01  0.20289369568E+02  0.23831478560E+02  0.32624170088E+02  0.51100000000E-03 0. -1.
        -11    1    3    3    0    0  0.59114939760E+01  0.13334518027E+02 -0.27191148108E+01  0.14837409398E+02  0.51100000000E-03 0.  1.
        -12    1    3    3    0    0 -0.16235135798E+02 -0.33287640370E+02 -0.20941152632E+02  0.42546192654E+02  0.00000000000E+00 0.  1.
</event>
<event>
 7    1  0.1978681E-015  0.9000793E+02  0.7816164E-02  0.1186339E+00
        -11   -1    0    0    0    0  0.00000000000E+00  0.00000000000E+00  0.45593999997E+02  0.45594000000E+02  0.51100000000E-03 0. -1.
         11   -1    0    0    0    0 -0.00000000000E+00 -0.00000000000E+00 -0.45593999997E+02  0.45594000000E+02  0.51100000000E-03 0.  1.
    9900012    2    1    2    0    0  0.18413273173E+00 -0.52915032251E+00  0.10385846277E+01  0.90007930953E+02  0.90000194841E+02 0.  0.
        -12    1    1    2    0    0 -0.18413273173E+00  0.52915032251E+00 -0.10385846277E+01  0.11800690470E+01  0.00000000000E+00 0.  1.
         11    1    3    3    0    0  0.28156581314E+01 -0.25482062999E+01 -0.11767799665E+02  0.12365370811E+02  0.51100000000E-03 0. -1.
        -11    1    3    3    0    0  0.34171641404E+02 -0.59029894588E+01 -0.65822945468E+01  0.35296925682E+02  0.51100000000E-03 0.  1.
         12    1    3    3    0    0 -0.36803166804E+02  0.79220454362E+01  0.19388678840E+02  0.42345634461E+02  0.00000000000E+00 0. -1.
</event>
<event>
 7    1  0.1978681E-015  0.9000789E+02  0.7816164E-02  0.1186339E+00
        -11   -1    0    0    0    0  0.00000000000E+00  0.00000000000E+00  0.45593999997E+02  0.45594000000E+02  0.51100000000E-03 0.  1.
         11   -1    0    0    0    0 -0.00000000000E+00 -0.00000000000E+00 -0.45593999997E+02  0.45594000000E+02  0.51100000000E-03 0. -1.
    9900012    2    1    2    0    0  0.55916425163E+00 -0.46039681013E+00 -0.93167953696E+00  0.90007891258E+02  0.90000154623E+02 0.  0.
        -12    1    1    2    0    0 -0.55916425163E+00  0.46039681013E+00  0.93167953696E+00  0.11801087419E+01  0.00000000000E+00 0.  1.
         11    1    3    3    0    0  0.18644257041E+02  0.27131451446E+02  0.11150187027E+02  0.34757023019E+02  0.51100000000E-03 0. -1.
        -11    1    3    3    0    0  0.96551105056E+01  0.45718556232E+01  0.11971056860E+01  0.10749701624E+02  0.51100000000E-03 0.  1.
        -12    1    3    3    0    0 -0.27740203294E+02 -0.32163703880E+02 -0.13278972250E+02  0.44501166615E+02  0.00000000000E+00 0.  1.
</event>
<event>
 7    1  0.1978681E-015  0.9000823E+02  0.7816164E-02  0.1186338E+00
        -11   -1    0    0    0    0  0.00000000000E+00  0.00000000000E+00  0.45593999997E+02  0.45594000000E+02  0.51100000000E-03 0.  1.
         11   -1    0    0    0    0 -0.00000000000E+00 -0.00000000000E+00 -0.45593999997E+02  0.45594000000E+02  0.51100000000E-03 0. -1.
    9900012    2    1    2    0    0  0.93591605809E+00 -0.69719164480E+00  0.17275451081E+00  0.90008229184E+02  0.90000497008E+02 0.  0.
        -12    1    1    2    0    0 -0.93591605809E+00  0.69719164480E+00 -0.17275451081E+00  0.11797708160E+01  0.00000000000E+00 0.  1.
         11    1    3    3    0    0 -0.25092973693E+02 -0.25763691312E+02 -0.14936077683E+02  0.38942413068E+02  0.51100000000E-03 0. -1.
        -11    1    3    3    0    0  0.30701283411E+01 -0.13226895167E+01 -0.83196053921E+01  0.89661044902E+01  0.51100000000E-03 0.  1.
        -12    1    3    3    0    0  0.22958761410E+02  0.26389189184E+02  0.23428437586E+02  0.42099711626E+02  0.00000000000E+00 0.  1.
</event>
<event>
 7    1  0.3336864E-015  0.9000775E+02  0.7816164E-02  0.1186339E+00
        -11   -1    0    0    0    0  0.00000000000E+00  0.00000000000E+00  0.45593999997E+02  0.45594000000E+02  0.51100000000E-03 0. -1.
         11   -1    0    0    0    0 -0.00000000000E+00 -0.00000000000E+00 -0.45593999997E+02  0.45594000000E+02  0.51100000000E-03 0.  1.
    9900012    2    1    2    0    0 -0.73845852293E+00 -0.55305371741E+00  0.73607371022E+00  0.90007748369E+02  0.90000009848E+02 0.  0.
        -12    1    1    2    0    0  0.73845852293E+00  0.55305371741E+00 -0.73607371022E+00  0.11802516305E+01  0.00000000000E+00 0.  1.
         11    1    3    3    0    0  0.35905174075E+00 -0.84963440199E+01  0.57656403381E+01  0.10274209878E+02  0.51100000000E-03 0. -1.
        -11    1    3    3    0    0  0.15887533915E+01 -0.24226494301E+02 -0.30235607786E+02  0.38776786121E+02  0.51100000000E-03 0.  1.
         12    1    3    3    0    0 -0.26862636552E+01  0.32169784603E+02  0.25206041158E+02  0.40956752370E+02  0.00000000000E+00 0. -1.
</event>
<event>
 7    1  0.1978681E-015  0.9000774E+02  0.7816164E-02  0.1186339E+00
        -11   -1    0    0    0    0  0.00000000000E+00  0.00000000000E+00  0.45593999997E+02  0.45594000000E+02  0.51100000000E-03 0. -1.
         11   -1    0    0    0    0 -0.00000000000E+00 -0.00000000000E+00 -0.45593999997E+02  0.45594000000E+02  0.51100000000E-03 0.  1.
    9900012    2    1    2    0    0  0.10992560769E+01  0.39916515983E+00  0.15912820824E+00  0.90007737938E+02  0.89999999279E+02 0.  0.
        -12    1    1    2    0    0 -0.10992560769E+01 -0.39916515983E+00 -0.15912820824E+00  0.11802620616E+01  0.00000000000E+00 0.  1.
         11    1    3    3    0    0 -0.72083644192E+01  0.18248075441E+01  0.66555792651E+01  0.99793374423E+01  0.51100000000E-03 0. -1.
        -11    1    3    3    0    0 -0.20095477347E+02  0.22686535943E+02 -0.24195471799E+02  0.38780510295E+02  0.51100000000E-03 0.  1.
         12    1    3    3    0    0  0.28403097843E+02 -0.24112178327E+02  0.17699020743E+02  0.41247890201E+02  0.00000000000E+00 0. -1.
</event>
<event>
 7    1  0.1978681E-015  0.9000782E+02  0.7816164E-02  0.1186339E+00
        -11   -1    0    0    0    0  0.00000000000E+00  0.00000000000E+00  0.45593999997E+02  0.45594000000E+02  0.51100000000E-03 0. -1.
         11   -1    0    0    0    0 -0.00000000000E+00 -0.00000000000E+00 -0.45593999997E+02  0.45594000000E+02  0.51100000000E-03 0.  1.
    9900012    2    1    2    0    0 -0.59932714777E-01  0.96600382738E+00  0.67532884394E+00  0.90007820195E+02  0.90000082621E+02 0.  0.
        -12    1    1    2    0    0  0.59932714777E-01 -0.96600382738E+00 -0.67532884394E+00  0.11801798051E+01  0.00000000000E+00 0.  1.
         11    1    3    3    0    0  0.56521074515E+00 -0.66816811533E+01  0.68091828012E+01  0.95566362755E+01  0.51100000000E-03 0. -1.
        -11    1    3    3    0    0 -0.18967998470E+02  0.58252884053E+01 -0.38438318036E+02  0.43257637992E+02  0.51100000000E-03 0.  1.
         12    1    3    3    0    0  0.18342855010E+02  0.18223965754E+01  0.32304464079E+02  0.37193545927E+02  0.00000000000E+00 0. -1.
</event>
<event>
 7    1  0.1978681E-015  0.9000765E+02  0.7816164E-02  0.1186339E+00
        -11   -1    0    0    0    0  0.00000000000E+00  0.00000000000E+00  0.45593999997E+02  0.45594000000E+02  0.51100000000E-03 0. -1.
         11   -1    0    0    0    0 -0.00000000000E+00 -0.00000000000E+00 -0.45593999997E+02  0.45594000000E+02  0.51100000000E-03 0.  1.
    9900012    2    1    2    0    0 -0.46299563421E+00  0.81824977829E+00  0.71367088684E+00  0.90007650987E+02  0.89999911180E+02 0.  0.
        -12    1    1    2    0    0  0.46299563421E+00 -0.81824977829E+00 -0.71367088684E+00  0.11803490127E+01  0.00000000000E+00 0.  1.
         11    1    3    3    0    0 -0.40931921448E+01 -0.32093192288E+02  0.19687746642E+02  0.37872609908E+02  0.51100000000E-03 0. -1.
        -11    1    3    3    0    0 -0.44447470918E+01 -0.66076059217E+01 -0.52071661160E+01  0.95147680974E+01  0.51100000000E-03 0.  1.
        -12    1    3    3    0    0  0.80749436024E+01  0.39519047988E+02 -0.13766909639E+02  0.42620272982E+02  0.00000000000E+00 0.  1.
</event>
<event>
 7    1  0.1978681E-015  0.9000774E+02  0.7816164E-02  0.1186339E+00
        -11   -1    0    0    0    0  0.00000000000E+00  0.00000000000E+00  0.45593999997E+02  0.45594000000E+02  0.51100000000E-03 0.  1.
         11   -1    0    0    0    0 -0.00000000000E+00 -0.00000000000E+00 -0.45593999997E+02  0.45594000000E+02  0.51100000000E-03 0. -1.
    9900012    2    1    2    0    0 -0.32067769952E+00 -0.16137129568E+00 -0.11243365949E+01  0.90007742545E+02  0.90000003946E+02 0.  0.
        -12    1    1    2    0    0  0.32067769952E+00  0.16137129568E+00  0.11243365949E+01  0.11802574552E+01  0.00000000000E+00 0.  1.
         11    1    3    3    0    0  0.40353405662E+01 -0.56875142306E+01  0.48536423764E+01  0.84964484455E+01  0.51100000000E-03 0. -1.
        -11    1    3    3    0    0  0.95361196578E+01 -0.32241466657E+02  0.14195748662E+02  0.36496150902E+02  0.51100000000E-03 0.  1.
         12    1    3    3    0    0 -0.13892137924E+02  0.37767609592E+02 -0.20173727634E+02  0.45015143197E+02  0.00000000000E+00 0. -1.
</event>
<event>
 7    1  0.1978681E-015  0.9000769E+02  0.7816164E-02  0.1186339E+00
        -11   -1    0    0    0    0  0.00000000000E+00  0.00000000000E+00  0.45593999997E+02  0.45594000000E+02  0.51100000000E-03 0.  1.
         11   -1    0    0    0    0 -0.00000000000E+00 -0.00000000000E+00 -0.45593999997E+02  0.45594000000E+02  0.51100000000E-03 0. -1.
    9900012    2    1    2    0    0  0.80384648837E+00 -0.20873163890E+00 -0.83869024589E+00  0.90007686735E+02  0.89999947400E+02 0.  0.
        -12    1    1    2    0    0 -0.80384648837E+00  0.20873163890E+00  0.83869024589E+00  0.11803132646E+01  0.00000000000E+00 0.  1.
         11    1    3    3    0    0 -0.35612863639E+01 -0.23011836303E+00  0.75300147275E+01  0.83328768793E+01  0.51100000000E-03 0. -1.
        -11    1    3    3    0    0  0.23623685031E+02 -0.22058765700E+02  0.22294179934E+02  0.39264463549E+02  0.51100000000E-03 0.  1.
         12    1    3    3    0    0 -0.19258552178E+02  0.22080152424E+02 -0.30662884907E+02  0.42410346307E+02  0.00000000000E+00 0. -1.
</event>
<event>
 7    1  0.1978681E-015  0.9000759E+02  0.7816164E-02  0.1186339E+00
        -11   -1    0    0    0    0  0.00000000000E+00  0.00000000000E+00  0.45593999997E+02  0.45594000000E+02  0.51100000000E-03 0. -1.
         11   -1    0    0    0    0 -0.00000000000E+00 -0.00000000000E+00 -0.45593999997E+02  0.45594000000E+02  0.51100000000E-03 0.  1.
    9900012    2    1    2    0    0 -0.26756067595E+00  0.81814184756E+00  0.80772616896E+00  0.90007590596E+02  0.89999849991E+02 0.  0.
        -12    1    1    2    0    0  0.26756067595E+00 -0.81814184756E+00 -0.80772616896E+00  0.11804094044E+01  0.00000000000E+00 0.  1.
         11    1    3    3    0    0  0.14041886170E+02 -0.23200164128E+02  0.60478681755E+01  0.27784868049E+02  0.51100000000E-03 0. -1.
        -11    1    3    3    0    0  0.10742191899E+02 -0.10102510053E+02 -0.12430430513E+02  0.19286549696E+02  0.51100000000E-03 0.  1.
        -12    1    3    3    0    0 -0.25051638745E+02  0.34120816029E+02  0.71902885062E+01  0.42936172851E+02  0.00000000000E+00 0.  1.
</event>
<event>
 7    1  0.1978681E-015  0.9000768E+02  0.7816164E-02  0.1186339E+00
        -11   -1    0    0    0    0  0.00000000000E+00  0.00000000000E+00  0.45593999997E+02  0.45594000000E+02  0.51100000000E-03 0.  1.
         11   -1    0    0    0    0 -0.00000000000E+00 -0.00000000000E+00 -0.45593999997E+02  0.45594000000E+02  0.51100000000E-03 0. -1.
    9900012    2    1    2    0    0  0.31398527474E+00  0.10152115498E+01 -0.51371499957E+00  0.90007684642E+02  0.89999945279E+02 0.  0.
        -12    1    1    2    0    0 -0.31398527474E+00 -0.10152115498E+01  0.51371499957E+00  0.11803153580E+01  0.00000000000E+00 0.  1.
         11    1    3    3    0    0  0.66818137919E+01 -0.38644504656E-01 -0.60335804215E+01  0.90029007499E+01  0.51100000000E-03 0. -1.
        -11    1    3    3    0    0  0.18965278405E+02 -0.33058222560E+02 -0.33349227970E+00  0.38113502609E+02  0.51100000000E-03 0.  1.
         12    1    3    3    0    0 -0.25333106922E+02  0.34112078614E+02  0.58533577017E+01  0.42891281283E+02  0.00000000000E+00 0. -1.
</event>
<event>
 7    1  0.1978681E-015  0.9000775E+02  0.7816164E-02  0.1186339E+00
        -11   -1    0    0    0    0  0.00000000000E+00  0.00000000000E+00  0.45593999997E+02  0.45594000000E+02  0.51100000000E-03 0. -1.
         11   -1    0    0    0    0 -0.00000000000E+00 -0.00000000000E+00 -0.45593999997E+02  0.45594000000E+02  0.51100000000E-03 0.  1.
    9900012    2    1    2    0    0  0.11121115762E+01 -0.36436851400E+00 -0.15307386606E+00  0.90007750797E+02  0.90000012308E+02 0.  0.
        -12    1    1    2    0    0 -0.11121115762E+01  0.36436851400E+00  0.15307386606E+00  0.11802492026E+01  0.00000000000E+00 0.  1.
         11    1    3    3    0    0 -0.54511919496E+01  0.65355029723E+01 -0.86989853984E+01  0.12169660636E+02  0.51100000000E-03 0. -1.
        -11    1    3    3    0    0 -0.15325317961E+02 -0.11557848720E+01 -0.29675910442E+02  0.33419468429E+02  0.51100000000E-03 0.  1.
         12    1    3    3    0    0  0.21888621487E+02 -0.57440866143E+01  0.38221821974E+02  0.44418621733E+02  0.00000000000E+00 0. -1.
</event>
<event>
 7    1  0.1978681E-015  0.9000792E+02  0.7816164E-02  0.1186339E+00
        -11   -1    0    0    0    0  0.00000000000E+00  0.00000000000E+00  0.45593999997E+02  0.45594000000E+02  0.51100000000E-03 0. -1.
         11   -1    0    0    0    0 -0.00000000000E+00 -0.00000000000E+00 -0.45593999997E+02  0.45594000000E+02  0.51100000000E-03 0.  1.
    9900012    2    1    2    0    0 -0.13634674282E+00  0.11132697782E+01  0.36691219266E+00  0.90007921786E+02  0.90000185554E+02 0.  0.
        -12    1    1    2    0    0  0.13634674282E+00 -0.11132697782E+01 -0.36691219266E+00  0.11800782137E+01  0.00000000000E+00 0.  1.
         11    1    3    3    0    0  0.12753386830E+02 -0.13986891755E+02  0.30107644604E+02  0.35563355866E+02  0.51100000000E-03 0. -1.
        -11    1    3    3    0    0  0.42756078774E+01  0.97265585079E+01  0.75556998789E+01  0.13037460031E+02  0.51100000000E-03 0.  1.
        -12    1    3    3    0    0 -0.17165341450E+02  0.53736030254E+01 -0.37296432290E+02  0.41407105890E+02  0.00000000000E+00 0.  1.
</event>
<event>
 7    1  0.1978681E-015  0.9000771E+02  0.7816164E-02  0.1186339E+00
        -11   -1    0    0    0    0  0.00000000000E+00  0.00000000000E+00  0.45593999997E+02  0.45594000000E+02  0.51100000000E-03 0. -1.
         11   -1    0    0    0    0 -0.00000000000E+00 -0.00000000000E+00 -0.45593999997E+02  0.45594000000E+02  0.51100000000E-03 0.  1.
    9900012    2    1    2    0    0 -0.77085500887E-02  0.11519272355E+01  0.25706140891E+00  0.90007713448E+02  0.89999974465E+02 0.  0.
        -12    1    1    2    0    0  0.77085500887E-02 -0.11519272355E+01 -0.25706140891E+00  0.11802865523E+01  0.00000000000E+00 0.  1.
         11    1    3    3    0    0  0.97961522810E+01  0.17007719800E+02  0.36855987471E+02  0.41756328203E+02  0.51100000000E-03 0. -1.
        -11    1    3    3    0    0 -0.28041928742E+01 -0.95160051822E+01  0.53537280431E+00  0.99350126625E+01  0.51100000000E-03 0.  1.
        -12    1    3    3    0    0 -0.69996679569E+01 -0.63397873822E+01 -0.37134298866E+02  0.38316372582E+02  0.00000000000E+00 0.  1.
</event>
<event>
 7    1  0.1978681E-015  0.9000773E+02  0.7816164E-02  0.1186339E+00
        -11   -1    0    0    0    0  0.00000000000E+00  0.00000000000E+00  0.45593999997E+02  0.45594000000E+02  0.51100000000E-03 0.  1.
         11   -1    0    0    0    0 -0.00000000000E+00 -0.00000000000E+00 -0.45593999997E+02  0.45594000000E+02  0.51100000000E-03 0. -1.
    9900012    2    1    2    0    0 -0.29970886774E+00  0.24292166023E+00 -0.11154368218E+01  0.90007730691E+02  0.89999991936E+02 0.  0.
        -12    1    1    2    0    0  0.29970886774E+00 -0.24292166023E+00  0.11154368218E+01  0.11802693090E+01  0.00000000000E+00 0.  1.
         11    1    3    3    0    0 -0.54211665683E+01 -0.54493865155E+01  0.64716134339E+01  0.10048215815E+02  0.51100000000E-03 0. -1.
        -11    1    3    3    0    0  0.17271794749E+02 -0.27108392148E+01  0.32682914857E+02  0.37065300038E+02  0.51100000000E-03 0.  1.
         12    1    3    3    0    0 -0.12150337049E+02  0.84031473905E+01 -0.40269965112E+02  0.42894214839E+02  0.00000000000E+00 0. -1.
</event>
<event>
 7    1  0.1978681E-015  0.9000775E+02  0.7816164E-02  0.1186339E+00
        -11   -1    0    0    0    0  0.00000000000E+00  0.00000000000E+00  0.45593999997E+02  0.45594000000E+02  0.51100000000E-03 0. -1.
         11   -1    0    0    0    0 -0.00000000000E+00 -0.00000000000E+00 -0.45593999997E+02  0.45594000000E+02  0.51100000000E-03 0.  1.
    9900012    2    1    2    0    0  0.67304476554E-01  0.91408532196E+00 -0.74357214819E+00  0.90007753666E+02  0.90000015215E+02 0.  0.
        -12    1    1    2    0    0 -0.67304476554E-01 -0.91408532196E+00  0.74357214819E+00  0.11802463336E+01  0.00000000000E+00 0.  1.
         11    1    3    3    0    0  0.65197777452E+01 -0.37661214165E+02  0.13064998089E+01  0.38243711852E+02  0.51100000000E-03 0. -1.
        -11    1    3    3    0    0 -0.50502136127E+01 -0.32349650517E+01 -0.74710301566E+01  0.95804983315E+01  0.51100000000E-03 0.  1.
        -12    1    3    3    0    0 -0.14022596559E+01  0.41810264539E+02  0.54209581994E+01  0.42183543483E+02  0.00000000000E+00 0.  1.
</event>
<event>
 7    1  0.1978681E-015  0.9000770E+02  0.7816164E-02  0.1186339E+00
        -11   -1    0    0    0    0  0.00000000000E+00  0.00000000000E+00  0.45593999997E+02  0.45594000000E+02  0.51100000000E-03 0.  1.
         11   -1    0    0    0    0 -0.00000000000E+00 -0.00000000000E+00 -0.45593999997E+02  0.45594000000E+02  0.51100000000E-03 0. -1.
    9900012    2    1    2    0    0 -0.51523198556E+00 -0.10264755246E+01 -0.27200256371E+00  0.90007702836E+02  0.89999963713E+02 0.  0.
        -12    1    1    2    0    0  0.51523198556E+00  0.10264755246E+01  0.27200256371E+00  0.11802971644E+01  0.00000000000E+00 0.  1.
         11    1    3    3    0    0  0.26015846082E+02 -0.29168750352E+02 -0.94021552172E+01  0.40200009545E+02  0.51100000000E-03 0. -1.
        -11    1    3    3    0    0 -0.98995614341E+01 -0.18982865559E+01 -0.65901255269E+01  0.12043029650E+02  0.51100000000E-03 0.  1.
        -12    1    3    3    0    0 -0.16631516633E+02  0.30040561384E+02  0.15720278180E+02  0.37764663640E+02  0.00000000000E+00 0.  1.
</event>
<event>
 7    1  0.1978681E-015  0.9000771E+02  0.7816164E-02  0.1186339E+00
        -11   -1    0    0    0    0  0.00000000000E+00  0.00000000000E+00  0.45593999997E+02  0.45594000000E+02  0.51100000000E-03 0. -1.
         11   -1    0    0    0    0 -0.00000000000E+00 -0.00000000000E+00 -0.45593999997E+02  0.45594000000E+02  0.51100000000E-03 0.  1.
    9900012    2    1    2    0    0 -0.28873296876E+00 -0.38010173603E+00  0.10794592440E+01  0.90007713460E+02  0.89999974478E+02 0.  0.
        -12    1    1    2    0    0  0.28873296876E+00  0.38010173603E+00 -0.10794592440E+01  0.11802865400E+01  0.00000000000E+00 0.  1.
         11    1    3    3    0    0 -0.31491518374E+01  0.96332312269E+01  0.36051747821E+02  0.37449229930E+02  0.51100000000E-03 0. -1.
        -11    1    3    3    0    0  0.52548097302E+01  0.78516006966E+01  0.34983015535E+01  0.10074659936E+02  0.51100000000E-03 0.  1.
        -12    1    3    3    0    0 -0.23943908615E+01 -0.17864933660E+02 -0.38470590130E+02  0.42483823594E+02  0.00000000000E+00 0.  1.
</event>
<event>
 7    1  0.1978681E-015  0.9000779E+02  0.7816164E-02  0.1186339E+00
        -11   -1    0    0    0    0  0.00000000000E+00  0.00000000000E+00  0.45593999997E+02  0.45594000000E+02  0.51100000000E-03 0. -1.
         11   -1    0    0    0    0 -0.00000000000E+00 -0.00000000000E+00 -0.45593999997E+02  0.45594000000E+02  0.51100000000E-03 0.  1.
    9900012    2    1    2    0    0 -0.53868208814E+00  0.10463180428E+01  0.89040058762E-01  0.90007793251E+02  0.90000055322E+02 0.  0.
        -12    1    1    2    0    0  0.53868208814E+00 -0.10463180428E+01 -0.89040058762E-01  0.11802067492E+01  0.00000000000E+00 0.  1.
         11    1    3    3    0    0 -0.19781332158E+02  0.19130199181E+02  0.15345463250E+02  0.31507917501E+02  0.51100000000E-03 0. -1.
        -11    1    3    3    0    0 -0.25316400064E+01  0.13010244638E+02  0.64837604267E+01  0.14755162357E+02  0.51100000000E-03 0.  1.
        -12    1    3    3    0    0  0.21774290076E+02 -0.31094125776E+02 -0.21740183618E+02  0.43744713393E+02  0.00000000000E+00 0.  1.
</event>
<event>
 7    1  0.1978681E-015  0.9000776E+02  0.7816164E-02  0.1186339E+00
        -11   -1    0    0    0    0  0.00000000000E+00  0.00000000000E+00  0.45593999997E+02  0.45594000000E+02  0.51100000000E-03 0.  1.
         11   -1    0    0    0    0 -0.00000000000E+00 -0.00000000000E+00 -0.45593999997E+02  0.45594000000E+02  0.51100000000E-03 0. -1.
    9900012    2    1    2    0    0  0.24910819012E+00  0.25819424551E+00 -0.11243849945E+01  0.90007762408E+02  0.90000024071E+02 0.  0.
        -12    1    1    2    0    0 -0.24910819012E+00 -0.25819424551E+00  0.11243849945E+01  0.11802375924E+01  0.00000000000E+00 0.  1.
         11    1    3    3    0    0  0.37040881108E+02 -0.43559168625E+01 -0.45283353441E+01  0.37570024038E+02  0.51100000000E-03 0. -1.
        -11    1    3    3    0    0  0.53648419962E+01  0.77056472378E+01 -0.26025407817E+01  0.97432924507E+01  0.51100000000E-03 0.  1.
        -12    1    3    3    0    0 -0.42156614914E+02 -0.30915361298E+01  0.60064911313E+01  0.42694445919E+02  0.00000000000E+00 0.  1.
</event>
<event>
 7    1  0.1978681E-015  0.9000773E+02  0.7816164E-02  0.1186339E+00
        -11   -1    0    0    0    0  0.00000000000E+00  0.00000000000E+00  0.45593999997E+02  0.45594000000E+02  0.51100000000E-03 0.  1.
         11   -1    0    0    0    0 -0.00000000000E+00 -0.00000000000E+00 -0.45593999997E+02  0.45594000000E+02  0.51100000000E-03 0. -1.
    9900012    2    1    2    0    0 -0.59627787122E+00 -0.83241441019E+00  0.58699905872E+00  0.90007733528E+02  0.89999994811E+02 0.  0.
        -12    1    1    2    0    0  0.59627787122E+00  0.83241441019E+00 -0.58699905872E+00  0.11802664720E+01  0.00000000000E+00 0.  1.
         11    1    3    3    0    0  0.33624736506E+02  0.13284267188E+02 -0.12004822445E+02  0.38094755834E+02  0.51100000000E-03 0. -1.
        -11    1    3    3    0    0  0.21752475792E+00  0.25653287226E+01 -0.80378938477E+01  0.84401401791E+01  0.51100000000E-03 0.  1.
        -12    1    3    3    0    0 -0.34438539135E+02 -0.16682010321E+02  0.20629715352E+02  0.43472837515E+02  0.00000000000E+00 0.  1.
</event>
<event>
 7    1  0.1978681E-015  0.9000774E+02  0.7816164E-02  0.1186339E+00
        -11   -1    0    0    0    0  0.00000000000E+00  0.00000000000E+00  0.45593999997E+02  0.45594000000E+02  0.51100000000E-03 0.  1.
         11   -1    0    0    0    0 -0.00000000000E+00 -0.00000000000E+00 -0.45593999997E+02  0.45594000000E+02  0.51100000000E-03 0. -1.
    9900012    2    1    2    0    0  0.10535978988E+01  0.45569766186E+00 -0.27438876898E+00  0.90007738127E+02  0.89999999471E+02 0.  0.
        -12    1    1    2    0    0 -0.10535978988E+01 -0.45569766186E+00  0.27438876898E+00  0.11802618726E+01  0.00000000000E+00 0.  1.
         11    1    3    3    0    0 -0.15378897823E+01 -0.12478901192E+01 -0.91208353004E+01  0.93333794292E+01  0.51100000000E-03 0. -1.
        -11    1    3    3    0    0 -0.95720200624E+01  0.39415163734E+02  0.41632726288E+01  0.40773907582E+02  0.51100000000E-03 0.  1.
         12    1    3    3    0    0  0.12163507743E+02 -0.37711575953E+02  0.46831739026E+01  0.39900451116E+02  0.00000000000E+00 0. -1.
</event>
<event>
 7    1  0.1978681E-015  0.9000777E+02  0.7816164E-02  0.1186339E+00
        -11   -1    0    0    0    0  0.00000000000E+00  0.00000000000E+00  0.45593999997E+02  0.45594000000E+02  0.51100000000E-03 0.  1.
         11   -1    0    0    0    0 -0.00000000000E+00 -0.00000000000E+00 -0.45593999997E+02  0.45594000000E+02  0.51100000000E-03 0. -1.
    9900012    2    1    2    0    0  0.49265471563E+00 -0.10659540863E+01  0.11822707828E+00  0.90007769334E+02  0.90000031089E+02 0.  0.
        -12    1    1    2    0    0 -0.49265471563E+00  0.10659540863E+01 -0.11822707828E+00  0.11802306660E+01  0.00000000000E+00 0.  1.
         11    1    3    3    0    0  0.20691798386E+02  0.98542737512E+01 -0.31055726431E+02  0.38596831166E+02  0.51100000000E-03 0. -1.
        -11    1    3    3    0    0  0.56900594366E+00 -0.73596885466E+01 -0.54379877370E+01  0.91684510227E+01  0.51100000000E-03 0.  1.
        -12    1    3    3    0    0 -0.20768149614E+02 -0.35605392909E+01  0.36611941247E+02  0.42242487146E+02  0.00000000000E+00 0.  1.
</event>
<event>
 7    1  0.1978681E-015  0.9000781E+02  0.7816164E-02  0.1186339E+00
        -11   -1    0    0    0    0  0.00000000000E+00  0.00000000000E+00  0.45593999997E+02  0.45594000000E+02  0.51100000000E-03 0.  1.
         11   -1    0    0    0    0 -0.00000000000E+00 -0.00000000000E+00 -0.45593999997E+02  0.45594000000E+02  0.51100000000E-03 0. -1.
    9900012    2    1    2    0    0 -0.62014562808E+00 -0.98434189187E+00  0.19833077562E+00  0.90007811601E+02  0.90000073914E+02 0.  0.
        -12    1    1    2    0    0  0.62014562808E+00  0.98434189187E+00 -0.19833077562E+00  0.11801883988E+01  0.00000000000E+00 0.  1.
         11    1    3    3    0    0 -0.86899041878E+01  0.14010699770E+02  0.42164574060E+01  0.17017422136E+02  0.51100000000E-03 0. -1.
        -11    1    3    3    0    0 -0.21731453742E+02 -0.26546997812E+02 -0.17247412386E+02  0.38398859473E+02  0.51100000000E-03 0.  1.
         12    1    3    3    0    0  0.29801212302E+02  0.11551956150E+02  0.13229285755E+02  0.34591529992E+02  0.00000000000E+00 0. -1.
</event>
<event>
 7    1  0.1978681E-015  0.9000773E+02  0.7816164E-02  0.1186339E+00
        -11   -1    0    0    0    0  0.00000000000E+00  0.00000000000E+00  0.45593999997E+02  0.45594000000E+02  0.51100000000E-03 0. -1.
         11   -1    0    0    0    0 -0.00000000000E+00 -0.00000000000E+00 -0.45593999997E+02  0.45594000000E+02  0.51100000000E-03 0.  1.
    9900012    2    1    2    0    0 -0.86097626610E+00  0.97553143745E-01  0.80140505005E+00  0.90007725964E+02  0.89999987146E+02 0.  0.
        -12    1    1    2    0    0  0.86097626610E+00 -0.97553143745E-01 -0.80140505005E+00  0.11802740364E+01  0.00000000000E+00 0.  1.
         11    1    3    3    0    0  0.33421208529E+02 -0.17785436561E+02 -0.46155808778E+01  0.38139251701E+02  0.51100000000E-03 0. -1.
        -11    1    3    3    0    0 -0.18826243842E+01 -0.62229279699E+01 -0.70637889485E+01  0.96003240393E+01  0.51100000000E-03 0.  1.
        -12    1    3    3    0    0 -0.32399560411E+02  0.24105917675E+02  0.12480774876E+02  0.42268150223E+02  0.00000000000E+00 0.  1.
</event>
<event>
 7    1  0.1978681E-015  0.9000783E+02  0.7816164E-02  0.1186339E+00
        -11   -1    0    0    0    0  0.00000000000E+00  0.00000000000E+00  0.45593999997E+02  0.45594000000E+02  0.51100000000E-03 0.  1.
         11   -1    0    0    0    0 -0.00000000000E+00 -0.00000000000E+00 -0.45593999997E+02  0.45594000000E+02  0.51100000000E-03 0. -1.
    9900012    2    1    2    0    0 -0.73637211713E+00 -0.11678709066E+00 -0.91483326176E+00  0.90007829243E+02  0.90000091789E+02 0.  0.
        -12    1    1    2    0    0  0.73637211713E+00  0.11678709066E+00  0.91483326176E+00  0.11801707572E+01  0.00000000000E+00 0.  1.
         11    1    3    3    0    0  0.10988223817E+01 -0.14051885397E+02 -0.63278494900E+01  0.15450067096E+02  0.51100000000E-03 0. -1.
        -11    1    3    3    0    0  0.14913289187E+01  0.29153478344E+01 -0.33662841779E+02  0.33821741999E+02  0.51100000000E-03 0.  1.
        -12    1    3    3    0    0 -0.33265234175E+01  0.11019750472E+02  0.39075858007E+02  0.40736020148E+02  0.00000000000E+00 0.  1.
</event>
<event>
 7    1  0.1978681E-015  0.9000775E+02  0.7816164E-02  0.1186339E+00
        -11   -1    0    0    0    0  0.00000000000E+00  0.00000000000E+00  0.45593999997E+02  0.45594000000E+02  0.51100000000E-03 0.  1.
         11   -1    0    0    0    0 -0.00000000000E+00 -0.00000000000E+00 -0.45593999997E+02  0.45594000000E+02  0.51100000000E-03 0. -1.
    9900012    2    1    2    0    0 -0.31054945279E+00  0.90746439786E+00 -0.68780015135E+00  0.90007745094E+02  0.90000006529E+02 0.  0.
        -12    1    1    2    0    0  0.31054945279E+00 -0.90746439786E+00  0.68780015135E+00  0.11802549065E+01  0.00000000000E+00 0.  1.
         11    1    3    3    0    0  0.10651133548E+02  0.38261162058E+02 -0.10864368113E+02  0.41175206892E+02  0.51100000000E-03 0. -1.
        -11    1    3    3    0    0  0.98601977402E-01  0.33310844059E+01  0.54754674701E+01  0.64098822100E+01  0.51100000000E-03 0.  1.
        -12    1    3    3    0    0 -0.11060284978E+02 -0.40684782066E+02  0.47011004911E+01  0.42422655991E+02  0.00000000000E+00 0.  1.
</event>
<event>
 7    1  0.1978681E-015  0.9000764E+02  0.7816164E-02  0.1186339E+00
        -11   -1    0    0    0    0  0.00000000000E+00  0.00000000000E+00  0.45593999997E+02  0.45594000000E+02  0.51100000000E-03 0. -1.
         11   -1    0    0    0    0 -0.00000000000E+00 -0.00000000000E+00 -0.45593999997E+02  0.45594000000E+02  0.51100000000E-03 0.  1.
    9900012    2    1    2    0    0  0.10870197145E+01  0.41850889929E+00 -0.19099426326E+00  0.90007643966E+02  0.89999904066E+02 0.  0.
        -12    1    1    2    0    0 -0.10870197145E+01 -0.41850889929E+00  0.19099426326E+00  0.11803560340E+01  0.00000000000E+00 0.  1.
         11    1    3    3    0    0  0.26669930193E+02 -0.13696858544E+02  0.58563866344E+01  0.30548099370E+02  0.51100000000E-03 0. -1.
        -11    1    3    3    0    0 -0.30895189704E+01 -0.18522756501E+02  0.23990077053E+01  0.18931267102E+02  0.51100000000E-03 0.  1.
        -12    1    3    3    0    0 -0.22493391508E+02  0.32638123945E+02 -0.84463886029E+01  0.40528277493E+02  0.00000000000E+00 0.  1.
</event>
<event>
 7    1  0.1978681E-015  0.9000772E+02  0.7816164E-02  0.1186339E+00
        -11   -1    0    0    0    0  0.00000000000E+00  0.00000000000E+00  0.45593999997E+02  0.45594000000E+02  0.51100000000E-03 0.  1.
         11   -1    0    0    0    0 -0.00000000000E+00 -0.00000000000E+00 -0.45593999997E+02  0.45594000000E+02  0.51100000000E-03 0. -1.
    9900012    2    1    2    0    0  0.90358560631E+00  0.71933665432E+00 -0.24320728684E+00  0.90007719544E+02  0.89999980642E+02 0.  0.
        -12    1    1    2    0    0 -0.90358560631E+00 -0.71933665432E+00  0.24320728684E+00  0.11802804559E+01  0.00000000000E+00 0.  1.
         11    1    3    3    0    0  0.67922361867E+01 -0.43458184123E+00  0.14359238116E+01  0.69559479043E+01  0.51100000000E-03 0. -1.
        -11    1    3    3    0    0 -0.25127530862E+02  0.63136844519E+01 -0.35411483469E+02  0.43877426774E+02  0.51100000000E-03 0.  1.
         12    1    3    3    0    0  0.19238880282E+02 -0.51597659563E+01  0.33732352370E+02  0.39174344866E+02  0.00000000000E+00 0. -1.
</event>
<event>
 7    1  0.1978681E-015  0.9000780E+02  0.7816164E-02  0.1186339E+00
        -11   -1    0    0    0    0  0.00000000000E+00  0.00000000000E+00  0.45593999997E+02  0.45594000000E+02  0.51100000000E-03 0.  1.
         11   -1    0    0    0    0 -0.00000000000E+00 -0.00000000000E+00 -0.45593999997E+02  0.45594000000E+02  0.51100000000E-03 0. -1.
    9900012    2    1    2    0    0  0.33043606377E+00  0.85910974999E-01 -0.11297406798E+01  0.90007795487E+02  0.90000057588E+02 0.  0.
        -12    1    1    2    0    0 -0.33043606377E+00 -0.85910974999E-01  0.11297406798E+01  0.11802045125E+01  0.00000000000E+00 0.  1.
         11    1    3    3    0    0 -0.38297971781E+02 -0.58021688724E+01  0.40128622748E+01  0.38942301807E+02  0.51100000000E-03 0. -1.
        -11    1    3    3    0    0 -0.22102561736E+01  0.81672380378E+01 -0.56254198322E+01  0.10160430998E+02  0.51100000000E-03 0.  1.
        -12    1    3    3    0    0  0.40838664018E+02 -0.22791581904E+01  0.48281687759E+00  0.40905062682E+02  0.00000000000E+00 0.  1.
</event>
<event>
 7    1  0.1978681E-015  0.9000770E+02  0.7816164E-02  0.1186339E+00
        -11   -1    0    0    0    0  0.00000000000E+00  0.00000000000E+00  0.45593999997E+02  0.45594000000E+02  0.51100000000E-03 0.  1.
         11   -1    0    0    0    0 -0.00000000000E+00 -0.00000000000E+00 -0.45593999997E+02  0.45594000000E+02  0.51100000000E-03 0. -1.
    9900012    2    1    2    0    0 -0.42281345426E+00 -0.74042681623E+00 -0.81615350991E+00  0.90007699344E+02  0.89999960175E+02 0.  0.
        -12    1    1    2    0    0  0.42281345426E+00  0.74042681623E+00  0.81615350991E+00  0.11803006562E+01  0.00000000000E+00 0.  1.
         11    1    3    3    0    0 -0.32297444604E+02  0.19228584041E+02 -0.54769104296E+00  0.37592064827E+02  0.51100000000E-03 0. -1.
        -11    1    3    3    0    0 -0.71525361106E+00  0.73504375423E+01  0.58897577250E+01  0.94461508622E+01  0.51100000000E-03 0.  1.
        -12    1    3    3    0    0  0.32589884761E+02 -0.27319448400E+02 -0.61582201919E+01  0.42969483655E+02  0.00000000000E+00 0.  1.
</event>
<event>
 7    1  0.1978681E-015  0.9000779E+02  0.7816164E-02  0.1186339E+00
        -11   -1    0    0    0    0  0.00000000000E+00  0.00000000000E+00  0.45593999997E+02  0.45594000000E+02  0.51100000000E-03 0.  1.
         11   -1    0    0    0    0 -0.00000000000E+00 -0.00000000000E+00 -0.45593999997E+02  0.45594000000E+02  0.51100000000E-03 0. -1.
    9900012    2    1    2    0    0  0.42300780935E+00  0.10661924152E+01  0.27783837715E+00  0.90007789834E+02  0.90000051859E+02 0.  0.
        -12    1    1    2    0    0 -0.42300780935E+00 -0.10661924152E+01 -0.27783837715E+00  0.11802101663E+01  0.00000000000E+00 0.  1.
         11    1    3    3    0    0 -0.98277691088E+01  0.33891927744E+01  0.55290531441E+01  0.11774638094E+02  0.51100000000E-03 0. -1.
        -11    1    3    3    0    0  0.24748928901E+02  0.46269938493E+01  0.30192720094E+02  0.39313088162E+02  0.51100000000E-03 0.  1.
         12    1    3    3    0    0 -0.14498151983E+02 -0.69499942086E+01 -0.35443934861E+02  0.38920063578E+02  0.00000000000E+00 0. -1.
</event>
<event>
 7    1  0.1978681E-015  0.9000782E+02  0.7816164E-02  0.1186339E+00
        -11   -1    0    0    0    0  0.00000000000E+00  0.00000000000E+00  0.45593999997E+02  0.45594000000E+02  0.51100000000E-03 0.  1.
         11   -1    0    0    0    0 -0.00000000000E+00 -0.00000000000E+00 -0.45593999997E+02  0.45594000000E+02  0.51100000000E-03 0. -1.
    9900012    2    1    2    0    0 -0.10712762328E+01 -0.83810519526E-02 -0.49509603668E+00  0.90007820736E+02  0.90000083170E+02 0.  0.
        -12    1    1    2    0    0  0.10712762328E+01  0.83810519526E-02  0.49509603668E+00  0.11801792637E+01  0.00000000000E+00 0.  1.
         11    1    3    3    0    0 -0.15947485642E+02  0.12802736124E+02 -0.33680837203E+01  0.20726223457E+02  0.51100000000E-03 0. -1.
        -11    1    3    3    0    0  0.14236729533E+01 -0.25729266158E+02 -0.24896023427E+02  0.35830628859E+02  0.51100000000E-03 0.  1.
         12    1    3    3    0    0  0.13452536456E+02  0.12918148982E+02  0.27769011111E+02  0.33450968421E+02  0.00000000000E+00 0. -1.
</event>
<event>
 7    1  0.1978681E-015  0.9000780E+02  0.7816164E-02  0.1186339E+00
        -11   -1    0    0    0    0  0.00000000000E+00  0.00000000000E+00  0.45593999997E+02  0.45594000000E+02  0.51100000000E-03 0.  1.
         11   -1    0    0    0    0 -0.00000000000E+00 -0.00000000000E+00 -0.45593999997E+02  0.45594000000E+02  0.51100000000E-03 0. -1.
    9900012    2    1    2    0    0  0.59290082044E+00  0.10114188488E+01 -0.13558569901E+00  0.90007795377E+02  0.90000057476E+02 0.  0.
        -12    1    1    2    0    0 -0.59290082044E+00 -0.10114188488E+01  0.13558569901E+00  0.11802046231E+01  0.00000000000E+00 0.  1.
         11    1    3    3    0    0 -0.42952757832E+01 -0.80767676648E+01 -0.19149272552E-02  0.91478726430E+01  0.51100000000E-03 0. -1.
        -11    1    3    3    0    0 -0.71666254666E+01 -0.89588512205E+01  0.36510772340E+02  0.38270850956E+02  0.51100000000E-03 0.  1.
         12    1    3    3    0    0  0.12054802070E+02  0.18047037734E+02 -0.36644443112E+02  0.42589071778E+02  0.00000000000E+00 0. -1.
</event>
<event>
 7    1  0.1978681E-015  0.9000778E+02  0.7816164E-02  0.1186339E+00
        -11   -1    0    0    0    0  0.00000000000E+00  0.00000000000E+00  0.45593999997E+02  0.45594000000E+02  0.51100000000E-03 0. -1.
         11   -1    0    0    0    0 -0.00000000000E+00 -0.00000000000E+00 -0.45593999997E+02  0.45594000000E+02  0.51100000000E-03 0.  1.
    9900012    2    1    2    0    0  0.73143781528E+00  0.88868195204E+00  0.26108699845E+00  0.90007778279E+02  0.90000040152E+02 0.  0.
        -12    1    1    2    0    0 -0.73143781528E+00 -0.88868195204E+00 -0.26108699845E+00  0.11802217208E+01  0.00000000000E+00 0.  1.
         11    1    3    3    0    0  0.52023622299E+01  0.20855048414E+02  0.31734109659E+02  0.38328205453E+02  0.51100000000E-03 0. -1.
        -11    1    3    3    0    0  0.71894711529E+01  0.14823064938E+01  0.41964197409E+01  0.84555110374E+01  0.51100000000E-03 0.  1.
        -12    1    3    3    0    0 -0.11660395567E+02 -0.21448672956E+02 -0.35669442401E+02  0.43224061789E+02  0.00000000000E+00 0.  1.
</event>
<event>
 7    1  0.1978681E-015  0.9000773E+02  0.7816164E-02  0.1186339E+00
        -11   -1    0    0    0    0  0.00000000000E+00  0.00000000000E+00  0.45593999997E+02  0.45594000000E+02  0.51100000000E-03 0.  1.
         11   -1    0    0    0    0 -0.00000000000E+00 -0.00000000000E+00 -0.45593999997E+02  0.45594000000E+02  0.51100000000E-03 0. -1.
    9900012    2    1    2    0    0 -0.52955835183E+00 -0.36234985419E-01 -0.10541809289E+01  0.90007727806E+02  0.89999989013E+02 0.  0.
        -12    1    1    2    0    0  0.52955835183E+00  0.36234985419E-01  0.10541809289E+01  0.11802721945E+01  0.00000000000E+00 0.  1.
         11    1    3    3    0    0  0.54221964340E+01  0.28136716507E+02 -0.24299091584E+02  0.37570212696E+02  0.51100000000E-03 0. -1.
        -11    1    3    3    0    0 -0.44111867679E+01  0.87269785852E+01  0.25629442760E+01  0.10108778737E+02  0.51100000000E-03 0.  1.
        -12    1    3    3    0    0 -0.15405680180E+01 -0.36899930078E+02  0.20681966379E+02  0.42328736372E+02  0.00000000000E+00 0.  1.
</event>
<event>
 7    1  0.1978681E-015  0.9000779E+02  0.7816164E-02  0.1186339E+00
        -11   -1    0    0    0    0  0.00000000000E+00  0.00000000000E+00  0.45593999997E+02  0.45594000000E+02  0.51100000000E-03 0. -1.
         11   -1    0    0    0    0 -0.00000000000E+00 -0.00000000000E+00 -0.45593999997E+02  0.45594000000E+02  0.51100000000E-03 0.  1.
    9900012    2    1    2    0    0 -0.13843909939E-02 -0.50327399046E+00  0.10675229226E+01  0.90007791622E+02  0.90000053671E+02 0.  0.
        -12    1    1    2    0    0  0.13843909939E-02  0.50327399046E+00 -0.10675229226E+01  0.11802083784E+01  0.00000000000E+00 0.  1.
         11    1    3    3    0    0  0.23905591904E+02  0.27205927731E+02  0.16314865922E+02  0.39721715450E+02  0.51100000000E-03 0. -1.
        -11    1    3    3    0    0 -0.71551969751E+01 -0.15745290590E+02  0.81526986115E+01  0.19120081444E+02  0.51100000000E-03 0.  1.
        -12    1    3    3    0    0 -0.16751779320E+02 -0.11963911131E+02 -0.23400041611E+02  0.31165994727E+02  0.00000000000E+00 0.  1.
</event>
<event>
 7    1  0.1978681E-015  0.9000753E+02  0.7816164E-02  0.1186339E+00
        -11   -1    0    0    0    0  0.00000000000E+00  0.00000000000E+00  0.45593999997E+02  0.45594000000E+02  0.51100000000E-03 0. -1.
         11   -1    0    0    0    0 -0.00000000000E+00 -0.00000000000E+00 -0.45593999997E+02  0.45594000000E+02  0.51100000000E-03 0.  1.
    9900012    2    1    2    0    0 -0.63650063147E+00  0.24835090727E+00  0.96264977041E+00  0.90007531531E+02  0.89999790146E+02 0.  0.
        -12    1    1    2    0    0  0.63650063147E+00 -0.24835090727E+00 -0.96264977041E+00  0.11804684695E+01  0.00000000000E+00 0.  1.
         11    1    3    3    0    0 -0.44295893044E+01 -0.10902019726E+02 -0.51341228336E+01  0.12838789392E+02  0.51100000000E-03 0. -1.
        -11    1    3    3    0    0 -0.23899062424E+02  0.70319970221E+01 -0.25022465662E+02  0.35309176639E+02  0.51100000000E-03 0.  1.
         12    1    3    3    0    0  0.27692151097E+02  0.41183736114E+01  0.31119238266E+02  0.41859565500E+02  0.00000000000E+00 0. -1.
</event>
<event>
 7    1  0.1978681E-015  0.9000761E+02  0.7816164E-02  0.1186339E+00
        -11   -1    0    0    0    0  0.00000000000E+00  0.00000000000E+00  0.45593999997E+02  0.45594000000E+02  0.51100000000E-03 0.  1.
         11   -1    0    0    0    0 -0.00000000000E+00 -0.00000000000E+00 -0.45593999997E+02  0.45594000000E+02  0.51100000000E-03 0. -1.
    9900012    2    1    2    0    0 -0.33663848252E+00 -0.11074429011E+01 -0.23143770797E+00  0.90007610802E+02  0.89999870464E+02 0.  0.
        -12    1    1    2    0    0  0.33663848252E+00  0.11074429011E+01  0.23143770797E+00  0.11803891985E+01  0.00000000000E+00 0.  1.
         11    1    3    3    0    0 -0.26742374885E+02 -0.31432705659E+01 -0.29105120286E+02  0.39650255882E+02  0.51100000000E-03 0. -1.
        -11    1    3    3    0    0 -0.63646054134E+01 -0.44569469530E+01  0.67116527260E+01  0.10267368737E+02  0.51100000000E-03 0.  1.
        -12    1    3    3    0    0  0.32770341816E+02  0.64927746178E+01  0.22162029852E+02  0.40089986183E+02  0.00000000000E+00 0.  1.
</event>
<event>
 7    1  0.1978681E-015  0.9000772E+02  0.7816164E-02  0.1186339E+00
        -11   -1    0    0    0    0  0.00000000000E+00  0.00000000000E+00  0.45593999997E+02  0.45594000000E+02  0.51100000000E-03 0.  1.
         11   -1    0    0    0    0 -0.00000000000E+00 -0.00000000000E+00 -0.45593999997E+02  0.45594000000E+02  0.51100000000E-03 0. -1.
    9900012    2    1    2    0    0  0.48231029878E+00  0.10072002579E+01 -0.38206806117E+00  0.90007723936E+02  0.89999985092E+02 0.  0.
        -12    1    1    2    0    0 -0.48231029878E+00 -0.10072002579E+01  0.38206806117E+00  0.11802760640E+01  0.00000000000E+00 0.  1.
         11    1    3    3    0    0 -0.13455755632E+01  0.59988103047E+01 -0.83079825710E+01  0.10335321636E+02  0.51100000000E-03 0. -1.
        -11    1    3    3    0    0 -0.20219243840E+02 -0.33712580447E+02 -0.80008937112E+01  0.40116956544E+02  0.51100000000E-03 0.  1.
         12    1    3    3    0    0  0.22047129702E+02  0.28720970400E+02  0.15926808221E+02  0.39555445756E+02  0.00000000000E+00 0. -1.
</event>
<event>
 7    1  0.1978681E-015  0.9000752E+02  0.7816164E-02  0.1186339E+00
        -11   -1    0    0    0    0  0.00000000000E+00  0.00000000000E+00  0.45593999997E+02  0.45594000000E+02  0.51100000000E-03 0.  1.
         11   -1    0    0    0    0 -0.00000000000E+00 -0.00000000000E+00 -0.45593999997E+02  0.45594000000E+02  0.51100000000E-03 0. -1.
    9900012    2    1    2    0    0  0.74901274726E+00 -0.75131770764E+00  0.51771844158E+00  0.90007520954E+02  0.89999779430E+02 0.  0.
        -12    1    1    2    0    0 -0.74901274726E+00  0.75131770764E+00 -0.51771844158E+00  0.11804790460E+01  0.00000000000E+00 0.  1.
         11    1    3    3    0    0 -0.66664569419E+01 -0.21092833675E+01  0.20527927050E+01  0.72872959754E+01  0.51100000000E-03 0. -1.
        -11    1    3    3    0    0 -0.15178049151E+02  0.35310922945E+02 -0.12626514024E+02  0.40455695667E+02  0.51100000000E-03 0.  1.
         12    1    3    3    0    0  0.22593518841E+02 -0.33952957285E+02  0.11091439760E+02  0.42264529312E+02  0.00000000000E+00 0. -1.
</event>
<event>
 7    1  0.1978681E-015  0.9000777E+02  0.7816164E-02  0.1186339E+00
        -11   -1    0    0    0    0  0.00000000000E+00  0.00000000000E+00  0.45593999997E+02  0.45594000000E+02  0.51100000000E-03 0.  1.
         11   -1    0    0    0    0 -0.00000000000E+00 -0.00000000000E+00 -0.45593999997E+02  0.45594000000E+02  0.51100000000E-03 0. -1.
    9900012    2    1    2    0    0 -0.11550266639E+01  0.38234208577E-01 -0.23957449721E+00  0.90007769349E+02  0.90000031105E+02 0.  0.
        -12    1    1    2    0    0  0.11550266639E+01 -0.38234208577E-01  0.23957449721E+00  0.11802306506E+01  0.00000000000E+00 0.  1.
         11    1    3    3    0    0 -0.34204164036E+01  0.75958333742E+01 -0.58438788448E+01  0.10175797425E+02  0.51100000000E-03 0. -1.
        -11    1    3    3    0    0  0.34806812171E+02 -0.20241510416E+02  0.16098380841E+02  0.43363472916E+02  0.51100000000E-03 0.  1.
         12    1    3    3    0    0 -0.32541422431E+02  0.12683911250E+02 -0.10494076493E+02  0.36468499008E+02  0.00000000000E+00 0. -1.
</event>
<event>
 7    1  0.1978681E-015  0.9000774E+02  0.7816164E-02  0.1186339E+00
        -11   -1    0    0    0    0  0.00000000000E+00  0.00000000000E+00  0.45593999997E+02  0.45594000000E+02  0.51100000000E-03 0.  1.
         11   -1    0    0    0    0 -0.00000000000E+00 -0.00000000000E+00 -0.45593999997E+02  0.45594000000E+02  0.51100000000E-03 0. -1.
    9900012    2    1    2    0    0  0.71434759609E+00 -0.81523785134E+00 -0.46701509351E+00  0.90007742257E+02  0.90000003655E+02 0.  0.
        -12    1    1    2    0    0 -0.71434759609E+00  0.81523785134E+00  0.46701509351E+00  0.11802577430E+01  0.00000000000E+00 0.  1.
         11    1    3    3    0    0  0.12232434040E+01 -0.28556682790E+01  0.88142990895E+01  0.93457495390E+01  0.51100000000E-03 0. -1.
        -11    1    3    3    0    0  0.38333894736E+02  0.21181265431E+01 -0.15351217925E+02  0.41347718652E+02  0.51100000000E-03 0.  1.
         12    1    3    3    0    0 -0.38842790544E+02 -0.77696115442E-01  0.60699037418E+01  0.39314274066E+02  0.00000000000E+00 0. -1.
</event>
<event>
 7    1  0.1978681E-015  0.9000784E+02  0.7816164E-02  0.1186339E+00
        -11   -1    0    0    0    0  0.00000000000E+00  0.00000000000E+00  0.45593999997E+02  0.45594000000E+02  0.51100000000E-03 0.  1.
         11   -1    0    0    0    0 -0.00000000000E+00 -0.00000000000E+00 -0.45593999997E+02  0.45594000000E+02  0.51100000000E-03 0. -1.
    9900012    2    1    2    0    0  0.54553917832E+00  0.85673319511E+00 -0.60097134326E+00  0.90007842672E+02  0.90000105396E+02 0.  0.
        -12    1    1    2    0    0 -0.54553917832E+00 -0.85673319511E+00  0.60097134326E+00  0.11801573277E+01  0.00000000000E+00 0.  1.
         11    1    3    3    0    0  0.21781512390E+02  0.24094023756E+02 -0.19281647391E+02  0.37772188037E+02  0.51100000000E-03 0. -1.
        -11    1    3    3    0    0  0.76760067820E+01 -0.44697696970E+01 -0.52088862365E+01  0.10297204346E+02  0.51100000000E-03 0.  1.
        -12    1    3    3    0    0 -0.28911979993E+02 -0.18767520864E+02  0.23889562285E+02  0.41938450289E+02  0.00000000000E+00 0.  1.
</event>
<event>
 7    1  0.1978681E-015  0.9000769E+02  0.7816164E-02  0.1186339E+00
        -11   -1    0    0    0    0  0.00000000000E+00  0.00000000000E+00  0.45593999997E+02  0.45594000000E+02  0.51100000000E-03 0. -1.
         11   -1    0    0    0    0 -0.00000000000E+00 -0.00000000000E+00 -0.45593999997E+02  0.45594000000E+02  0.51100000000E-03 0.  1.
    9900012    2    1    2    0    0  0.98773541621E+00  0.51329954851E+00  0.39246547437E+00  0.90007692062E+02  0.89999952798E+02 0.  0.
        -12    1    1    2    0    0 -0.98773541621E+00 -0.51329954851E+00 -0.39246547437E+00  0.11803079376E+01  0.00000000000E+00 0.  1.
         11    1    3    3    0    0 -0.16451872667E+02 -0.12044061372E+02  0.19777671974E+02  0.28405630385E+02  0.51100000000E-03 0. -1.
        -11    1    3    3    0    0 -0.13646154034E+02 -0.92019395428E+01  0.41204721161E+01  0.16966776417E+02  0.51100000000E-03 0.  1.
        -12    1    3    3    0    0  0.31085762117E+02  0.21759300464E+02 -0.23505678616E+02  0.44635285260E+02  0.00000000000E+00 0.  1.
</event>
<event>
 7    1  0.1978681E-015  0.9000769E+02  0.7816164E-02  0.1186339E+00
        -11   -1    0    0    0    0  0.00000000000E+00  0.00000000000E+00  0.45593999997E+02  0.45594000000E+02  0.51100000000E-03 0. -1.
         11   -1    0    0    0    0 -0.00000000000E+00 -0.00000000000E+00 -0.45593999997E+02  0.45594000000E+02  0.51100000000E-03 0.  1.
    9900012    2    1    2    0    0 -0.32475713365E+00  0.10961088154E+01  0.29362856224E+00  0.90007686710E+02  0.89999947374E+02 0.  0.
        -12    1    1    2    0    0  0.32475713365E+00 -0.10961088154E+01 -0.29362856224E+00  0.11803132904E+01  0.00000000000E+00 0.  1.
         11    1    3    3    0    0  0.44103753599E+01 -0.27798446262E+01  0.98790315503E+01  0.11170237759E+02  0.51100000000E-03 0. -1.
        -11    1    3    3    0    0 -0.14937755604E+02  0.25409889308E+02 -0.33812148643E+02  0.44855996403E+02  0.51100000000E-03 0.  1.
         12    1    3    3    0    0  0.10202623111E+02 -0.21533935866E+02  0.24226745655E+02  0.33981452548E+02  0.00000000000E+00 0. -1.
</event>
<event>
 7    1  0.1978681E-015  0.9000737E+02  0.7816164E-02  0.1186340E+00
        -11   -1    0    0    0    0  0.00000000000E+00  0.00000000000E+00  0.45593999997E+02  0.45594000000E+02  0.51100000000E-03 0.  1.
         11   -1    0    0    0    0 -0.00000000000E+00 -0.00000000000E+00 -0.45593999997E+02  0.45594000000E+02  0.51100000000E-03 0. -1.
    9900012    2    1    2    0    0 -0.27627715902E+00 -0.72359349378E+00 -0.89105070351E+00  0.90007369673E+02  0.89999626152E+02 0.  0.
        -12    1    1    2    0    0  0.27627715902E+00  0.72359349378E+00  0.89105070351E+00  0.11806303270E+01  0.00000000000E+00 0.  1.
         11    1    3    3    0    0 -0.68106261906E+01 -0.28178535008E+01 -0.93055881702E+01  0.11870926624E+02  0.51100000000E-03 0. -1.
        -11    1    3    3    0    0 -0.35042447572E+02  0.79207687542E+00  0.10186362650E+02  0.36501541089E+02  0.51100000000E-03 0.  1.
         12    1    3    3    0    0  0.41576796603E+02  0.13021831316E+01 -0.17718251838E+01  0.41634901960E+02  0.00000000000E+00 0. -1.
</event>
<event>
 7    1  0.1978681E-015  0.9000822E+02  0.7816164E-02  0.1186338E+00
        -11   -1    0    0    0    0  0.00000000000E+00  0.00000000000E+00  0.45593999997E+02  0.45594000000E+02  0.51100000000E-03 0.  1.
         11   -1    0    0    0    0 -0.00000000000E+00 -0.00000000000E+00 -0.45593999997E+02  0.45594000000E+02  0.51100000000E-03 0. -1.
    9900012    2    1    2    0    0  0.94126725206E+00 -0.42687457672E+00 -0.56891520610E+00  0.90008224404E+02  0.90000492165E+02 0.  0.
        -12    1    1    2    0    0 -0.94126725206E+00  0.42687457672E+00  0.56891520610E+00  0.11797755955E+01  0.00000000000E+00 0.  1.
         11    1    3    3    0    0  0.15706592877E+02 -0.30991441171E+02 -0.23281158183E+02  0.41823185104E+02  0.51100000000E-03 0. -1.
        -11    1    3    3    0    0 -0.40985282598E+01 -0.34940414175E+01  0.78598750392E+01  0.95280583130E+01  0.51100000000E-03 0.  1.
        -12    1    3    3    0    0 -0.10666797365E+02  0.34058608012E+02  0.14852367938E+02  0.38656980988E+02  0.00000000000E+00 0.  1.
</event>
<event>
 7    1  0.1978681E-015  0.9000760E+02  0.7816164E-02  0.1186339E+00
        -11   -1    0    0    0    0  0.00000000000E+00  0.00000000000E+00  0.45593999997E+02  0.45594000000E+02  0.51100000000E-03 0.  1.
         11   -1    0    0    0    0 -0.00000000000E+00 -0.00000000000E+00 -0.45593999997E+02  0.45594000000E+02  0.51100000000E-03 0. -1.
    9900012    2    1    2    0    0 -0.93774513969E+00 -0.31730750265E+00 -0.64288091250E+00  0.90007599277E+02  0.89999858788E+02 0.  0.
        -12    1    1    2    0    0  0.93774513969E+00  0.31730750265E+00  0.64288091250E+00  0.11804007226E+01  0.00000000000E+00 0.  1.
         11    1    3    3    0    0  0.30584624936E+02 -0.42697949033E+01 -0.21097614625E+02  0.37399996980E+02  0.51100000000E-03 0. -1.
        -11    1    3    3    0    0  0.46395452278E+01  0.61050156652E+01 -0.42430674055E+01  0.87635733272E+01  0.51100000000E-03 0.  1.
        -12    1    3    3    0    0 -0.36161915303E+02 -0.21525282646E+01  0.24697801118E+02  0.43844028970E+02  0.00000000000E+00 0.  1.
</event>
<event>
 7    1  0.1978681E-015  0.9000770E+02  0.7816164E-02  0.1186339E+00
        -11   -1    0    0    0    0  0.00000000000E+00  0.00000000000E+00  0.45593999997E+02  0.45594000000E+02  0.51100000000E-03 0. -1.
         11   -1    0    0    0    0 -0.00000000000E+00 -0.00000000000E+00 -0.45593999997E+02  0.45594000000E+02  0.51100000000E-03 0.  1.
    9900012    2    1    2    0    0 -0.17792024291E+00 -0.10614744540E+01 -0.48447507345E+00  0.90007703543E+02  0.89999964430E+02 0.  0.
        -12    1    1    2    0    0  0.17792024291E+00  0.10614744540E+01  0.48447507345E+00  0.11802964569E+01  0.00000000000E+00 0.  1.
         11    1    3    3    0    0 -0.29046916405E+02  0.27343876621E+02 -0.44306352583E+01  0.40137781084E+02  0.51100000000E-03 0. -1.
        -11    1    3    3    0    0 -0.53325188610E+01 -0.86794500011E+01  0.16638514171E+01  0.10321676779E+02  0.51100000000E-03 0.  1.
        -12    1    3    3    0    0  0.34201515024E+02 -0.19725901074E+02  0.22823087678E+01  0.39548245680E+02  0.00000000000E+00 0.  1.
</event>
<event>
 7    1  0.1978681E-015  0.9000785E+02  0.7816164E-02  0.1186339E+00
        -11   -1    0    0    0    0  0.00000000000E+00  0.00000000000E+00  0.45593999997E+02  0.45594000000E+02  0.51100000000E-03 0.  1.
         11   -1    0    0    0    0 -0.00000000000E+00 -0.00000000000E+00 -0.45593999997E+02  0.45594000000E+02  0.51100000000E-03 0. -1.
    9900012    2    1    2    0    0  0.30657443630E+00  0.99492621737E+00 -0.55577670570E+00  0.90007850090E+02  0.90000112911E+02 0.  0.
        -12    1    1    2    0    0 -0.30657443630E+00 -0.99492621737E+00  0.55577670570E+00  0.11801499098E+01  0.00000000000E+00 0.  1.
         11    1    3    3    0    0 -0.33027323980E+02 -0.10767804684E+02  0.99233617958E+01  0.36127868144E+02  0.51100000000E-03 0. -1.
        -11    1    3    3    0    0 -0.52506955068E+01 -0.76946002775E+01  0.38126167026E+00  0.93231988854E+01  0.51100000000E-03 0.  1.
        -12    1    3    3    0    0  0.38584593923E+02  0.19457331179E+02 -0.10860400172E+02  0.44556783061E+02  0.00000000000E+00 0.  1.
</event>
<event>
 7    1  0.1978681E-015  0.9000765E+02  0.7816164E-02  0.1186339E+00
        -11   -1    0    0    0    0  0.00000000000E+00  0.00000000000E+00  0.45593999997E+02  0.45594000000E+02  0.51100000000E-03 0. -1.
         11   -1    0    0    0    0 -0.00000000000E+00 -0.00000000000E+00 -0.45593999997E+02  0.45594000000E+02  0.51100000000E-03 0.  1.
    9900012    2    1    2    0    0 -0.68791530970E+00  0.42987997490E+00  0.85743611350E+00  0.90007652189E+02  0.89999912398E+02 0.  0.
        -12    1    1    2    0    0  0.68791530970E+00 -0.42987997490E+00 -0.85743611350E+00  0.11803478110E+01  0.00000000000E+00 0.  1.
         11    1    3    3    0    0 -0.73085498149E+01  0.96955560031E+01 -0.74620248220E+01  0.14251334019E+02  0.51100000000E-03 0. -1.
        -11    1    3    3    0    0 -0.21634262825E+02  0.13769473478E+02  0.24867322137E+02  0.35721470272E+02  0.51100000000E-03 0.  1.
         12    1    3    3    0    0  0.28254897330E+02 -0.23035149506E+02 -0.16547861202E+02  0.40034847899E+02  0.00000000000E+00 0. -1.
</event>
<event>
 7    1  0.1978681E-015  0.9000780E+02  0.7816164E-02  0.1186339E+00
        -11   -1    0    0    0    0  0.00000000000E+00  0.00000000000E+00  0.45593999997E+02  0.45594000000E+02  0.51100000000E-03 0.  1.
         11   -1    0    0    0    0 -0.00000000000E+00 -0.00000000000E+00 -0.45593999997E+02  0.45594000000E+02  0.51100000000E-03 0. -1.
    9900012    2    1    2    0    0  0.82840251315E+00  0.27052572721E+00  0.79588356416E+00  0.90007802754E+02  0.90000064950E+02 0.  0.
        -12    1    1    2    0    0 -0.82840251315E+00 -0.27052572721E+00 -0.79588356416E+00  0.11801972465E+01  0.00000000000E+00 0.  1.
         11    1    3    3    0    0 -0.37190519281E+02  0.70727038585E+01 -0.36131374631E+01  0.38029102367E+02  0.51100000000E-03 0. -1.
        -11    1    3    3    0    0 -0.24156372632E+01 -0.53735773420E+01  0.95218376145E+01  0.11197143772E+02  0.51100000000E-03 0.  1.
        -12    1    3    3    0    0  0.40434559058E+02 -0.14286007893E+01 -0.51128165872E+01  0.40781556614E+02  0.00000000000E+00 0.  1.
</event>
<event>
 7    1  0.1978681E-015  0.9000780E+02  0.7816164E-02  0.1186339E+00
        -11   -1    0    0    0    0  0.00000000000E+00  0.00000000000E+00  0.45593999997E+02  0.45594000000E+02  0.51100000000E-03 0.  1.
         11   -1    0    0    0    0 -0.00000000000E+00 -0.00000000000E+00 -0.45593999997E+02  0.45594000000E+02  0.51100000000E-03 0. -1.
    9900012    2    1    2    0    0 -0.44777758657E+00  0.83014401137E-01 -0.10887959195E+01  0.90007799715E+02  0.90000061871E+02 0.  0.
        -12    1    1    2    0    0  0.44777758657E+00 -0.83014401137E-01  0.10887959195E+01  0.11802002848E+01  0.00000000000E+00 0.  1.
         11    1    3    3    0    0  0.27108131473E+01  0.29723664651E+01  0.78939247592E+01  0.88598825436E+01  0.51100000000E-03 0. -1.
        -11    1    3    3    0    0  0.21248949242E+02 -0.21527915681E+02  0.22093192158E+02  0.37457684625E+02  0.51100000000E-03 0.  1.
         12    1    3    3    0    0 -0.24407539976E+02  0.18638563617E+02 -0.31075912837E+02  0.43690232547E+02  0.00000000000E+00 0. -1.
</event>
<event>
 7    1  0.1978681E-015  0.9000773E+02  0.7816164E-02  0.1186339E+00
        -11   -1    0    0    0    0  0.00000000000E+00  0.00000000000E+00  0.45593999997E+02  0.45594000000E+02  0.51100000000E-03 0. -1.
         11   -1    0    0    0    0 -0.00000000000E+00 -0.00000000000E+00 -0.45593999997E+02  0.45594000000E+02  0.51100000000E-03 0.  1.
    9900012    2    1    2    0    0  0.79070618397E+00  0.36129815188E+00  0.79830056125E+00  0.90007730366E+02  0.89999991606E+02 0.  0.
        -12    1    1    2    0    0 -0.79070618397E+00 -0.36129815188E+00 -0.79830056125E+00  0.11802696345E+01  0.00000000000E+00 0.  1.
         11    1    3    3    0    0  0.48058171028E+01 -0.10172307788E+02 -0.11426144385E+00  0.11250990166E+02  0.51100000000E-03 0. -1.
        -11    1    3    3    0    0 -0.57676034088E+01 -0.33789583097E+02 -0.17149898766E+01  0.34321164979E+02  0.51100000000E-03 0.  1.
         12    1    3    3    0    0  0.17524924899E+01  0.44323189037E+02  0.26275518817E+01  0.44435575221E+02  0.00000000000E+00 0. -1.
</event>
<event>
 7    1  0.1978681E-015  0.9000778E+02  0.7816164E-02  0.1186339E+00
        -11   -1    0    0    0    0  0.00000000000E+00  0.00000000000E+00  0.45593999997E+02  0.45594000000E+02  0.51100000000E-03 0. -1.
         11   -1    0    0    0    0 -0.00000000000E+00 -0.00000000000E+00 -0.45593999997E+02  0.45594000000E+02  0.51100000000E-03 0.  1.
    9900012    2    1    2    0    0 -0.30693169483E+00 -0.58892481424E+00 -0.97564127111E+00  0.90007781634E+02  0.90000043551E+02 0.  0.
        -12    1    1    2    0    0  0.30693169483E+00  0.58892481424E+00  0.97564127111E+00  0.11802183662E+01  0.00000000000E+00 0.  1.
         11    1    3    3    0    0 -0.79436771212E+00 -0.37654767883E+02 -0.48650928222E+00  0.37666288056E+02  0.51100000000E-03 0. -1.
        -11    1    3    3    0    0  0.15320909356E+01 -0.24177595875E+01 -0.11084117385E+02  0.11447730016E+02  0.51100000000E-03 0.  1.
        -12    1    3    3    0    0 -0.10446549183E+01  0.39483602657E+02  0.10594985396E+02  0.40893763561E+02  0.00000000000E+00 0.  1.
</event>
<event>
 7    1  0.1978681E-015  0.9000773E+02  0.7816164E-02  0.1186339E+00
        -11   -1    0    0    0    0  0.00000000000E+00  0.00000000000E+00  0.45593999997E+02  0.45594000000E+02  0.51100000000E-03 0. -1.
         11   -1    0    0    0    0 -0.00000000000E+00 -0.00000000000E+00 -0.45593999997E+02  0.45594000000E+02  0.51100000000E-03 0.  1.
    9900012    2    1    2    0    0  0.32696163270E+00  0.27470635856E+00  0.11003066793E+01  0.90007727878E+02  0.89999989086E+02 0.  0.
        -12    1    1    2    0    0 -0.32696163270E+00 -0.27470635856E+00 -0.11003066793E+01  0.11802721216E+01  0.00000000000E+00 0.  1.
         11    1    3    3    0    0  0.86130299756E+01 -0.28529930133E+01  0.46569571937E+01  0.10198583483E+02  0.51100000000E-03 0. -1.
        -11    1    3    3    0    0  0.34955465082E+02  0.82845706158E+01  0.15848581538E+01  0.35958732250E+02  0.51100000000E-03 0.  1.
         12    1    3    3    0    0 -0.43241533425E+02 -0.51568712439E+01 -0.51415086683E+01  0.43850412146E+02  0.00000000000E+00 0. -1.
</event>
<event>
 7    1  0.1978681E-015  0.9000772E+02  0.7816164E-02  0.1186339E+00
        -11   -1    0    0    0    0  0.00000000000E+00  0.00000000000E+00  0.45593999997E+02  0.45594000000E+02  0.51100000000E-03 0.  1.
         11   -1    0    0    0    0 -0.00000000000E+00 -0.00000000000E+00 -0.45593999997E+02  0.45594000000E+02  0.51100000000E-03 0. -1.
    9900012    2    1    2    0    0 -0.90784284801E+00  0.38474841183E+00 -0.64873616433E+00  0.90007716734E+02  0.89999977795E+02 0.  0.
        -12    1    1    2    0    0  0.90784284801E+00 -0.38474841183E+00  0.64873616433E+00  0.11802832660E+01  0.00000000000E+00 0.  1.
         11    1    3    3    0    0 -0.12046610673E+02  0.34804938111E+01 -0.11323440973E+01  0.12590348259E+02  0.51100000000E-03 0. -1.
        -11    1    3    3    0    0 -0.25354313255E+02  0.17654650199E+02  0.13136088329E+02  0.33572082020E+02  0.51100000000E-03 0.  1.
         12    1    3    3    0    0  0.36493081080E+02 -0.20750395598E+02 -0.12652480396E+02  0.43845286455E+02  0.00000000000E+00 0. -1.
</event>
<event>
 7    1  0.1978681E-015  0.9000761E+02  0.7816164E-02  0.1186339E+00
        -11   -1    0    0    0    0  0.00000000000E+00  0.00000000000E+00  0.45593999997E+02  0.45594000000E+02  0.51100000000E-03 0. -1.
         11   -1    0    0    0    0 -0.00000000000E+00 -0.00000000000E+00 -0.45593999997E+02  0.45594000000E+02  0.51100000000E-03 0.  1.
    9900012    2    1    2    0    0  0.27957179989E+00  0.89866528784E+00  0.71242726344E+00  0.90007613497E+02  0.89999873195E+02 0.  0.
        -12    1    1    2    0    0 -0.27957179989E+00 -0.89866528784E+00 -0.71242726344E+00  0.11803865030E+01  0.00000000000E+00 0.  1.
         11    1    3    3    0    0  0.17320131969E+02 -0.29181658921E+01 -0.39797380699E+01  0.18009469147E+02  0.51100000000E-03 0. -1.
        -11    1    3    3    0    0  0.11821618854E+02 -0.80072210975E+01 -0.25092817522E+02  0.28870672897E+02  0.51100000000E-03 0.  1.
         12    1    3    3    0    0 -0.28862179023E+02  0.11824052278E+02  0.29784982856E+02  0.43127471453E+02  0.00000000000E+00 0. -1.
</event>
<event>
 7    1  0.1978681E-015  0.9000788E+02  0.7816164E-02  0.1186339E+00
        -11   -1    0    0    0    0  0.00000000000E+00  0.00000000000E+00  0.45593999997E+02  0.45594000000E+02  0.51100000000E-03 0. -1.
         11   -1    0    0    0    0 -0.00000000000E+00 -0.00000000000E+00 -0.45593999997E+02  0.45594000000E+02  0.51100000000E-03 0.  1.
    9900012    2    1    2    0    0  0.67654936141E+00 -0.11352379102E+00  0.96024986945E+00  0.90007878607E+02  0.90000141805E+02 0.  0.
        -12    1    1    2    0    0 -0.67654936141E+00  0.11352379102E+00 -0.96024986945E+00  0.11801213926E+01  0.00000000000E+00 0.  1.
         11    1    3    3    0    0  0.10378608012E+01 -0.37830349311E+02 -0.58232532787E+01  0.38289982541E+02  0.51100000000E-03 0. -1.
        -11    1    3    3    0    0 -0.66094084249E+01 -0.28023258573E+01 -0.53600366860E+01  0.89592021673E+01  0.51100000000E-03 0.  1.
        -12    1    3    3    0    0  0.62480969851E+01  0.40519151377E+02  0.12143539834E+02  0.42758693899E+02  0.00000000000E+00 0.  1.
</event>
<event>
 7    1  0.1978681E-015  0.9000780E+02  0.7816164E-02  0.1186339E+00
        -11   -1    0    0    0    0  0.00000000000E+00  0.00000000000E+00  0.45593999997E+02  0.45594000000E+02  0.51100000000E-03 0.  1.
         11   -1    0    0    0    0 -0.00000000000E+00 -0.00000000000E+00 -0.45593999997E+02  0.45594000000E+02  0.51100000000E-03 0. -1.
    9900012    2    1    2    0    0  0.53045938144E-01 -0.59501442071E+00 -0.10178455128E+01  0.90007802762E+02  0.90000064959E+02 0.  0.
        -12    1    1    2    0    0 -0.53045938144E-01  0.59501442071E+00  0.10178455128E+01  0.11801972379E+01  0.00000000000E+00 0.  1.
         11    1    3    3    0    0 -0.20937078698E+02 -0.47160586489E-01  0.70750983579E+01  0.22100237681E+02  0.51100000000E-03 0. -1.
        -11    1    3    3    0    0 -0.20000824987E+02 -0.13821438986E+02 -0.20273272440E+01  0.24396213473E+02  0.51100000000E-03 0.  1.
         12    1    3    3    0    0  0.40990949623E+02  0.13273585152E+02 -0.60656166267E+01  0.43511351609E+02  0.00000000000E+00 0. -1.
</event>
<event>
 7    1  0.1978681E-015  0.9000768E+02  0.7816164E-02  0.1186339E+00
        -11   -1    0    0    0    0  0.00000000000E+00  0.00000000000E+00  0.45593999997E+02  0.45594000000E+02  0.51100000000E-03 0. -1.
         11   -1    0    0    0    0 -0.00000000000E+00 -0.00000000000E+00 -0.45593999997E+02  0.45594000000E+02  0.51100000000E-03 0.  1.
    9900012    2    1    2    0    0 -0.72223752533E+00 -0.36863488756E+00 -0.85768862825E+00  0.90007682879E+02  0.89999943493E+02 0.  0.
        -12    1    1    2    0    0  0.72223752533E+00  0.36863488756E+00  0.85768862825E+00  0.11803171211E+01  0.00000000000E+00 0.  1.
         11    1    3    3    0    0 -0.10444467158E+02 -0.47741523376E+01 -0.43615810676E+01  0.12284250666E+02  0.51100000000E-03 0. -1.
        -11    1    3    3    0    0 -0.25717451356E+02  0.25525228589E+02  0.40852742402E+01  0.36463873418E+02  0.51100000000E-03 0.  1.
         12    1    3    3    0    0  0.35439680988E+02 -0.21119711139E+02 -0.58138180084E+00  0.41259558795E+02  0.00000000000E+00 0. -1.
</event>
<event>
 7    1  0.1978681E-015  0.9000772E+02  0.7816164E-02  0.1186339E+00
        -11   -1    0    0    0    0  0.00000000000E+00  0.00000000000E+00  0.45593999997E+02  0.45594000000E+02  0.51100000000E-03 0.  1.
         11   -1    0    0    0    0 -0.00000000000E+00 -0.00000000000E+00 -0.45593999997E+02  0.45594000000E+02  0.51100000000E-03 0. -1.
    9900012    2    1    2    0    0 -0.10386098263E+01  0.49884923461E+00  0.25592497237E+00  0.90007720998E+02  0.89999982116E+02 0.  0.
        -12    1    1    2    0    0  0.10386098263E+01 -0.49884923461E+00 -0.25592497237E+00  0.11802790016E+01  0.00000000000E+00 0.  1.
         11    1    3    3    0    0 -0.57144585871E+00 -0.29021596177E+01  0.83674412148E+01  0.88748607628E+01  0.51100000000E-03 0. -1.
        -11    1    3    3    0    0  0.33502265639E+02  0.12211983039E+02  0.15451795609E+02  0.38862479597E+02  0.51100000000E-03 0.  1.
         12    1    3    3    0    0 -0.33969429606E+02 -0.88109741863E+01 -0.23563311851E+02  0.42270380638E+02  0.00000000000E+00 0. -1.
</event>
<event>
 7    1  0.1978681E-015  0.9000834E+02  0.7816164E-02  0.1186338E+00
        -11   -1    0    0    0    0  0.00000000000E+00  0.00000000000E+00  0.45593999997E+02  0.45594000000E+02  0.51100000000E-03 0.  1.
         11   -1    0    0    0    0 -0.00000000000E+00 -0.00000000000E+00 -0.45593999997E+02  0.45594000000E+02  0.51100000000E-03 0. -1.
    9900012    2    1    2    0    0 -0.10229964818E+01 -0.33591531130E+00 -0.48189928746E+00  0.90008344194E+02  0.90000613535E+02 0.  0.
        -12    1    1    2    0    0  0.10229964818E+01  0.33591531130E+00  0.48189928746E+00  0.11796558063E+01  0.00000000000E+00 0.  1.
         11    1    3    3    0    0  0.81471910683E+01  0.35531792790E+01  0.15278008331E+01  0.90186462920E+01  0.51100000000E-03 0. -1.
        -11    1    3    3    0    0 -0.11978799332E+02 -0.34251407396E+02  0.21775467520E+02  0.42318099296E+02  0.51100000000E-03 0.  1.
         12    1    3    3    0    0  0.28086117822E+01  0.30362312805E+02 -0.23785167641E+02  0.38671598606E+02  0.00000000000E+00 0. -1.
</event>
<event>
 7    1  0.1978681E-015  0.9000769E+02  0.7816164E-02  0.1186339E+00
        -11   -1    0    0    0    0  0.00000000000E+00  0.00000000000E+00  0.45593999997E+02  0.45594000000E+02  0.51100000000E-03 0.  1.
         11   -1    0    0    0    0 -0.00000000000E+00 -0.00000000000E+00 -0.45593999997E+02  0.45594000000E+02  0.51100000000E-03 0. -1.
    9900012    2    1    2    0    0 -0.46045368894E+00 -0.10755004375E+01 -0.15625019955E+00  0.90007689483E+02  0.89999950185E+02 0.  0.
        -12    1    1    2    0    0  0.46045368894E+00  0.10755004375E+01  0.15625019955E+00  0.11803105166E+01  0.00000000000E+00 0.  1.
         11    1    3    3    0    0 -0.62760090824E+01 -0.23757246055E+02 -0.26174219606E+02  0.35901041801E+02  0.51100000000E-03 0. -1.
        -11    1    3    3    0    0 -0.15873927068E+01 -0.98715587202E+01 -0.23800965096E+01  0.10277759816E+02  0.51100000000E-03 0.  1.
        -12    1    3    3    0    0  0.74029481003E+01  0.32553304338E+02  0.28398065916E+02  0.43828887867E+02  0.00000000000E+00 0.  1.
</event>
<event>
 7    1  0.1978681E-015  0.9000767E+02  0.7816164E-02  0.1186339E+00
        -11   -1    0    0    0    0  0.00000000000E+00  0.00000000000E+00  0.45593999997E+02  0.45594000000E+02  0.51100000000E-03 0.  1.
         11   -1    0    0    0    0 -0.00000000000E+00 -0.00000000000E+00 -0.45593999997E+02  0.45594000000E+02  0.51100000000E-03 0. -1.
    9900012    2    1    2    0    0 -0.49414817577E+00  0.80897987612E+00 -0.70324777995E+00  0.90007666022E+02  0.89999926413E+02 0.  0.
        -12    1    1    2    0    0  0.49414817577E+00 -0.80897987612E+00  0.70324777995E+00  0.11803339780E+01  0.00000000000E+00 0.  1.
         11    1    3    3    0    0  0.63545169806E+01 -0.21659320112E+02  0.33317205384E+02  0.40243536234E+02  0.51100000000E-03 0. -1.
        -11    1    3    3    0    0 -0.23209383885E+01 -0.65486430029E+01 -0.62478029389E+01  0.93437959100E+01  0.51100000000E-03 0.  1.
        -12    1    3    3    0    0 -0.45277267679E+01  0.29016942991E+02 -0.27772650225E+02  0.40420333878E+02  0.00000000000E+00 0.  1.
</event>
<event>
 7    1  0.1978681E-015  0.9000802E+02  0.7816164E-02  0.1186338E+00
        -11   -1    0    0    0    0  0.00000000000E+00  0.00000000000E+00  0.45593999997E+02  0.45594000000E+02  0.51100000000E-03 0.  1.
         11   -1    0    0    0    0 -0.00000000000E+00 -0.00000000000E+00 -0.45593999997E+02  0.45594000000E+02  0.51100000000E-03 0. -1.
    9900012    2    1    2    0    0 -0.73060817171E+00  0.89462601144E+00 -0.24124701553E+00  0.90008023677E+02  0.90000288789E+02 0.  0.
        -12    1    1    2    0    0  0.73060817171E+00 -0.89462601144E+00  0.24124701553E+00  0.11799763232E+01  0.00000000000E+00 0.  1.
         11    1    3    3    0    0 -0.40313435164E+02  0.13653162763E+02 -0.59284043651E+01  0.42973571957E+02  0.51100000000E-03 0. -1.
        -11    1    3    3    0    0  0.19119323367E+01 -0.73301764767E+01  0.47921948124E+01  0.89639335016E+01  0.51100000000E-03 0.  1.
        -12    1    3    3    0    0  0.37670894656E+02 -0.54283602750E+01  0.89496253715E+00  0.38070518218E+02  0.00000000000E+00 0.  1.
</event>
<event>
 7    1  0.1978681E-015  0.9000785E+02  0.7816164E-02  0.1186339E+00
        -11   -1    0    0    0    0  0.00000000000E+00  0.00000000000E+00  0.45593999997E+02  0.45594000000E+02  0.51100000000E-03 0.  1.
         11   -1    0    0    0    0 -0.00000000000E+00 -0.00000000000E+00 -0.45593999997E+02  0.45594000000E+02  0.51100000000E-03 0. -1.
    9900012    2    1    2    0    0  0.10305914752E+01 -0.53507637739E+00  0.21056640197E+00  0.90007845888E+02  0.90000108654E+02 0.  0.
        -12    1    1    2    0    0 -0.10305914752E+01  0.53507637739E+00 -0.21056640197E+00  0.11801541120E+01  0.00000000000E+00 0.  1.
         11    1    3    3    0    0 -0.35063421247E+02 -0.11920469898E+02 -0.31575696476E+01  0.37168687877E+02  0.51100000000E-03 0. -1.
        -11    1    3    3    0    0 -0.19148957911E+01 -0.88744444467E+01 -0.23813128674E+01  0.93857999852E+01  0.51100000000E-03 0.  1.
        -12    1    3    3    0    0  0.38008908514E+02  0.20259837967E+02  0.57494489170E+01  0.43453358026E+02  0.00000000000E+00 0.  1.
</event>
<event>
 7    1  0.1978681E-015  0.9000763E+02  0.7816164E-02  0.1186339E+00
        -11   -1    0    0    0    0  0.00000000000E+00  0.00000000000E+00  0.45593999997E+02  0.45594000000E+02  0.51100000000E-03 0. -1.
         11   -1    0    0    0    0 -0.00000000000E+00 -0.00000000000E+00 -0.45593999997E+02  0.45594000000E+02  0.51100000000E-03 0.  1.
    9900012    2    1    2    0    0 -0.97399175135E+00  0.55472624958E+00 -0.36999057633E+00  0.90007629647E+02  0.89999889558E+02 0.  0.
        -12    1    1    2    0    0  0.97399175135E+00 -0.55472624958E+00  0.36999057633E+00  0.11803703530E+01  0.00000000000E+00 0.  1.
         11    1    3    3    0    0  0.27541634066E+02 -0.25471423922E+02  0.52118570432E+00  0.37518084685E+02  0.51100000000E-03 0. -1.
        -11    1    3    3    0    0  0.69175418665E+00 -0.41556252248E+01 -0.87952616457E+01  0.97521470734E+01  0.51100000000E-03 0.  1.
        -12    1    3    3    0    0 -0.29207380004E+02  0.30181775397E+02  0.79040853651E+01  0.42737397888E+02  0.00000000000E+00 0.  1.
</event>
<event>
 7    1  0.1978681E-015  0.9000767E+02  0.7816164E-02  0.1186339E+00
        -11   -1    0    0    0    0  0.00000000000E+00  0.00000000000E+00  0.45593999997E+02  0.45594000000E+02  0.51100000000E-03 0. -1.
         11   -1    0    0    0    0 -0.00000000000E+00 -0.00000000000E+00 -0.45593999997E+02  0.45594000000E+02  0.51100000000E-03 0.  1.
    9900012    2    1    2    0    0 -0.11792790637E+01  0.33951905875E-01 -0.36557890745E-01  0.90007666013E+02  0.89999926404E+02 0.  0.
        -12    1    1    2    0    0  0.11792790637E+01 -0.33951905875E-01  0.36557890745E-01  0.11803339872E+01  0.00000000000E+00 0.  1.
         11    1    3    3    0    0 -0.34632321074E+02 -0.91179267994E+01  0.18253997692E+02  0.40196301871E+02  0.51100000000E-03 0. -1.
        -11    1    3    3    0    0 -0.47132506463E+01 -0.26245215397E+01 -0.58937843262E+01  0.79899648880E+01  0.51100000000E-03 0.  1.
        -12    1    3    3    0    0  0.38166292657E+02  0.11776400245E+02 -0.12396771257E+02  0.41821399253E+02  0.00000000000E+00 0.  1.
</event>
<event>
 7    1  0.1978681E-015  0.9000773E+02  0.7816164E-02  0.1186339E+00
        -11   -1    0    0    0    0  0.00000000000E+00  0.00000000000E+00  0.45593999997E+02  0.45594000000E+02  0.51100000000E-03 0.  1.
         11   -1    0    0    0    0 -0.00000000000E+00 -0.00000000000E+00 -0.45593999997E+02  0.45594000000E+02  0.51100000000E-03 0. -1.
    9900012    2    1    2    0    0 -0.37013181989E+00  0.14728886174E+00 -0.11110082762E+01  0.90007732673E+02  0.89999993945E+02 0.  0.
        -12    1    1    2    0    0  0.37013181989E+00 -0.14728886174E+00  0.11110082762E+01  0.11802673268E+01  0.00000000000E+00 0.  1.
         11    1    3    3    0    0 -0.10809537947E+02 -0.11843195131E+02  0.11888601525E+02  0.19961117905E+02  0.51100000000E-03 0. -1.
        -11    1    3    3    0    0 -0.26359243081E+01 -0.96468536536E+01  0.23561536025E+02  0.25596012628E+02  0.51100000000E-03 0.  1.
         12    1    3    3    0    0  0.13075330435E+02  0.21637337646E+02 -0.36561145826E+02  0.44450602139E+02  0.00000000000E+00 0. -1.
</event>
<event>
 7    1  0.1978681E-015  0.9000783E+02  0.7816164E-02  0.1186339E+00
        -11   -1    0    0    0    0  0.00000000000E+00  0.00000000000E+00  0.45593999997E+02  0.45594000000E+02  0.51100000000E-03 0.  1.
         11   -1    0    0    0    0 -0.00000000000E+00 -0.00000000000E+00 -0.45593999997E+02  0.45594000000E+02  0.51100000000E-03 0. -1.
    9900012    2    1    2    0    0  0.26566699003E-01 -0.51015754873E+00 -0.10638803125E+01  0.90007827202E+02  0.90000089721E+02 0.  0.
        -12    1    1    2    0    0 -0.26566699003E-01  0.51015754873E+00  0.10638803125E+01  0.11801727981E+01  0.00000000000E+00 0.  1.
         11    1    3    3    0    0 -0.36135780971E+02 -0.78232422386E+01 -0.11737865651E+01  0.36991560668E+02  0.51100000000E-03 0. -1.
        -11    1    3    3    0    0 -0.12432966364E+01 -0.59693108839E+01  0.10359241541E+02  0.12020496850E+02  0.51100000000E-03 0.  1.
        -12    1    3    3    0    0  0.37405644306E+02  0.13282395574E+02 -0.10249335288E+02  0.40995769684E+02  0.00000000000E+00 0.  1.
</event>
<event>
 7    1  0.1978681E-015  0.9000782E+02  0.7816164E-02  0.1186339E+00
        -11   -1    0    0    0    0  0.00000000000E+00  0.00000000000E+00  0.45593999997E+02  0.45594000000E+02  0.51100000000E-03 0.  1.
         11   -1    0    0    0    0 -0.00000000000E+00 -0.00000000000E+00 -0.45593999997E+02  0.45594000000E+02  0.51100000000E-03 0. -1.
    9900012    2    1    2    0    0 -0.25007469877E+00  0.10229604510E-02 -0.11533795423E+01  0.90007820874E+02  0.90000083309E+02 0.  0.
        -12    1    1    2    0    0  0.25007469877E+00 -0.10229604510E-02  0.11533795423E+01  0.11801791262E+01  0.00000000000E+00 0.  1.
         11    1    3    3    0    0  0.97841820013E+01 -0.24203557705E+02 -0.30160468201E+02  0.39889801521E+02  0.51100000000E-03 0. -1.
        -11    1    3    3    0    0 -0.10944919120E+01  0.68455537585E+01 -0.65596533460E+01  0.95440332715E+01  0.51100000000E-03 0.  1.
        -12    1    3    3    0    0 -0.89397647881E+01  0.17359026907E+02  0.35566742005E+02  0.40573986081E+02  0.00000000000E+00 0.  1.
</event>
<event>
 7    1  0.1978681E-015  0.9000775E+02  0.7816164E-02  0.1186339E+00
        -11   -1    0    0    0    0  0.00000000000E+00  0.00000000000E+00  0.45593999997E+02  0.45594000000E+02  0.51100000000E-03 0.  1.
         11   -1    0    0    0    0 -0.00000000000E+00 -0.00000000000E+00 -0.45593999997E+02  0.45594000000E+02  0.51100000000E-03 0. -1.
    9900012    2    1    2    0    0 -0.15860020323E+00  0.36263271309E+00 -0.11119079247E+01  0.90007747594E+02  0.90000009062E+02 0.  0.
        -12    1    1    2    0    0  0.15860020323E+00 -0.36263271309E+00  0.11119079247E+01  0.11802524061E+01  0.00000000000E+00 0.  1.
         11    1    3    3    0    0 -0.92641027123E+01  0.20853861242E+01 -0.77440200523E+01  0.12253255942E+02  0.51100000000E-03 0. -1.
        -11    1    3    3    0    0 -0.28469145287E+02 -0.15717650372E+02 -0.10469417479E+02  0.34163510786E+02  0.51100000000E-03 0.  1.
         12    1    3    3    0    0  0.37574647797E+02  0.13994896961E+02  0.17101529606E+02  0.43590980866E+02  0.00000000000E+00 0. -1.
</event>
<event>
 7    1  0.1978681E-015  0.9000778E+02  0.7816164E-02  0.1186339E+00
        -11   -1    0    0    0    0  0.00000000000E+00  0.00000000000E+00  0.45593999997E+02  0.45594000000E+02  0.51100000000E-03 0. -1.
         11   -1    0    0    0    0 -0.00000000000E+00 -0.00000000000E+00 -0.45593999997E+02  0.45594000000E+02  0.51100000000E-03 0.  1.
    9900012    2    1    2    0    0  0.16774973944E+00  0.11643648420E+01  0.95096793840E-01  0.90007775928E+02  0.90000037770E+02 0.  0.
        -12    1    1    2    0    0 -0.16774973944E+00 -0.11643648420E+01 -0.95096793840E-01  0.11802240722E+01  0.00000000000E+00 0.  1.
         11    1    3    3    0    0  0.16938591877E+02 -0.14319399948E+01  0.35600862727E+02  0.39451080772E+02  0.51100000000E-03 0. -1.
        -11    1    3    3    0    0 -0.24693082986E+01 -0.10274753491E+02 -0.46079680432E+00  0.10577352066E+02  0.51100000000E-03 0.  1.
        -12    1    3    3    0    0 -0.14301533838E+02  0.12871058328E+02 -0.35044969129E+02  0.39979343089E+02  0.00000000000E+00 0.  1.
</event>
<event>
 7    1  0.1978681E-015  0.9000772E+02  0.7816164E-02  0.1186339E+00
        -11   -1    0    0    0    0  0.00000000000E+00  0.00000000000E+00  0.45593999997E+02  0.45594000000E+02  0.51100000000E-03 0.  1.
         11   -1    0    0    0    0 -0.00000000000E+00 -0.00000000000E+00 -0.45593999997E+02  0.45594000000E+02  0.51100000000E-03 0. -1.
    9900012    2    1    2    0    0 -0.15712759900E+00  0.10042528984E+01 -0.59988244557E+00  0.90007715325E+02  0.89999976367E+02 0.  0.
        -12    1    1    2    0    0  0.15712759900E+00 -0.10042528984E+01  0.59988244557E+00  0.11802846753E+01  0.00000000000E+00 0.  1.
         11    1    3    3    0    0  0.35999329130E+01 -0.79434523642E+00  0.73211207630E+01  0.81969086136E+01  0.51100000000E-03 0. -1.
        -11    1    3    3    0    0 -0.52913627345E+01  0.39987181747E+02 -0.14823033688E+02  0.42973195735E+02  0.51100000000E-03 0.  1.
         12    1    3    3    0    0  0.15343022225E+01 -0.38188583612E+02  0.69020304796E+01  0.38837610977E+02  0.00000000000E+00 0. -1.
</event>
<event>
 7    1  0.1978681E-015  0.9000771E+02  0.7816164E-02  0.1186339E+00
        -11   -1    0    0    0    0  0.00000000000E+00  0.00000000000E+00  0.45593999997E+02  0.45594000000E+02  0.51100000000E-03 0.  1.
         11   -1    0    0    0    0 -0.00000000000E+00 -0.00000000000E+00 -0.45593999997E+02  0.45594000000E+02  0.51100000000E-03 0. -1.
    9900012    2    1    2    0    0  0.49675611017E+00  0.54097414333E+00 -0.92394070462E+00  0.90007709323E+02  0.89999970286E+02 0.  0.
        -12    1    1    2    0    0 -0.49675611017E+00 -0.54097414333E+00  0.92394070462E+00  0.11802906771E+01  0.00000000000E+00 0.  1.
         11    1    3    3    0    0 -0.17765881949E+02  0.20599028620E+02 -0.24538916062E+02  0.36634750487E+02  0.51100000000E-03 0. -1.
        -11    1    3    3    0    0 -0.81518012335E+01  0.13518098970E+01 -0.43594467040E+01  0.93425922085E+01  0.51100000000E-03 0.  1.
        -12    1    3    3    0    0  0.26414439292E+02 -0.21409864374E+02  0.27974422062E+02  0.44030366627E+02  0.00000000000E+00 0.  1.
</event>
<event>
 7    1  0.1978681E-015  0.9000771E+02  0.7816164E-02  0.1186339E+00
        -11   -1    0    0    0    0  0.00000000000E+00  0.00000000000E+00  0.45593999997E+02  0.45594000000E+02  0.51100000000E-03 0.  1.
         11   -1    0    0    0    0 -0.00000000000E+00 -0.00000000000E+00 -0.45593999997E+02  0.45594000000E+02  0.51100000000E-03 0. -1.
    9900012    2    1    2    0    0  0.83064167718E+00 -0.66985334425E+00  0.50439260307E+00  0.90007711477E+02  0.89999972469E+02 0.  0.
        -12    1    1    2    0    0 -0.83064167718E+00  0.66985334425E+00 -0.50439260307E+00  0.11802885227E+01  0.00000000000E+00 0.  1.
         11    1    3    3    0    0  0.33200364162E+00 -0.71541587021E+01  0.64143379123E+01  0.96143613551E+01  0.51100000000E-03 0. -1.
        -11    1    3    3    0    0 -0.25294703455E+02 -0.20078043515E+02  0.17358029582E+02  0.36664029313E+02  0.51100000000E-03 0.  1.
         12    1    3    3    0    0  0.25793341490E+02  0.26562348873E+02 -0.23267974891E+02  0.43729320809E+02  0.00000000000E+00 0. -1.
</event>
<event>
 7    1  0.1978681E-015  0.9000776E+02  0.7816164E-02  0.1186339E+00
        -11   -1    0    0    0    0  0.00000000000E+00  0.00000000000E+00  0.45593999997E+02  0.45594000000E+02  0.51100000000E-03 0.  1.
         11   -1    0    0    0    0 -0.00000000000E+00 -0.00000000000E+00 -0.45593999997E+02  0.45594000000E+02  0.51100000000E-03 0. -1.
    9900012    2    1    2    0    0  0.10717148591E+01 -0.39860178512E+00 -0.29241583995E+00  0.90007761403E+02  0.90000023054E+02 0.  0.
        -12    1    1    2    0    0 -0.10717148591E+01  0.39860178512E+00  0.29241583995E+00  0.11802385970E+01  0.00000000000E+00 0.  1.
         11    1    3    3    0    0 -0.12722678625E+02  0.28906729237E+02 -0.24559322362E+02  0.40007822506E+02  0.51100000000E-03 0. -1.
        -11    1    3    3    0    0 -0.77138298555E+01 -0.18976752213E+01  0.77775787418E+00  0.79818074305E+01  0.51100000000E-03 0.  1.
        -12    1    3    3    0    0  0.21508223339E+02 -0.27407655801E+02  0.23489148647E+02  0.42018131466E+02  0.00000000000E+00 0.  1.
</event>
<event>
 7    1  0.1978681E-015  0.9000776E+02  0.7816164E-02  0.1186339E+00
        -11   -1    0    0    0    0  0.00000000000E+00  0.00000000000E+00  0.45593999997E+02  0.45594000000E+02  0.51100000000E-03 0. -1.
         11   -1    0    0    0    0 -0.00000000000E+00 -0.00000000000E+00 -0.45593999997E+02  0.45594000000E+02  0.51100000000E-03 0.  1.
    9900012    2    1    2    0    0 -0.10437886280E+01 -0.44392660637E+00  0.32618858183E+00  0.90007760820E+02  0.90000022463E+02 0.  0.
        -12    1    1    2    0    0  0.10437886280E+01  0.44392660637E+00 -0.32618858183E+00  0.11802391803E+01  0.00000000000E+00 0.  1.
         11    1    3    3    0    0  0.48031719679E+00  0.16554833497E+02  0.35630591362E+02  0.39291630887E+02  0.51100000000E-03 0. -1.
        -11    1    3    3    0    0 -0.87541983635E+00 -0.12862310288E+02  0.21139643093E+01  0.13064234811E+02  0.51100000000E-03 0.  1.
        -12    1    3    3    0    0 -0.64868598843E+00 -0.41364498147E+01 -0.37418367089E+02  0.37651895121E+02  0.00000000000E+00 0.  1.
</event>
<event>
 7    1  0.1978681E-015  0.9000781E+02  0.7816164E-02  0.1186339E+00
        -11   -1    0    0    0    0  0.00000000000E+00  0.00000000000E+00  0.45593999997E+02  0.45594000000E+02  0.51100000000E-03 0.  1.
         11   -1    0    0    0    0 -0.00000000000E+00 -0.00000000000E+00 -0.45593999997E+02  0.45594000000E+02  0.51100000000E-03 0. -1.
    9900012    2    1    2    0    0  0.10160076365E+01  0.29619442661E+00 -0.52235255909E+00  0.90007807282E+02  0.90000069538E+02 0.  0.
        -12    1    1    2    0    0 -0.10160076365E+01 -0.29619442661E+00  0.52235255909E+00  0.11801927181E+01  0.00000000000E+00 0.  1.
         11    1    3    3    0    0  0.22765600717E+02  0.78058889510E+01 -0.28405778908E+02  0.37230266638E+02  0.51100000000E-03 0. -1.
        -11    1    3    3    0    0  0.61532593486E+00 -0.60638110919E+01 -0.82505079832E+01  0.10257646573E+02  0.51100000000E-03 0.  1.
        -12    1    3    3    0    0 -0.22364919015E+02 -0.14458834325E+01  0.36133934332E+02  0.42519894071E+02  0.00000000000E+00 0.  1.
</event>
<event>
 7    1  0.1978681E-015  0.9000784E+02  0.7816164E-02  0.1186339E+00
        -11   -1    0    0    0    0  0.00000000000E+00  0.00000000000E+00  0.45593999997E+02  0.45594000000E+02  0.51100000000E-03 0. -1.
         11   -1    0    0    0    0 -0.00000000000E+00 -0.00000000000E+00 -0.45593999997E+02  0.45594000000E+02  0.51100000000E-03 0.  1.
    9900012    2    1    2    0    0 -0.82719763608E+00 -0.12180339906E+00  0.83288205405E+00  0.90007837082E+02  0.90000099731E+02 0.  0.
        -12    1    1    2    0    0  0.82719763608E+00  0.12180339906E+00 -0.83288205405E+00  0.11801629180E+01  0.00000000000E+00 0.  1.
         11    1    3    3    0    0 -0.84282366701E+01  0.25144984201E+02  0.28174695495E+02  0.38692620361E+02  0.51100000000E-03 0. -1.
        -11    1    3    3    0    0  0.93030969829E+01  0.62489741946E+01 -0.34359571291E+01  0.11721906569E+02  0.51100000000E-03 0.  1.
        -12    1    3    3    0    0 -0.17020579489E+01 -0.31515761795E+02 -0.23905856312E+02  0.39593310152E+02  0.00000000000E+00 0.  1.
</event>
<event>
 7    1  0.1978681E-015  0.9000775E+02  0.7816164E-02  0.1186339E+00
        -11   -1    0    0    0    0  0.00000000000E+00  0.00000000000E+00  0.45593999997E+02  0.45594000000E+02  0.51100000000E-03 0. -1.
         11   -1    0    0    0    0 -0.00000000000E+00 -0.00000000000E+00 -0.45593999997E+02  0.45594000000E+02  0.51100000000E-03 0.  1.
    9900012    2    1    2    0    0  0.47997803725E+00  0.34933568098E-01  0.10776742954E+01  0.90007753773E+02  0.90000015322E+02 0.  0.
        -12    1    1    2    0    0 -0.47997803725E+00 -0.34933568098E-01 -0.10776742954E+01  0.11802462274E+01  0.00000000000E+00 0.  1.
         11    1    3    3    0    0  0.57650034842E+01 -0.67910089390E+01  0.72079217094E+00  0.89371477104E+01  0.51100000000E-03 0. -1.
        -11    1    3    3    0    0  0.36492024896E+02 -0.51871900970E+01 -0.52858694801E+01  0.37235940146E+02  0.51100000000E-03 0.  1.
         12    1    3    3    0    0 -0.41777050343E+02  0.12013132604E+02  0.56427516046E+01  0.43834665916E+02  0.00000000000E+00 0. -1.
</event>
<event>
 7    1  0.2495760E-015  0.9000780E+02  0.7816164E-02  0.1186339E+00
        -11   -1    0    0    0    0  0.00000000000E+00  0.00000000000E+00  0.45593999997E+02  0.45594000000E+02  0.51100000000E-03 0. -1.
         11   -1    0    0    0    0 -0.00000000000E+00 -0.00000000000E+00 -0.45593999997E+02  0.45594000000E+02  0.51100000000E-03 0.  1.
    9900012    2    1    2    0    0 -0.70301090506E-01 -0.10799380866E+01 -0.47080129564E+00  0.90007804095E+02  0.90000066309E+02 0.  0.
        -12    1    1    2    0    0  0.70301090506E-01  0.10799380866E+01  0.47080129564E+00  0.11801959050E+01  0.00000000000E+00 0.  1.
         11    1    3    3    0    0 -0.92035489663E+01 -0.37947433264E+00 -0.28057146649E+00  0.92156407782E+01  0.51100000000E-03 0. -1.
        -11    1    3    3    0    0 -0.18198328792E+02 -0.61147896934E+01  0.32556783946E+02  0.37795687651E+02  0.51100000000E-03 0.  1.
         12    1    3    3    0    0  0.27331576667E+02  0.54143259394E+01 -0.32747013775E+02  0.42996475666E+02  0.00000000000E+00 0. -1.
</event>
<event>
 7    1  0.1978681E-015  0.9000754E+02  0.7816164E-02  0.1186339E+00
        -11   -1    0    0    0    0  0.00000000000E+00  0.00000000000E+00  0.45593999997E+02  0.45594000000E+02  0.51100000000E-03 0.  1.
         11   -1    0    0    0    0 -0.00000000000E+00 -0.00000000000E+00 -0.45593999997E+02  0.45594000000E+02  0.51100000000E-03 0. -1.
    9900012    2    1    2    0    0  0.38823780432E+00  0.11107792851E+01 -0.94451096974E-01  0.90007542367E+02  0.89999801126E+02 0.  0.
        -12    1    1    2    0    0 -0.38823780432E+00 -0.11107792851E+01  0.94451096974E-01  0.11804576327E+01  0.00000000000E+00 0.  1.
         11    1    3    3    0    0  0.11175045129E+02 -0.13463112193E+01  0.11673601417E+02  0.16216262141E+02  0.51100000000E-03 0. -1.
        -11    1    3    3    0    0 -0.28156159412E+02 -0.15124360091E+02  0.16725368251E+02  0.36072891822E+02  0.51100000000E-03 0.  1.
         12    1    3    3    0    0  0.17369352087E+02  0.17581450595E+02 -0.28493420765E+02  0.37718388404E+02  0.00000000000E+00 0. -1.
</event>
<event>
 7    1  0.1978681E-015  0.9000772E+02  0.7816164E-02  0.1186339E+00
        -11   -1    0    0    0    0  0.00000000000E+00  0.00000000000E+00  0.45593999997E+02  0.45594000000E+02  0.51100000000E-03 0. -1.
         11   -1    0    0    0    0 -0.00000000000E+00 -0.00000000000E+00 -0.45593999997E+02  0.45594000000E+02  0.51100000000E-03 0.  1.
    9900012    2    1    2    0    0 -0.11233573021E+01  0.19167159855E-02 -0.36212150151E+00  0.90007717286E+02  0.89999978355E+02 0.  0.
        -12    1    1    2    0    0  0.11233573021E+01 -0.19167159855E-02  0.36212150151E+00  0.11802827135E+01  0.00000000000E+00 0.  1.
         11    1    3    3    0    0 -0.34164030830E+01 -0.88885052537E+01 -0.19846256278E+01  0.97270794596E+01  0.51100000000E-03 0. -1.
        -11    1    3    3    0    0  0.25373341595E+01  0.27348248186E+01 -0.39007887159E+02  0.39185872356E+02  0.51100000000E-03 0.  1.
         12    1    3    3    0    0 -0.24428837867E+00  0.61555971511E+01  0.40630391285E+02  0.41094765471E+02  0.00000000000E+00 0. -1.
</event>
<event>
 7    1  0.1978681E-015  0.9000771E+02  0.7816164E-02  0.1186339E+00
        -11   -1    0    0    0    0  0.00000000000E+00  0.00000000000E+00  0.45593999997E+02  0.45594000000E+02  0.51100000000E-03 0.  1.
         11   -1    0    0    0    0 -0.00000000000E+00 -0.00000000000E+00 -0.45593999997E+02  0.45594000000E+02  0.51100000000E-03 0. -1.
    9900012    2    1    2    0    0  0.10581775776E+01 -0.20122455006E+00 -0.48255843175E+00  0.90007706077E+02  0.89999966997E+02 0.  0.
        -12    1    1    2    0    0 -0.10581775776E+01  0.20122455006E+00  0.48255843175E+00  0.11802939233E+01  0.00000000000E+00 0.  1.
         11    1    3    3    0    0  0.42582717058E+02 -0.46811519279E+00  0.72955658202E+01  0.43205696439E+02  0.51100000000E-03 0. -1.
        -11    1    3    3    0    0 -0.77181980738E+01 -0.22770245375E+01  0.61726955997E+01  0.10141873273E+02  0.51100000000E-03 0.  1.
        -12    1    3    3    0    0 -0.33806341407E+02  0.25439151802E+01 -0.13950819852E+02  0.36660136365E+02  0.00000000000E+00 0.  1.
</event>
<event>
 7    1  0.1978681E-015  0.9000776E+02  0.7816164E-02  0.1186339E+00
        -11   -1    0    0    0    0  0.00000000000E+00  0.00000000000E+00  0.45593999997E+02  0.45594000000E+02  0.51100000000E-03 0.  1.
         11   -1    0    0    0    0 -0.00000000000E+00 -0.00000000000E+00 -0.45593999997E+02  0.45594000000E+02  0.51100000000E-03 0. -1.
    9900012    2    1    2    0    0 -0.35995309648E+00  0.10532625823E+01 -0.39246791649E+00  0.90007763005E+02  0.90000024677E+02 0.  0.
        -12    1    1    2    0    0  0.35995309648E+00 -0.10532625823E+01  0.39246791649E+00  0.11802369950E+01  0.00000000000E+00 0.  1.
         11    1    3    3    0    0  0.17842794813E+02 -0.25040558526E+02 -0.58378644802E+01  0.31296574253E+02  0.51100000000E-03 0. -1.
        -11    1    3    3    0    0  0.16100484726E+02  0.51114866193E+01  0.74221818275E+01  0.18451061954E+02  0.51100000000E-03 0.  1.
        -12    1    3    3    0    0 -0.34303232636E+02  0.20982334489E+02 -0.19767852638E+01  0.40260126798E+02  0.00000000000E+00 0.  1.
</event>
<event>
 7    1  0.1978681E-015  0.9000709E+02  0.7816164E-02  0.1186340E+00
        -11   -1    0    0    0    0  0.00000000000E+00  0.00000000000E+00  0.45593999997E+02  0.45594000000E+02  0.51100000000E-03 0. -1.
         11   -1    0    0    0    0 -0.00000000000E+00 -0.00000000000E+00 -0.45593999997E+02  0.45594000000E+02  0.51100000000E-03 0.  1.
    9900012    2    1    2    0    0  0.77703328622E+00  0.87022106998E+00  0.18299712235E+00  0.90007087901E+02  0.89999340659E+02 0.  0.
        -12    1    1    2    0    0 -0.77703328622E+00 -0.87022106998E+00 -0.18299712235E+00  0.11809120989E+01  0.00000000000E+00 0.  1.
         11    1    3    3    0    0  0.11830559140E+02  0.34062649824E+02 -0.93292918884E+01  0.37245965284E+02  0.51100000000E-03 0. -1.
        -11    1    3    3    0    0 -0.58193453406E+01  0.82561768639E+01  0.24015443905E+01  0.10382516666E+02  0.51100000000E-03 0.  1.
        -12    1    3    3    0    0 -0.52341805129E+01 -0.41448605617E+02  0.71107446202E+01  0.42378605951E+02  0.00000000000E+00 0.  1.
</event>
<event>
 7    1  0.1978681E-015  0.9000759E+02  0.7816164E-02  0.1186339E+00
        -11   -1    0    0    0    0  0.00000000000E+00  0.00000000000E+00  0.45593999997E+02  0.45594000000E+02  0.51100000000E-03 0.  1.
         11   -1    0    0    0    0 -0.00000000000E+00 -0.00000000000E+00 -0.45593999997E+02  0.45594000000E+02  0.51100000000E-03 0. -1.
    9900012    2    1    2    0    0 -0.23878964142E+00  0.97192161714E+00 -0.62588011759E+00  0.90007585647E+02  0.89999844978E+02 0.  0.
        -12    1    1    2    0    0  0.23878964142E+00 -0.97192161714E+00  0.62588011759E+00  0.11804143528E+01  0.00000000000E+00 0.  1.
         11    1    3    3    0    0  0.49585159108E+01 -0.16713947186E+01  0.94717983382E+01  0.10821062996E+02  0.51100000000E-03 0. -1.
        -11    1    3    3    0    0  0.98528033754E+01  0.31036560604E+02  0.17375022069E+02  0.36908497946E+02  0.51100000000E-03 0.  1.
         12    1    3    3    0    0 -0.15050108928E+02 -0.28393244268E+02 -0.27472700525E+02  0.42278024705E+02  0.00000000000E+00 0. -1.
</event>
<event>
 7    1  0.1978681E-015  0.9000767E+02  0.7816164E-02  0.1186339E+00
        -11   -1    0    0    0    0  0.00000000000E+00  0.00000000000E+00  0.45593999997E+02  0.45594000000E+02  0.51100000000E-03 0. -1.
         11   -1    0    0    0    0 -0.00000000000E+00 -0.00000000000E+00 -0.45593999997E+02  0.45594000000E+02  0.51100000000E-03 0.  1.
    9900012    2    1    2    0    0  0.81970307070E+00 -0.73464606849E+00  0.42610177864E+00  0.90007669243E+02  0.89999929677E+02 0.  0.
        -12    1    1    2    0    0 -0.81970307070E+00  0.73464606849E+00 -0.42610177864E+00  0.11803307570E+01  0.00000000000E+00 0.  1.
         11    1    3    3    0    0  0.31138154132E+00  0.11189224113E+02  0.15962138650E+01  0.11306794138E+02  0.51100000000E-03 0. -1.
        -11    1    3    3    0    0 -0.29539888615E+02  0.19261714810E+02  0.16436477019E+01  0.35303261249E+02  0.51100000000E-03 0.  1.
         12    1    3    3    0    0  0.30048210144E+02 -0.31185584992E+02 -0.28137597882E+01  0.43397613855E+02  0.00000000000E+00 0. -1.
</event>
<event>
 7    1  0.1978681E-015  0.9000775E+02  0.7816164E-02  0.1186339E+00
        -11   -1    0    0    0    0  0.00000000000E+00  0.00000000000E+00  0.45593999997E+02  0.45594000000E+02  0.51100000000E-03 0.  1.
         11   -1    0    0    0    0 -0.00000000000E+00 -0.00000000000E+00 -0.45593999997E+02  0.45594000000E+02  0.51100000000E-03 0. -1.
    9900012    2    1    2    0    0 -0.11089967405E+01  0.39766483993E+00 -0.70498900805E-01  0.90007753759E+02  0.90000015308E+02 0.  0.
        -12    1    1    2    0    0  0.11089967405E+01 -0.39766483993E+00  0.70498900805E-01  0.11802462414E+01  0.00000000000E+00 0.  1.
         11    1    3    3    0    0 -0.26393565342E+01  0.79898138989E+01 -0.19753639574E+02  0.21471134245E+02  0.51100000000E-03 0. -1.
        -11    1    3    3    0    0 -0.80664031948E+01 -0.35011846747E+02  0.60066678805E+01  0.36427686345E+02  0.51100000000E-03 0.  1.
         12    1    3    3    0    0  0.95967629885E+01  0.27419697688E+02  0.13676472793E+02  0.32108933169E+02  0.00000000000E+00 0. -1.
</event>
<event>
 7    1  0.1978681E-015  0.9000767E+02  0.7816164E-02  0.1186339E+00
        -11   -1    0    0    0    0  0.00000000000E+00  0.00000000000E+00  0.45593999997E+02  0.45594000000E+02  0.51100000000E-03 0.  1.
         11   -1    0    0    0    0 -0.00000000000E+00 -0.00000000000E+00 -0.45593999997E+02  0.45594000000E+02  0.51100000000E-03 0. -1.
    9900012    2    1    2    0    0 -0.35591561948E+00  0.34940861441E+00 -0.10697705257E+01  0.90007673229E+02  0.89999933716E+02 0.  0.
        -12    1    1    2    0    0  0.35591561948E+00 -0.34940861441E+00  0.10697705257E+01  0.11803267707E+01  0.00000000000E+00 0.  1.
         11    1    3    3    0    0 -0.84948024035E+01 -0.28202158867E+01  0.40260959636E+01  0.98145165185E+01  0.51100000000E-03 0. -1.
        -11    1    3    3    0    0 -0.31452929762E+01 -0.37100118667E+02 -0.86395500852E+01  0.38222421417E+02  0.51100000000E-03 0.  1.
         12    1    3    3    0    0  0.11284179760E+02  0.40269743168E+02  0.35436835959E+01  0.41970735294E+02  0.00000000000E+00 0. -1.
</event>
<event>
 7    1  0.1978681E-015  0.9000769E+02  0.7816164E-02  0.1186339E+00
        -11   -1    0    0    0    0  0.00000000000E+00  0.00000000000E+00  0.45593999997E+02  0.45594000000E+02  0.51100000000E-03 0.  1.
         11   -1    0    0    0    0 -0.00000000000E+00 -0.00000000000E+00 -0.45593999997E+02  0.45594000000E+02  0.51100000000E-03 0. -1.
    9900012    2    1    2    0    0  0.51615058139E+00 -0.11239037030E+00 -0.10555006156E+01  0.90007693020E+02  0.89999953768E+02 0.  0.
        -12    1    1    2    0    0 -0.51615058139E+00  0.11239037030E+00  0.10555006156E+01  0.11803069802E+01  0.00000000000E+00 0.  1.
         11    1    3    3    0    0  0.56767508516E+01 -0.51206274695E+01 -0.43944108791E+01  0.88180027868E+01  0.51100000000E-03 0. -1.
        -11    1    3    3    0    0  0.25228110937E+02 -0.25565893905E+02  0.10657554497E+02  0.37465397112E+02  0.51100000000E-03 0.  1.
         12    1    3    3    0    0 -0.30388711207E+02  0.30574131004E+02 -0.73186442338E+01  0.43724293121E+02  0.00000000000E+00 0. -1.
</event>
<event>
 7    1  0.1978681E-015  0.9000771E+02  0.7816164E-02  0.1186339E+00
        -11   -1    0    0    0    0  0.00000000000E+00  0.00000000000E+00  0.45593999997E+02  0.45594000000E+02  0.51100000000E-03 0.  1.
         11   -1    0    0    0    0 -0.00000000000E+00 -0.00000000000E+00 -0.45593999997E+02  0.45594000000E+02  0.51100000000E-03 0. -1.
    9900012    2    1    2    0    0 -0.67295888140E+00 -0.89402043537E+00  0.37541809388E+00  0.90007709807E+02  0.89999970776E+02 0.  0.
        -12    1    1    2    0    0  0.67295888140E+00  0.89402043537E+00 -0.37541809388E+00  0.11802901932E+01  0.00000000000E+00 0.  1.
         11    1    3    3    0    0 -0.12800320013E+02  0.46078936032E+01 -0.25250559110E+02  0.28682252553E+02  0.51100000000E-03 0. -1.
        -11    1    3    3    0    0 -0.19013419932E+02 -0.13832841640E+01 -0.24179402194E+01  0.19216400489E+02  0.51100000000E-03 0.  1.
         12    1    3    3    0    0  0.31140781063E+02 -0.41186298745E+01  0.28043917423E+02  0.42109056765E+02  0.00000000000E+00 0. -1.
</event>
<event>
 7    1  0.1978681E-015  0.9000773E+02  0.7816164E-02  0.1186339E+00
        -11   -1    0    0    0    0  0.00000000000E+00  0.00000000000E+00  0.45593999997E+02  0.45594000000E+02  0.51100000000E-03 0. -1.
         11   -1    0    0    0    0 -0.00000000000E+00 -0.00000000000E+00 -0.45593999997E+02  0.45594000000E+02  0.51100000000E-03 0.  1.
    9900012    2    1    2    0    0  0.11220898340E+01 -0.18848844746E+00  0.31371481438E+00  0.90007732880E+02  0.89999994154E+02 0.  0.
        -12    1    1    2    0    0 -0.11220898340E+01  0.18848844746E+00 -0.31371481438E+00  0.11802671202E+01  0.00000000000E+00 0.  1.
         11    1    3    3    0    0 -0.27636561717E+02 -0.18967026155E+02  0.17927115109E+02  0.38011959711E+02  0.51100000000E-03 0. -1.
        -11    1    3    3    0    0 -0.73248394843E+01 -0.81211881289E+00 -0.54736086665E+01  0.91800437108E+01  0.51100000000E-03 0.  1.
        -12    1    3    3    0    0  0.36083491035E+02  0.19590656521E+02 -0.12139791628E+02  0.42815729458E+02  0.00000000000E+00 0.  1.
</event>
<event>
 7    1  0.1978681E-015  0.9000774E+02  0.7816164E-02  0.1186339E+00
        -11   -1    0    0    0    0  0.00000000000E+00  0.00000000000E+00  0.45593999997E+02  0.45594000000E+02  0.51100000000E-03 0. -1.
         11   -1    0    0    0    0 -0.00000000000E+00 -0.00000000000E+00 -0.45593999997E+02  0.45594000000E+02  0.51100000000E-03 0.  1.
    9900012    2    1    2    0    0 -0.10175082435E+01 -0.59010970461E+00 -0.97260215282E-01  0.90007740690E+02  0.90000002067E+02 0.  0.
        -12    1    1    2    0    0  0.10175082435E+01  0.59010970461E+00  0.97260215282E-01  0.11802593099E+01  0.00000000000E+00 0.  1.
         11    1    3    3    0    0 -0.28206873173E-03  0.32324489281E+01 -0.12461145934E+02  0.12873573102E+02  0.51100000000E-03 0. -1.
        -11    1    3    3    0    0  0.19243159246E+02 -0.88409942524E+00 -0.26763111598E+02  0.32974913984E+02  0.51100000000E-03 0.  1.
         12    1    3    3    0    0 -0.20260385421E+02 -0.29384592075E+01  0.39126997317E+02  0.44159253605E+02  0.00000000000E+00 0. -1.
</event>
<event>
 7    1  0.1978681E-015  0.9000779E+02  0.7816164E-02  0.1186339E+00
        -11   -1    0    0    0    0  0.00000000000E+00  0.00000000000E+00  0.45593999997E+02  0.45594000000E+02  0.51100000000E-03 0.  1.
         11   -1    0    0    0    0 -0.00000000000E+00 -0.00000000000E+00 -0.45593999997E+02  0.45594000000E+02  0.51100000000E-03 0. -1.
    9900012    2    1    2    0    0  0.90676751950E+00  0.65238855910E+00 -0.38087170636E+00  0.90007787552E+02  0.90000049547E+02 0.  0.
        -12    1    1    2    0    0 -0.90676751950E+00 -0.65238855910E+00  0.38087170636E+00  0.11802124483E+01  0.00000000000E+00 0.  1.
         11    1    3    3    0    0 -0.70287877948E+01  0.14430458459E+02 -0.12419740668E+02  0.20295121279E+02  0.51100000000E-03 0. -1.
        -11    1    3    3    0    0 -0.18637769852E+02  0.39668066084E+01 -0.17739619679E+02  0.26034517978E+02  0.51100000000E-03 0.  1.
        -12    1    3    3    0    0  0.26573325166E+02 -0.17744876508E+02  0.29778488641E+02  0.43678148295E+02  0.00000000000E+00 0.  1.
</event>
<event>
 7    1  0.1978681E-015  0.9000775E+02  0.7816164E-02  0.1186339E+00
        -11   -1    0    0    0    0  0.00000000000E+00  0.00000000000E+00  0.45593999997E+02  0.45594000000E+02  0.51100000000E-03 0.  1.
         11   -1    0    0    0    0 -0.00000000000E+00 -0.00000000000E+00 -0.45593999997E+02  0.45594000000E+02  0.51100000000E-03 0. -1.
    9900012    2    1    2    0    0 -0.38271865420E+00  0.92218959251E+00 -0.62935085879E+00  0.90007750147E+02  0.90000011649E+02 0.  0.
        -12    1    1    2    0    0  0.38271865420E+00 -0.92218959251E+00  0.62935085879E+00  0.11802498533E+01  0.00000000000E+00 0.  1.
         11    1    3    3    0    0 -0.17864916779E+02  0.33585038605E+02  0.56227313375E+01  0.38454195839E+02  0.51100000000E-03 0. -1.
        -11    1    3    3    0    0 -0.71241941193E+01 -0.89533688334E+00  0.61990496847E+01  0.94859889963E+01  0.51100000000E-03 0.  1.
        -12    1    3    3    0    0  0.24606392244E+02 -0.31767512129E+02 -0.12451131881E+02  0.42067565312E+02  0.00000000000E+00 0.  1.
</event>
<event>
 7    1  0.1978681E-015  0.9000777E+02  0.7816164E-02  0.1186339E+00
        -11   -1    0    0    0    0  0.00000000000E+00  0.00000000000E+00  0.45593999997E+02  0.45594000000E+02  0.51100000000E-03 0.  1.
         11   -1    0    0    0    0 -0.00000000000E+00 -0.00000000000E+00 -0.45593999997E+02  0.45594000000E+02  0.51100000000E-03 0. -1.
    9900012    2    1    2    0    0  0.32195300210E+00  0.64954987538E+00 -0.93132955347E+00  0.90007769720E+02  0.90000031481E+02 0.  0.
        -12    1    1    2    0    0 -0.32195300210E+00 -0.64954987538E+00  0.93132955347E+00  0.11802302798E+01  0.00000000000E+00 0.  1.
         11    1    3    3    0    0 -0.30798235202E+02  0.25311967623E+02 -0.10479399279E+02  0.41219471200E+02  0.51100000000E-03 0. -1.
        -11    1    3    3    0    0  0.50989729997E+01 -0.27917654635E+01 -0.85036237705E+01  0.10300732865E+02  0.51100000000E-03 0.  1.
        -12    1    3    3    0    0  0.26021215204E+02 -0.21870652285E+02  0.18051693496E+02  0.38487565656E+02  0.00000000000E+00 0.  1.
</event>
<event>
 7    1  0.1978681E-015  0.9000774E+02  0.7816164E-02  0.1186339E+00
        -11   -1    0    0    0    0  0.00000000000E+00  0.00000000000E+00  0.45593999997E+02  0.45594000000E+02  0.51100000000E-03 0.  1.
         11   -1    0    0    0    0 -0.00000000000E+00 -0.00000000000E+00 -0.45593999997E+02  0.45594000000E+02  0.51100000000E-03 0. -1.
    9900012    2    1    2    0    0  0.10496746976E+01  0.17490907055E+00  0.51049654404E+00  0.90007738641E+02  0.89999999991E+02 0.  0.
        -12    1    1    2    0    0 -0.10496746976E+01 -0.17490907055E+00 -0.51049654404E+00  0.11802613589E+01  0.00000000000E+00 0.  1.
         11    1    3    3    0    0  0.10925190913E+01 -0.56637805935E+01  0.19673671885E+01  0.60944681877E+01  0.51100000000E-03 0. -1.
        -11    1    3    3    0    0  0.30222772656E+02  0.25846227710E+02  0.16951284347E+02  0.43229498206E+02  0.51100000000E-03 0.  1.
         12    1    3    3    0    0 -0.30265617050E+02 -0.20007538046E+02 -0.18408154992E+02  0.40683772247E+02  0.00000000000E+00 0. -1.
</event>
<event>
 7    1  0.1978681E-015  0.9000780E+02  0.7816164E-02  0.1186339E+00
        -11   -1    0    0    0    0  0.00000000000E+00  0.00000000000E+00  0.45593999997E+02  0.45594000000E+02  0.51100000000E-03 0. -1.
         11   -1    0    0    0    0 -0.00000000000E+00 -0.00000000000E+00 -0.45593999997E+02  0.45594000000E+02  0.51100000000E-03 0.  1.
    9900012    2    1    2    0    0  0.43795630660E+00 -0.67092847588E+00  0.86656008972E+00  0.90007797841E+02  0.90000059973E+02 0.  0.
        -12    1    1    2    0    0 -0.43795630660E+00  0.67092847588E+00 -0.86656008972E+00  0.11802021587E+01  0.00000000000E+00 0.  1.
         11    1    3    3    0    0 -0.19325396347E+02  0.19466932796E+02 -0.10968268888E+02  0.29542094358E+02  0.51100000000E-03 0. -1.
        -11    1    3    3    0    0  0.29506804288E+01  0.14693591499E+02  0.15567549737E+02  0.21609182104E+02  0.51100000000E-03 0.  1.
        -12    1    3    3    0    0  0.16812672224E+02 -0.34831452770E+02 -0.37327207586E+01  0.38856521379E+02  0.00000000000E+00 0.  1.
</event>
<event>
 7    1  0.1978681E-015  0.9000783E+02  0.7816164E-02  0.1186339E+00
        -11   -1    0    0    0    0  0.00000000000E+00  0.00000000000E+00  0.45593999997E+02  0.45594000000E+02  0.51100000000E-03 0.  1.
         11   -1    0    0    0    0 -0.00000000000E+00 -0.00000000000E+00 -0.45593999997E+02  0.45594000000E+02  0.51100000000E-03 0. -1.
    9900012    2    1    2    0    0  0.76876190725E+00  0.41317607441E-01 -0.89448777104E+00  0.90007826120E+02  0.90000088625E+02 0.  0.
        -12    1    1    2    0    0 -0.76876190725E+00 -0.41317607441E-01  0.89448777104E+00  0.11801738801E+01  0.00000000000E+00 0.  1.
         11    1    3    3    0    0  0.15052739374E+01  0.23895164003E+02 -0.34682476775E+02  0.42144025767E+02  0.51100000000E-03 0. -1.
        -11    1    3    3    0    0  0.27985639664E+01 -0.90912145689E+01 -0.13306239556E+01  0.96048270669E+01  0.51100000000E-03 0.  1.
        -12    1    3    3    0    0 -0.35350759966E+01 -0.14762631826E+02  0.35118612959E+02  0.38258973286E+02  0.00000000000E+00 0.  1.
</event>
<event>
 7    1  0.1978681E-015  0.9000771E+02  0.7816164E-02  0.1186339E+00
        -11   -1    0    0    0    0  0.00000000000E+00  0.00000000000E+00  0.45593999997E+02  0.45594000000E+02  0.51100000000E-03 0.  1.
         11   -1    0    0    0    0 -0.00000000000E+00 -0.00000000000E+00 -0.45593999997E+02  0.45594000000E+02  0.51100000000E-03 0. -1.
    9900012    2    1    2    0    0 -0.11018385937E+01 -0.29084758719E+00 -0.30730071535E+00  0.90007714299E+02  0.89999975328E+02 0.  0.
        -12    1    1    2    0    0  0.11018385937E+01  0.29084758719E+00  0.30730071535E+00  0.11802857007E+01  0.00000000000E+00 0.  1.
         11    1    3    3    0    0 -0.37718266455E+01 -0.43023097404E+01  0.62367194416E+01  0.84636407651E+01  0.51100000000E-03 0. -1.
        -11    1    3    3    0    0 -0.22436496378E+02 -0.29772622526E+02  0.56872162548E+01  0.37711402133E+02  0.51100000000E-03 0.  1.
         12    1    3    3    0    0  0.25106484430E+02  0.33784084679E+02 -0.12231236412E+02  0.43832671402E+02  0.00000000000E+00 0. -1.
</event>
<event>
 7    1  0.1978681E-015  0.9000775E+02  0.7816164E-02  0.1186339E+00
        -11   -1    0    0    0    0  0.00000000000E+00  0.00000000000E+00  0.45593999997E+02  0.45594000000E+02  0.51100000000E-03 0. -1.
         11   -1    0    0    0    0 -0.00000000000E+00 -0.00000000000E+00 -0.45593999997E+02  0.45594000000E+02  0.51100000000E-03 0.  1.
    9900012    2    1    2    0    0 -0.10479434087E+01 -0.43196132541E+00  0.32896776332E+00  0.90007747585E+02  0.90000009053E+02 0.  0.
        -12    1    1    2    0    0  0.10479434087E+01  0.43196132541E+00 -0.32896776332E+00  0.11802524153E+01  0.00000000000E+00 0.  1.
         11    1    3    3    0    0 -0.46511608686E+01 -0.23707872478E+02  0.16883105226E+02  0.29474323694E+02  0.51100000000E-03 0. -1.
        -11    1    3    3    0    0 -0.12604316544E+02 -0.61578309279E+01  0.10395513242E+02  0.17460079413E+02  0.51100000000E-03 0.  1.
        -12    1    3    3    0    0  0.16207534004E+02  0.29433742081E+02 -0.26949650705E+02  0.43073344478E+02  0.00000000000E+00 0.  1.
</event>
<event>
 7    1  0.1978681E-015  0.9000780E+02  0.7816164E-02  0.1186339E+00
        -11   -1    0    0    0    0  0.00000000000E+00  0.00000000000E+00  0.45593999997E+02  0.45594000000E+02  0.51100000000E-03 0. -1.
         11   -1    0    0    0    0 -0.00000000000E+00 -0.00000000000E+00 -0.45593999997E+02  0.45594000000E+02  0.51100000000E-03 0.  1.
    9900012    2    1    2    0    0 -0.57450860419E+00  0.86337935864E+00  0.56337357570E+00  0.90007799238E+02  0.90000061388E+02 0.  0.
        -12    1    1    2    0    0  0.57450860419E+00 -0.86337935864E+00 -0.56337357570E+00  0.11802007622E+01  0.00000000000E+00 0.  1.
         11    1    3    3    0    0 -0.66740808599E+01  0.34352946798E+02  0.12349113113E+02  0.37110226407E+02  0.51100000000E-03 0. -1.
        -11    1    3    3    0    0  0.38280853659E+01  0.72183446821E+01  0.40990877525E+01  0.91411847253E+01  0.51100000000E-03 0.  1.
        -12    1    3    3    0    0  0.22714868898E+01 -0.40707912122E+02 -0.15884827290E+02  0.43756388105E+02  0.00000000000E+00 0.  1.
</event>
<event>
 7    1  0.1978681E-015  0.9000779E+02  0.7816164E-02  0.1186339E+00
        -11   -1    0    0    0    0  0.00000000000E+00  0.00000000000E+00  0.45593999997E+02  0.45594000000E+02  0.51100000000E-03 0. -1.
         11   -1    0    0    0    0 -0.00000000000E+00 -0.00000000000E+00 -0.45593999997E+02  0.45594000000E+02  0.51100000000E-03 0.  1.
    9900012    2    1    2    0    0 -0.90632702206E-01 -0.60947739938E+00  0.10065892985E+01  0.90007788577E+02  0.90000050586E+02 0.  0.
        -12    1    1    2    0    0  0.90632702206E-01  0.60947739938E+00 -0.10065892985E+01  0.11802114230E+01  0.00000000000E+00 0.  1.
         11    1    3    3    0    0  0.74840898601E+01  0.29383004098E+01 -0.60134920260E+01  0.10040283708E+02  0.51100000000E-03 0. -1.
        -11    1    3    3    0    0  0.21451815130E+02 -0.31633327703E+02 -0.30460097848E+01  0.38342221765E+02  0.51100000000E-03 0.  1.
         12    1    3    3    0    0 -0.29026537693E+02  0.28085549894E+02  0.10066091109E+02  0.41625283104E+02  0.00000000000E+00 0. -1.
</event>
<event>
 7    1  0.1978681E-015  0.9000770E+02  0.7816164E-02  0.1186339E+00
        -11   -1    0    0    0    0  0.00000000000E+00  0.00000000000E+00  0.45593999997E+02  0.45594000000E+02  0.51100000000E-03 0.  1.
         11   -1    0    0    0    0 -0.00000000000E+00 -0.00000000000E+00 -0.45593999997E+02  0.45594000000E+02  0.51100000000E-03 0. -1.
    9900012    2    1    2    0    0  0.53856972621E+00 -0.71226588477E+00  0.77183511039E+00  0.90007699412E+02  0.89999960244E+02 0.  0.
        -12    1    1    2    0    0 -0.53856972621E+00  0.71226588477E+00 -0.77183511039E+00  0.11803005881E+01  0.00000000000E+00 0.  1.
         11    1    3    3    0    0 -0.61394385928E+01  0.69764160693E+01  0.27024378478E+01  0.96781329805E+01  0.51100000000E-03 0. -1.
        -11    1    3    3    0    0 -0.17207942315E+02  0.59014677007E+01  0.31912727950E+02  0.36733673995E+02  0.51100000000E-03 0.  1.
         12    1    3    3    0    0  0.23885950634E+02 -0.13590149655E+02 -0.33843330687E+02  0.43595892436E+02  0.00000000000E+00 0. -1.
</event>
<event>
 7    1  0.1978681E-015  0.9000787E+02  0.7816164E-02  0.1186339E+00
        -11   -1    0    0    0    0  0.00000000000E+00  0.00000000000E+00  0.45593999997E+02  0.45594000000E+02  0.51100000000E-03 0.  1.
         11   -1    0    0    0    0 -0.00000000000E+00 -0.00000000000E+00 -0.45593999997E+02  0.45594000000E+02  0.51100000000E-03 0. -1.
    9900012    2    1    2    0    0  0.32836550106E+00  0.52448988505E+00 -0.10048891227E+01  0.90007866240E+02  0.90000129275E+02 0.  0.
        -12    1    1    2    0    0 -0.32836550106E+00 -0.52448988505E+00  0.10048891227E+01  0.11801337597E+01  0.00000000000E+00 0.  1.
         11    1    3    3    0    0 -0.34112796877E+02 -0.60186450748E+01  0.10079278056E+02  0.36076292017E+02  0.51100000000E-03 0. -1.
        -11    1    3    3    0    0 -0.58098218330E+01 -0.80735108151E+01 -0.25188480055E+01  0.10260614121E+02  0.51100000000E-03 0.  1.
        -12    1    3    3    0    0  0.40250984211E+02  0.14616645775E+02 -0.85653191731E+01  0.43670960102E+02  0.00000000000E+00 0.  1.
</event>
<event>
 7    1  0.1978681E-015  0.9000771E+02  0.7816164E-02  0.1186339E+00
        -11   -1    0    0    0    0  0.00000000000E+00  0.00000000000E+00  0.45593999997E+02  0.45594000000E+02  0.51100000000E-03 0. -1.
         11   -1    0    0    0    0 -0.00000000000E+00 -0.00000000000E+00 -0.45593999997E+02  0.45594000000E+02  0.51100000000E-03 0.  1.
    9900012    2    1    2    0    0 -0.88888105638E+00  0.52799654833E+00  0.56938367597E+00  0.90007708656E+02  0.89999969610E+02 0.  0.
        -12    1    1    2    0    0  0.88888105638E+00 -0.52799654833E+00 -0.56938367597E+00  0.11802913445E+01  0.00000000000E+00 0.  1.
         11    1    3    3    0    0 -0.11737756774E+01 -0.61835175905E+01  0.33368829584E+02  0.33957214656E+02  0.51100000000E-03 0. -1.
        -11    1    3    3    0    0 -0.81908898319E+01 -0.37206405452E+01  0.86475005983E+01  0.12478505887E+02  0.51100000000E-03 0.  1.
        -12    1    3    3    0    0  0.84757844529E+01  0.10432154684E+02 -0.41446946506E+02  0.43571988113E+02  0.00000000000E+00 0.  1.
</event>
<event>
 7    1  0.1978681E-015  0.9000785E+02  0.7816164E-02  0.1186339E+00
        -11   -1    0    0    0    0  0.00000000000E+00  0.00000000000E+00  0.45593999997E+02  0.45594000000E+02  0.51100000000E-03 0.  1.
         11   -1    0    0    0    0 -0.00000000000E+00 -0.00000000000E+00 -0.45593999997E+02  0.45594000000E+02  0.51100000000E-03 0. -1.
    9900012    2    1    2    0    0 -0.65324331833E-01  0.10228741108E+01  0.58499059130E+00  0.90007850557E+02  0.90000113385E+02 0.  0.
        -12    1    1    2    0    0  0.65324331833E-01 -0.10228741108E+01 -0.58499059130E+00  0.11801494425E+01  0.00000000000E+00 0.  1.
         11    1    3    3    0    0  0.25526287978E+02  0.13598294789E+02 -0.31664063311E+02  0.42884937971E+02  0.51100000000E-03 0. -1.
        -11    1    3    3    0    0 -0.11587440242E+01  0.28628522493E+01  0.10520416187E+02  0.10964386336E+02  0.51100000000E-03 0.  1.
        -12    1    3    3    0    0 -0.24432868286E+02 -0.15438272927E+02  0.21728637715E+02  0.36158526251E+02  0.00000000000E+00 0.  1.
</event>
<event>
 7    1  0.1978681E-015  0.9000812E+02  0.7816164E-02  0.1186338E+00
        -11   -1    0    0    0    0  0.00000000000E+00  0.00000000000E+00  0.45593999997E+02  0.45594000000E+02  0.51100000000E-03 0. -1.
         11   -1    0    0    0    0 -0.00000000000E+00 -0.00000000000E+00 -0.45593999997E+02  0.45594000000E+02  0.51100000000E-03 0.  1.
    9900012    2    1    2    0    0 -0.75205630689E+00 -0.89670885204E+00 -0.14977291224E+00  0.90008123998E+02  0.90000390434E+02 0.  0.
        -12    1    1    2    0    0  0.75205630689E+00  0.89670885204E+00  0.14977291224E+00  0.11798760017E+01  0.00000000000E+00 0.  1.
         11    1    3    3    0    0  0.29740971912E+02  0.86317975755E+01 -0.18808324549E+02  0.36232394515E+02  0.51100000000E-03 0. -1.
        -11    1    3    3    0    0  0.72032702631E+01  0.40124774532E+01 -0.23122766394E+01  0.85635098712E+01  0.51100000000E-03 0.  1.
        -12    1    3    3    0    0 -0.37696298482E+02 -0.13540983881E+02  0.20970828276E+02  0.45212219613E+02  0.00000000000E+00 0.  1.
</event>
<event>
 7    1  0.1978681E-015  0.9000775E+02  0.7816164E-02  0.1186339E+00
        -11   -1    0    0    0    0  0.00000000000E+00  0.00000000000E+00  0.45593999997E+02  0.45594000000E+02  0.51100000000E-03 0. -1.
         11   -1    0    0    0    0 -0.00000000000E+00 -0.00000000000E+00 -0.45593999997E+02  0.45594000000E+02  0.51100000000E-03 0.  1.
    9900012    2    1    2    0    0 -0.33269555807E+00  0.60454663766E+00  0.95751256152E+00  0.90007748638E+02  0.90000010120E+02 0.  0.
        -12    1    1    2    0    0  0.33269555807E+00 -0.60454663766E+00 -0.95751256152E+00  0.11802513618E+01  0.00000000000E+00 0.  1.
         11    1    3    3    0    0 -0.32349844641E+02 -0.24943566243E+02  0.92263504954E+01  0.41878628069E+02  0.51100000000E-03 0. -1.
        -11    1    3    3    0    0  0.37671206248E+01  0.38828784138E-01 -0.93190029536E+01  0.10051692484E+02  0.51100000000E-03 0.  1.
        -12    1    3    3    0    0  0.28250028458E+02  0.25509284096E+02  0.10501650197E+01  0.38077428085E+02  0.00000000000E+00 0.  1.
</event>
<event>
 7    1  0.1978681E-015  0.9000774E+02  0.7816164E-02  0.1186339E+00
        -11   -1    0    0    0    0  0.00000000000E+00  0.00000000000E+00  0.45593999997E+02  0.45594000000E+02  0.51100000000E-03 0.  1.
         11   -1    0    0    0    0 -0.00000000000E+00 -0.00000000000E+00 -0.45593999997E+02  0.45594000000E+02  0.51100000000E-03 0. -1.
    9900012    2    1    2    0    0 -0.58895044588E+00  0.63523201769E+00 -0.80164876576E+00  0.90007736009E+02  0.89999997325E+02 0.  0.
        -12    1    1    2    0    0  0.58895044588E+00 -0.63523201769E+00  0.80164876576E+00  0.11802639907E+01  0.00000000000E+00 0.  1.
         11    1    3    3    0    0  0.36219258112E+02 -0.16317913788E+01 -0.12157134577E+02  0.38239944072E+02  0.51100000000E-03 0. -1.
        -11    1    3    3    0    0 -0.17320962017E+01 -0.11524546173E+02 -0.19138980979E+01  0.11810094324E+02  0.51100000000E-03 0.  1.
        -12    1    3    3    0    0 -0.35076112356E+02  0.13791569570E+02  0.13269383909E+02  0.39957697613E+02  0.00000000000E+00 0.  1.
</event>
<event>
 7    1  0.1978681E-015  0.9000772E+02  0.7816164E-02  0.1186339E+00
        -11   -1    0    0    0    0  0.00000000000E+00  0.00000000000E+00  0.45593999997E+02  0.45594000000E+02  0.51100000000E-03 0.  1.
         11   -1    0    0    0    0 -0.00000000000E+00 -0.00000000000E+00 -0.45593999997E+02  0.45594000000E+02  0.51100000000E-03 0. -1.
    9900012    2    1    2    0    0  0.35472880815E-01 -0.29953864865E+00 -0.11410859431E+01  0.90007720856E+02  0.89999981972E+02 0.  0.
        -12    1    1    2    0    0 -0.35472880815E-01  0.29953864865E+00  0.11410859431E+01  0.11802791436E+01  0.00000000000E+00 0.  1.
         11    1    3    3    0    0  0.15889927462E+02 -0.23553853035E+02 -0.25291166733E+02  0.38038360934E+02  0.51100000000E-03 0. -1.
        -11    1    3    3    0    0 -0.41157525907E+01 -0.78877818104E+01 -0.26015062975E+01  0.92695391770E+01  0.51100000000E-03 0.  1.
        -12    1    3    3    0    0 -0.11738701990E+02  0.31142096197E+02  0.26751587088E+02  0.42699820745E+02  0.00000000000E+00 0.  1.
</event>
<event>
 7    1  0.1978681E-015  0.9000771E+02  0.7816164E-02  0.1186339E+00
        -11   -1    0    0    0    0  0.00000000000E+00  0.00000000000E+00  0.45593999997E+02  0.45594000000E+02  0.51100000000E-03 0.  1.
         11   -1    0    0    0    0 -0.00000000000E+00 -0.00000000000E+00 -0.45593999997E+02  0.45594000000E+02  0.51100000000E-03 0. -1.
    9900012    2    1    2    0    0  0.10031215249E+01 -0.26232985159E+00 -0.56393129502E+00  0.90007708405E+02  0.89999969355E+02 0.  0.
        -12    1    1    2    0    0 -0.10031215249E+01  0.26232985159E+00  0.56393129502E+00  0.11802915954E+01  0.00000000000E+00 0.  1.
         11    1    3    3    0    0 -0.62161854261E+01 -0.25802068163E+01  0.38420863970E+01  0.77498423603E+01  0.51100000000E-03 0. -1.
        -11    1    3    3    0    0 -0.34747813882E+02  0.15483395183E+02 -0.42105532121E+01  0.38273683577E+02  0.51100000000E-03 0.  1.
         12    1    3    3    0    0  0.41967120833E+02 -0.13165518218E+02 -0.19546447993E+00  0.43984182467E+02  0.00000000000E+00 0. -1.
</event>
<event>
 7    1  0.1978681E-015  0.9000788E+02  0.7816164E-02  0.1186339E+00
        -11   -1    0    0    0    0  0.00000000000E+00  0.00000000000E+00  0.45593999997E+02  0.45594000000E+02  0.51100000000E-03 0. -1.
         11   -1    0    0    0    0 -0.00000000000E+00 -0.00000000000E+00 -0.45593999997E+02  0.45594000000E+02  0.51100000000E-03 0.  1.
    9900012    2    1    2    0    0 -0.55438853759E+00  0.10191905467E+01  0.21583060133E+00  0.90007881841E+02  0.90000145081E+02 0.  0.
        -12    1    1    2    0    0  0.55438853759E+00 -0.10191905467E+01 -0.21583060133E+00  0.11801181592E+01  0.00000000000E+00 0.  1.
         11    1    3    3    0    0  0.50852342493E+01 -0.59353667534E+01 -0.17176053346E+01  0.80023967794E+01  0.51100000000E-03 0. -1.
        -11    1    3    3    0    0  0.31544996865E+02  0.10925074633E+02 -0.19739941904E+02  0.38782849168E+02  0.51100000000E-03 0.  1.
         12    1    3    3    0    0 -0.37184619652E+02 -0.39705173329E+01  0.21673377840E+02  0.43222635893E+02  0.00000000000E+00 0. -1.
</event>
<event>
 7    1  0.1978681E-015  0.9000768E+02  0.7816164E-02  0.1186339E+00
        -11   -1    0    0    0    0  0.00000000000E+00  0.00000000000E+00  0.45593999997E+02  0.45594000000E+02  0.51100000000E-03 0.  1.
         11   -1    0    0    0    0 -0.00000000000E+00 -0.00000000000E+00 -0.45593999997E+02  0.45594000000E+02  0.51100000000E-03 0. -1.
    9900012    2    1    2    0    0  0.19340775075E+00  0.33449233013E+00 -0.11152816643E+01  0.90007684420E+02  0.89999945055E+02 0.  0.
        -12    1    1    2    0    0 -0.19340775075E+00 -0.33449233013E+00  0.11152816643E+01  0.11803155797E+01  0.00000000000E+00 0.  1.
         11    1    3    3    0    0 -0.12245330158E+02  0.30615523399E+02 -0.18079734039E+02  0.37604988590E+02  0.51100000000E-03 0. -1.
        -11    1    3    3    0    0 -0.95722256624E+01 -0.29869199486E+01 -0.48171702522E+01  0.11124492097E+02  0.51100000000E-03 0.  1.
        -12    1    3    3    0    0  0.22010963572E+02 -0.27294111120E+02  0.21781622627E+02  0.41278203733E+02  0.00000000000E+00 0.  1.
</event>
<event>
 7    1  0.1978681E-015  0.9000771E+02  0.7816164E-02  0.1186339E+00
        -11   -1    0    0    0    0  0.00000000000E+00  0.00000000000E+00  0.45593999997E+02  0.45594000000E+02  0.51100000000E-03 0.  1.
         11   -1    0    0    0    0 -0.00000000000E+00 -0.00000000000E+00 -0.45593999997E+02  0.45594000000E+02  0.51100000000E-03 0. -1.
    9900012    2    1    2    0    0 -0.40475371804E+00 -0.53775994763E+00 -0.96957463026E+00  0.90007709232E+02  0.89999970194E+02 0.  0.
        -12    1    1    2    0    0  0.40475371804E+00  0.53775994763E+00  0.96957463026E+00  0.11802907681E+01  0.00000000000E+00 0.  1.
         11    1    3    3    0    0  0.32711666630E+01 -0.67095842340E+01 -0.75872274911E+01  0.10643546082E+02  0.51100000000E-03 0. -1.
        -11    1    3    3    0    0  0.82525043337E+01 -0.29154543562E+02  0.23586937058E+02  0.38398370253E+02  0.51100000000E-03 0.  1.
         12    1    3    3    0    0 -0.11928424715E+02  0.35326367848E+02 -0.16969284197E+02  0.40965792897E+02  0.00000000000E+00 0. -1.
</event>
<event>
 7    1  0.1978681E-015  0.9000778E+02  0.7816164E-02  0.1186339E+00
        -11   -1    0    0    0    0  0.00000000000E+00  0.00000000000E+00  0.45593999997E+02  0.45594000000E+02  0.51100000000E-03 0.  1.
         11   -1    0    0    0    0 -0.00000000000E+00 -0.00000000000E+00 -0.45593999997E+02  0.45594000000E+02  0.51100000000E-03 0. -1.
    9900012    2    1    2    0    0  0.31439157653E+00 -0.14954387849E+00 -0.11277024339E+01  0.90007780438E+02  0.90000042340E+02 0.  0.
        -12    1    1    2    0    0 -0.31439157653E+00  0.14954387849E+00  0.11277024339E+01  0.11802195619E+01  0.00000000000E+00 0.  1.
         11    1    3    3    0    0  0.10699799183E+02  0.26368434532E+01 -0.31776534673E+01  0.11468920079E+02  0.51100000000E-03 0. -1.
        -11    1    3    3    0    0  0.44610210638E+01  0.34987559131E+02  0.11059585406E+02  0.36964096533E+02  0.51100000000E-03 0.  1.
         12    1    3    3    0    0 -0.14846428670E+02 -0.37773946463E+02 -0.90096343730E+01  0.41574763826E+02  0.00000000000E+00 0. -1.
</event>
<event>
 7    1  0.1978681E-015  0.9000774E+02  0.7816164E-02  0.1186339E+00
        -11   -1    0    0    0    0  0.00000000000E+00  0.00000000000E+00  0.45593999997E+02  0.45594000000E+02  0.51100000000E-03 0. -1.
         11   -1    0    0    0    0 -0.00000000000E+00 -0.00000000000E+00 -0.45593999997E+02  0.45594000000E+02  0.51100000000E-03 0.  1.
    9900012    2    1    2    0    0 -0.43084074192E-01  0.12487601048E+00  0.11728406439E+01  0.90007743489E+02  0.90000004903E+02 0.  0.
        -12    1    1    2    0    0  0.43084074192E-01 -0.12487601048E+00 -0.11728406439E+01  0.11802565108E+01  0.00000000000E+00 0.  1.
         11    1    3    3    0    0 -0.12597313198E+02 -0.36190644049E+02 -0.11043952913E+01  0.38336336623E+02  0.51100000000E-03 0. -1.
        -11    1    3    3    0    0  0.25139395615E+01 -0.23548659635E+01  0.10352858078E+02  0.10910864148E+02  0.51100000000E-03 0.  1.
        -12    1    3    3    0    0  0.10040289562E+02  0.38670386023E+02 -0.80756221424E+01  0.40760542718E+02  0.00000000000E+00 0.  1.
</event>
<event>
 7    1  0.1978681E-015  0.9000778E+02  0.7816164E-02  0.1186339E+00
        -11   -1    0    0    0    0  0.00000000000E+00  0.00000000000E+00  0.45593999997E+02  0.45594000000E+02  0.51100000000E-03 0.  1.
         11   -1    0    0    0    0 -0.00000000000E+00 -0.00000000000E+00 -0.45593999997E+02  0.45594000000E+02  0.51100000000E-03 0. -1.
    9900012    2    1    2    0    0  0.14494338785E+00 -0.82587962183E-01 -0.11683693666E+01  0.90007781235E+02  0.90000043147E+02 0.  0.
        -12    1    1    2    0    0 -0.14494338785E+00  0.82587962183E-01  0.11683693666E+01  0.11802187653E+01  0.00000000000E+00 0.  1.
         11    1    3    3    0    0 -0.11316399855E+02  0.34544935478E+02 -0.15008461664E+02  0.39327692466E+02  0.51100000000E-03 0. -1.
        -11    1    3    3    0    0 -0.18658847356E+01  0.50615489564E+01  0.60301887122E+01  0.80909813898E+01  0.51100000000E-03 0.  1.
        -12    1    3    3    0    0  0.13327227979E+02 -0.39689072397E+02  0.78099035857E+01  0.42589107379E+02  0.00000000000E+00 0.  1.
</event>
<event>
 7    1  0.1978681E-015  0.9000811E+02  0.7816164E-02  0.1186338E+00
        -11   -1    0    0    0    0  0.00000000000E+00  0.00000000000E+00  0.45593999997E+02  0.45594000000E+02  0.51100000000E-03 0.  1.
         11   -1    0    0    0    0 -0.00000000000E+00 -0.00000000000E+00 -0.45593999997E+02  0.45594000000E+02  0.51100000000E-03 0. -1.
    9900012    2    1    2    0    0  0.28725687573E+00 -0.78005234940E+00  0.83734259783E+00  0.90008109833E+02  0.90000376082E+02 0.  0.
        -12    1    1    2    0    0 -0.28725687573E+00  0.78005234940E+00 -0.83734259783E+00  0.11798901672E+01  0.00000000000E+00 0.  1.
         11    1    3    3    0    0 -0.24623334043E+01 -0.94558232185E+01  0.27730084888E+01  0.10157029825E+02  0.51100000000E-03 0. -1.
        -11    1    3    3    0    0  0.39060237593E+02  0.44234644369E+00  0.10753317409E+02  0.40515819957E+02  0.51100000000E-03 0.  1.
         12    1    3    3    0    0 -0.36310647313E+02  0.82334244254E+01 -0.12688983300E+02  0.39335260051E+02  0.00000000000E+00 0. -1.
</event>
<event>
 7    1  0.1978681E-015  0.9000794E+02  0.7816164E-02  0.1186339E+00
        -11   -1    0    0    0    0  0.00000000000E+00  0.00000000000E+00  0.45593999997E+02  0.45594000000E+02  0.51100000000E-03 0. -1.
         11   -1    0    0    0    0 -0.00000000000E+00 -0.00000000000E+00 -0.45593999997E+02  0.45594000000E+02  0.51100000000E-03 0.  1.
    9900012    2    1    2    0    0  0.17510809181E+00 -0.68972532573E+00  0.94136226457E+00  0.90007937806E+02  0.90000201785E+02 0.  0.
        -12    1    1    2    0    0 -0.17510809181E+00  0.68972532573E+00 -0.94136226457E+00  0.11800621941E+01  0.00000000000E+00 0.  1.
         11    1    3    3    0    0  0.57372878032E+01  0.14340855917E+02  0.17800627619E+02  0.23567752622E+02  0.51100000000E-03 0. -1.
        -11    1    3    3    0    0 -0.17038820252E+02  0.56919381664E+01  0.17254414175E+02  0.24908519917E+02  0.51100000000E-03 0.  1.
         12    1    3    3    0    0  0.11476640541E+02 -0.20722519410E+02 -0.34113679529E+02  0.41531665267E+02  0.00000000000E+00 0. -1.
</event>
<event>
 7    1  0.1978681E-015  0.9000778E+02  0.7816164E-02  0.1186339E+00
        -11   -1    0    0    0    0  0.00000000000E+00  0.00000000000E+00  0.45593999997E+02  0.45594000000E+02  0.51100000000E-03 0.  1.
         11   -1    0    0    0    0 -0.00000000000E+00 -0.00000000000E+00 -0.45593999997E+02  0.45594000000E+02  0.51100000000E-03 0. -1.
    9900012    2    1    2    0    0  0.30403060504E-01 -0.10081580523E+01 -0.61287075884E+00  0.90007780710E+02  0.90000042616E+02 0.  0.
        -12    1    1    2    0    0 -0.30403060504E-01  0.10081580523E+01  0.61287075884E+00  0.11802192896E+01  0.00000000000E+00 0.  1.
         11    1    3    3    0    0 -0.18977537629E+02 -0.23905917282E+02 -0.23564313826E+02  0.38560558890E+02  0.51100000000E-03 0. -1.
        -11    1    3    3    0    0  0.60021070173E+01 -0.77275227479E+01 -0.18374022985E+01  0.99556990681E+01  0.51100000000E-03 0.  1.
        -12    1    3    3    0    0  0.13005833672E+02  0.30625281977E+02  0.24788845366E+02  0.41491522752E+02  0.00000000000E+00 0.  1.
</event>
<event>
 7    1  0.1978681E-015  0.9000778E+02  0.7816164E-02  0.1186339E+00
        -11   -1    0    0    0    0  0.00000000000E+00  0.00000000000E+00  0.45593999997E+02  0.45594000000E+02  0.51100000000E-03 0.  1.
         11   -1    0    0    0    0 -0.00000000000E+00 -0.00000000000E+00 -0.45593999997E+02  0.45594000000E+02  0.51100000000E-03 0. -1.
    9900012    2    1    2    0    0  0.90279373567E+00 -0.62351623461E+00 -0.43486242826E+00  0.90007782073E+02  0.90000043996E+02 0.  0.
        -12    1    1    2    0    0 -0.90279373567E+00  0.62351623461E+00  0.43486242826E+00  0.11802179271E+01  0.00000000000E+00 0.  1.
         11    1    3    3    0    0 -0.25201559725E+02 -0.30339215465E+01 -0.23182536905E+02  0.34376639017E+02  0.51100000000E-03 0. -1.
        -11    1    3    3    0    0 -0.90852998004E+01  0.11260493956E+02  0.59046110972E+01  0.15627086391E+02  0.51100000000E-03 0.  1.
         12    1    3    3    0    0  0.35189653261E+02 -0.88500886446E+01  0.16843063379E+02  0.40004056665E+02  0.00000000000E+00 0. -1.
</event>
<event>
 7    1  0.1978681E-015  0.9000771E+02  0.7816164E-02  0.1186339E+00
        -11   -1    0    0    0    0  0.00000000000E+00  0.00000000000E+00  0.45593999997E+02  0.45594000000E+02  0.51100000000E-03 0. -1.
         11   -1    0    0    0    0 -0.00000000000E+00 -0.00000000000E+00 -0.45593999997E+02  0.45594000000E+02  0.51100000000E-03 0.  1.
    9900012    2    1    2    0    0 -0.46409778255E-01 -0.11281084745E+01  0.34394092751E+00  0.90007712764E+02  0.89999973772E+02 0.  0.
        -12    1    1    2    0    0  0.46409778255E-01  0.11281084745E+01 -0.34394092751E+00  0.11802872360E+01  0.00000000000E+00 0.  1.
         11    1    3    3    0    0 -0.16947031989E+02  0.30076881176E+02  0.15061546321E+02  0.37665247276E+02  0.51100000000E-03 0. -1.
        -11    1    3    3    0    0  0.18725269712E+01  0.62293338414E+01  0.42472220806E+01  0.77685167843E+01  0.51100000000E-03 0.  1.
        -12    1    3    3    0    0  0.15028095240E+02 -0.37434323492E+02 -0.18964827474E+02  0.44573948703E+02  0.00000000000E+00 0.  1.
</event>
<event>
 7    1  0.1978681E-015  0.9000773E+02  0.7816164E-02  0.1186339E+00
        -11   -1    0    0    0    0  0.00000000000E+00  0.00000000000E+00  0.45593999997E+02  0.45594000000E+02  0.51100000000E-03 0.  1.
         11   -1    0    0    0    0 -0.00000000000E+00 -0.00000000000E+00 -0.45593999997E+02  0.45594000000E+02  0.51100000000E-03 0. -1.
    9900012    2    1    2    0    0 -0.32984315307E+00  0.15027367090E+00 -0.11232329515E+01  0.90007732681E+02  0.89999993952E+02 0.  0.
        -12    1    1    2    0    0  0.32984315307E+00 -0.15027367090E+00  0.11232329515E+01  0.11802673193E+01  0.00000000000E+00 0.  1.
         11    1    3    3    0    0 -0.39723143056E+02  0.89115887486E+01 -0.14890222256E+02  0.43348162907E+02  0.51100000000E-03 0. -1.
        -11    1    3    3    0    0  0.38942801666E+01 -0.81978362083E+01  0.25830472245E+01  0.94362105603E+01  0.51100000000E-03 0.  1.
        -12    1    3    3    0    0  0.35499019737E+02 -0.56347886944E+00  0.11183942080E+02  0.37223359214E+02  0.00000000000E+00 0.  1.
</event>
<event>
 7    1  0.1978681E-015  0.9000776E+02  0.7816164E-02  0.1186339E+00
        -11   -1    0    0    0    0  0.00000000000E+00  0.00000000000E+00  0.45593999997E+02  0.45594000000E+02  0.51100000000E-03 0. -1.
         11   -1    0    0    0    0 -0.00000000000E+00 -0.00000000000E+00 -0.45593999997E+02  0.45594000000E+02  0.51100000000E-03 0.  1.
    9900012    2    1    2    0    0 -0.76011955049E+00 -0.56321518659E+00  0.70567659043E+00  0.90007757428E+02  0.90000019026E+02 0.  0.
        -12    1    1    2    0    0  0.76011955049E+00  0.56321518659E+00 -0.70567659043E+00  0.11802425716E+01  0.00000000000E+00 0.  1.
         11    1    3    3    0    0  0.14567680228E+01  0.58367038594E+01  0.80871456871E+01  0.10079246531E+02  0.51100000000E-03 0. -1.
        -11    1    3    3    0    0  0.61396193112E+01  0.35241752394E+02 -0.10668810388E+02  0.37329606916E+02  0.51100000000E-03 0.  1.
         12    1    3    3    0    0 -0.83565068846E+01 -0.41641671440E+02  0.32873412912E+01  0.42598903982E+02  0.00000000000E+00 0. -1.
</event>
<event>
 7    1  0.1978681E-015  0.9000774E+02  0.7816164E-02  0.1186339E+00
        -11   -1    0    0    0    0  0.00000000000E+00  0.00000000000E+00  0.45593999997E+02  0.45594000000E+02  0.51100000000E-03 0.  1.
         11   -1    0    0    0    0 -0.00000000000E+00 -0.00000000000E+00 -0.45593999997E+02  0.45594000000E+02  0.51100000000E-03 0. -1.
    9900012    2    1    2    0    0  0.57568645534E+00 -0.98312310149E+00 -0.30833881699E+00  0.90007737845E+02  0.89999999185E+02 0.  0.
        -12    1    1    2    0    0 -0.57568645534E+00  0.98312310149E+00  0.30833881699E+00  0.11802621546E+01  0.00000000000E+00 0.  1.
         11    1    3    3    0    0  0.12355855870E+01  0.74181358234E+01 -0.54806469662E+01  0.93055307354E+01  0.51100000000E-03 0. -1.
        -11    1    3    3    0    0 -0.11432987004E+02  0.34477961442E+02  0.22220751384E+01  0.36392040823E+02  0.51100000000E-03 0.  1.
         12    1    3    3    0    0  0.10773087873E+02 -0.42879220367E+02  0.29502330108E+01  0.44310166287E+02  0.00000000000E+00 0. -1.
</event>
<event>
 7    1  0.1978681E-015  0.9000770E+02  0.7816164E-02  0.1186339E+00
        -11   -1    0    0    0    0  0.00000000000E+00  0.00000000000E+00  0.45593999997E+02  0.45594000000E+02  0.51100000000E-03 0.  1.
         11   -1    0    0    0    0 -0.00000000000E+00 -0.00000000000E+00 -0.45593999997E+02  0.45594000000E+02  0.51100000000E-03 0. -1.
    9900012    2    1    2    0    0 -0.50733692725E+00  0.93924165546E+00 -0.50353508390E+00  0.90007697824E+02  0.89999958636E+02 0.  0.
        -12    1    1    2    0    0  0.50733692725E+00 -0.93924165546E+00  0.50353508390E+00  0.11803021756E+01  0.00000000000E+00 0.  1.
         11    1    3    3    0    0 -0.10557689303E+02 -0.30049085807E+02 -0.17068587665E+02  0.36135149735E+02  0.51100000000E-03 0. -1.
        -11    1    3    3    0    0 -0.88025229344E+01 -0.17600853574E+01 -0.50905133710E+01  0.10319672336E+02  0.51100000000E-03 0.  1.
        -12    1    3    3    0    0  0.18852875310E+02  0.32748412820E+02  0.21655565952E+02  0.43552875753E+02  0.00000000000E+00 0.  1.
</event>
<event>
 7    1  0.1978681E-015  0.9000770E+02  0.7816164E-02  0.1186339E+00
        -11   -1    0    0    0    0  0.00000000000E+00  0.00000000000E+00  0.45593999997E+02  0.45594000000E+02  0.51100000000E-03 0. -1.
         11   -1    0    0    0    0 -0.00000000000E+00 -0.00000000000E+00 -0.45593999997E+02  0.45594000000E+02  0.51100000000E-03 0.  1.
    9900012    2    1    2    0    0 -0.19975472241E-01  0.31315984802E+00  0.11378269733E+01  0.90007695662E+02  0.89999956444E+02 0.  0.
        -12    1    1    2    0    0  0.19975472241E-01 -0.31315984802E+00 -0.11378269733E+01  0.11803043383E+01  0.00000000000E+00 0.  1.
         11    1    3    3    0    0  0.14418904399E+02 -0.29033494985E+02  0.14992432614E+02  0.35715846218E+02  0.51100000000E-03 0. -1.
        -11    1    3    3    0    0  0.52739703325E+01 -0.72586829266E+01 -0.85237433172E+01  0.12375679428E+02  0.51100000000E-03 0.  1.
        -12    1    3    3    0    0 -0.19712850204E+02  0.36605337760E+02 -0.53308623234E+01  0.41916170016E+02  0.00000000000E+00 0.  1.
</event>
<event>
 7    1  0.1978681E-015  0.9000771E+02  0.7816164E-02  0.1186339E+00
        -11   -1    0    0    0    0  0.00000000000E+00  0.00000000000E+00  0.45593999997E+02  0.45594000000E+02  0.51100000000E-03 0.  1.
         11   -1    0    0    0    0 -0.00000000000E+00 -0.00000000000E+00 -0.45593999997E+02  0.45594000000E+02  0.51100000000E-03 0. -1.
    9900012    2    1    2    0    0 -0.76561379673E+00  0.64697005916E+00 -0.62318491126E+00  0.90007705894E+02  0.89999966812E+02 0.  0.
        -12    1    1    2    0    0  0.76561379673E+00 -0.64697005916E+00  0.62318491126E+00  0.11802941061E+01  0.00000000000E+00 0.  1.
         11    1    3    3    0    0  0.66737977044E+01 -0.25465748219E+01  0.53053951738E+01  0.88978557717E+01  0.51100000000E-03 0. -1.
        -11    1    3    3    0    0  0.35186900883E+02 -0.82487556263E+01  0.23001728822E+01  0.36213958064E+02  0.51100000000E-03 0.  1.
         12    1    3    3    0    0 -0.42626312384E+02  0.11442300507E+02 -0.82287529673E+01  0.44895892058E+02  0.00000000000E+00 0. -1.
</event>
<event>
 7    1  0.1978681E-015  0.9000780E+02  0.7816164E-02  0.1186339E+00
        -11   -1    0    0    0    0  0.00000000000E+00  0.00000000000E+00  0.45593999997E+02  0.45594000000E+02  0.51100000000E-03 0.  1.
         11   -1    0    0    0    0 -0.00000000000E+00 -0.00000000000E+00 -0.45593999997E+02  0.45594000000E+02  0.51100000000E-03 0. -1.
    9900012    2    1    2    0    0  0.64220563445E+00  0.79227152811E-01 -0.98700460564E+00  0.90007795310E+02  0.90000057408E+02 0.  0.
        -12    1    1    2    0    0 -0.64220563445E+00 -0.79227152811E-01  0.98700460564E+00  0.11802046900E+01  0.00000000000E+00 0.  1.
         11    1    3    3    0    0 -0.14977549204E+02  0.32342291387E+02 -0.14898154403E+02  0.38630374023E+02  0.51100000000E-03 0. -1.
        -11    1    3    3    0    0 -0.96480560377E+01 -0.27495919587E+01 -0.22100845012E+00  0.10034644301E+02  0.51100000000E-03 0.  1.
        -12    1    3    3    0    0  0.25267810876E+02 -0.29513472275E+02  0.14132158247E+02  0.41342776986E+02  0.00000000000E+00 0.  1.
</event>
<event>
 7    1  0.1978681E-015  0.9000877E+02  0.7816164E-02  0.1186337E+00
        -11   -1    0    0    0    0  0.00000000000E+00  0.00000000000E+00  0.45593999997E+02  0.45594000000E+02  0.51100000000E-03 0. -1.
         11   -1    0    0    0    0 -0.00000000000E+00 -0.00000000000E+00 -0.45593999997E+02  0.45594000000E+02  0.51100000000E-03 0.  1.
    9900012    2    1    2    0    0  0.67577530726E+00 -0.95479821478E+00  0.14922728603E+00  0.90008771150E+02  0.90001046123E+02 0.  0.
        -12    1    1    2    0    0 -0.67577530726E+00  0.95479821478E+00 -0.14922728603E+00  0.11792288496E+01  0.00000000000E+00 0.  1.
         11    1    3    3    0    0  0.28604624773E+02 -0.29330338230E+02  0.68710818347E+01  0.41541606432E+02  0.51100000000E-03 0. -1.
        -11    1    3    3    0    0 -0.49365069262E+01 -0.15044697931E+01  0.66910922172E+01  0.84500441011E+01  0.51100000000E-03 0.  1.
        -12    1    3    3    0    0 -0.22992342540E+02  0.29880009808E+02 -0.13412946766E+02  0.40017120618E+02  0.00000000000E+00 0.  1.
</event>
<event>
 7    1  0.1978681E-015  0.9000777E+02  0.7816164E-02  0.1186339E+00
        -11   -1    0    0    0    0  0.00000000000E+00  0.00000000000E+00  0.45593999997E+02  0.45594000000E+02  0.51100000000E-03 0.  1.
         11   -1    0    0    0    0 -0.00000000000E+00 -0.00000000000E+00 -0.45593999997E+02  0.45594000000E+02  0.51100000000E-03 0. -1.
    9900012    2    1    2    0    0  0.73982536143E+00 -0.90740731330E+00 -0.14905030029E+00  0.90007768841E+02  0.90000030589E+02 0.  0.
        -12    1    1    2    0    0 -0.73982536143E+00  0.90740731330E+00  0.14905030029E+00  0.11802311594E+01  0.00000000000E+00 0.  1.
         11    1    3    3    0    0 -0.32678219844E+02  0.22997774322E+02 -0.80472331667E+01  0.40761766864E+02  0.51100000000E-03 0. -1.
        -11    1    3    3    0    0  0.93086722824E+01 -0.59266309409E+01 -0.94481430361E+01  0.14527344598E+02  0.51100000000E-03 0.  1.
        -12    1    3    3    0    0  0.24109372923E+02 -0.17978550695E+02  0.17346325903E+02  0.34718657379E+02  0.00000000000E+00 0.  1.
</event>
<event>
 7    1  0.1978681E-015  0.9000767E+02  0.7816164E-02  0.1186339E+00
        -11   -1    0    0    0    0  0.00000000000E+00  0.00000000000E+00  0.45593999997E+02  0.45594000000E+02  0.51100000000E-03 0.  1.
         11   -1    0    0    0    0 -0.00000000000E+00 -0.00000000000E+00 -0.45593999997E+02  0.45594000000E+02  0.51100000000E-03 0. -1.
    9900012    2    1    2    0    0 -0.86223303314E+00  0.76229960321E+00  0.26195858978E+00  0.90007674286E+02  0.89999934786E+02 0.  0.
        -12    1    1    2    0    0  0.86223303314E+00 -0.76229960321E+00 -0.26195858978E+00  0.11803257141E+01  0.00000000000E+00 0.  1.
         11    1    3    3    0    0 -0.27774327207E+02  0.64512550486E+01 -0.22870135162E+02  0.36552360062E+02  0.51100000000E-03 0. -1.
        -11    1    3    3    0    0 -0.66364934743E+01  0.61710646132E+01 -0.27322090115E+01  0.94652020812E+01  0.51100000000E-03 0.  1.
        -12    1    3    3    0    0  0.33548587648E+02 -0.11860020059E+02  0.25864302763E+02  0.43990112143E+02  0.00000000000E+00 0.  1.
</event>
<event>
 7    1  0.1978681E-015  0.9000776E+02  0.7816164E-02  0.1186339E+00
        -11   -1    0    0    0    0  0.00000000000E+00  0.00000000000E+00  0.45593999997E+02  0.45594000000E+02  0.51100000000E-03 0.  1.
         11   -1    0    0    0    0 -0.00000000000E+00 -0.00000000000E+00 -0.45593999997E+02  0.45594000000E+02  0.51100000000E-03 0. -1.
    9900012    2    1    2    0    0 -0.49270215968E+00 -0.10136586103E+01  0.35030030673E+00  0.90007758711E+02  0.90000020326E+02 0.  0.
        -12    1    1    2    0    0  0.49270215968E+00  0.10136586103E+01 -0.35030030673E+00  0.11802412895E+01  0.00000000000E+00 0.  1.
         11    1    3    3    0    0 -0.29902332040E+01 -0.94430140212E+01 -0.41221648398E+01  0.10728664952E+02  0.51100000000E-03 0. -1.
        -11    1    3    3    0    0 -0.29103899689E+02 -0.12774534798E+02 -0.16516058485E+02  0.35819071800E+02  0.51100000000E-03 0.  1.
         12    1    3    3    0    0  0.31601430734E+02  0.21203890209E+02  0.20988523632E+02  0.43460021959E+02  0.00000000000E+00 0. -1.
</event>
<event>
 7    1  0.1978681E-015  0.9000747E+02  0.7816164E-02  0.1186340E+00
        -11   -1    0    0    0    0  0.00000000000E+00  0.00000000000E+00  0.45593999997E+02  0.45594000000E+02  0.51100000000E-03 0.  1.
         11   -1    0    0    0    0 -0.00000000000E+00 -0.00000000000E+00 -0.45593999997E+02  0.45594000000E+02  0.51100000000E-03 0. -1.
    9900012    2    1    2    0    0  0.83849093072E+00  0.69284111901E+00  0.45887397059E+00  0.90007465724E+02  0.89999723471E+02 0.  0.
        -12    1    1    2    0    0 -0.83849093072E+00 -0.69284111901E+00 -0.45887397059E+00  0.11805342765E+01  0.00000000000E+00 0.  1.
         11    1    3    3    0    0 -0.57963895762E+01  0.16028539640E+01 -0.89032900764E+01  0.10744107566E+02  0.51100000000E-03 0. -1.
        -11    1    3    3    0    0 -0.34069479191E+02  0.92528194704E+01 -0.32549117912E+01  0.35453328920E+02  0.51100000000E-03 0.  1.
         12    1    3    3    0    0  0.40704359698E+02 -0.10162832315E+02  0.12617075838E+02  0.43810029237E+02  0.00000000000E+00 0. -1.
</event>
<event>
 7    1  0.1978681E-015  0.9000773E+02  0.7816164E-02  0.1186339E+00
        -11   -1    0    0    0    0  0.00000000000E+00  0.00000000000E+00  0.45593999997E+02  0.45594000000E+02  0.51100000000E-03 0.  1.
         11   -1    0    0    0    0 -0.00000000000E+00 -0.00000000000E+00 -0.45593999997E+02  0.45594000000E+02  0.51100000000E-03 0. -1.
    9900012    2    1    2    0    0  0.28079040671E+00  0.11353680143E+01  0.15851318010E+00  0.90007732993E+02  0.89999994268E+02 0.  0.
        -12    1    1    2    0    0 -0.28079040671E+00 -0.11353680143E+01 -0.15851318010E+00  0.11802670074E+01  0.00000000000E+00 0.  1.
         11    1    3    3    0    0 -0.31180834414E+01 -0.30634476667E+01  0.78282132828E+01  0.89659399628E+01  0.51100000000E-03 0. -1.
        -11    1    3    3    0    0 -0.31946870333E+02  0.93930814983E+01  0.17232483553E+02  0.37493879418E+02  0.51100000000E-03 0.  1.
         12    1    3    3    0    0  0.35345744181E+02 -0.51942658172E+01 -0.24902183656E+02  0.43547913612E+02  0.00000000000E+00 0. -1.
</event>
<event>
 7    1  0.1978681E-015  0.9000773E+02  0.7816164E-02  0.1186339E+00
        -11   -1    0    0    0    0  0.00000000000E+00  0.00000000000E+00  0.45593999997E+02  0.45594000000E+02  0.51100000000E-03 0.  1.
         11   -1    0    0    0    0 -0.00000000000E+00 -0.00000000000E+00 -0.45593999997E+02  0.45594000000E+02  0.51100000000E-03 0. -1.
    9900012    2    1    2    0    0  0.36326855262E+00  0.11128675138E+01 -0.15034725800E+00  0.90007727810E+02  0.89999989017E+02 0.  0.
        -12    1    1    2    0    0 -0.36326855262E+00 -0.11128675138E+01  0.15034725800E+00  0.11802721900E+01  0.00000000000E+00 0.  1.
         11    1    3    3    0    0 -0.27363264743E+02 -0.31077611199E+02 -0.92554300393E+01  0.42429107470E+02  0.51100000000E-03 0. -1.
        -11    1    3    3    0    0  0.86285069698E+01  0.10169268716E+01 -0.28036626993E+01  0.91293919613E+01  0.51100000000E-03 0.  1.
        -12    1    3    3    0    0  0.19098026326E+02  0.31173551842E+02  0.11908745481E+02  0.38449228378E+02  0.00000000000E+00 0.  1.
</event>
<event>
 7    1  0.1978681E-015  0.9000782E+02  0.7816164E-02  0.1186339E+00
        -11   -1    0    0    0    0  0.00000000000E+00  0.00000000000E+00  0.45593999997E+02  0.45594000000E+02  0.51100000000E-03 0.  1.
         11   -1    0    0    0    0 -0.00000000000E+00 -0.00000000000E+00 -0.45593999997E+02  0.45594000000E+02  0.51100000000E-03 0. -1.
    9900012    2    1    2    0    0  0.77827623083E+00  0.77859478969E+00 -0.42533036163E+00  0.90007817957E+02  0.90000080354E+02 0.  0.
        -12    1    1    2    0    0 -0.77827623083E+00 -0.77859478969E+00  0.42533036163E+00  0.11801820430E+01  0.00000000000E+00 0.  1.
         11    1    3    3    0    0  0.53024996011E+01  0.15894458350E+02 -0.40104782246E+02  0.43464282664E+02  0.51100000000E-03 0. -1.
        -11    1    3    3    0    0  0.43320283309E+01  0.13673046706E+01  0.14351751804E+02  0.15053530204E+02  0.51100000000E-03 0.  1.
        -12    1    3    3    0    0 -0.88562517012E+01 -0.16483168231E+02  0.25327700080E+02  0.31490005089E+02  0.00000000000E+00 0.  1.
</event>
<event>
 7    1  0.1978681E-015  0.9000765E+02  0.7816164E-02  0.1186339E+00
        -11   -1    0    0    0    0  0.00000000000E+00  0.00000000000E+00  0.45593999997E+02  0.45594000000E+02  0.51100000000E-03 0. -1.
         11   -1    0    0    0    0 -0.00000000000E+00 -0.00000000000E+00 -0.45593999997E+02  0.45594000000E+02  0.51100000000E-03 0.  1.
    9900012    2    1    2    0    0  0.99055462119E+00 -0.21977325791E+00  0.60309811537E+00  0.90007650018E+02  0.89999910199E+02 0.  0.
        -12    1    1    2    0    0 -0.99055462119E+00  0.21977325791E+00 -0.60309811537E+00  0.11803499817E+01  0.00000000000E+00 0.  1.
         11    1    3    3    0    0 -0.34532463554E+01  0.15269230270E+02 -0.13351031065E+02  0.20574847125E+02  0.51100000000E-03 0. -1.
        -11    1    3    3    0    0  0.23434238092E+02  0.87019592033E+01 -0.13321368840E+02  0.28325721120E+02  0.51100000000E-03 0.  1.
         12    1    3    3    0    0 -0.18990437115E+02 -0.24190962731E+02  0.27275498021E+02  0.41107081774E+02  0.00000000000E+00 0. -1.
</event>
<event>
 7    1  0.1978681E-015  0.9000774E+02  0.7816164E-02  0.1186339E+00
        -11   -1    0    0    0    0  0.00000000000E+00  0.00000000000E+00  0.45593999997E+02  0.45594000000E+02  0.51100000000E-03 0.  1.
         11   -1    0    0    0    0 -0.00000000000E+00 -0.00000000000E+00 -0.45593999997E+02  0.45594000000E+02  0.51100000000E-03 0. -1.
    9900012    2    1    2    0    0  0.63582892780E+00  0.65075921475E+00 -0.75183553004E+00  0.90007736197E+02  0.89999997515E+02 0.  0.
        -12    1    1    2    0    0 -0.63582892780E+00 -0.65075921475E+00  0.75183553004E+00  0.11802638032E+01  0.00000000000E+00 0.  1.
         11    1    3    3    0    0 -0.17081472031E+01 -0.68317875795E+01  0.58997283681E+01  0.91868320698E+01  0.51100000000E-03 0. -1.
        -11    1    3    3    0    0 -0.87960900983E+01 -0.30495654347E+02  0.15654542076E+02  0.35389558106E+02  0.51100000000E-03 0.  1.
         12    1    3    3    0    0  0.11140066229E+02  0.37978201141E+02 -0.22306105974E+02  0.45431346021E+02  0.00000000000E+00 0. -1.
</event>
<event>
 7    1  0.1978681E-015  0.9000797E+02  0.7816164E-02  0.1186339E+00
        -11   -1    0    0    0    0  0.00000000000E+00  0.00000000000E+00  0.45593999997E+02  0.45594000000E+02  0.51100000000E-03 0.  1.
         11   -1    0    0    0    0 -0.00000000000E+00 -0.00000000000E+00 -0.45593999997E+02  0.45594000000E+02  0.51100000000E-03 0. -1.
    9900012    2    1    2    0    0 -0.62299525145E-01 -0.16062827315E+00 -0.11673897921E+01  0.90007965424E+02  0.90000229768E+02 0.  0.
        -12    1    1    2    0    0  0.62299525145E-01  0.16062827315E+00  0.11673897921E+01  0.11800345756E+01  0.00000000000E+00 0.  1.
         11    1    3    3    0    0  0.33642824458E+02 -0.24512640031E+02  0.10484850001E+02  0.42925997235E+02  0.51100000000E-03 0. -1.
        -11    1    3    3    0    0 -0.67985644372E+01 -0.18089668698E+01 -0.57636984440E+01  0.90946720423E+01  0.51100000000E-03 0.  1.
        -12    1    3    3    0    0 -0.26906559546E+02  0.26160978628E+02 -0.58885413492E+01  0.37987296147E+02  0.00000000000E+00 0.  1.
</event>
<event>
 7    1  0.1978681E-015  0.9000774E+02  0.7816164E-02  0.1186339E+00
        -11   -1    0    0    0    0  0.00000000000E+00  0.00000000000E+00  0.45593999997E+02  0.45594000000E+02  0.51100000000E-03 0.  1.
         11   -1    0    0    0    0 -0.00000000000E+00 -0.00000000000E+00 -0.45593999997E+02  0.45594000000E+02  0.51100000000E-03 0. -1.
    9900012    2    1    2    0    0  0.27194614278E+00  0.21802829741E-01 -0.11482983618E+01  0.90007737658E+02  0.89999998995E+02 0.  0.
        -12    1    1    2    0    0 -0.27194614278E+00 -0.21802829741E-01  0.11482983618E+01  0.11802623419E+01  0.00000000000E+00 0.  1.
         11    1    3    3    0    0 -0.44544098338E+01 -0.58622418606E+01 -0.34085605009E+01  0.81133181590E+01  0.51100000000E-03 0. -1.
        -11    1    3    3    0    0  0.32208321939E+02 -0.24808541290E+02  0.48678003183E+00  0.40658045675E+02  0.51100000000E-03 0.  1.
         12    1    3    3    0    0 -0.27481965962E+02  0.30692585981E+02  0.17734821073E+01  0.41236373824E+02  0.00000000000E+00 0. -1.
</event>
<event>
 7    1  0.1978681E-015  0.9000768E+02  0.7816164E-02  0.1186339E+00
        -11   -1    0    0    0    0  0.00000000000E+00  0.00000000000E+00  0.45593999997E+02  0.45594000000E+02  0.51100000000E-03 0.  1.
         11   -1    0    0    0    0 -0.00000000000E+00 -0.00000000000E+00 -0.45593999997E+02  0.45594000000E+02  0.51100000000E-03 0. -1.
    9900012    2    1    2    0    0 -0.61558849431E+00  0.65626609893E+00  0.76387961548E+00  0.90007683748E+02  0.89999944374E+02 0.  0.
        -12    1    1    2    0    0  0.61558849431E+00 -0.65626609893E+00 -0.76387961548E+00  0.11803162516E+01  0.00000000000E+00 0.  1.
         11    1    3    3    0    0  0.12357966891E+01  0.11466675080E+02 -0.36364185907E+02  0.38149257500E+02  0.51100000000E-03 0. -1.
        -11    1    3    3    0    0 -0.15280481596E+00  0.10792080358E+02  0.26129475606E+01  0.11104946780E+02  0.51100000000E-03 0.  1.
        -12    1    3    3    0    0 -0.16985803674E+01 -0.21602489339E+02  0.34515117962E+02  0.40753479469E+02  0.00000000000E+00 0.  1.
</event>
<event>
 7    1  0.1978681E-015  0.9000778E+02  0.7816164E-02  0.1186339E+00
        -11   -1    0    0    0    0  0.00000000000E+00  0.00000000000E+00  0.45593999997E+02  0.45594000000E+02  0.51100000000E-03 0.  1.
         11   -1    0    0    0    0 -0.00000000000E+00 -0.00000000000E+00 -0.45593999997E+02  0.45594000000E+02  0.51100000000E-03 0. -1.
    9900012    2    1    2    0    0  0.65130754867E+00 -0.50998388775E+00 -0.84180715716E+00  0.90007777827E+02  0.90000039694E+02 0.  0.
        -12    1    1    2    0    0 -0.65130754867E+00  0.50998388775E+00  0.84180715716E+00  0.11802221734E+01  0.00000000000E+00 0.  1.
         11    1    3    3    0    0 -0.21727233316E+01 -0.89572271737E+01 -0.35549044038E+02  0.36724476546E+02  0.51100000000E-03 0. -1.
        -11    1    3    3    0    0 -0.75920151739E+01 -0.37317260817E+01 -0.54386419800E+01  0.10057002575E+02  0.51100000000E-03 0.  1.
        -12    1    3    3    0    0  0.10416046054E+02  0.12178969368E+02  0.40145878861E+02  0.43226298705E+02  0.00000000000E+00 0.  1.
</event>
<event>
 7    1  0.1978681E-015  0.9000787E+02  0.7816164E-02  0.1186339E+00
        -11   -1    0    0    0    0  0.00000000000E+00  0.00000000000E+00  0.45593999997E+02  0.45594000000E+02  0.51100000000E-03 0.  1.
         11   -1    0    0    0    0 -0.00000000000E+00 -0.00000000000E+00 -0.45593999997E+02  0.45594000000E+02  0.51100000000E-03 0. -1.
    9900012    2    1    2    0    0  0.81616927075E+00 -0.54580146244E+00  0.65473494237E+00  0.90007868923E+02  0.90000131992E+02 0.  0.
        -12    1    1    2    0    0 -0.81616927075E+00  0.54580146244E+00 -0.65473494237E+00  0.11801310773E+01  0.00000000000E+00 0.  1.
         11    1    3    3    0    0 -0.62664680915E+00 -0.19302272037E+01  0.10558295970E+02  0.10751561623E+02  0.51100000000E-03 0. -1.
        -11    1    3    3    0    0 -0.15692556003E+02  0.31973724651E+02  0.12386088027E+02  0.37709290087E+02  0.51100000000E-03 0.  1.
         12    1    3    3    0    0  0.17135372083E+02 -0.30589298910E+02 -0.22289649055E+02  0.41547017212E+02  0.00000000000E+00 0. -1.
</event>
<event>
 7    1  0.1978681E-015  0.9000774E+02  0.7816164E-02  0.1186339E+00
        -11   -1    0    0    0    0  0.00000000000E+00  0.00000000000E+00  0.45593999997E+02  0.45594000000E+02  0.51100000000E-03 0. -1.
         11   -1    0    0    0    0 -0.00000000000E+00 -0.00000000000E+00 -0.45593999997E+02  0.45594000000E+02  0.51100000000E-03 0.  1.
    9900012    2    1    2    0    0 -0.11412295333E-02 -0.11662015394E+01  0.18160152930E+00  0.90007743058E+02  0.90000004467E+02 0.  0.
        -12    1    1    2    0    0  0.11412295333E-02  0.11662015394E+01 -0.18160152930E+00  0.11802569417E+01  0.00000000000E+00 0.  1.
         11    1    3    3    0    0 -0.14042796115E+02 -0.15613364491E+02  0.35978285297E+02  0.41658303933E+02  0.51100000000E-03 0. -1.
        -11    1    3    3    0    0  0.35967397136E+01 -0.71511931977E+01 -0.55380225023E+01  0.97337451279E+01  0.51100000000E-03 0.  1.
        -12    1    3    3    0    0  0.10444915172E+02  0.21598356150E+02 -0.30258661265E+02  0.38615693997E+02  0.00000000000E+00 0.  1.
</event>
<event>
 7    1  0.1978681E-015  0.9000780E+02  0.7816164E-02  0.1186339E+00
        -11   -1    0    0    0    0  0.00000000000E+00  0.00000000000E+00  0.45593999997E+02  0.45594000000E+02  0.51100000000E-03 0.  1.
         11   -1    0    0    0    0 -0.00000000000E+00 -0.00000000000E+00 -0.45593999997E+02  0.45594000000E+02  0.51100000000E-03 0. -1.
    9900012    2    1    2    0    0 -0.65733773267E+00 -0.46274311126E+00 -0.86408348566E+00  0.90007803257E+02  0.90000065460E+02 0.  0.
        -12    1    1    2    0    0  0.65733773267E+00  0.46274311126E+00  0.86408348566E+00  0.11801967429E+01  0.00000000000E+00 0.  1.
         11    1    3    3    0    0 -0.81411259953E+01 -0.43527452732E+01  0.62815741494E+01  0.11166131736E+02  0.51100000000E-03 0. -1.
        -11    1    3    3    0    0 -0.33470434554E+01  0.31574793591E+01  0.35009820034E+02  0.35310903059E+02  0.51100000000E-03 0.  1.
         12    1    3    3    0    0  0.10830831718E+02  0.73252280289E+00 -0.42155477669E+02  0.43530768462E+02  0.00000000000E+00 0. -1.
</event>
<event>
 7    1  0.1978681E-015  0.9000775E+02  0.7816164E-02  0.1186339E+00
        -11   -1    0    0    0    0  0.00000000000E+00  0.00000000000E+00  0.45593999997E+02  0.45594000000E+02  0.51100000000E-03 0. -1.
         11   -1    0    0    0    0 -0.00000000000E+00 -0.00000000000E+00 -0.45593999997E+02  0.45594000000E+02  0.51100000000E-03 0.  1.
    9900012    2    1    2    0    0 -0.83051216386E+00  0.58199502973E+00  0.60374821522E+00  0.90007754019E+02  0.90000015572E+02 0.  0.
        -12    1    1    2    0    0  0.83051216386E+00 -0.58199502973E+00 -0.60374821522E+00  0.11802459813E+01  0.00000000000E+00 0.  1.
         11    1    3    3    0    0  0.35487327286E+01 -0.21178475832E+01 -0.40716120678E+01  0.58014487377E+01  0.51100000000E-03 0. -1.
        -11    1    3    3    0    0 -0.13763805677E+02 -0.38357755236E+02  0.94094742718E+01  0.41824609261E+02  0.51100000000E-03 0.  1.
         12    1    3    3    0    0  0.93845607849E+01  0.41057597849E+02 -0.47341139888E+01  0.42381696020E+02  0.00000000000E+00 0. -1.
</event>
<event>
 7    1  0.1978681E-015  0.9000773E+02  0.7816164E-02  0.1186339E+00
        -11   -1    0    0    0    0  0.00000000000E+00  0.00000000000E+00  0.45593999997E+02  0.45594000000E+02  0.51100000000E-03 0.  1.
         11   -1    0    0    0    0 -0.00000000000E+00 -0.00000000000E+00 -0.45593999997E+02  0.45594000000E+02  0.51100000000E-03 0. -1.
    9900012    2    1    2    0    0 -0.99590738739E+00  0.63317802721E+00  0.17016571879E-01  0.90007730750E+02  0.89999991996E+02 0.  0.
        -12    1    1    2    0    0  0.99590738739E+00 -0.63317802721E+00 -0.17016571879E-01  0.11802692498E+01  0.00000000000E+00 0.  1.
         11    1    3    3    0    0 -0.84065237624E+01 -0.28942329756E+01  0.74503758334E+00  0.89219564865E+01  0.51100000000E-03 0. -1.
        -11    1    3    3    0    0 -0.35831428457E+02  0.25226866937E+01  0.83773046350E+01  0.36884067653E+02  0.51100000000E-03 0.  1.
         12    1    3    3    0    0  0.43242044832E+02  0.10047243091E+01 -0.91053256465E+01  0.44201706611E+02  0.00000000000E+00 0. -1.
</event>
<event>
 7    1  0.1978681E-015  0.9000776E+02  0.7816164E-02  0.1186339E+00
        -11   -1    0    0    0    0  0.00000000000E+00  0.00000000000E+00  0.45593999997E+02  0.45594000000E+02  0.51100000000E-03 0. -1.
         11   -1    0    0    0    0 -0.00000000000E+00 -0.00000000000E+00 -0.45593999997E+02  0.45594000000E+02  0.51100000000E-03 0.  1.
    9900012    2    1    2    0    0  0.96370300251E+00  0.20747549096E+00  0.64900458950E+00  0.90007755740E+02  0.90000017316E+02 0.  0.
        -12    1    1    2    0    0 -0.96370300251E+00 -0.20747549096E+00 -0.64900458950E+00  0.11802442601E+01  0.00000000000E+00 0.  1.
         11    1    3    3    0    0 -0.61414790006E+01 -0.88009780819E-01  0.72197407623E+01  0.94789327971E+01  0.51100000000E-03 0. -1.
        -11    1    3    3    0    0  0.56678196425E+01 -0.28990983713E+02  0.24080360926E+02  0.38111220116E+02  0.51100000000E-03 0.  1.
         12    1    3    3    0    0  0.14373623606E+01  0.29286468985E+02 -0.30651097099E+02  0.42417602826E+02  0.00000000000E+00 0. -1.
</event>
<event>
 7    1  0.1978681E-015  0.9000779E+02  0.7816164E-02  0.1186339E+00
        -11   -1    0    0    0    0  0.00000000000E+00  0.00000000000E+00  0.45593999997E+02  0.45594000000E+02  0.51100000000E-03 0.  1.
         11   -1    0    0    0    0 -0.00000000000E+00 -0.00000000000E+00 -0.45593999997E+02  0.45594000000E+02  0.51100000000E-03 0. -1.
    9900012    2    1    2    0    0  0.67822094101E+00 -0.19213333827E+00 -0.94657700802E+00  0.90007785233E+02  0.90000047198E+02 0.  0.
        -12    1    1    2    0    0 -0.67822094101E+00  0.19213333827E+00  0.94657700802E+00  0.11802147672E+01  0.00000000000E+00 0.  1.
         11    1    3    3    0    0 -0.87519089040E+01  0.64188149463E+00  0.41433158949E+01  0.97043798454E+01  0.51100000000E-03 0. -1.
        -11    1    3    3    0    0 -0.35857079701E+01  0.11827627403E+02  0.34554500657E+02  0.36698277720E+02  0.51100000000E-03 0.  1.
         12    1    3    3    0    0  0.13015837815E+02 -0.12661642236E+02 -0.39644393560E+02  0.43605127668E+02  0.00000000000E+00 0. -1.
</event>
<event>
 7    1  0.1978681E-015  0.9000762E+02  0.7816164E-02  0.1186339E+00
        -11   -1    0    0    0    0  0.00000000000E+00  0.00000000000E+00  0.45593999997E+02  0.45594000000E+02  0.51100000000E-03 0. -1.
         11   -1    0    0    0    0 -0.00000000000E+00 -0.00000000000E+00 -0.45593999997E+02  0.45594000000E+02  0.51100000000E-03 0.  1.
    9900012    2    1    2    0    0 -0.88875521440E+00  0.63230090494E+00  0.45122573200E+00  0.90007620855E+02  0.89999880650E+02 0.  0.
        -12    1    1    2    0    0  0.88875521440E+00 -0.63230090494E+00 -0.45122573200E+00  0.11803791453E+01  0.00000000000E+00 0.  1.
         11    1    3    3    0    0  0.13063763572E+02  0.16105170037E+02  0.36107957847E+02  0.41639200769E+02  0.51100000000E-03 0. -1.
        -11    1    3    3    0    0 -0.70943652394E+01 -0.61449824775E+01  0.14503796918E+01  0.94970747765E+01  0.51100000000E-03 0.  1.
        -12    1    3    3    0    0 -0.68581535470E+01 -0.93278866548E+01 -0.37107111806E+02  0.38871345309E+02  0.00000000000E+00 0.  1.
</event>
<event>
 7    1  0.1978681E-015  0.9000777E+02  0.7816164E-02  0.1186339E+00
        -11   -1    0    0    0    0  0.00000000000E+00  0.00000000000E+00  0.45593999997E+02  0.45594000000E+02  0.51100000000E-03 0.  1.
         11   -1    0    0    0    0 -0.00000000000E+00 -0.00000000000E+00 -0.45593999997E+02  0.45594000000E+02  0.51100000000E-03 0. -1.
    9900012    2    1    2    0    0 -0.34713409620E+00 -0.88717194481E+00 -0.69668016634E+00  0.90007771465E+02  0.90000033248E+02 0.  0.
        -12    1    1    2    0    0  0.34713409620E+00  0.88717194481E+00  0.69668016634E+00  0.11802285349E+01  0.00000000000E+00 0.  1.
         11    1    3    3    0    0  0.32731316848E+02  0.15167900247E+02  0.54308852419E+01  0.36481485924E+02  0.51100000000E-03 0. -1.
        -11    1    3    3    0    0  0.33459345120E+01  0.76808768168E+01  0.33613601143E+01  0.90271750017E+01  0.51100000000E-03 0.  1.
        -12    1    3    3    0    0 -0.36424385456E+02 -0.23735949009E+02 -0.94889255225E+01  0.44499110539E+02  0.00000000000E+00 0.  1.
</event>
<event>
 7    1  0.1978681E-015  0.9000774E+02  0.7816164E-02  0.1186339E+00
        -11   -1    0    0    0    0  0.00000000000E+00  0.00000000000E+00  0.45593999997E+02  0.45594000000E+02  0.51100000000E-03 0. -1.
         11   -1    0    0    0    0 -0.00000000000E+00 -0.00000000000E+00 -0.45593999997E+02  0.45594000000E+02  0.51100000000E-03 0.  1.
    9900012    2    1    2    0    0  0.94113217717E+00 -0.31007157076E+00  0.64120213243E+00  0.90007739720E+02  0.90000001084E+02 0.  0.
        -12    1    1    2    0    0 -0.94113217717E+00  0.31007157076E+00 -0.64120213243E+00  0.11802602800E+01  0.00000000000E+00 0.  1.
         11    1    3    3    0    0 -0.13518878804E+02  0.34827023547E+02  0.56095274428E+01  0.37777618396E+02  0.51100000000E-03 0. -1.
        -11    1    3    3    0    0 -0.73675481543E+01  0.19829099937E+01 -0.50831752997E+01  0.91679533833E+01  0.51100000000E-03 0.  1.
        -12    1    3    3    0    0  0.21827559135E+02 -0.37120005111E+02  0.11484998929E+00  0.43062167941E+02  0.00000000000E+00 0.  1.
</event>
<event>
 7    1  0.1978681E-015  0.9000871E+02  0.7816164E-02  0.1186337E+00
        -11   -1    0    0    0    0  0.00000000000E+00  0.00000000000E+00  0.45593999997E+02  0.45594000000E+02  0.51100000000E-03 0. -1.
         11   -1    0    0    0    0 -0.00000000000E+00 -0.00000000000E+00 -0.45593999997E+02  0.45594000000E+02  0.51100000000E-03 0.  1.
    9900012    2    1    2    0    0 -0.47305111217E+00  0.10713319421E+01  0.13856206903E+00  0.90008708292E+02  0.90000982436E+02 0.  0.
        -12    1    1    2    0    0  0.47305111217E+00 -0.10713319421E+01 -0.13856206903E+00  0.11792917077E+01  0.00000000000E+00 0.  1.
         11    1    3    3    0    0  0.12242694074E+01 -0.60669856131E+00  0.12512768206E+02  0.12587147698E+02  0.51100000000E-03 0. -1.
        -11    1    3    3    0    0  0.25952626899E+02 -0.25380651616E+02 -0.13469976025E+02  0.38718943345E+02  0.51100000000E-03 0.  1.
         12    1    3    3    0    0 -0.27649947418E+02  0.27058682119E+02  0.10957698880E+01  0.38702617249E+02  0.00000000000E+00 0. -1.
</event>
<event>
 7    1  0.1978681E-015  0.9000753E+02  0.7816164E-02  0.1186339E+00
        -11   -1    0    0    0    0  0.00000000000E+00  0.00000000000E+00  0.45593999997E+02  0.45594000000E+02  0.51100000000E-03 0.  1.
         11   -1    0    0    0    0 -0.00000000000E+00 -0.00000000000E+00 -0.45593999997E+02  0.45594000000E+02  0.51100000000E-03 0. -1.
    9900012    2    1    2    0    0  0.55057257928E+00 -0.10441929573E+01  0.70855337340E-02  0.90007525815E+02  0.89999784355E+02 0.  0.
        -12    1    1    2    0    0 -0.55057257928E+00  0.10441929573E+01 -0.70855337340E-02  0.11804741852E+01  0.00000000000E+00 0.  1.
         11    1    3    3    0    0  0.80788414442E+01 -0.19345564757E+02 -0.30936419532E+02  0.37370852393E+02  0.51100000000E-03 0. -1.
        -11    1    3    3    0    0 -0.56584944282E+01  0.13018961449E+01 -0.81264607593E+01  0.99876352306E+01  0.51100000000E-03 0.  1.
        -12    1    3    3    0    0 -0.18697744368E+01  0.16999475655E+02  0.39069965825E+02  0.42649038191E+02  0.00000000000E+00 0.  1.
</event>
<event>
 7    1  0.1978681E-015  0.9000825E+02  0.7816164E-02  0.1186338E+00
        -11   -1    0    0    0    0  0.00000000000E+00  0.00000000000E+00  0.45593999997E+02  0.45594000000E+02  0.51100000000E-03 0.  1.
         11   -1    0    0    0    0 -0.00000000000E+00 -0.00000000000E+00 -0.45593999997E+02  0.45594000000E+02  0.51100000000E-03 0. -1.
    9900012    2    1    2    0    0  0.49988207696E-01  0.75556003794E+00 -0.90467411626E+00  0.90008252125E+02  0.90000520252E+02 0.  0.
        -12    1    1    2    0    0 -0.49988207696E-01 -0.75556003794E+00  0.90467411626E+00  0.11797478750E+01  0.00000000000E+00 0.  1.
         11    1    3    3    0    0 -0.20704919897E+02  0.26057774483E+01 -0.36110483939E+02  0.41706724093E+02  0.51100000000E-03 0. -1.
        -11    1    3    3    0    0  0.67013854595E+01  0.73869949519E+01  0.80040564353E+00  0.10005843840E+02  0.51100000000E-03 0.  1.
        -12    1    3    3    0    0  0.14053522645E+02 -0.92372123623E+01  0.34405404179E+02  0.38295684191E+02  0.00000000000E+00 0.  1.
</event>
<event>
 7    1  0.1978681E-015  0.9000774E+02  0.7816164E-02  0.1186339E+00
        -11   -1    0    0    0    0  0.00000000000E+00  0.00000000000E+00  0.45593999997E+02  0.45594000000E+02  0.51100000000E-03 0. -1.
         11   -1    0    0    0    0 -0.00000000000E+00 -0.00000000000E+00 -0.45593999997E+02  0.45594000000E+02  0.51100000000E-03 0.  1.
    9900012    2    1    2    0    0  0.11749084854E+01  0.42449826331E-01  0.10388784989E+00  0.90007743832E+02  0.90000005251E+02 0.  0.
        -12    1    1    2    0    0 -0.11749084854E+01 -0.42449826331E-01 -0.10388784989E+00  0.11802561680E+01  0.00000000000E+00 0.  1.
         11    1    3    3    0    0  0.48770996299E+01  0.50598948962E+01 -0.67790981868E+01  0.97644666853E+01  0.51100000000E-03 0. -1.
        -11    1    3    3    0    0  0.39735230009E+01 -0.14901171069E+02 -0.34082373767E+02  0.37409116350E+02  0.51100000000E-03 0.  1.
         12    1    3    3    0    0 -0.76757141454E+01  0.98837259990E+01  0.40965359804E+02  0.42834160796E+02  0.00000000000E+00 0. -1.
</event>
<event>
 7    1  0.1978681E-015  0.9000773E+02  0.7816164E-02  0.1186339E+00
        -11   -1    0    0    0    0  0.00000000000E+00  0.00000000000E+00  0.45593999997E+02  0.45594000000E+02  0.51100000000E-03 0. -1.
         11   -1    0    0    0    0 -0.00000000000E+00 -0.00000000000E+00 -0.45593999997E+02  0.45594000000E+02  0.51100000000E-03 0.  1.
    9900012    2    1    2    0    0 -0.65998615889E+00  0.47699029842E+00 -0.85436540554E+00  0.90007728116E+02  0.89999989327E+02 0.  0.
        -12    1    1    2    0    0  0.65998615889E+00 -0.47699029842E+00  0.85436540554E+00  0.11802718843E+01  0.00000000000E+00 0.  1.
         11    1    3    3    0    0 -0.14634750174E+02 -0.18016129315E+02  0.27557947164E+02  0.36030504858E+02  0.51100000000E-03 0. -1.
        -11    1    3    3    0    0 -0.79583699285E+01 -0.27128898624E+01  0.41324638445E+01  0.93687075422E+01  0.51100000000E-03 0.  1.
        -12    1    3    3    0    0  0.21933133943E+02  0.21206009476E+02 -0.32544776414E+02  0.44608515715E+02  0.00000000000E+00 0.  1.
</event>
<event>
 7    1  0.1978681E-015  0.9000772E+02  0.7816164E-02  0.1186339E+00
        -11   -1    0    0    0    0  0.00000000000E+00  0.00000000000E+00  0.45593999997E+02  0.45594000000E+02  0.51100000000E-03 0.  1.
         11   -1    0    0    0    0 -0.00000000000E+00 -0.00000000000E+00 -0.45593999997E+02  0.45594000000E+02  0.51100000000E-03 0. -1.
    9900012    2    1    2    0    0 -0.10026420766E+01 -0.20127271890E+00 -0.58929289528E+00  0.90007717001E+02  0.89999978065E+02 0.  0.
        -12    1    1    2    0    0  0.10026420766E+01  0.20127271890E+00  0.58929289528E+00  0.11802829989E+01  0.00000000000E+00 0.  1.
         11    1    3    3    0    0 -0.15765192076E+01  0.70015804957E+01 -0.63918769436E+01  0.96106000527E+01  0.51100000000E-03 0. -1.
        -11    1    3    3    0    0  0.82646952399E+01  0.27932345793E+02  0.26088119809E+02  0.39103850505E+02  0.51100000000E-03 0.  1.
         12    1    3    3    0    0 -0.76908181090E+01 -0.35135199007E+02 -0.20285535761E+02  0.41293266443E+02  0.00000000000E+00 0. -1.
</event>
<event>
 7    1  0.1978681E-015  0.9000774E+02  0.7816164E-02  0.1186339E+00
        -11   -1    0    0    0    0  0.00000000000E+00  0.00000000000E+00  0.45593999997E+02  0.45594000000E+02  0.51100000000E-03 0. -1.
         11   -1    0    0    0    0 -0.00000000000E+00 -0.00000000000E+00 -0.45593999997E+02  0.45594000000E+02  0.51100000000E-03 0.  1.
    9900012    2    1    2    0    0  0.14059750943E+00 -0.82713381500E+00  0.83011673637E+00  0.90007740790E+02  0.90000002168E+02 0.  0.
        -12    1    1    2    0    0 -0.14059750943E+00  0.82713381500E+00 -0.83011673637E+00  0.11802592103E+01  0.00000000000E+00 0.  1.
         11    1    3    3    0    0 -0.24836747093E+02 -0.29318951320E+02  0.62443892592E+01  0.38928875018E+02  0.51100000000E-03 0. -1.
        -11    1    3    3    0    0  0.82395555157E+00 -0.50505608393E+01 -0.81842648780E+01  0.96524224626E+01  0.51100000000E-03 0.  1.
        -12    1    3    3    0    0  0.24153389051E+02  0.33542378344E+02  0.27699923552E+01  0.41426443309E+02  0.00000000000E+00 0.  1.
</event>
<event>
 7    1  0.1978681E-015  0.9000773E+02  0.7816164E-02  0.1186339E+00
        -11   -1    0    0    0    0  0.00000000000E+00  0.00000000000E+00  0.45593999997E+02  0.45594000000E+02  0.51100000000E-03 0.  1.
         11   -1    0    0    0    0 -0.00000000000E+00 -0.00000000000E+00 -0.45593999997E+02  0.45594000000E+02  0.51100000000E-03 0. -1.
    9900012    2    1    2    0    0  0.70884364716E+00 -0.63160391247E+00 -0.70118317132E+00  0.90007728566E+02  0.89999989783E+02 0.  0.
        -12    1    1    2    0    0 -0.70884364716E+00  0.63160391247E+00  0.70118317132E+00  0.11802714341E+01  0.00000000000E+00 0.  1.
         11    1    3    3    0    0 -0.66917560994E+01 -0.56629212362E+01 -0.48485130583E+00  0.87797128467E+01  0.51100000000E-03 0. -1.
        -11    1    3    3    0    0 -0.35191516056E+02 -0.44079957958E+01  0.91075374566E+01  0.36617215460E+02  0.51100000000E-03 0.  1.
         12    1    3    3    0    0  0.42592115802E+02  0.94393131195E+01 -0.93238693221E+01  0.44610800260E+02  0.00000000000E+00 0. -1.
</event>
<event>
 7    1  0.1978681E-015  0.9000746E+02  0.7816164E-02  0.1186340E+00
        -11   -1    0    0    0    0  0.00000000000E+00  0.00000000000E+00  0.45593999997E+02  0.45594000000E+02  0.51100000000E-03 0.  1.
         11   -1    0    0    0    0 -0.00000000000E+00 -0.00000000000E+00 -0.45593999997E+02  0.45594000000E+02  0.51100000000E-03 0. -1.
    9900012    2    1    2    0    0 -0.25646114556E+00  0.11492983603E+01  0.83715894636E-01  0.90007463092E+02  0.89999720804E+02 0.  0.
        -12    1    1    2    0    0  0.25646114556E+00 -0.11492983603E+01 -0.83715894636E-01  0.11805369080E+01  0.00000000000E+00 0.  1.
         11    1    3    3    0    0  0.32765277417E+02  0.13870262537E+02 -0.16680133647E+02  0.39295985111E+02  0.51100000000E-03 0. -1.
        -11    1    3    3    0    0  0.35733762642E+01  0.47711253798E+01  0.66065078406E+01  0.88982358602E+01  0.51100000000E-03 0.  1.
        -12    1    3    3    0    0 -0.36595114827E+02 -0.17492089556E+02  0.10157341701E+02  0.41813242121E+02  0.00000000000E+00 0.  1.
</event>
<event>
 7    1  0.1978681E-015  0.9000781E+02  0.7816164E-02  0.1186339E+00
        -11   -1    0    0    0    0  0.00000000000E+00  0.00000000000E+00  0.45593999997E+02  0.45594000000E+02  0.51100000000E-03 0.  1.
         11   -1    0    0    0    0 -0.00000000000E+00 -0.00000000000E+00 -0.45593999997E+02  0.45594000000E+02  0.51100000000E-03 0. -1.
    9900012    2    1    2    0    0 -0.65131069445E+00  0.93838747576E-01  0.97970925899E+00  0.90007812912E+02  0.90000075242E+02 0.  0.
        -12    1    1    2    0    0  0.65131069445E+00 -0.93838747576E-01 -0.97970925899E+00  0.11801870883E+01  0.00000000000E+00 0.  1.
         11    1    3    3    0    0  0.20764074829E+01 -0.52251569921E+01  0.77611269946E+01  0.95837793231E+01  0.51100000000E-03 0. -1.
        -11    1    3    3    0    0  0.35456282011E+02  0.17900967753E+02 -0.63149499628E+01  0.40217796730E+02  0.51100000000E-03 0.  1.
         12    1    3    3    0    0 -0.38184000188E+02 -0.12581972013E+02 -0.46646777282E+00  0.40206236858E+02  0.00000000000E+00 0. -1.
</event>
<event>
 7    1  0.1978681E-015  0.9000776E+02  0.7816164E-02  0.1186339E+00
        -11   -1    0    0    0    0  0.00000000000E+00  0.00000000000E+00  0.45593999997E+02  0.45594000000E+02  0.51100000000E-03 0.  1.
         11   -1    0    0    0    0 -0.00000000000E+00 -0.00000000000E+00 -0.45593999997E+02  0.45594000000E+02  0.51100000000E-03 0. -1.
    9900012    2    1    2    0    0  0.10704318037E+01 -0.39818330681E+00  0.29764123000E+00  0.90007760832E+02  0.90000022475E+02 0.  0.
        -12    1    1    2    0    0 -0.10704318037E+01  0.39818330681E+00 -0.29764123000E+00  0.11802391681E+01  0.00000000000E+00 0.  1.
         11    1    3    3    0    0 -0.92444277313E+01 -0.22490257391E+01 -0.35827900587E+02  0.37069610486E+02  0.51100000000E-03 0. -1.
        -11    1    3    3    0    0  0.84231757973E+01  0.70428561659E+01 -0.45528597184E+01  0.11886136688E+02  0.51100000000E-03 0.  1.
        -12    1    3    3    0    0  0.18916837376E+01 -0.51920137336E+01  0.40678401535E+02  0.41052013658E+02  0.00000000000E+00 0.  1.
</event>
<event>
 7    1  0.1978681E-015  0.9000783E+02  0.7816164E-02  0.1186339E+00
        -11   -1    0    0    0    0  0.00000000000E+00  0.00000000000E+00  0.45593999997E+02  0.45594000000E+02  0.51100000000E-03 0. -1.
         11   -1    0    0    0    0 -0.00000000000E+00 -0.00000000000E+00 -0.45593999997E+02  0.45594000000E+02  0.51100000000E-03 0.  1.
    9900012    2    1    2    0    0 -0.68053318438E+00  0.85907649110E+00  0.43780318360E+00  0.90007826513E+02  0.90000089023E+02 0.  0.
        -12    1    1    2    0    0  0.68053318438E+00 -0.85907649110E+00 -0.43780318360E+00  0.11801734873E+01  0.00000000000E+00 0.  1.
         11    1    3    3    0    0 -0.67535428325E+01 -0.28762378244E+01 -0.10077022858E+01  0.74093555031E+01  0.51100000000E-03 0. -1.
        -11    1    3    3    0    0  0.96891134292E+01 -0.28921797313E+02 -0.25772846357E+02  0.39932303821E+02  0.51100000000E-03 0.  1.
         12    1    3    3    0    0 -0.36161037811E+01  0.32657111628E+02  0.27218351826E+02  0.42666167189E+02  0.00000000000E+00 0. -1.
</event>
<event>
 7    1  0.1978681E-015  0.9000766E+02  0.7816164E-02  0.1186339E+00
        -11   -1    0    0    0    0  0.00000000000E+00  0.00000000000E+00  0.45593999997E+02  0.45594000000E+02  0.51100000000E-03 0.  1.
         11   -1    0    0    0    0 -0.00000000000E+00 -0.00000000000E+00 -0.45593999997E+02  0.45594000000E+02  0.51100000000E-03 0. -1.
    9900012    2    1    2    0    0  0.10149695552E+01  0.57503570386E+00 -0.17995255026E+00  0.90007655907E+02  0.89999916164E+02 0.  0.
        -12    1    1    2    0    0 -0.10149695552E+01 -0.57503570386E+00  0.17995255026E+00  0.11803440935E+01  0.00000000000E+00 0.  1.
         11    1    3    3    0    0 -0.11118243196E+02 -0.63283140585E+00 -0.62709722676E+01  0.12780489067E+02  0.51100000000E-03 0. -1.
        -11    1    3    3    0    0  0.11393680042E+01 -0.90739820819E+01  0.39520615174E+02  0.40564939717E+02  0.51100000000E-03 0.  1.
         12    1    3    3    0    0  0.10993844747E+02  0.10281849192E+02 -0.33429595457E+02  0.36662227122E+02  0.00000000000E+00 0. -1.
</event>
<event>
 7    1  0.1978681E-015  0.9000762E+02  0.7816164E-02  0.1186339E+00
        -11   -1    0    0    0    0  0.00000000000E+00  0.00000000000E+00  0.45593999997E+02  0.45594000000E+02  0.51100000000E-03 0.  1.
         11   -1    0    0    0    0 -0.00000000000E+00 -0.00000000000E+00 -0.45593999997E+02  0.45594000000E+02  0.51100000000E-03 0. -1.
    9900012    2    1    2    0    0 -0.68246934312E+00  0.95138065754E+00  0.14971005500E+00  0.90007617579E+02  0.89999877331E+02 0.  0.
        -12    1    1    2    0    0  0.68246934312E+00 -0.95138065754E+00 -0.14971005500E+00  0.11803824213E+01  0.00000000000E+00 0.  1.
         11    1    3    3    0    0 -0.77104699469E+01 -0.78560112179E+00 -0.72298302769E+01  0.10599007596E+02  0.51100000000E-03 0. -1.
        -11    1    3    3    0    0 -0.10114901863E+02 -0.16960748166E+02 -0.28983568662E+02  0.35071718958E+02  0.51100000000E-03 0.  1.
         12    1    3    3    0    0  0.17142902466E+02  0.18697729945E+02  0.36363108994E+02  0.44336891025E+02  0.00000000000E+00 0. -1.
</event>
<event>
 7    1  0.1978681E-015  0.9000771E+02  0.7816164E-02  0.1186339E+00
        -11   -1    0    0    0    0  0.00000000000E+00  0.00000000000E+00  0.45593999997E+02  0.45594000000E+02  0.51100000000E-03 0.  1.
         11   -1    0    0    0    0 -0.00000000000E+00 -0.00000000000E+00 -0.45593999997E+02  0.45594000000E+02  0.51100000000E-03 0. -1.
    9900012    2    1    2    0    0  0.97884495099E-01 -0.10397962713E+01 -0.54984121066E+00  0.90007710621E+02  0.89999971602E+02 0.  0.
        -12    1    1    2    0    0 -0.97884495099E-01  0.10397962713E+01  0.54984121066E+00  0.11802893785E+01  0.00000000000E+00 0.  1.
         11    1    3    3    0    0  0.62872357225E+01  0.74428825569E+01 -0.61696646381E+00  0.97625038625E+01  0.51100000000E-03 0. -1.
        -11    1    3    3    0    0 -0.15218720431E+00 -0.22479343103E+02  0.35303489398E+02  0.41853081024E+02  0.51100000000E-03 0.  1.
         12    1    3    3    0    0 -0.60371640231E+01  0.13996664274E+02 -0.35236364145E+02  0.38392125735E+02  0.00000000000E+00 0. -1.
</event>
<event>
 7    1  0.1978681E-015  0.9000776E+02  0.7816164E-02  0.1186339E+00
        -11   -1    0    0    0    0  0.00000000000E+00  0.00000000000E+00  0.45593999997E+02  0.45594000000E+02  0.51100000000E-03 0. -1.
         11   -1    0    0    0    0 -0.00000000000E+00 -0.00000000000E+00 -0.45593999997E+02  0.45594000000E+02  0.51100000000E-03 0.  1.
    9900012    2    1    2    0    0  0.26500310597E+00  0.11078957534E+01  0.30870900895E+00  0.90007762355E+02  0.90000024018E+02 0.  0.
        -12    1    1    2    0    0 -0.26500310597E+00 -0.11078957534E+01 -0.30870900895E+00  0.11802376451E+01  0.00000000000E+00 0.  1.
         11    1    3    3    0    0 -0.10515873377E+02  0.21175103455E+00 -0.91536236713E+00  0.10557761122E+02  0.51100000000E-03 0. -1.
        -11    1    3    3    0    0 -0.75893295550E+01 -0.36582623851E+02 -0.30888080168E+01  0.37489025410E+02  0.51100000000E-03 0.  1.
         12    1    3    3    0    0  0.18370206038E+02  0.37478768570E+02  0.43128793928E+01  0.41960975824E+02  0.00000000000E+00 0. -1.
</event>
<event>
 7    1  0.1978681E-015  0.9000779E+02  0.7816164E-02  0.1186339E+00
        -11   -1    0    0    0    0  0.00000000000E+00  0.00000000000E+00  0.45593999997E+02  0.45594000000E+02  0.51100000000E-03 0.  1.
         11   -1    0    0    0    0 -0.00000000000E+00 -0.00000000000E+00 -0.45593999997E+02  0.45594000000E+02  0.51100000000E-03 0. -1.
    9900012    2    1    2    0    0 -0.10713735961E+01 -0.37348158638E+00  0.32489941876E+00  0.90007792599E+02  0.90000054661E+02 0.  0.
        -12    1    1    2    0    0  0.10713735961E+01  0.37348158638E+00 -0.32489941876E+00  0.11802074013E+01  0.00000000000E+00 0.  1.
         11    1    3    3    0    0  0.75044433875E+01  0.50830283754E+01 -0.40400559267E+02  0.41404819012E+02  0.51100000000E-03 0. -1.
        -11    1    3    3    0    0  0.54581445034E+01  0.58376404822E+01  0.83826739706E+01  0.11581822438E+02  0.51100000000E-03 0.  1.
        -12    1    3    3    0    0 -0.14033961487E+02 -0.11294150444E+02  0.32342784716E+02  0.37021151149E+02  0.00000000000E+00 0.  1.
</event>
<event>
 7    1  0.1978681E-015  0.9000778E+02  0.7816164E-02  0.1186339E+00
        -11   -1    0    0    0    0  0.00000000000E+00  0.00000000000E+00  0.45593999997E+02  0.45594000000E+02  0.51100000000E-03 0.  1.
         11   -1    0    0    0    0 -0.00000000000E+00 -0.00000000000E+00 -0.45593999997E+02  0.45594000000E+02  0.51100000000E-03 0. -1.
    9900012    2    1    2    0    0 -0.24438409888E+00 -0.75285250581E+00 -0.87544543540E+00  0.90007781718E+02  0.90000043636E+02 0.  0.
        -12    1    1    2    0    0  0.24438409888E+00  0.75285250581E+00  0.87544543540E+00  0.11802182822E+01  0.00000000000E+00 0.  1.
         11    1    3    3    0    0 -0.34408347967E+02  0.43414290091E+01  0.71451738103E+01  0.35409545672E+02  0.51100000000E-03 0. -1.
        -11    1    3    3    0    0 -0.72838865104E+01 -0.86913119431E+00  0.71652017721E+01  0.10254292195E+02  0.51100000000E-03 0.  1.
        -12    1    3    3    0    0  0.41447850379E+02 -0.42251503206E+01 -0.15185821018E+02  0.44343943851E+02  0.00000000000E+00 0.  1.
</event>
<event>
 7    1  0.1978681E-015  0.9000776E+02  0.7816164E-02  0.1186339E+00
        -11   -1    0    0    0    0  0.00000000000E+00  0.00000000000E+00  0.45593999997E+02  0.45594000000E+02  0.51100000000E-03 0. -1.
         11   -1    0    0    0    0 -0.00000000000E+00 -0.00000000000E+00 -0.45593999997E+02  0.45594000000E+02  0.51100000000E-03 0.  1.
    9900012    2    1    2    0    0  0.48102129579E+00 -0.95776511981E+00 -0.49424646699E+00  0.90007756346E+02  0.90000017930E+02 0.  0.
        -12    1    1    2    0    0 -0.48102129579E+00  0.95776511981E+00  0.49424646699E+00  0.11802436536E+01  0.00000000000E+00 0.  1.
         11    1    3    3    0    0  0.67859264301E+01  0.26975782824E+01 -0.69072914032E+01  0.10051686470E+02  0.51100000000E-03 0. -1.
        -11    1    3    3    0    0 -0.64909982923E+01  0.15345504277E+01 -0.36310515779E+02  0.36918037058E+02  0.51100000000E-03 0.  1.
         12    1    3    3    0    0  0.18609315803E+00 -0.51898938299E+01  0.42723560715E+02  0.43038032818E+02  0.00000000000E+00 0. -1.
</event>
<event>
 7    1  0.3209421E-015  0.9000777E+02  0.7816164E-02  0.1186339E+00
        -11   -1    0    0    0    0  0.00000000000E+00  0.00000000000E+00  0.45593999997E+02  0.45594000000E+02  0.51100000000E-03 0.  1.
         11   -1    0    0    0    0 -0.00000000000E+00 -0.00000000000E+00 -0.45593999997E+02  0.45594000000E+02  0.51100000000E-03 0. -1.
    9900012    2    1    2    0    0 -0.68117823393E+00  0.90963418539E+00 -0.31860802089E+00  0.90007767307E+02  0.90000029036E+02 0.  0.
        -12    1    1    2    0    0  0.68117823393E+00 -0.90963418539E+00  0.31860802089E+00  0.11802326926E+01  0.00000000000E+00 0.  1.
         11    1    3    3    0    0 -0.19243799655E+01 -0.77135799866E+01  0.47329901098E+01  0.92522294665E+01  0.51100000000E-03 0. -1.
        -11    1    3    3    0    0 -0.64373619098E+00 -0.35675754783E+02 -0.70500839062E+01  0.36371383792E+02  0.51100000000E-03 0.  1.
         12    1    3    3    0    0  0.18869379225E+01  0.44298968955E+02  0.19984857755E+01  0.44384154049E+02  0.00000000000E+00 0. -1.
</event>
<event>
 7    1  0.1978681E-015  0.9000773E+02  0.7816164E-02  0.1186339E+00
        -11   -1    0    0    0    0  0.00000000000E+00  0.00000000000E+00  0.45593999997E+02  0.45594000000E+02  0.51100000000E-03 0.  1.
         11   -1    0    0    0    0 -0.00000000000E+00 -0.00000000000E+00 -0.45593999997E+02  0.45594000000E+02  0.51100000000E-03 0. -1.
    9900012    2    1    2    0    0 -0.41145507340E+00  0.10762605385E+01 -0.25574008130E+00  0.90007730957E+02  0.89999992206E+02 0.  0.
        -12    1    1    2    0    0  0.41145507340E+00 -0.10762605385E+01  0.25574008130E+00  0.11802690428E+01  0.00000000000E+00 0.  1.
         11    1    3    3    0    0  0.33602072965E+02  0.22899663302E+02 -0.14807202864E+02  0.43275248628E+02  0.51100000000E-03 0. -1.
        -11    1    3    3    0    0 -0.21353906316E+01 -0.37479426904E+00 -0.36281169663E+01  0.42265348544E+01  0.51100000000E-03 0.  1.
        -12    1    3    3    0    0 -0.31878137407E+02 -0.21448608494E+02  0.18179579749E+02  0.42505947475E+02  0.00000000000E+00 0.  1.
</event>
<event>
 7    1  0.1978681E-015  0.9000777E+02  0.7816164E-02  0.1186339E+00
        -11   -1    0    0    0    0  0.00000000000E+00  0.00000000000E+00  0.45593999997E+02  0.45594000000E+02  0.51100000000E-03 0.  1.
         11   -1    0    0    0    0 -0.00000000000E+00 -0.00000000000E+00 -0.45593999997E+02  0.45594000000E+02  0.51100000000E-03 0. -1.
    9900012    2    1    2    0    0 -0.10564002055E+01  0.22645277847E+00 -0.47505274074E+00  0.90007772326E+02  0.90000034121E+02 0.  0.
        -12    1    1    2    0    0  0.10564002055E+01 -0.22645277847E+00  0.47505274074E+00  0.11802276736E+01  0.00000000000E+00 0.  1.
         11    1    3    3    0    0  0.29923487773E+02  0.11329398491E+02 -0.16547811385E+02  0.36022221650E+02  0.51100000000E-03 0. -1.
        -11    1    3    3    0    0  0.66663000555E+01  0.66082415218E+01  0.59020281554E-02  0.93866100130E+01  0.51100000000E-03 0.  1.
        -12    1    3    3    0    0 -0.37646188034E+02 -0.17711187234E+02  0.16066856617E+02  0.44598940663E+02  0.00000000000E+00 0.  1.
</event>
<event>
 7    1  0.1978681E-015  0.9000768E+02  0.7816164E-02  0.1186339E+00
        -11   -1    0    0    0    0  0.00000000000E+00  0.00000000000E+00  0.45593999997E+02  0.45594000000E+02  0.51100000000E-03 0.  1.
         11   -1    0    0    0    0 -0.00000000000E+00 -0.00000000000E+00 -0.45593999997E+02  0.45594000000E+02  0.51100000000E-03 0. -1.
    9900012    2    1    2    0    0 -0.97069623529E+00 -0.19869858333E+00 -0.64142263134E+00  0.90007680001E+02  0.89999940577E+02 0.  0.
        -12    1    1    2    0    0  0.97069623529E+00  0.19869858333E+00  0.64142263134E+00  0.11803199991E+01  0.00000000000E+00 0.  1.
         11    1    3    3    0    0 -0.40731124452E+00 -0.42499031236E+01 -0.77953543874E-01  0.42700885267E+01  0.51100000000E-03 0. -1.
        -11    1    3    3    0    0  0.28814254532E+02 -0.21652183945E+02 -0.20961160300E+02  0.41694706801E+02  0.51100000000E-03 0.  1.
         12    1    3    3    0    0 -0.29377639523E+02  0.25703388486E+02  0.20397691212E+02  0.44042884673E+02  0.00000000000E+00 0. -1.
</event>
<event>
 7    1  0.1978681E-015  0.9000739E+02  0.7816164E-02  0.1186340E+00
        -11   -1    0    0    0    0  0.00000000000E+00  0.00000000000E+00  0.45593999997E+02  0.45594000000E+02  0.51100000000E-03 0. -1.
         11   -1    0    0    0    0 -0.00000000000E+00 -0.00000000000E+00 -0.45593999997E+02  0.45594000000E+02  0.51100000000E-03 0.  1.
    9900012    2    1    2    0    0  0.12969048852E+00 -0.11682462911E+01 -0.11056201337E+00  0.90007388727E+02  0.89999645457E+02 0.  0.
        -12    1    1    2    0    0 -0.12969048852E+00  0.11682462911E+01  0.11056201337E+00  0.11806112732E+01  0.00000000000E+00 0.  1.
         11    1    3    3    0    0 -0.63144937328E+01 -0.22377662648E+02  0.35497483389E+02  0.42434702119E+02  0.51100000000E-03 0. -1.
        -11    1    3    3    0    0 -0.65937590397E+01  0.79338930695E+01 -0.43505216786E+01  0.11196042008E+02  0.51100000000E-03 0.  1.
        -12    1    3    3    0    0  0.13037943261E+02  0.13275523288E+02 -0.31257523724E+02  0.36376644600E+02  0.00000000000E+00 0.  1.
</event>
<event>
 7    1  0.1978681E-015  0.9000769E+02  0.7816164E-02  0.1186339E+00
        -11   -1    0    0    0    0  0.00000000000E+00  0.00000000000E+00  0.45593999997E+02  0.45594000000E+02  0.51100000000E-03 0.  1.
         11   -1    0    0    0    0 -0.00000000000E+00 -0.00000000000E+00 -0.45593999997E+02  0.45594000000E+02  0.51100000000E-03 0. -1.
    9900012    2    1    2    0    0 -0.42102996896E-01 -0.11522381975E+01 -0.25238099831E+00  0.90007694237E+02  0.89999955001E+02 0.  0.
        -12    1    1    2    0    0  0.42102996896E-01  0.11522381975E+01  0.25238099831E+00  0.11803057631E+01  0.00000000000E+00 0.  1.
         11    1    3    3    0    0  0.20350671325E+02  0.34395290916E+01 -0.31044882875E+02  0.37279551187E+02  0.51100000000E-03 0. -1.
        -11    1    3    3    0    0  0.51819918161E+01 -0.41820920880E+01 -0.52864180798E+01  0.85023026170E+01  0.51100000000E-03 0.  1.
        -12    1    3    3    0    0 -0.25574766138E+02 -0.40967520108E+00  0.36078919956E+02  0.44225840433E+02  0.00000000000E+00 0.  1.
</event>
<event>
 7    1  0.1978681E-015  0.9000777E+02  0.7816164E-02  0.1186339E+00
        -11   -1    0    0    0    0  0.00000000000E+00  0.00000000000E+00  0.45593999997E+02  0.45594000000E+02  0.51100000000E-03 0.  1.
         11   -1    0    0    0    0 -0.00000000000E+00 -0.00000000000E+00 -0.45593999997E+02  0.45594000000E+02  0.51100000000E-03 0. -1.
    9900012    2    1    2    0    0  0.80661044336E+00  0.85770008243E+00 -0.81722821537E-01  0.90007767625E+02  0.90000029358E+02 0.  0.
        -12    1    1    2    0    0 -0.80661044336E+00 -0.85770008243E+00  0.81722821537E-01  0.11802323747E+01  0.00000000000E+00 0.  1.
         11    1    3    3    0    0  0.36880799894E+02  0.21774035216E+02 -0.50424622864E+00  0.42831720429E+02  0.51100000000E-03 0. -1.
        -11    1    3    3    0    0 -0.10343250757E+01 -0.86260614463E+01 -0.43877684577E+01  0.97329993700E+01  0.51100000000E-03 0.  1.
        -12    1    3    3    0    0 -0.35039864375E+02 -0.12290273687E+02  0.48102918648E+01  0.37443047826E+02  0.00000000000E+00 0.  1.
</event>
<event>
 7    1  0.1978681E-015  0.9000780E+02  0.7816164E-02  0.1186339E+00
        -11   -1    0    0    0    0  0.00000000000E+00  0.00000000000E+00  0.45593999997E+02  0.45594000000E+02  0.51100000000E-03 0. -1.
         11   -1    0    0    0    0 -0.00000000000E+00 -0.00000000000E+00 -0.45593999997E+02  0.45594000000E+02  0.51100000000E-03 0.  1.
    9900012    2    1    2    0    0  0.21892842210E+00  0.11409041275E+01  0.20805064719E+00  0.90007797918E+02  0.90000060051E+02 0.  0.
        -12    1    1    2    0    0 -0.21892842210E+00 -0.11409041275E+01 -0.20805064719E+00  0.11802020819E+01  0.00000000000E+00 0.  1.
         11    1    3    3    0    0 -0.41479697299E+01 -0.36687187864E+02  0.11195447812E+02  0.38580998669E+02  0.51100000000E-03 0. -1.
        -11    1    3    3    0    0 -0.12715175310E+01 -0.31577924280E+01  0.58431660683E+01  0.67624699491E+01  0.51100000000E-03 0.  1.
        -12    1    3    3    0    0  0.56384156830E+01  0.40985884420E+02 -0.16830563233E+02  0.44664329300E+02  0.00000000000E+00 0.  1.
</event>
<event>
 7    1  0.1978681E-015  0.9000758E+02  0.7816164E-02  0.1186339E+00
        -11   -1    0    0    0    0  0.00000000000E+00  0.00000000000E+00  0.45593999997E+02  0.45594000000E+02  0.51100000000E-03 0.  1.
         11   -1    0    0    0    0 -0.00000000000E+00 -0.00000000000E+00 -0.45593999997E+02  0.45594000000E+02  0.51100000000E-03 0. -1.
    9900012    2    1    2    0    0 -0.35166744090E+00  0.10419330746E+01 -0.42906644526E+00  0.90007579509E+02  0.89999838758E+02 0.  0.
        -12    1    1    2    0    0  0.35166744090E+00 -0.10419330746E+01  0.42906644526E+00  0.11804204909E+01  0.00000000000E+00 0.  1.
         11    1    3    3    0    0 -0.13679418378E+00  0.99871674935E+01  0.17214634542E+01  0.10135366983E+02  0.51100000000E-03 0. -1.
        -11    1    3    3    0    0  0.10075174838E+02  0.26863959029E+02  0.21401632060E+02  0.35794012039E+02  0.51100000000E-03 0.  1.
         12    1    3    3    0    0 -0.10290048095E+02 -0.35809193448E+02 -0.23552161960E+02  0.44078200487E+02  0.00000000000E+00 0. -1.
</event>
<event>
 7    1  0.2092871E-015  0.9000756E+02  0.7816164E-02  0.1186339E+00
        -11   -1    0    0    0    0  0.00000000000E+00  0.00000000000E+00  0.45593999997E+02  0.45594000000E+02  0.51100000000E-03 0.  1.
         11   -1    0    0    0    0 -0.00000000000E+00 -0.00000000000E+00 -0.45593999997E+02  0.45594000000E+02  0.51100000000E-03 0. -1.
    9900012    2    1    2    0    0  0.10696325084E+01  0.29032791890E+00 -0.40623804970E+00  0.90007562218E+02  0.89999821239E+02 0.  0.
        -12    1    1    2    0    0 -0.10696325084E+01 -0.29032791890E+00  0.40623804970E+00  0.11804377818E+01  0.00000000000E+00 0.  1.
         11    1    3    3    0    0  0.31266026577E+01  0.79025993019E+01  0.48085075560E+01  0.97646538640E+01  0.51100000000E-03 0. -1.
        -11    1    3    3    0    0 -0.14110606596E+02  0.26064866823E+01  0.34572681459E+02  0.37432249396E+02  0.51100000000E-03 0.  1.
         12    1    3    3    0    0  0.12053636447E+02 -0.10218758065E+02 -0.39787427065E+02  0.42810658958E+02  0.00000000000E+00 0. -1.
</event>
<event>
 7    1  0.1978681E-015  0.9000773E+02  0.7816164E-02  0.1186339E+00
        -11   -1    0    0    0    0  0.00000000000E+00  0.00000000000E+00  0.45593999997E+02  0.45594000000E+02  0.51100000000E-03 0. -1.
         11   -1    0    0    0    0 -0.00000000000E+00 -0.00000000000E+00 -0.45593999997E+02  0.45594000000E+02  0.51100000000E-03 0.  1.
    9900012    2    1    2    0    0 -0.39996659884E+00 -0.10008363171E+01 -0.48103063726E+00  0.90007730078E+02  0.89999991315E+02 0.  0.
        -12    1    1    2    0    0  0.39996659884E+00  0.10008363171E+01  0.48103063726E+00  0.11802699216E+01  0.00000000000E+00 0.  1.
         11    1    3    3    0    0  0.31505866640E+02 -0.14094313467E+02  0.82083172084E+01  0.35477398108E+02  0.51100000000E-03 0. -1.
        -11    1    3    3    0    0  0.49324972873E+01 -0.76263923859E+01  0.46580977794E+01  0.10207314314E+02  0.51100000000E-03 0.  1.
        -12    1    3    3    0    0 -0.36838330526E+02  0.20719869535E+02 -0.13347445625E+02  0.44323017657E+02  0.00000000000E+00 0.  1.
</event>
<event>
 7    1  0.1978681E-015  0.9000785E+02  0.7816164E-02  0.1186339E+00
        -11   -1    0    0    0    0  0.00000000000E+00  0.00000000000E+00  0.45593999997E+02  0.45594000000E+02  0.51100000000E-03 0.  1.
         11   -1    0    0    0    0 -0.00000000000E+00 -0.00000000000E+00 -0.45593999997E+02  0.45594000000E+02  0.51100000000E-03 0. -1.
    9900012    2    1    2    0    0  0.89499589229E+00 -0.76135972276E+00  0.10981872370E+00  0.90007853218E+02  0.90000116081E+02 0.  0.
        -12    1    1    2    0    0 -0.89499589229E+00  0.76135972276E+00 -0.10981872370E+00  0.11801467819E+01  0.00000000000E+00 0.  1.
         11    1    3    3    0    0 -0.35257154282E+01  0.51789434223E+01 -0.69843344564E+01  0.93825930484E+01  0.51100000000E-03 0. -1.
        -11    1    3    3    0    0  0.24559397855E+02  0.28188221196E+02 -0.79785382909E+01  0.38228221391E+02  0.51100000000E-03 0.  1.
         12    1    3    3    0    0 -0.20138686535E+02 -0.34128524341E+02  0.15072691471E+02  0.42397038779E+02  0.00000000000E+00 0. -1.
</event>
<event>
 7    1  0.1978681E-015  0.9000769E+02  0.7816164E-02  0.1186339E+00
        -11   -1    0    0    0    0  0.00000000000E+00  0.00000000000E+00  0.45593999997E+02  0.45594000000E+02  0.51100000000E-03 0.  1.
         11   -1    0    0    0    0 -0.00000000000E+00 -0.00000000000E+00 -0.45593999997E+02  0.45594000000E+02  0.51100000000E-03 0. -1.
    9900012    2    1    2    0    0 -0.37055017694E+00 -0.12428815088E+00 -0.11137191570E+01  0.90007692693E+02  0.89999953437E+02 0.  0.
        -12    1    1    2    0    0  0.37055017694E+00  0.12428815088E+00  0.11137191570E+01  0.11803073069E+01  0.00000000000E+00 0.  1.
         11    1    3    3    0    0 -0.78741753437E+01  0.38136570861E+01  0.12007558460E+02  0.14856920211E+02  0.51100000000E-03 0. -1.
        -11    1    3    3    0    0  0.24818206745E+02  0.16648582341E+02  0.17308762668E+02  0.34535661936E+02  0.51100000000E-03 0.  1.
         12    1    3    3    0    0 -0.17314581578E+02 -0.20586527578E+02 -0.30430040285E+02  0.40615110546E+02  0.00000000000E+00 0. -1.
</event>
<event>
 7    1  0.1978681E-015  0.9000772E+02  0.7816164E-02  0.1186339E+00
        -11   -1    0    0    0    0  0.00000000000E+00  0.00000000000E+00  0.45593999997E+02  0.45594000000E+02  0.51100000000E-03 0.  1.
         11   -1    0    0    0    0 -0.00000000000E+00 -0.00000000000E+00 -0.45593999997E+02  0.45594000000E+02  0.51100000000E-03 0. -1.
    9900012    2    1    2    0    0  0.59014420574E-01  0.61956145056E+00 -0.10028548469E+01  0.90007721670E+02  0.89999982796E+02 0.  0.
        -12    1    1    2    0    0 -0.59014420574E-01 -0.61956145056E+00  0.10028548469E+01  0.11802783302E+01  0.00000000000E+00 0.  1.
         11    1    3    3    0    0  0.30526282897E+01  0.81480843981E+01  0.58093971827E+01  0.10462261454E+02  0.51100000000E-03 0. -1.
        -11    1    3    3    0    0  0.23296134102E+02 -0.31616725597E+02 -0.16497515490E+02  0.42596892131E+02  0.51100000000E-03 0.  1.
         12    1    3    3    0    0 -0.26289747971E+02  0.24088202650E+02  0.96852634602E+01  0.36948568086E+02  0.00000000000E+00 0. -1.
</event>
<event>
 7    1  0.1978681E-015  0.9000775E+02  0.7816164E-02  0.1186339E+00
        -11   -1    0    0    0    0  0.00000000000E+00  0.00000000000E+00  0.45593999997E+02  0.45594000000E+02  0.51100000000E-03 0. -1.
         11   -1    0    0    0    0 -0.00000000000E+00 -0.00000000000E+00 -0.45593999997E+02  0.45594000000E+02  0.51100000000E-03 0.  1.
    9900012    2    1    2    0    0  0.10337458564E+01  0.31697602130E+00  0.47317212566E+00  0.90007747419E+02  0.90000008885E+02 0.  0.
        -12    1    1    2    0    0 -0.10337458564E+01 -0.31697602130E+00 -0.47317212566E+00  0.11802525807E+01  0.00000000000E+00 0.  1.
         11    1    3    3    0    0 -0.34405760091E+02 -0.48030040960E+01 -0.21257649900E+02  0.40727298650E+02  0.51100000000E-03 0. -1.
        -11    1    3    3    0    0  0.35540022777E+01  0.87878131293E+01 -0.15834859924E+01  0.96106201639E+01  0.51100000000E-03 0.  1.
        -12    1    3    3    0    0  0.31885503670E+02 -0.36678330120E+01  0.23314308018E+02  0.39669828606E+02  0.00000000000E+00 0.  1.
</event>
<event>
 7    1  0.1978681E-015  0.9000785E+02  0.7816164E-02  0.1186339E+00
        -11   -1    0    0    0    0  0.00000000000E+00  0.00000000000E+00  0.45593999997E+02  0.45594000000E+02  0.51100000000E-03 0. -1.
         11   -1    0    0    0    0 -0.00000000000E+00 -0.00000000000E+00 -0.45593999997E+02  0.45594000000E+02  0.51100000000E-03 0.  1.
    9900012    2    1    2    0    0  0.14136130669E+00 -0.10071625385E+01  0.59866866926E+00  0.90007845954E+02  0.90000108720E+02 0.  0.
        -12    1    1    2    0    0 -0.14136130669E+00  0.10071625385E+01 -0.59866866926E+00  0.11801540465E+01  0.00000000000E+00 0.  1.
         11    1    3    3    0    0 -0.12883685256E+02 -0.33949656014E+02 -0.24840114561E+02  0.43995451821E+02  0.51100000000E-03 0. -1.
        -11    1    3    3    0    0  0.60523834586E+01  0.21519408830E+01  0.67836267506E+01  0.93423651848E+01  0.51100000000E-03 0.  1.
        -12    1    3    3    0    0  0.69726631043E+01  0.30790552593E+02  0.18655156480E+02  0.36670028948E+02  0.00000000000E+00 0.  1.
</event>
<event>
 7    1  0.1978681E-015  0.9000788E+02  0.7816164E-02  0.1186339E+00
        -11   -1    0    0    0    0  0.00000000000E+00  0.00000000000E+00  0.45593999997E+02  0.45594000000E+02  0.51100000000E-03 0.  1.
         11   -1    0    0    0    0 -0.00000000000E+00 -0.00000000000E+00 -0.45593999997E+02  0.45594000000E+02  0.51100000000E-03 0. -1.
    9900012    2    1    2    0    0 -0.68678872064E-01 -0.11765865411E+01  0.60105281677E-01  0.90007879107E+02  0.90000142312E+02 0.  0.
        -12    1    1    2    0    0  0.68678872064E-01  0.11765865411E+01 -0.60105281677E-01  0.11801208926E+01  0.00000000000E+00 0.  1.
         11    1    3    3    0    0 -0.85935272302E+01  0.32750865474E+01 -0.35364431119E+00  0.92032584832E+01  0.51100000000E-03 0. -1.
        -11    1    3    3    0    0 -0.33443093781E+01  0.34963979459E+02 -0.13088221114E+02  0.37482873382E+02  0.51100000000E-03 0.  1.
         12    1    3    3    0    0  0.11869157736E+02 -0.39415652547E+02  0.13501970707E+02  0.43321747242E+02  0.00000000000E+00 0. -1.
</event>
<event>
 7    1  0.1978681E-015  0.9000773E+02  0.7816164E-02  0.1186339E+00
        -11   -1    0    0    0    0  0.00000000000E+00  0.00000000000E+00  0.45593999997E+02  0.45594000000E+02  0.51100000000E-03 0.  1.
         11   -1    0    0    0    0 -0.00000000000E+00 -0.00000000000E+00 -0.45593999997E+02  0.45594000000E+02  0.51100000000E-03 0. -1.
    9900012    2    1    2    0    0 -0.49678596052E+00 -0.68636097173E+00 -0.82167136230E+00  0.90007732445E+02  0.89999993713E+02 0.  0.
        -12    1    1    2    0    0  0.49678596052E+00  0.68636097173E+00  0.82167136230E+00  0.11802675551E+01  0.00000000000E+00 0.  1.
         11    1    3    3    0    0  0.10687718173E+02  0.26655570567E+02 -0.24559485655E+02  0.37787763865E+02  0.51100000000E-03 0. -1.
        -11    1    3    3    0    0 -0.12229854979E+02  0.29825531511E+01 -0.15996884085E+01  0.12689522424E+02  0.51100000000E-03 0.  1.
        -12    1    3    3    0    0  0.10453508447E+01 -0.30324484690E+02  0.25337502701E+02  0.39530446155E+02  0.00000000000E+00 0.  1.
</event>
<event>
 7    1  0.1978681E-015  0.9000774E+02  0.7816164E-02  0.1186339E+00
        -11   -1    0    0    0    0  0.00000000000E+00  0.00000000000E+00  0.45593999997E+02  0.45594000000E+02  0.51100000000E-03 0.  1.
         11   -1    0    0    0    0 -0.00000000000E+00 -0.00000000000E+00 -0.45593999997E+02  0.45594000000E+02  0.51100000000E-03 0. -1.
    9900012    2    1    2    0    0 -0.67738159141E+00  0.32043632904E+00 -0.91186022608E+00  0.90007739718E+02  0.90000001082E+02 0.  0.
        -12    1    1    2    0    0  0.67738159141E+00 -0.32043632904E+00  0.91186022608E+00  0.11802602820E+01  0.00000000000E+00 0.  1.
         11    1    3    3    0    0  0.17631128302E+02 -0.18408751995E+02 -0.32787932832E+02  0.41530559530E+02  0.51100000000E-03 0. -1.
        -11    1    3    3    0    0 -0.81462383809E+01 -0.46122833002E+01  0.26728665225E+01  0.97354287377E+01  0.51100000000E-03 0.  1.
        -12    1    3    3    0    0 -0.10162271512E+02  0.23341471624E+02  0.29203206083E+02  0.38741751450E+02  0.00000000000E+00 0.  1.
</event>
<event>
 7    1  0.1978681E-015  0.9000788E+02  0.7816164E-02  0.1186339E+00
        -11   -1    0    0    0    0  0.00000000000E+00  0.00000000000E+00  0.45593999997E+02  0.45594000000E+02  0.51100000000E-03 0. -1.
         11   -1    0    0    0    0 -0.00000000000E+00 -0.00000000000E+00 -0.45593999997E+02  0.45594000000E+02  0.51100000000E-03 0.  1.
    9900012    2    1    2    0    0 -0.55071164985E+00  0.11025854874E-01  0.10436847776E+01  0.90007880173E+02  0.90000143391E+02 0.  0.
        -12    1    1    2    0    0  0.55071164985E+00 -0.11025854874E-01 -0.10436847776E+01  0.11801198268E+01  0.00000000000E+00 0.  1.
         11    1    3    3    0    0 -0.91235057305E+00 -0.22679780518E+02  0.33122665337E+02  0.40153652228E+02  0.51100000000E-03 0. -1.
        -11    1    3    3    0    0  0.33693240961E+01 -0.68602298211E+01 -0.27822643342E+01  0.81336396004E+01  0.51100000000E-03 0.  1.
        -12    1    3    3    0    0 -0.30076851729E+01  0.29551036194E+02 -0.29296716226E+02  0.41720588345E+02  0.00000000000E+00 0.  1.
</event>
<event>
 7    1  0.1978681E-015  0.9000820E+02  0.7816164E-02  0.1186338E+00
        -11   -1    0    0    0    0  0.00000000000E+00  0.00000000000E+00  0.45593999997E+02  0.45594000000E+02  0.51100000000E-03 0. -1.
         11   -1    0    0    0    0 -0.00000000000E+00 -0.00000000000E+00 -0.45593999997E+02  0.45594000000E+02  0.51100000000E-03 0.  1.
    9900012    2    1    2    0    0 -0.76158286987E+00  0.38994240972E+00  0.81232332529E+00  0.90008198010E+02  0.90000465423E+02 0.  0.
        -12    1    1    2    0    0  0.76158286987E+00 -0.38994240972E+00 -0.81232332529E+00  0.11798019899E+01  0.00000000000E+00 0.  1.
         11    1    3    3    0    0 -0.65654855439E+01  0.37628268498E+01  0.42923073431E+01  0.86999062591E+01  0.51100000000E-03 0. -1.
        -11    1    3    3    0    0 -0.22160046393E+02  0.30238610461E+02 -0.25370214718E+01  0.37574961038E+02  0.51100000000E-03 0.  1.
         12    1    3    3    0    0  0.27963949067E+02 -0.33611494901E+02 -0.94296254601E+00  0.43733330713E+02  0.00000000000E+00 0. -1.
</event>
<event>
 7    1  0.1978681E-015  0.9000778E+02  0.7816164E-02  0.1186339E+00
        -11   -1    0    0    0    0  0.00000000000E+00  0.00000000000E+00  0.45593999997E+02  0.45594000000E+02  0.51100000000E-03 0. -1.
         11   -1    0    0    0    0 -0.00000000000E+00 -0.00000000000E+00 -0.45593999997E+02  0.45594000000E+02  0.51100000000E-03 0.  1.
    9900012    2    1    2    0    0 -0.46305549542E+00 -0.99044944170E+00  0.44441499296E+00  0.90007781726E+02  0.90000043645E+02 0.  0.
        -12    1    1    2    0    0  0.46305549542E+00  0.99044944170E+00 -0.44441499296E+00  0.11802182740E+01  0.00000000000E+00 0.  1.
         11    1    3    3    0    0  0.57213055572E+01  0.11959076368E+02  0.59717583114E+01  0.14540108062E+02  0.51100000000E-03 0. -1.
        -11    1    3    3    0    0 -0.26626572038E+02  0.11738377305E+02  0.19305476511E+02  0.34920842828E+02  0.51100000000E-03 0.  1.
        -12    1    3    3    0    0  0.20442210985E+02 -0.24687903114E+02 -0.24832819830E+02  0.40546830836E+02  0.00000000000E+00 0.  1.
</event>
<event>
 7    1  0.2696689E-015  0.9000776E+02  0.7816164E-02  0.1186339E+00
        -11   -1    0    0    0    0  0.00000000000E+00  0.00000000000E+00  0.45593999997E+02  0.45594000000E+02  0.51100000000E-03 0.  1.
         11   -1    0    0    0    0 -0.00000000000E+00 -0.00000000000E+00 -0.45593999997E+02  0.45594000000E+02  0.51100000000E-03 0. -1.
    9900012    2    1    2    0    0  0.59160461765E+00  0.93629136355E+00 -0.40782254193E+00  0.90007764105E+02  0.90000025792E+02 0.  0.
        -12    1    1    2    0    0 -0.59160461765E+00 -0.93629136355E+00  0.40782254193E+00  0.11802358946E+01  0.00000000000E+00 0.  1.
         11    1    3    3    0    0 -0.79918315199E+01  0.52794843492E+01  0.17478239713E+01  0.97363861331E+01  0.51100000000E-03 0. -1.
        -11    1    3    3    0    0  0.28065392324E+02 -0.87667709306E+01  0.30261066836E+02  0.42193064420E+02  0.51100000000E-03 0.  1.
         12    1    3    3    0    0 -0.19481956186E+02  0.44235779449E+01 -0.32416713349E+02  0.38078313553E+02  0.00000000000E+00 0. -1.
</event>
<event>
 7    1  0.1978681E-015  0.9000775E+02  0.7816164E-02  0.1186339E+00
        -11   -1    0    0    0    0  0.00000000000E+00  0.00000000000E+00  0.45593999997E+02  0.45594000000E+02  0.51100000000E-03 0. -1.
         11   -1    0    0    0    0 -0.00000000000E+00 -0.00000000000E+00 -0.45593999997E+02  0.45594000000E+02  0.51100000000E-03 0.  1.
    9900012    2    1    2    0    0  0.56752227666E+00 -0.24744900856E+00  0.10048249474E+01  0.90007751839E+02  0.90000013363E+02 0.  0.
        -12    1    1    2    0    0 -0.56752227666E+00  0.24744900856E+00 -0.10048249474E+01  0.11802481609E+01  0.00000000000E+00 0.  1.
         11    1    3    3    0    0 -0.33328685369E+02 -0.16386951285E+02 -0.77988023896E+00  0.37147565927E+02  0.51100000000E-03 0. -1.
        -11    1    3    3    0    0 -0.45157398638E+01 -0.99011591581E+00 -0.83983477507E+01  0.95866824943E+01  0.51100000000E-03 0.  1.
        -12    1    3    3    0    0  0.38411947510E+02  0.17129618192E+02  0.10183052937E+02  0.43273503418E+02  0.00000000000E+00 0.  1.
</event>
<event>
 7    1  0.1978681E-015  0.9000781E+02  0.7816164E-02  0.1186339E+00
        -11   -1    0    0    0    0  0.00000000000E+00  0.00000000000E+00  0.45593999997E+02  0.45594000000E+02  0.51100000000E-03 0. -1.
         11   -1    0    0    0    0 -0.00000000000E+00 -0.00000000000E+00 -0.45593999997E+02  0.45594000000E+02  0.51100000000E-03 0.  1.
    9900012    2    1    2    0    0  0.70484894604E+00 -0.87691247188E+00  0.35646420822E+00  0.90007807536E+02  0.90000069796E+02 0.  0.
        -12    1    1    2    0    0 -0.70484894604E+00  0.87691247188E+00 -0.35646420822E+00  0.11801924639E+01  0.00000000000E+00 0.  1.
         11    1    3    3    0    0  0.24823485908E+01 -0.28594332823E+01  0.33886558857E+02  0.34097467423E+02  0.51100000000E-03 0. -1.
        -11    1    3    3    0    0 -0.24243571436E+01 -0.68825676951E+01  0.94959059861E+01  0.11975787089E+02  0.51100000000E-03 0.  1.
        -12    1    3    3    0    0  0.64685749886E+00  0.88650885055E+01 -0.43026000635E+02  0.43934553025E+02  0.00000000000E+00 0.  1.
</event>
<event>
 7    1  0.1978681E-015  0.9000771E+02  0.7816164E-02  0.1186339E+00
        -11   -1    0    0    0    0  0.00000000000E+00  0.00000000000E+00  0.45593999997E+02  0.45594000000E+02  0.51100000000E-03 0. -1.
         11   -1    0    0    0    0 -0.00000000000E+00 -0.00000000000E+00 -0.45593999997E+02  0.45594000000E+02  0.51100000000E-03 0.  1.
    9900012    2    1    2    0    0  0.30161070336E+00 -0.11376661674E+01  0.88434846106E-01  0.90007714421E+02  0.89999975452E+02 0.  0.
        -12    1    1    2    0    0 -0.30161070336E+00  0.11376661674E+01 -0.88434846106E-01  0.11802855785E+01  0.00000000000E+00 0.  1.
         11    1    3    3    0    0  0.24662344037E+01  0.40226483223E+01 -0.90527447044E+01  0.10208633533E+02  0.51100000000E-03 0. -1.
        -11    1    3    3    0    0 -0.40409937741E+02  0.15713033051E+01  0.47224878043E+01  0.40715279117E+02  0.51100000000E-03 0.  1.
         12    1    3    3    0    0  0.38245314040E+02 -0.67316177949E+01  0.44186917462E+01  0.39083801772E+02  0.00000000000E+00 0. -1.
</event>
<event>
 7    1  0.1978681E-015  0.9000779E+02  0.7816164E-02  0.1186339E+00
        -11   -1    0    0    0    0  0.00000000000E+00  0.00000000000E+00  0.45593999997E+02  0.45594000000E+02  0.51100000000E-03 0. -1.
         11   -1    0    0    0    0 -0.00000000000E+00 -0.00000000000E+00 -0.45593999997E+02  0.45594000000E+02  0.51100000000E-03 0.  1.
    9900012    2    1    2    0    0 -0.10911840131E+01 -0.33186951973E+00  0.30345404450E+00  0.90007786339E+02  0.90000048319E+02 0.  0.
        -12    1    1    2    0    0  0.10911840131E+01  0.33186951973E+00 -0.30345404450E+00  0.11802136610E+01  0.00000000000E+00 0.  1.
         11    1    3    3    0    0  0.19422362534E+02 -0.12873099226E+02  0.28221116636E+02  0.36597490003E+02  0.51100000000E-03 0. -1.
        -11    1    3    3    0    0  0.83481445088E+01  0.12437646862E+01  0.36274057043E+01  0.91867589355E+01  0.51100000000E-03 0.  1.
        -12    1    3    3    0    0 -0.28861691056E+02  0.11297465020E+02 -0.31545068296E+02  0.44223537401E+02  0.00000000000E+00 0.  1.
</event>
<event>
 7    1  0.1978681E-015  0.9000779E+02  0.7816164E-02  0.1186339E+00
        -11   -1    0    0    0    0  0.00000000000E+00  0.00000000000E+00  0.45593999997E+02  0.45594000000E+02  0.51100000000E-03 0.  1.
         11   -1    0    0    0    0 -0.00000000000E+00 -0.00000000000E+00 -0.45593999997E+02  0.45594000000E+02  0.51100000000E-03 0. -1.
    9900012    2    1    2    0    0 -0.85912229396E+00  0.38293636502E+00 -0.71285981947E+00  0.90007787944E+02  0.90000049945E+02 0.  0.
        -12    1    1    2    0    0  0.85912229396E+00 -0.38293636502E+00  0.71285981947E+00  0.11802120563E+01  0.00000000000E+00 0.  1.
         11    1    3    3    0    0  0.30374341211E+02  0.22453239807E+02  0.99237883599E+01  0.39054195133E+02  0.51100000000E-03 0. -1.
        -11    1    3    3    0    0 -0.47625338293E+00 -0.35277323560E+00  0.86357379315E+01  0.86560519941E+01  0.51100000000E-03 0.  1.
        -12    1    3    3    0    0 -0.30757210122E+02 -0.21717530206E+02 -0.19272386111E+02  0.42297540817E+02  0.00000000000E+00 0.  1.
</event>
<event>
 7    1  0.1978681E-015  0.9000777E+02  0.7816164E-02  0.1186339E+00
        -11   -1    0    0    0    0  0.00000000000E+00  0.00000000000E+00  0.45593999997E+02  0.45594000000E+02  0.51100000000E-03 0. -1.
         11   -1    0    0    0    0 -0.00000000000E+00 -0.00000000000E+00 -0.45593999997E+02  0.45594000000E+02  0.51100000000E-03 0.  1.
    9900012    2    1    2    0    0 -0.22467024929E+00 -0.90647019128E+00  0.72165647726E+00  0.90007765701E+02  0.90000027409E+02 0.  0.
        -12    1    1    2    0    0  0.22467024929E+00  0.90647019128E+00 -0.72165647726E+00  0.11802342987E+01  0.00000000000E+00 0.  1.
         11    1    3    3    0    0  0.52535209273E+01 -0.31259135338E+02  0.26332178330E+02  0.41208210833E+02  0.51100000000E-03 0. -1.
        -11    1    3    3    0    0 -0.23912275831E+01 -0.22402669571E+01  0.36396858530E+01  0.48973542615E+01  0.51100000000E-03 0.  1.
        -12    1    3    3    0    0 -0.30869635935E+01  0.32592932104E+02 -0.29250207705E+02  0.43902200607E+02  0.00000000000E+00 0.  1.
</event>
<event>
 7    1  0.1978681E-015  0.9000769E+02  0.7816164E-02  0.1186339E+00
        -11   -1    0    0    0    0  0.00000000000E+00  0.00000000000E+00  0.45593999997E+02  0.45594000000E+02  0.51100000000E-03 0. -1.
         11   -1    0    0    0    0 -0.00000000000E+00 -0.00000000000E+00 -0.45593999997E+02  0.45594000000E+02  0.51100000000E-03 0.  1.
    9900012    2    1    2    0    0 -0.10163687194E+01 -0.45370953487E-01 -0.59838746835E+00  0.90007690100E+02  0.89999950810E+02 0.  0.
        -12    1    1    2    0    0  0.10163687194E+01  0.45370953487E-01  0.59838746835E+00  0.11803098997E+01  0.00000000000E+00 0.  1.
         11    1    3    3    0    0 -0.94721289019E+01  0.34504137101E+01  0.61973230499E+00  0.10100032133E+02  0.51100000000E-03 0. -1.
        -11    1    3    3    0    0 -0.10160409864E+02 -0.18547261477E+02 -0.33561254051E+02  0.39668534264E+02  0.51100000000E-03 0.  1.
         12    1    3    3    0    0  0.18616170047E+02  0.15051476813E+02  0.32343134278E+02  0.40239123703E+02  0.00000000000E+00 0. -1.
</event>
<event>
 7    1  0.1978681E-015  0.9000806E+02  0.7816164E-02  0.1186338E+00
        -11   -1    0    0    0    0  0.00000000000E+00  0.00000000000E+00  0.45593999997E+02  0.45594000000E+02  0.51100000000E-03 0.  1.
         11   -1    0    0    0    0 -0.00000000000E+00 -0.00000000000E+00 -0.45593999997E+02  0.45594000000E+02  0.51100000000E-03 0. -1.
    9900012    2    1    2    0    0  0.30532138509E+00 -0.55721755639E-01 -0.11383924844E+01  0.90008057836E+02  0.90000323399E+02 0.  0.
        -12    1    1    2    0    0 -0.30532138509E+00  0.55721755639E-01  0.11383924844E+01  0.11799421642E+01  0.00000000000E+00 0.  1.
         11    1    3    3    0    0  0.24958862038E+02 -0.29414751695E+02 -0.11981926058E+02  0.40394788820E+02  0.51100000000E-03 0. -1.
        -11    1    3    3    0    0 -0.88196353466E+01 -0.50344211575E+01 -0.24979945254E+00  0.10158433150E+02  0.51100000000E-03 0.  1.
        -12    1    3    3    0    0 -0.15833905306E+02  0.34393451096E+02  0.11093333026E+02  0.39454835866E+02  0.00000000000E+00 0.  1.
</event>
<event>
 7    1  0.1978681E-015  0.9000791E+02  0.7816164E-02  0.1186339E+00
        -11   -1    0    0    0    0  0.00000000000E+00  0.00000000000E+00  0.45593999997E+02  0.45594000000E+02  0.51100000000E-03 0.  1.
         11   -1    0    0    0    0 -0.00000000000E+00 -0.00000000000E+00 -0.45593999997E+02  0.45594000000E+02  0.51100000000E-03 0. -1.
    9900012    2    1    2    0    0 -0.47380482896E+00  0.24310921382E+00 -0.10531032176E+01  0.90007906998E+02  0.90000170571E+02 0.  0.
        -12    1    1    2    0    0  0.47380482896E+00 -0.24310921382E+00  0.10531032176E+01  0.11800930017E+01  0.00000000000E+00 0.  1.
         11    1    3    3    0    0 -0.71787958192E+01 -0.44424243820E+01  0.33520896413E+01  0.90833225765E+01  0.51100000000E-03 0. -1.
        -11    1    3    3    0    0 -0.99833378574E+01 -0.14808537017E+02  0.31844719053E+02  0.36510901593E+02  0.51100000000E-03 0.  1.
         12    1    3    3    0    0  0.16688328848E+02  0.19494070613E+02 -0.36249911911E+02  0.44413682828E+02  0.00000000000E+00 0. -1.
</event>
<event>
 7    1  0.1978681E-015  0.9000766E+02  0.7816164E-02  0.1186339E+00
        -11   -1    0    0    0    0  0.00000000000E+00  0.00000000000E+00  0.45593999997E+02  0.45594000000E+02  0.51100000000E-03 0. -1.
         11   -1    0    0    0    0 -0.00000000000E+00 -0.00000000000E+00 -0.45593999997E+02  0.45594000000E+02  0.51100000000E-03 0.  1.
    9900012    2    1    2    0    0 -0.16630890305E+00 -0.70595229843E-04  0.11685648918E+01  0.90007659980E+02  0.89999920292E+02 0.  0.
        -12    1    1    2    0    0  0.16630890305E+00  0.70595229844E-04 -0.11685648918E+01  0.11803400199E+01  0.00000000000E+00 0.  1.
         11    1    3    3    0    0  0.64212953847E+01 -0.33278708521E+02  0.16589522198E+02  0.37734834335E+02  0.51100000000E-03 0. -1.
        -11    1    3    3    0    0 -0.88446930430E+01 -0.56436637824E+01 -0.42463237968E+00  0.10500468982E+02  0.51100000000E-03 0.  1.
        -12    1    3    3    0    0  0.22570887553E+01  0.38922301708E+02 -0.14996324927E+02  0.41772356664E+02  0.00000000000E+00 0.  1.
</event>
<event>
 7    1  0.1978681E-015  0.9000772E+02  0.7816164E-02  0.1186339E+00
        -11   -1    0    0    0    0  0.00000000000E+00  0.00000000000E+00  0.45593999997E+02  0.45594000000E+02  0.51100000000E-03 0.  1.
         11   -1    0    0    0    0 -0.00000000000E+00 -0.00000000000E+00 -0.45593999997E+02  0.45594000000E+02  0.51100000000E-03 0. -1.
    9900012    2    1    2    0    0  0.76621138745E+00 -0.63019104201E+00 -0.63941488832E+00  0.90007715272E+02  0.89999976314E+02 0.  0.
        -12    1    1    2    0    0 -0.76621138745E+00  0.63019104201E+00  0.63941488832E+00  0.11802847280E+01  0.00000000000E+00 0.  1.
         11    1    3    3    0    0  0.12609612536E+02 -0.34112538997E+02 -0.19184845143E+02  0.41118437817E+02  0.51100000000E-03 0. -1.
        -11    1    3    3    0    0  0.80777394598E+01  0.55448855998E+01 -0.18061632644E+00  0.97994006763E+01  0.51100000000E-03 0.  1.
        -12    1    3    3    0    0 -0.19921140609E+02  0.27937462355E+02  0.18726046581E+02  0.39089876778E+02  0.00000000000E+00 0.  1.
</event>
<event>
 7    1  0.1978681E-015  0.9000773E+02  0.7816164E-02  0.1186339E+00
        -11   -1    0    0    0    0  0.00000000000E+00  0.00000000000E+00  0.45593999997E+02  0.45594000000E+02  0.51100000000E-03 0.  1.
         11   -1    0    0    0    0 -0.00000000000E+00 -0.00000000000E+00 -0.45593999997E+02  0.45594000000E+02  0.51100000000E-03 0. -1.
    9900012    2    1    2    0    0 -0.11263929698E+01  0.10137320137E+00 -0.33763938661E+00  0.90007729690E+02  0.89999990922E+02 0.  0.
        -12    1    1    2    0    0  0.11263929698E+01 -0.10137320137E+00  0.33763938661E+00  0.11802703096E+01  0.00000000000E+00 0.  1.
         11    1    3    3    0    0 -0.10003722806E+02  0.46258970630E+01 -0.17510660876E+00  0.11022887834E+02  0.51100000000E-03 0. -1.
        -11    1    3    3    0    0  0.28919330268E+02  0.18334273252E+02  0.22582149973E+02  0.41017395535E+02  0.51100000000E-03 0.  1.
         12    1    3    3    0    0 -0.20042000431E+02 -0.22858797114E+02 -0.22744682750E+02  0.37967446322E+02  0.00000000000E+00 0. -1.
</event>
<event>
 7    1  0.2458237E-015  0.9000777E+02  0.7816164E-02  0.1186339E+00
        -11   -1    0    0    0    0  0.00000000000E+00  0.00000000000E+00  0.45593999997E+02  0.45594000000E+02  0.51100000000E-03 0. -1.
         11   -1    0    0    0    0 -0.00000000000E+00 -0.00000000000E+00 -0.45593999997E+02  0.45594000000E+02  0.51100000000E-03 0.  1.
    9900012    2    1    2    0    0  0.22071816057E+00  0.10330323267E+01  0.52637963341E+00  0.90007767899E+02  0.90000029635E+02 0.  0.
        -12    1    1    2    0    0 -0.22071816057E+00 -0.10330323267E+01 -0.52637963341E+00  0.11802321012E+01  0.00000000000E+00 0.  1.
         11    1    3    3    0    0  0.78632223852E+01  0.24500502909E+01 -0.37790998082E+01  0.90617111148E+01  0.51100000000E-03 0. -1.
        -11    1    3    3    0    0 -0.19024946625E+02 -0.13077236446E+02 -0.32978969349E+02  0.40256367530E+02  0.51100000000E-03 0.  1.
         12    1    3    3    0    0  0.11382442400E+02  0.11660218482E+02  0.37284448790E+02  0.40689689254E+02  0.00000000000E+00 0. -1.
</event>
<event>
 7    1  0.1978681E-015  0.9000770E+02  0.7816164E-02  0.1186339E+00
        -11   -1    0    0    0    0  0.00000000000E+00  0.00000000000E+00  0.45593999997E+02  0.45594000000E+02  0.51100000000E-03 0.  1.
         11   -1    0    0    0    0 -0.00000000000E+00 -0.00000000000E+00 -0.45593999997E+02  0.45594000000E+02  0.51100000000E-03 0. -1.
    9900012    2    1    2    0    0 -0.37332742173E+00 -0.64618981132E+00 -0.91442885170E+00  0.90007697174E+02  0.89999957977E+02 0.  0.
        -12    1    1    2    0    0  0.37332742173E+00  0.64618981132E+00  0.91442885170E+00  0.11803028259E+01  0.00000000000E+00 0.  1.
         11    1    3    3    0    0 -0.17370160676E+01 -0.73875727302E+01 -0.48934016958E+01  0.90298857180E+01  0.51100000000E-03 0. -1.
        -11    1    3    3    0    0 -0.36113209097E+02 -0.67402622438E+01 -0.11121315999E+02  0.38383312470E+02  0.51100000000E-03 0.  1.
         12    1    3    3    0    0  0.37476897743E+02  0.13481645163E+02  0.15100288843E+02  0.42594498986E+02  0.00000000000E+00 0. -1.
</event>
<event>
 7    1  0.1978681E-015  0.9000774E+02  0.7816164E-02  0.1186339E+00
        -11   -1    0    0    0    0  0.00000000000E+00  0.00000000000E+00  0.45593999997E+02  0.45594000000E+02  0.51100000000E-03 0. -1.
         11   -1    0    0    0    0 -0.00000000000E+00 -0.00000000000E+00 -0.45593999997E+02  0.45594000000E+02  0.51100000000E-03 0.  1.
    9900012    2    1    2    0    0  0.52252553623E+00 -0.99772514514E+00  0.35289005973E+00  0.90007737404E+02  0.89999998738E+02 0.  0.
        -12    1    1    2    0    0 -0.52252553623E+00  0.99772514514E+00 -0.35289005973E+00  0.11802625960E+01  0.00000000000E+00 0.  1.
         11    1    3    3    0    0  0.29812125737E+01  0.20832612887E+01 -0.96074567999E+01  0.10272820082E+02  0.51100000000E-03 0. -1.
        -11    1    3    3    0    0 -0.19760082623E+01 -0.33323196418E+02 -0.18533077743E+02  0.38181343600E+02  0.51100000000E-03 0.  1.
         12    1    3    3    0    0 -0.48267877522E+00  0.30242209984E+02  0.28493424603E+02  0.41553573723E+02  0.00000000000E+00 0. -1.
</event>
<event>
 7    1  0.1978681E-015  0.9000762E+02  0.7816164E-02  0.1186339E+00
        -11   -1    0    0    0    0  0.00000000000E+00  0.00000000000E+00  0.45593999997E+02  0.45594000000E+02  0.51100000000E-03 0.  1.
         11   -1    0    0    0    0 -0.00000000000E+00 -0.00000000000E+00 -0.45593999997E+02  0.45594000000E+02  0.51100000000E-03 0. -1.
    9900012    2    1    2    0    0  0.11265492489E+01  0.25216726475E+00 -0.24617178648E+00  0.90007617821E+02  0.89999877576E+02 0.  0.
        -12    1    1    2    0    0 -0.11265492489E+01 -0.25216726475E+00  0.24617178648E+00  0.11803821788E+01  0.00000000000E+00 0.  1.
         11    1    3    3    0    0 -0.22894740922E+02 -0.29170845909E+02 -0.14755497518E+02  0.39910300928E+02  0.51100000000E-03 0. -1.
        -11    1    3    3    0    0 -0.20681404789E+01  0.88776882131E+01 -0.61421533786E+01  0.10991660540E+02  0.51100000000E-03 0.  1.
        -12    1    3    3    0    0  0.26089430649E+02  0.20545324960E+02  0.20651479110E+02  0.39105656353E+02  0.00000000000E+00 0.  1.
</event>
<event>
 7    1  0.1978681E-015  0.9000779E+02  0.7816164E-02  0.1186339E+00
        -11   -1    0    0    0    0  0.00000000000E+00  0.00000000000E+00  0.45593999997E+02  0.45594000000E+02  0.51100000000E-03 0.  1.
         11   -1    0    0    0    0 -0.00000000000E+00 -0.00000000000E+00 -0.45593999997E+02  0.45594000000E+02  0.51100000000E-03 0. -1.
    9900012    2    1    2    0    0 -0.10777658773E+01 -0.47304342199E+00  0.86844847977E-01  0.90007791801E+02  0.90000053853E+02 0.  0.
        -12    1    1    2    0    0  0.10777658773E+01  0.47304342199E+00 -0.86844847977E-01  0.11802081990E+01  0.00000000000E+00 0.  1.
         11    1    3    3    0    0 -0.60024465636E+01 -0.46556864678E+01  0.73630210067E+01  0.10579171038E+02  0.51100000000E-03 0. -1.
        -11    1    3    3    0    0 -0.46692081739E+01 -0.29052308426E+02  0.19828438879E+02  0.35482462125E+02  0.51100000000E-03 0.  1.
         12    1    3    3    0    0  0.95938888602E+01  0.33234951471E+02 -0.27104615037E+02  0.43946158639E+02  0.00000000000E+00 0. -1.
</event>
<event>
 7    1  0.1978681E-015  0.9000776E+02  0.7816164E-02  0.1186339E+00
        -11   -1    0    0    0    0  0.00000000000E+00  0.00000000000E+00  0.45593999997E+02  0.45594000000E+02  0.51100000000E-03 0. -1.
         11   -1    0    0    0    0 -0.00000000000E+00 -0.00000000000E+00 -0.45593999997E+02  0.45594000000E+02  0.51100000000E-03 0.  1.
    9900012    2    1    2    0    0  0.77033742948E+00 -0.29423745078E+00  0.84438060166E+00  0.90007756791E+02  0.90000018380E+02 0.  0.
        -12    1    1    2    0    0 -0.77033742948E+00  0.29423745078E+00 -0.84438060166E+00  0.11802432093E+01  0.00000000000E+00 0.  1.
         11    1    3    3    0    0  0.16364585222E+02  0.30851232143E+02  0.12323037069E+02  0.37033166447E+02  0.51100000000E-03 0. -1.
        -11    1    3    3    0    0 -0.39360015924E+01  0.55422836568E+01  0.74430708509E+01  0.10080095268E+02  0.51100000000E-03 0.  1.
        -12    1    3    3    0    0 -0.11658246200E+02 -0.36687753251E+02 -0.18921727318E+02  0.42894495075E+02  0.00000000000E+00 0.  1.
</event>
<event>
 7    1  0.1978681E-015  0.9000771E+02  0.7816164E-02  0.1186339E+00
        -11   -1    0    0    0    0  0.00000000000E+00  0.00000000000E+00  0.45593999997E+02  0.45594000000E+02  0.51100000000E-03 0. -1.
         11   -1    0    0    0    0 -0.00000000000E+00 -0.00000000000E+00 -0.45593999997E+02  0.45594000000E+02  0.51100000000E-03 0.  1.
    9900012    2    1    2    0    0 -0.10858389371E+01 -0.31578138626E+00  0.33809612094E+00  0.90007714836E+02  0.89999975872E+02 0.  0.
        -12    1    1    2    0    0  0.10858389371E+01  0.31578138626E+00 -0.33809612094E+00  0.11802851640E+01  0.00000000000E+00 0.  1.
         11    1    3    3    0    0  0.31050216487E+02  0.59383866768E+01  0.17298217926E+02  0.36036214061E+02  0.51100000000E-03 0. -1.
        -11    1    3    3    0    0  0.68610063375E+01  0.67396939054E+01 -0.31020218192E+00  0.96225312448E+01  0.51100000000E-03 0.  1.
        -12    1    3    3    0    0 -0.38997061762E+02 -0.12993861968E+02 -0.16649919623E+02  0.44348969530E+02  0.00000000000E+00 0.  1.
</event>
<event>
 7    1  0.1978681E-015  0.9000775E+02  0.7816164E-02  0.1186339E+00
        -11   -1    0    0    0    0  0.00000000000E+00  0.00000000000E+00  0.45593999997E+02  0.45594000000E+02  0.51100000000E-03 0. -1.
         11   -1    0    0    0    0 -0.00000000000E+00 -0.00000000000E+00 -0.45593999997E+02  0.45594000000E+02  0.51100000000E-03 0.  1.
    9900012    2    1    2    0    0  0.74862677898E+00  0.55198807646E+00  0.72653600245E+00  0.90007751105E+02  0.90000012620E+02 0.  0.
        -12    1    1    2    0    0 -0.74862677898E+00 -0.55198807646E+00 -0.72653600245E+00  0.11802488948E+01  0.00000000000E+00 0.  1.
         11    1    3    3    0    0  0.40872864783E+01 -0.13653862470E+02  0.22023589027E+02  0.26233039187E+02  0.51100000000E-03 0. -1.
        -11    1    3    3    0    0  0.16791014299E+02 -0.10503074320E+02  0.71485798727E+01  0.21055995009E+02  0.51100000000E-03 0.  1.
        -12    1    3    3    0    0 -0.20129673999E+02  0.24708924867E+02 -0.28445632897E+02  0.42718716908E+02  0.00000000000E+00 0.  1.
</event>
<event>
 7    1  0.1978681E-015  0.9000779E+02  0.7816164E-02  0.1186339E+00
        -11   -1    0    0    0    0  0.00000000000E+00  0.00000000000E+00  0.45593999997E+02  0.45594000000E+02  0.51100000000E-03 0. -1.
         11   -1    0    0    0    0 -0.00000000000E+00 -0.00000000000E+00 -0.45593999997E+02  0.45594000000E+02  0.51100000000E-03 0.  1.
    9900012    2    1    2    0    0  0.11140926692E+01 -0.11447088741E+00  0.37227741702E+00  0.90007789623E+02  0.90000051646E+02 0.  0.
        -12    1    1    2    0    0 -0.11140926692E+01  0.11447088741E+00 -0.37227741702E+00  0.11802103774E+01  0.00000000000E+00 0.  1.
         11    1    3    3    0    0  0.12389269718E+02  0.32090773991E+02  0.18939247064E+02  0.39268395169E+02  0.51100000000E-03 0. -1.
        -11    1    3    3    0    0 -0.69918200623E+01  0.56946601295E+01 -0.25453993455E+01  0.93698324352E+01  0.51100000000E-03 0.  1.
        -12    1    3    3    0    0 -0.42833569868E+01 -0.37899905008E+02 -0.16021570301E+02  0.41369562019E+02  0.00000000000E+00 0.  1.
</event>
<event>
 7    1  0.1978681E-015  0.9000779E+02  0.7816164E-02  0.1186339E+00
        -11   -1    0    0    0    0  0.00000000000E+00  0.00000000000E+00  0.45593999997E+02  0.45594000000E+02  0.51100000000E-03 0.  1.
         11   -1    0    0    0    0 -0.00000000000E+00 -0.00000000000E+00 -0.45593999997E+02  0.45594000000E+02  0.51100000000E-03 0. -1.
    9900012    2    1    2    0    0  0.89817166766E+00 -0.70624487482E+00 -0.29562168355E+00  0.90007793939E+02  0.90000056018E+02 0.  0.
        -12    1    1    2    0    0 -0.89817166766E+00  0.70624487482E+00  0.29562168355E+00  0.11802060615E+01  0.00000000000E+00 0.  1.
         11    1    3    3    0    0  0.86512297369E+01 -0.57349656529E+01 -0.21419027085E+01  0.10598176941E+02  0.51100000000E-03 0. -1.
        -11    1    3    3    0    0 -0.11560750845E+01 -0.17256417547E+02  0.34930699322E+02  0.38977868227E+02  0.51100000000E-03 0.  1.
         12    1    3    3    0    0 -0.65969829846E+01  0.22285138325E+02 -0.33084418297E+02  0.40431748771E+02  0.00000000000E+00 0. -1.
</event>
<event>
 7    1  0.1978681E-015  0.9000778E+02  0.7816164E-02  0.1186339E+00
        -11   -1    0    0    0    0  0.00000000000E+00  0.00000000000E+00  0.45593999997E+02  0.45594000000E+02  0.51100000000E-03 0. -1.
         11   -1    0    0    0    0 -0.00000000000E+00 -0.00000000000E+00 -0.45593999997E+02  0.45594000000E+02  0.51100000000E-03 0.  1.
    9900012    2    1    2    0    0 -0.18185530596E+00  0.11649008515E+01  0.53457408951E-01  0.90007778393E+02  0.90000040268E+02 0.  0.
        -12    1    1    2    0    0  0.18185530596E+00 -0.11649008515E+01 -0.53457408951E-01  0.11802216066E+01  0.00000000000E+00 0.  1.
         11    1    3    3    0    0 -0.70743939558E+01  0.91881764287E+00  0.15041688557E+01  0.72906652585E+01  0.51100000000E-03 0. -1.
        -11    1    3    3    0    0  0.25111943077E+02 -0.31444763329E+01 -0.35708752886E+02  0.43767710124E+02  0.51100000000E-03 0.  1.
         12    1    3    3    0    0 -0.18219404427E+02  0.33905595415E+01  0.34258041439E+02  0.38949403011E+02  0.00000000000E+00 0. -1.
</event>
<event>
 7    1  0.1978681E-015  0.9000762E+02  0.7816164E-02  0.1186339E+00
        -11   -1    0    0    0    0  0.00000000000E+00  0.00000000000E+00  0.45593999997E+02  0.45594000000E+02  0.51100000000E-03 0.  1.
         11   -1    0    0    0    0 -0.00000000000E+00 -0.00000000000E+00 -0.45593999997E+02  0.45594000000E+02  0.51100000000E-03 0. -1.
    9900012    2    1    2    0    0  0.53279039160E+00  0.94299361052E+00 -0.46924155972E+00  0.90007622860E+02  0.89999882682E+02 0.  0.
        -12    1    1    2    0    0 -0.53279039160E+00 -0.94299361052E+00  0.46924155972E+00  0.11803771398E+01  0.00000000000E+00 0.  1.
         11    1    3    3    0    0 -0.56051708749E+01  0.48106522179E+01 -0.50503439925E+01  0.89479768665E+01  0.51100000000E-03 0. -1.
        -11    1    3    3    0    0 -0.19413899780E+02  0.14205260263E+02 -0.27298129807E+02  0.36385118043E+02  0.51100000000E-03 0.  1.
         12    1    3    3    0    0  0.25551861046E+02 -0.18072918870E+02  0.31879232239E+02  0.44674527951E+02  0.00000000000E+00 0. -1.
</event>
<event>
 7    1  0.1978681E-015  0.9000776E+02  0.7816164E-02  0.1186339E+00
        -11   -1    0    0    0    0  0.00000000000E+00  0.00000000000E+00  0.45593999997E+02  0.45594000000E+02  0.51100000000E-03 0.  1.
         11   -1    0    0    0    0 -0.00000000000E+00 -0.00000000000E+00 -0.45593999997E+02  0.45594000000E+02  0.51100000000E-03 0. -1.
    9900012    2    1    2    0    0  0.75679144085E-01  0.10605863418E+01 -0.51225087291E+00  0.90007757788E+02  0.90000019391E+02 0.  0.
        -12    1    1    2    0    0 -0.75679144085E-01 -0.10605863418E+01  0.51225087291E+00  0.11802422116E+01  0.00000000000E+00 0.  1.
         11    1    3    3    0    0 -0.20593670009E+02  0.28542060281E+02  0.14010921070E+02  0.37882111333E+02  0.51100000000E-03 0. -1.
        -11    1    3    3    0    0  0.37518212667E+01  0.34540642133E+01  0.85731964995E+01  0.99752905164E+01  0.51100000000E-03 0.  1.
        -12    1    3    3    0    0  0.16917527887E+02 -0.30935538152E+02 -0.23096368443E+02  0.42150355939E+02  0.00000000000E+00 0.  1.
</event>
<event>
 7    1  0.1978681E-015  0.9000773E+02  0.7816164E-02  0.1186339E+00
        -11   -1    0    0    0    0  0.00000000000E+00  0.00000000000E+00  0.45593999997E+02  0.45594000000E+02  0.51100000000E-03 0.  1.
         11   -1    0    0    0    0 -0.00000000000E+00 -0.00000000000E+00 -0.45593999997E+02  0.45594000000E+02  0.51100000000E-03 0. -1.
    9900012    2    1    2    0    0  0.42779624099E+00  0.10479192761E+01 -0.33448834048E+00  0.90007734402E+02  0.89999995696E+02 0.  0.
        -12    1    1    2    0    0 -0.42779624099E+00 -0.10479192761E+01  0.33448834048E+00  0.11802655985E+01  0.00000000000E+00 0.  1.
         11    1    3    3    0    0 -0.32336100858E+02 -0.17199439925E+02  0.52957390386E+01  0.37006607581E+02  0.51100000000E-03 0. -1.
        -11    1    3    3    0    0 -0.37405376050E-01 -0.74080387445E+01  0.62547683285E+01  0.96954919580E+01  0.51100000000E-03 0.  1.
        -12    1    3    3    0    0  0.32801302475E+02  0.25655397946E+02 -0.11884995708E+02  0.43305634862E+02  0.00000000000E+00 0.  1.
</event>
<event>
 7    1  0.1978681E-015  0.9000771E+02  0.7816164E-02  0.1186339E+00
        -11   -1    0    0    0    0  0.00000000000E+00  0.00000000000E+00  0.45593999997E+02  0.45594000000E+02  0.51100000000E-03 0.  1.
         11   -1    0    0    0    0 -0.00000000000E+00 -0.00000000000E+00 -0.45593999997E+02  0.45594000000E+02  0.51100000000E-03 0. -1.
    9900012    2    1    2    0    0 -0.17714495841E+00 -0.43732486489E+00  0.10818734738E+01  0.90007710380E+02  0.89999971357E+02 0.  0.
        -12    1    1    2    0    0  0.17714495841E+00  0.43732486489E+00 -0.10818734738E+01  0.11802896200E+01  0.00000000000E+00 0.  1.
         11    1    3    3    0    0  0.41801461089E+01 -0.36397468277E+01  0.78122118072E+01  0.95787281015E+01  0.51100000000E-03 0. -1.
        -11    1    3    3    0    0 -0.18182659423E+02  0.97915911461E+01  0.32392297098E+02  0.38415430134E+02  0.51100000000E-03 0.  1.
         12    1    3    3    0    0  0.13825368356E+02 -0.65891691832E+01 -0.39122635431E+02  0.42013552144E+02  0.00000000000E+00 0. -1.
</event>
<event>
 7    1  0.1978681E-015  0.9000780E+02  0.7816164E-02  0.1186339E+00
        -11   -1    0    0    0    0  0.00000000000E+00  0.00000000000E+00  0.45593999997E+02  0.45594000000E+02  0.51100000000E-03 0. -1.
         11   -1    0    0    0    0 -0.00000000000E+00 -0.00000000000E+00 -0.45593999997E+02  0.45594000000E+02  0.51100000000E-03 0.  1.
    9900012    2    1    2    0    0 -0.70277313996E-01  0.10094704791E+01  0.60736651735E+00  0.90007803561E+02  0.90000065768E+02 0.  0.
        -12    1    1    2    0    0  0.70277313996E-01 -0.10094704791E+01 -0.60736651735E+00  0.11801964393E+01  0.00000000000E+00 0.  1.
         11    1    3    3    0    0  0.23937734312E+02  0.27390764612E+02 -0.57066021594E+01  0.36821656922E+02  0.51100000000E-03 0. -1.
        -11    1    3    3    0    0  0.94325523227E+01  0.11282984855E+01  0.15011595374E+01  0.96176702486E+01  0.51100000000E-03 0.  1.
        -12    1    3    3    0    0 -0.33440563948E+02 -0.27509592618E+02  0.48128091394E+01  0.43568476391E+02  0.00000000000E+00 0.  1.
</event>
<event>
 7    1  0.1978681E-015  0.9000770E+02  0.7816164E-02  0.1186339E+00
        -11   -1    0    0    0    0  0.00000000000E+00  0.00000000000E+00  0.45593999997E+02  0.45594000000E+02  0.51100000000E-03 0.  1.
         11   -1    0    0    0    0 -0.00000000000E+00 -0.00000000000E+00 -0.45593999997E+02  0.45594000000E+02  0.51100000000E-03 0. -1.
    9900012    2    1    2    0    0 -0.89503240680E+00 -0.91759966409E-01 -0.76394178627E+00  0.90007699211E+02  0.89999960040E+02 0.  0.
        -12    1    1    2    0    0  0.89503240680E+00  0.91759966409E-01  0.76394178627E+00  0.11803007894E+01  0.00000000000E+00 0.  1.
         11    1    3    3    0    0  0.57314678583E+01  0.76413610246E+01 -0.18635522502E+01  0.97320578178E+01  0.51100000000E-03 0. -1.
        -11    1    3    3    0    0 -0.34369589010E+02  0.18766187598E+02  0.10959107694E+02  0.40663749057E+02  0.51100000000E-03 0.  1.
         12    1    3    3    0    0  0.27743088744E+02 -0.26499308589E+02 -0.98594972305E+01  0.39611892336E+02  0.00000000000E+00 0. -1.
</event>
<event>
 7    1  0.1978681E-015  0.9000776E+02  0.7816164E-02  0.1186339E+00
        -11   -1    0    0    0    0  0.00000000000E+00  0.00000000000E+00  0.45593999997E+02  0.45594000000E+02  0.51100000000E-03 0.  1.
         11   -1    0    0    0    0 -0.00000000000E+00 -0.00000000000E+00 -0.45593999997E+02  0.45594000000E+02  0.51100000000E-03 0. -1.
    9900012    2    1    2    0    0  0.48790548222E+00  0.57999756682E+00 -0.90471832351E+00  0.90007760964E+02  0.90000022609E+02 0.  0.
        -12    1    1    2    0    0 -0.48790548222E+00 -0.57999756682E+00  0.90471832351E+00  0.11802390360E+01  0.00000000000E+00 0.  1.
         11    1    3    3    0    0  0.32859904960E+02  0.31570961686E+01 -0.13213131752E+02  0.35557382653E+02  0.51100000000E-03 0. -1.
        -11    1    3    3    0    0  0.46812221683E+01  0.11083138592E+02  0.85933308851E+01  0.14784963239E+02  0.51100000000E-03 0.  1.
        -12    1    3    3    0    0 -0.37053221646E+02 -0.13660237193E+02  0.37150825435E+01  0.39665415072E+02  0.00000000000E+00 0.  1.
</event>
<event>
 7    1  0.1978681E-015  0.9000734E+02  0.7816164E-02  0.1186340E+00
        -11   -1    0    0    0    0  0.00000000000E+00  0.00000000000E+00  0.45593999997E+02  0.45594000000E+02  0.51100000000E-03 0. -1.
         11   -1    0    0    0    0 -0.00000000000E+00 -0.00000000000E+00 -0.45593999997E+02  0.45594000000E+02  0.51100000000E-03 0.  1.
    9900012    2    1    2    0    0  0.44397618005E+00  0.10847623402E+01  0.14185915194E+00  0.90007344164E+02  0.89999600306E+02 0.  0.
        -12    1    1    2    0    0 -0.44397618005E+00 -0.10847623402E+01 -0.14185915194E+00  0.11806558356E+01  0.00000000000E+00 0.  1.
         11    1    3    3    0    0 -0.45606770518E+01  0.41393966485E+01 -0.82619093331E+01  0.10305024302E+02  0.51100000000E-03 0. -1.
        -11    1    3    3    0    0 -0.10109969474E+02 -0.28608720674E+02 -0.21790726431E+02  0.37356473870E+02  0.51100000000E-03 0.  1.
         12    1    3    3    0    0  0.15114622706E+02  0.25554086366E+02  0.30194494916E+02  0.42345845992E+02  0.00000000000E+00 0. -1.
</event>
<event>
 7    1  0.1978681E-015  0.9000778E+02  0.7816164E-02  0.1186339E+00
        -11   -1    0    0    0    0  0.00000000000E+00  0.00000000000E+00  0.45593999997E+02  0.45594000000E+02  0.51100000000E-03 0.  1.
         11   -1    0    0    0    0 -0.00000000000E+00 -0.00000000000E+00 -0.45593999997E+02  0.45594000000E+02  0.51100000000E-03 0. -1.
    9900012    2    1    2    0    0  0.17310694253E+00 -0.90958605539E-01 -0.11639098674E+01  0.90007777283E+02  0.90000039143E+02 0.  0.
        -12    1    1    2    0    0 -0.17310694253E+00  0.90958605539E-01  0.11639098674E+01  0.11802227167E+01  0.00000000000E+00 0.  1.
         11    1    3    3    0    0  0.85120334701E+01  0.36723244458E+01  0.26521705892E+01  0.96423383951E+01  0.51100000000E-03 0. -1.
        -11    1    3    3    0    0  0.10253261002E+02  0.16238893202E+02  0.30786107040E+02  0.36285195336E+02  0.51100000000E-03 0.  1.
         12    1    3    3    0    0 -0.18592187530E+02 -0.20002176254E+02 -0.34602187497E+02  0.44080243552E+02  0.00000000000E+00 0. -1.
</event>
<event>
 7    1  0.1978681E-015  0.9000769E+02  0.7816164E-02  0.1186339E+00
        -11   -1    0    0    0    0  0.00000000000E+00  0.00000000000E+00  0.45593999997E+02  0.45594000000E+02  0.51100000000E-03 0.  1.
         11   -1    0    0    0    0 -0.00000000000E+00 -0.00000000000E+00 -0.45593999997E+02  0.45594000000E+02  0.51100000000E-03 0. -1.
    9900012    2    1    2    0    0 -0.20381435525E+00  0.10215129389E+01  0.55507650803E+00  0.90007686946E+02  0.89999947614E+02 0.  0.
        -12    1    1    2    0    0  0.20381435525E+00 -0.10215129389E+01 -0.55507650803E+00  0.11803130540E+01  0.00000000000E+00 0.  1.
         11    1    3    3    0    0 -0.21634151930E+02 -0.11932632192E+02 -0.34561747240E+02  0.42484569120E+02  0.51100000000E-03 0. -1.
        -11    1    3    3    0    0 -0.10655270111E+01  0.82921962446E+01  0.53653708040E+01  0.99339352975E+01  0.51100000000E-03 0.  1.
        -12    1    3    3    0    0  0.22495864586E+02  0.46619488860E+01  0.29751452944E+02  0.37589182529E+02  0.00000000000E+00 0.  1.
</event>
<event>
 7    1  0.1978681E-015  0.9000765E+02  0.7816164E-02  0.1186339E+00
        -11   -1    0    0    0    0  0.00000000000E+00  0.00000000000E+00  0.45593999997E+02  0.45594000000E+02  0.51100000000E-03 0. -1.
         11   -1    0    0    0    0 -0.00000000000E+00 -0.00000000000E+00 -0.45593999997E+02  0.45594000000E+02  0.51100000000E-03 0.  1.
    9900012    2    1    2    0    0 -0.23657160704E+00  0.11549568758E+01 -0.57826710748E-01  0.90007646054E+02  0.89999906181E+02 0.  0.
        -12    1    1    2    0    0  0.23657160704E+00 -0.11549568758E+01  0.57826710748E-01  0.11803539464E+01  0.00000000000E+00 0.  1.
         11    1    3    3    0    0 -0.74150984963E+01 -0.49058115475E+01  0.30080045306E+01  0.93860941912E+01  0.51100000000E-03 0. -1.
        -11    1    3    3    0    0  0.24092258139E+01  0.15617915198E+01 -0.41516619437E+02  0.41615781279E+02  0.51100000000E-03 0.  1.
         12    1    3    3    0    0  0.47693010753E+01  0.44989769035E+01  0.38450788195E+02  0.39005770583E+02  0.00000000000E+00 0. -1.
</event>
<event>
 7    1  0.1978681E-015  0.9000774E+02  0.7816164E-02  0.1186339E+00
        -11   -1    0    0    0    0  0.00000000000E+00  0.00000000000E+00  0.45593999997E+02  0.45594000000E+02  0.51100000000E-03 0. -1.
         11   -1    0    0    0    0 -0.00000000000E+00 -0.00000000000E+00 -0.45593999997E+02  0.45594000000E+02  0.51100000000E-03 0.  1.
    9900012    2    1    2    0    0  0.23725174697E-02  0.38550065546E+00  0.11155276714E+01  0.90007738008E+02  0.89999999350E+02 0.  0.
        -12    1    1    2    0    0 -0.23725174697E-02 -0.38550065546E+00 -0.11155276714E+01  0.11802619920E+01  0.00000000000E+00 0.  1.
         11    1    3    3    0    0  0.38331103243E+02  0.62193652648E+00  0.21890914123E+02  0.44146034956E+02  0.51100000000E-03 0. -1.
        -11    1    3    3    0    0 -0.86154000672E+01  0.32937124410E+01  0.35538914260E+00  0.92303825308E+01  0.51100000000E-03 0.  1.
        -12    1    3    3    0    0 -0.29713330659E+02 -0.35301483120E+01 -0.21130775594E+02  0.36631320522E+02  0.00000000000E+00 0.  1.
</event>
<event>
 7    1  0.1978681E-015  0.9000776E+02  0.7816164E-02  0.1186339E+00
        -11   -1    0    0    0    0  0.00000000000E+00  0.00000000000E+00  0.45593999997E+02  0.45594000000E+02  0.51100000000E-03 0.  1.
         11   -1    0    0    0    0 -0.00000000000E+00 -0.00000000000E+00 -0.45593999997E+02  0.45594000000E+02  0.51100000000E-03 0. -1.
    9900012    2    1    2    0    0 -0.53863354257E+00  0.10161015373E+01 -0.26528907747E+00  0.90007759888E+02  0.90000021519E+02 0.  0.
        -12    1    1    2    0    0  0.53863354257E+00 -0.10161015373E+01  0.26528907747E+00  0.11802401120E+01  0.00000000000E+00 0.  1.
         11    1    3    3    0    0 -0.10879700305E+01  0.70102511953E+01 -0.86483277843E+01  0.11185744246E+02  0.51100000000E-03 0. -1.
        -11    1    3    3    0    0  0.22364607138E+02  0.22746763181E+02  0.23581129160E+02  0.39669390471E+02  0.51100000000E-03 0.  1.
         12    1    3    3    0    0 -0.21815270651E+02 -0.28740912839E+02 -0.15198090453E+02  0.39152625171E+02  0.00000000000E+00 0. -1.
</event>
<event>
 7    1  0.1978681E-015  0.9000776E+02  0.7816164E-02  0.1186339E+00
        -11   -1    0    0    0    0  0.00000000000E+00  0.00000000000E+00  0.45593999997E+02  0.45594000000E+02  0.51100000000E-03 0.  1.
         11   -1    0    0    0    0 -0.00000000000E+00 -0.00000000000E+00 -0.45593999997E+02  0.45594000000E+02  0.51100000000E-03 0. -1.
    9900012    2    1    2    0    0 -0.91095099254E+00 -0.55702593528E+00 -0.50284696285E+00  0.90007760757E+02  0.90000022399E+02 0.  0.
        -12    1    1    2    0    0  0.91095099254E+00  0.55702593528E+00  0.50284696285E+00  0.11802392433E+01  0.00000000000E+00 0.  1.
         11    1    3    3    0    0 -0.19737196246E+02  0.25499718912E+02  0.16417257512E+02  0.36184512222E+02  0.51100000000E-03 0. -1.
        -11    1    3    3    0    0 -0.28328093944E+01  0.36682970918E+01  0.81058847512E+01  0.93373754599E+01  0.51100000000E-03 0.  1.
        -12    1    3    3    0    0  0.21659054647E+02 -0.29725041939E+02 -0.25025989226E+02  0.44485873075E+02  0.00000000000E+00 0.  1.
</event>
<event>
 7    1  0.1978681E-015  0.9000773E+02  0.7816164E-02  0.1186339E+00
        -11   -1    0    0    0    0  0.00000000000E+00  0.00000000000E+00  0.45593999997E+02  0.45594000000E+02  0.51100000000E-03 0.  1.
         11   -1    0    0    0    0 -0.00000000000E+00 -0.00000000000E+00 -0.45593999997E+02  0.45594000000E+02  0.51100000000E-03 0. -1.
    9900012    2    1    2    0    0  0.94260009972E+00 -0.24255269445E+00 -0.66762125438E+00  0.90007726770E+02  0.89999987964E+02 0.  0.
        -12    1    1    2    0    0 -0.94260009972E+00  0.24255269445E+00  0.66762125438E+00  0.11802732298E+01  0.00000000000E+00 0.  1.
         11    1    3    3    0    0  0.43973579295E+00 -0.21445236769E+01  0.11099540991E+02  0.11313362005E+02  0.51100000000E-03 0. -1.
        -11    1    3    3    0    0  0.36813634611E+02  0.12193932810E+02 -0.13089380526E+02  0.40930032659E+02  0.51100000000E-03 0.  1.
         12    1    3    3    0    0 -0.36310770304E+02 -0.10291961828E+02  0.13222182802E+01  0.37764332107E+02  0.00000000000E+00 0. -1.
</event>
<event>
 7    1  0.1978681E-015  0.9000783E+02  0.7816164E-02  0.1186339E+00
        -11   -1    0    0    0    0  0.00000000000E+00  0.00000000000E+00  0.45593999997E+02  0.45594000000E+02  0.51100000000E-03 0.  1.
         11   -1    0    0    0    0 -0.00000000000E+00 -0.00000000000E+00 -0.45593999997E+02  0.45594000000E+02  0.51100000000E-03 0. -1.
    9900012    2    1    2    0    0 -0.96027091489E+00  0.66157186348E+00 -0.18167471380E+00  0.90007829139E+02  0.90000091683E+02 0.  0.
        -12    1    1    2    0    0  0.96027091489E+00 -0.66157186348E+00  0.18167471380E+00  0.11801708614E+01  0.00000000000E+00 0.  1.
         11    1    3    3    0    0  0.24209947565E+02 -0.28259884394E+02 -0.99611227637E+01  0.38522286978E+02  0.51100000000E-03 0. -1.
        -11    1    3    3    0    0  0.38548299450E+00 -0.47268651448E+01  0.78713019477E+01  0.91896270789E+01  0.51100000000E-03 0.  1.
        -12    1    3    3    0    0 -0.25555701474E+02  0.33648321402E+02  0.19081461022E+01  0.42295915081E+02  0.00000000000E+00 0.  1.
</event>
<event>
 7    1  0.1978681E-015  0.9000773E+02  0.7816164E-02  0.1186339E+00
        -11   -1    0    0    0    0  0.00000000000E+00  0.00000000000E+00  0.45593999997E+02  0.45594000000E+02  0.51100000000E-03 0.  1.
         11   -1    0    0    0    0 -0.00000000000E+00 -0.00000000000E+00 -0.45593999997E+02  0.45594000000E+02  0.51100000000E-03 0. -1.
    9900012    2    1    2    0    0 -0.82262728280E+00  0.17946974434E+00 -0.82711047755E+00  0.90007730210E+02  0.89999991449E+02 0.  0.
        -12    1    1    2    0    0  0.82262728280E+00 -0.17946974434E+00  0.82711047755E+00  0.11802697902E+01  0.00000000000E+00 0.  1.
         11    1    3    3    0    0  0.83127990578E+01  0.23784702277E+01  0.10139999869E+01  0.87056272051E+01  0.51100000000E-03 0. -1.
        -11    1    3    3    0    0  0.27306478531E+02 -0.25931548609E+02  0.14836286598E+01  0.37686736888E+02  0.51100000000E-03 0.  1.
         12    1    3    3    0    0 -0.36441904872E+02  0.23732548126E+02 -0.33247391242E+01  0.43615366116E+02  0.00000000000E+00 0. -1.
</event>
<event>
 7    1  0.2408196E-015  0.9000772E+02  0.7816164E-02  0.1186339E+00
        -11   -1    0    0    0    0  0.00000000000E+00  0.00000000000E+00  0.45593999997E+02  0.45594000000E+02  0.51100000000E-03 0. -1.
         11   -1    0    0    0    0 -0.00000000000E+00 -0.00000000000E+00 -0.45593999997E+02  0.45594000000E+02  0.51100000000E-03 0.  1.
    9900012    2    1    2    0    0 -0.10928575093E+01  0.14573253452E+00 -0.42129518200E+00  0.90007718196E+02  0.89999979276E+02 0.  0.
        -12    1    1    2    0    0  0.10928575093E+01 -0.14573253452E+00  0.42129518200E+00  0.11802818043E+01  0.00000000000E+00 0.  1.
         11    1    3    3    0    0 -0.16440492273E+01  0.85874019325E+01  0.43426168564E+01  0.97624121627E+01  0.51100000000E-03 0. -1.
        -11    1    3    3    0    0  0.26623521779E+01  0.35756270485E+02 -0.20456379649E+01  0.35913557789E+02  0.51100000000E-03 0.  1.
         12    1    3    3    0    0 -0.21111604600E+01 -0.44197939883E+02 -0.27182740735E+01  0.44331748244E+02  0.00000000000E+00 0. -1.
</event>
<event>
 7    1  0.1978681E-015  0.9000790E+02  0.7816164E-02  0.1186339E+00
        -11   -1    0    0    0    0  0.00000000000E+00  0.00000000000E+00  0.45593999997E+02  0.45594000000E+02  0.51100000000E-03 0.  1.
         11   -1    0    0    0    0 -0.00000000000E+00 -0.00000000000E+00 -0.45593999997E+02  0.45594000000E+02  0.51100000000E-03 0. -1.
    9900012    2    1    2    0    0 -0.40104164000E+00 -0.10681042280E+01 -0.30157703475E+00  0.90007902654E+02  0.90000166169E+02 0.  0.
        -12    1    1    2    0    0  0.40104164000E+00  0.10681042280E+01  0.30157703475E+00  0.11800973464E+01  0.00000000000E+00 0.  1.
         11    1    3    3    0    0  0.29363962704E+01  0.12463901219E+02 -0.98210036520E+00  0.12842732499E+02  0.51100000000E-03 0. -1.
        -11    1    3    3    0    0 -0.19352619330E+02 -0.25212937041E+02  0.28712595878E+02  0.42832572086E+02  0.51100000000E-03 0.  1.
         12    1    3    3    0    0  0.16015181419E+02  0.11680931594E+02 -0.28032072548E+02  0.34332598069E+02  0.00000000000E+00 0. -1.
</event>
<event>
 7    1  0.1978681E-015  0.9000774E+02  0.7816164E-02  0.1186339E+00
        -11   -1    0    0    0    0  0.00000000000E+00  0.00000000000E+00  0.45593999997E+02  0.45594000000E+02  0.51100000000E-03 0.  1.
         11   -1    0    0    0    0 -0.00000000000E+00 -0.00000000000E+00 -0.45593999997E+02  0.45594000000E+02  0.51100000000E-03 0. -1.
    9900012    2    1    2    0    0 -0.75397599005E+00  0.20928920553E+00 -0.88358811303E+00  0.90007741673E+02  0.90000003063E+02 0.  0.
        -12    1    1    2    0    0  0.75397599005E+00 -0.20928920553E+00  0.88358811303E+00  0.11802583271E+01  0.00000000000E+00 0.  1.
         11    1    3    3    0    0  0.32796989078E+01  0.30682751599E+02  0.88089883642E+01  0.32090278074E+02  0.51100000000E-03 0. -1.
        -11    1    3    3    0    0  0.16630097923E+02 -0.22834848097E+01 -0.15064543297E+02  0.22554709593E+02  0.51100000000E-03 0.  1.
        -12    1    3    3    0    0 -0.20663772821E+02 -0.28189977584E+02  0.53719668193E+01  0.35362754006E+02  0.00000000000E+00 0.  1.
</event>
<event>
 7    1  0.1978681E-015  0.9000757E+02  0.7816164E-02  0.1186339E+00
        -11   -1    0    0    0    0  0.00000000000E+00  0.00000000000E+00  0.45593999997E+02  0.45594000000E+02  0.51100000000E-03 0.  1.
         11   -1    0    0    0    0 -0.00000000000E+00 -0.00000000000E+00 -0.45593999997E+02  0.45594000000E+02  0.51100000000E-03 0. -1.
    9900012    2    1    2    0    0  0.10406399220E+01  0.50381828610E+00 -0.23799084980E+00  0.90007574671E+02  0.89999833857E+02 0.  0.
        -12    1    1    2    0    0 -0.10406399220E+01 -0.50381828610E+00  0.23799084980E+00  0.11804253290E+01  0.00000000000E+00 0.  1.
         11    1    3    3    0    0 -0.15295627750E+01 -0.11683176374E+02 -0.37177792798E+01  0.12355486859E+02  0.51100000000E-03 0. -1.
        -11    1    3    3    0    0  0.17808366286E+02 -0.17237359941E+02  0.27277849701E+02  0.36855740016E+02  0.51100000000E-03 0.  1.
         12    1    3    3    0    0 -0.15238163589E+02  0.29424354602E+02 -0.23798061271E+02  0.40796347797E+02  0.00000000000E+00 0. -1.
</event>
<event>
 7    1  0.1978681E-015  0.9000766E+02  0.7816164E-02  0.1186339E+00
        -11   -1    0    0    0    0  0.00000000000E+00  0.00000000000E+00  0.45593999997E+02  0.45594000000E+02  0.51100000000E-03 0. -1.
         11   -1    0    0    0    0 -0.00000000000E+00 -0.00000000000E+00 -0.45593999997E+02  0.45594000000E+02  0.51100000000E-03 0.  1.
    9900012    2    1    2    0    0  0.73778490748E+00  0.85120227184E+00 -0.35260989403E+00  0.90007658687E+02  0.89999918982E+02 0.  0.
        -12    1    1    2    0    0 -0.73778490748E+00 -0.85120227184E+00  0.35260989403E+00  0.11803413128E+01  0.00000000000E+00 0.  1.
         11    1    3    3    0    0  0.42928999300E+01 -0.56627858489E+01  0.35068586613E+01  0.79242785988E+01  0.51100000000E-03 0. -1.
        -11    1    3    3    0    0  0.48568683840E+01  0.39314648006E+02  0.16118427317E+02  0.42767211948E+02  0.51100000000E-03 0.  1.
         12    1    3    3    0    0 -0.84119834065E+01 -0.32800659886E+02 -0.19977895873E+02  0.39316168141E+02  0.00000000000E+00 0. -1.
</event>
<event>
 7    1  0.1978681E-015  0.9000770E+02  0.7816164E-02  0.1186339E+00
        -11   -1    0    0    0    0  0.00000000000E+00  0.00000000000E+00  0.45593999997E+02  0.45594000000E+02  0.51100000000E-03 0. -1.
         11   -1    0    0    0    0 -0.00000000000E+00 -0.00000000000E+00 -0.45593999997E+02  0.45594000000E+02  0.51100000000E-03 0.  1.
    9900012    2    1    2    0    0  0.29344344164E-01  0.96350514440E-01  0.11759955240E+01  0.90007699197E+02  0.89999960027E+02 0.  0.
        -12    1    1    2    0    0 -0.29344344164E-01 -0.96350514440E-01 -0.11759955240E+01  0.11803008026E+01  0.00000000000E+00 0.  1.
         11    1    3    3    0    0 -0.35474734249E+02 -0.14922087838E+02  0.26660005294E+01  0.38577623496E+02  0.51100000000E-03 0. -1.
        -11    1    3    3    0    0  0.14193878779E+01 -0.91801047500E+01 -0.24894613343E+01  0.96169851391E+01  0.51100000000E-03 0.  1.
        -12    1    3    3    0    0  0.34084690715E+02  0.24198543102E+02  0.99945632893E+00  0.41813090563E+02  0.00000000000E+00 0.  1.
</event>
<event>
 7    1  0.1978681E-015  0.9000773E+02  0.7816164E-02  0.1186339E+00
        -11   -1    0    0    0    0  0.00000000000E+00  0.00000000000E+00  0.45593999997E+02  0.45594000000E+02  0.51100000000E-03 0.  1.
         11   -1    0    0    0    0 -0.00000000000E+00 -0.00000000000E+00 -0.45593999997E+02  0.45594000000E+02  0.51100000000E-03 0. -1.
    9900012    2    1    2    0    0 -0.66161913975E+00  0.20451950282E+00 -0.95575646542E+00  0.90007729466E+02  0.89999990695E+02 0.  0.
        -12    1    1    2    0    0  0.66161913975E+00 -0.20451950282E+00  0.95575646542E+00  0.11802705344E+01  0.00000000000E+00 0.  1.
         11    1    3    3    0    0 -0.14182325499E+01  0.32344785306E+02 -0.19914362278E+02  0.38010240005E+02  0.51100000000E-03 0. -1.
        -11    1    3    3    0    0 -0.54963978216E+01  0.68029209515E+01  0.15398707623E+01  0.88803898964E+01  0.51100000000E-03 0.  1.
        -12    1    3    3    0    0  0.62530112317E+01 -0.38943186754E+02  0.17418735051E+02  0.43117099564E+02  0.00000000000E+00 0.  1.
</event>
<event>
 7    1  0.1978681E-015  0.9000770E+02  0.7816164E-02  0.1186339E+00
        -11   -1    0    0    0    0  0.00000000000E+00  0.00000000000E+00  0.45593999997E+02  0.45594000000E+02  0.51100000000E-03 0.  1.
         11   -1    0    0    0    0 -0.00000000000E+00 -0.00000000000E+00 -0.45593999997E+02  0.45594000000E+02  0.51100000000E-03 0. -1.
    9900012    2    1    2    0    0 -0.86865495870E+00 -0.78435020264E+00 -0.15281598066E+00  0.90007695208E+02  0.89999955985E+02 0.  0.
        -12    1    1    2    0    0  0.86865495870E+00  0.78435020264E+00  0.15281598066E+00  0.11803047918E+01  0.00000000000E+00 0.  1.
         11    1    3    3    0    0  0.13532886926E+01  0.11642289035E+02  0.59689384549E+01  0.13153041884E+02  0.51100000000E-03 0. -1.
        -11    1    3    3    0    0 -0.18284570067E+02  0.26811133909E+02 -0.10792284976E+02  0.34199938879E+02  0.51100000000E-03 0.  1.
         12    1    3    3    0    0  0.16062626415E+02 -0.39237773147E+02  0.46705305403E+01  0.42654714446E+02  0.00000000000E+00 0. -1.
</event>
<event>
 7    1  0.1978681E-015  0.9000770E+02  0.7816164E-02  0.1186339E+00
        -11   -1    0    0    0    0  0.00000000000E+00  0.00000000000E+00  0.45593999997E+02  0.45594000000E+02  0.51100000000E-03 0. -1.
         11   -1    0    0    0    0 -0.00000000000E+00 -0.00000000000E+00 -0.45593999997E+02  0.45594000000E+02  0.51100000000E-03 0.  1.
    9900012    2    1    2    0    0  0.74694600620E+00  0.78516338375E+00  0.46764361713E+00  0.90007703246E+02  0.89999964129E+02 0.  0.
        -12    1    1    2    0    0 -0.74694600620E+00 -0.78516338375E+00 -0.46764361713E+00  0.11802967542E+01  0.00000000000E+00 0.  1.
         11    1    3    3    0    0  0.14946112943E+02  0.22245702435E+01  0.36696449148E+02  0.39685820959E+02  0.51100000000E-03 0. -1.
        -11    1    3    3    0    0  0.20598617906E+01 -0.83446070374E+01  0.14418641983E+01  0.87151861616E+01  0.51100000000E-03 0.  1.
        -12    1    3    3    0    0 -0.16259028727E+02  0.69052001776E+01 -0.37670669729E+02  0.41606696125E+02  0.00000000000E+00 0.  1.
</event>
<event>
 7    1  0.1978681E-015  0.9000760E+02  0.7816164E-02  0.1186339E+00
        -11   -1    0    0    0    0  0.00000000000E+00  0.00000000000E+00  0.45593999997E+02  0.45594000000E+02  0.51100000000E-03 0.  1.
         11   -1    0    0    0    0 -0.00000000000E+00 -0.00000000000E+00 -0.45593999997E+02  0.45594000000E+02  0.51100000000E-03 0. -1.
    9900012    2    1    2    0    0 -0.84226164183E+00  0.79990737803E+00  0.20999255165E+00  0.90007596104E+02  0.89999855572E+02 0.  0.
        -12    1    1    2    0    0  0.84226164183E+00 -0.79990737803E+00 -0.20999255165E+00  0.11804038963E+01  0.00000000000E+00 0.  1.
         11    1    3    3    0    0 -0.72953901125E+01 -0.58557532281E+01  0.78854225379E-02  0.93548182881E+01  0.51100000000E-03 0. -1.
        -11    1    3    3    0    0  0.36294474253E+01  0.41685569966E+02 -0.11868805337E+02  0.43494001568E+02  0.51100000000E-03 0.  1.
         12    1    3    3    0    0  0.28236810453E+01 -0.35029909360E+02  0.12070912466E+02  0.37158776247E+02  0.00000000000E+00 0. -1.
</event>
<event>
 7    1  0.1978681E-015  0.9000769E+02  0.7816164E-02  0.1186339E+00
        -11   -1    0    0    0    0  0.00000000000E+00  0.00000000000E+00  0.45593999997E+02  0.45594000000E+02  0.51100000000E-03 0. -1.
         11   -1    0    0    0    0 -0.00000000000E+00 -0.00000000000E+00 -0.45593999997E+02  0.45594000000E+02  0.51100000000E-03 0.  1.
    9900012    2    1    2    0    0 -0.11381542557E+01 -0.22707682052E+00 -0.21487515234E+00  0.90007690582E+02  0.89999951297E+02 0.  0.
        -12    1    1    2    0    0  0.11381542557E+01  0.22707682052E+00  0.21487515234E+00  0.11803094185E+01  0.00000000000E+00 0.  1.
         11    1    3    3    0    0 -0.26098504924E+01  0.77955826205E+00  0.91911831796E+01  0.95862859951E+01  0.51100000000E-03 0. -1.
        -11    1    3    3    0    0 -0.13193792388E+02 -0.22450765766E+02  0.25806881369E+02  0.36662080783E+02  0.51100000000E-03 0.  1.
         12    1    3    3    0    0  0.14665488625E+02  0.21444130684E+02 -0.35212939701E+02  0.43759323804E+02  0.00000000000E+00 0. -1.
</event>
<event>
 7    1  0.1978681E-015  0.9000777E+02  0.7816164E-02  0.1186339E+00
        -11   -1    0    0    0    0  0.00000000000E+00  0.00000000000E+00  0.45593999997E+02  0.45594000000E+02  0.51100000000E-03 0.  1.
         11   -1    0    0    0    0 -0.00000000000E+00 -0.00000000000E+00 -0.45593999997E+02  0.45594000000E+02  0.51100000000E-03 0. -1.
    9900012    2    1    2    0    0  0.21513386016E+00 -0.59019747782E+00 -0.99916430989E+00  0.90007769108E+02  0.90000030860E+02 0.  0.
        -12    1    1    2    0    0 -0.21513386016E+00  0.59019747782E+00  0.99916430989E+00  0.11802308921E+01  0.00000000000E+00 0.  1.
         11    1    3    3    0    0  0.27827608409E+02  0.17702378982E+02 -0.72711618108E+01  0.33773063316E+02  0.51100000000E-03 0. -1.
        -11    1    3    3    0    0  0.90063673684E+01  0.37778375383E+01  0.91488897583E+01  0.13382409862E+02  0.51100000000E-03 0.  1.
        -12    1    3    3    0    0 -0.36618841918E+02 -0.22070413998E+02 -0.28768922574E+01  0.42852295930E+02  0.00000000000E+00 0.  1.
</event>
<event>
 7    1  0.1978681E-015  0.9000762E+02  0.7816164E-02  0.1186339E+00
        -11   -1    0    0    0    0  0.00000000000E+00  0.00000000000E+00  0.45593999997E+02  0.45594000000E+02  0.51100000000E-03 0. -1.
         11   -1    0    0    0    0 -0.00000000000E+00 -0.00000000000E+00 -0.45593999997E+02  0.45594000000E+02  0.51100000000E-03 0.  1.
    9900012    2    1    2    0    0 -0.29360198826E+00  0.89358988964E-01  0.11397871125E+01  0.90007617935E+02  0.89999877692E+02 0.  0.
        -12    1    1    2    0    0  0.29360198826E+00 -0.89358988964E-01 -0.11397871125E+01  0.11803820646E+01  0.00000000000E+00 0.  1.
         11    1    3    3    0    0 -0.85765926681E+01  0.98089614825E+01  0.11887828833E+02  0.17637861032E+02  0.51100000000E-03 0. -1.
        -11    1    3    3    0    0  0.99811193499E+01  0.29930005923E+02 -0.13132756742E+01  0.31577724606E+02  0.51100000000E-03 0.  1.
         12    1    3    3    0    0 -0.16981286701E+01 -0.39649608417E+02 -0.94347660466E+01  0.40792032297E+02  0.00000000000E+00 0. -1.
</event>
<event>
 7    1  0.1978681E-015  0.9000774E+02  0.7816164E-02  0.1186339E+00
        -11   -1    0    0    0    0  0.00000000000E+00  0.00000000000E+00  0.45593999997E+02  0.45594000000E+02  0.51100000000E-03 0. -1.
         11   -1    0    0    0    0 -0.00000000000E+00 -0.00000000000E+00 -0.45593999997E+02  0.45594000000E+02  0.51100000000E-03 0.  1.
    9900012    2    1    2    0    0  0.63851871052E+00  0.97526589188E+00  0.18483055005E+00  0.90007740691E+02  0.90000002068E+02 0.  0.
        -12    1    1    2    0    0 -0.63851871052E+00 -0.97526589188E+00 -0.18483055005E+00  0.11802593087E+01  0.00000000000E+00 0.  1.
         11    1    3    3    0    0 -0.87657979558E+01 -0.18046231699E+01 -0.78917994682E+01  0.11932157294E+02  0.51100000000E-03 0. -1.
        -11    1    3    3    0    0 -0.86847260626E+01 -0.22717336123E+02 -0.23373132226E+02  0.33731367266E+02  0.51100000000E-03 0.  1.
         12    1    3    3    0    0  0.18089042729E+02  0.25497225185E+02  0.31449762245E+02  0.44344216131E+02  0.00000000000E+00 0. -1.
</event>
<event>
 7    1  0.1978681E-015  0.9000713E+02  0.7816164E-02  0.1186340E+00
        -11   -1    0    0    0    0  0.00000000000E+00  0.00000000000E+00  0.45593999997E+02  0.45594000000E+02  0.51100000000E-03 0. -1.
         11   -1    0    0    0    0 -0.00000000000E+00 -0.00000000000E+00 -0.45593999997E+02  0.45594000000E+02  0.51100000000E-03 0.  1.
    9900012    2    1    2    0    0  0.37708252039E+00 -0.63225985712E+00  0.92330976331E+00  0.90007133931E+02  0.89999387297E+02 0.  0.
        -12    1    1    2    0    0 -0.37708252039E+00  0.63225985712E+00 -0.92330976331E+00  0.11808660691E+01  0.00000000000E+00 0.  1.
         11    1    3    3    0    0 -0.55728567424E+01 -0.72710003892E+01 -0.87226673129E-01  0.91614293473E+01  0.51100000000E-03 0. -1.
        -11    1    3    3    0    0 -0.24413482919E+02 -0.15270076687E+02 -0.22578547875E+02  0.36592133234E+02  0.51100000000E-03 0.  1.
         12    1    3    3    0    0  0.30363422182E+02  0.21908817219E+02  0.23589084311E+02  0.44253571349E+02  0.00000000000E+00 0. -1.
</event>
<event>
 7    1  0.2961102E-015  0.9000775E+02  0.7816164E-02  0.1186339E+00
        -11   -1    0    0    0    0  0.00000000000E+00  0.00000000000E+00  0.45593999997E+02  0.45594000000E+02  0.51100000000E-03 0.  1.
         11   -1    0    0    0    0 -0.00000000000E+00 -0.00000000000E+00 -0.45593999997E+02  0.45594000000E+02  0.51100000000E-03 0. -1.
    9900012    2    1    2    0    0 -0.59068725182E+00 -0.10176929967E+01 -0.91535176412E-01  0.90007750385E+02  0.90000011890E+02 0.  0.
        -12    1    1    2    0    0  0.59068725182E+00  0.10176929967E+01  0.91535176412E-01  0.11802496149E+01  0.00000000000E+00 0.  1.
         11    1    3    3    0    0  0.89116189284E+01 -0.22681000615E+01  0.33927831970E+00  0.92019747801E+01  0.51100000000E-03 0. -1.
        -11    1    3    3    0    0  0.15025800356E+02 -0.48244831088E+01  0.34357503095E+02  0.37808574858E+02  0.51100000000E-03 0.  1.
         12    1    3    3    0    0 -0.24528106536E+02  0.60748901736E+01 -0.34788316591E+02  0.42997200747E+02  0.00000000000E+00 0. -1.
</event>
<event>
 7    1  0.1978681E-015  0.9000761E+02  0.7816164E-02  0.1186339E+00
        -11   -1    0    0    0    0  0.00000000000E+00  0.00000000000E+00  0.45593999997E+02  0.45594000000E+02  0.51100000000E-03 0. -1.
         11   -1    0    0    0    0 -0.00000000000E+00 -0.00000000000E+00 -0.45593999997E+02  0.45594000000E+02  0.51100000000E-03 0.  1.
    9900012    2    1    2    0    0 -0.11642694430E-01  0.98073360389E+00  0.65677245308E+00  0.90007608536E+02  0.89999868168E+02 0.  0.
        -12    1    1    2    0    0  0.11642694430E-01 -0.98073360389E+00 -0.65677245308E+00  0.11803914644E+01  0.00000000000E+00 0.  1.
         11    1    3    3    0    0 -0.13074965275E+02 -0.20632693818E+02  0.25491330840E+02  0.35305392214E+02  0.51100000000E-03 0. -1.
        -11    1    3    3    0    0 -0.21180249803E+01  0.36432254979E+01  0.11031829826E+02  0.11809334927E+02  0.51100000000E-03 0.  1.
        -12    1    3    3    0    0  0.15181347561E+02  0.17970201924E+02 -0.35866388212E+02  0.42892881395E+02  0.00000000000E+00 0.  1.
</event>
<event>
 7    1  0.1978681E-015  0.9000762E+02  0.7816164E-02  0.1186339E+00
        -11   -1    0    0    0    0  0.00000000000E+00  0.00000000000E+00  0.45593999997E+02  0.45594000000E+02  0.51100000000E-03 0.  1.
         11   -1    0    0    0    0 -0.00000000000E+00 -0.00000000000E+00 -0.45593999997E+02  0.45594000000E+02  0.51100000000E-03 0. -1.
    9900012    2    1    2    0    0  0.73660422681E+00  0.89999691814E+00 -0.20177017356E+00  0.90007622331E+02  0.89999882145E+02 0.  0.
        -12    1    1    2    0    0 -0.73660422681E+00 -0.89999691814E+00  0.20177017356E+00  0.11803776695E+01  0.00000000000E+00 0.  1.
         11    1    3    3    0    0 -0.88321328899E+00  0.11145064404E+01  0.10075297576E+02  0.10175156600E+02  0.51100000000E-03 0. -1.
        -11    1    3    3    0    0 -0.24099458816E+02 -0.65310422625E+01  0.25256545536E+02  0.35515229422E+02  0.51100000000E-03 0.  1.
         12    1    3    3    0    0  0.25719276331E+02  0.63165327403E+01 -0.35533613286E+02  0.44317236308E+02  0.00000000000E+00 0. -1.
</event>
<event>
 7    1  0.1978681E-015  0.9000772E+02  0.7816164E-02  0.1186339E+00
        -11   -1    0    0    0    0  0.00000000000E+00  0.00000000000E+00  0.45593999997E+02  0.45594000000E+02  0.51100000000E-03 0.  1.
         11   -1    0    0    0    0 -0.00000000000E+00 -0.00000000000E+00 -0.45593999997E+02  0.45594000000E+02  0.51100000000E-03 0. -1.
    9900012    2    1    2    0    0 -0.16384380627E+00  0.49837259776E-01 -0.11677940615E+01  0.90007715494E+02  0.89999976538E+02 0.  0.
        -12    1    1    2    0    0  0.16384380627E+00 -0.49837259776E-01  0.11677940615E+01  0.11802845061E+01  0.00000000000E+00 0.  1.
         11    1    3    3    0    0 -0.40891825370E+02  0.30259653054E+01  0.38321688131E+01  0.41182318611E+02  0.51100000000E-03 0. -1.
        -11    1    3    3    0    0  0.14246025273E+01  0.48563904898E+00 -0.90391921623E+01  0.91636418991E+01  0.51100000000E-03 0.  1.
        -12    1    3    3    0    0  0.39303379037E+02 -0.34617670946E+01  0.40392292878E+01  0.39661754983E+02  0.00000000000E+00 0.  1.
</event>
<event>
 7    1  0.1978681E-015  0.9000777E+02  0.7816164E-02  0.1186339E+00
        -11   -1    0    0    0    0  0.00000000000E+00  0.00000000000E+00  0.45593999997E+02  0.45594000000E+02  0.51100000000E-03 0.  1.
         11   -1    0    0    0    0 -0.00000000000E+00 -0.00000000000E+00 -0.45593999997E+02  0.45594000000E+02  0.51100000000E-03 0. -1.
    9900012    2    1    2    0    0  0.29538983450E+00  0.11397971502E+01  0.80986224332E-01  0.90007766351E+02  0.90000028067E+02 0.  0.
        -12    1    1    2    0    0 -0.29538983450E+00 -0.11397971502E+01 -0.80986224332E-01  0.11802336491E+01  0.00000000000E+00 0.  1.
         11    1    3    3    0    0 -0.38817320688E+01  0.33441988659E+01  0.78206524573E+01  0.93495515950E+01  0.51100000000E-03 0. -1.
        -11    1    3    3    0    0 -0.20996618890E+02 -0.32249091586E+02  0.63569586759E+01  0.39003497751E+02  0.51100000000E-03 0.  1.
         12    1    3    3    0    0  0.25173740793E+02  0.30044689870E+02 -0.14096624909E+02  0.41654717005E+02  0.00000000000E+00 0. -1.
</event>
<event>
 7    1  0.1978681E-015  0.9000773E+02  0.7816164E-02  0.1186339E+00
        -11   -1    0    0    0    0  0.00000000000E+00  0.00000000000E+00  0.45593999997E+02  0.45594000000E+02  0.51100000000E-03 0.  1.
         11   -1    0    0    0    0 -0.00000000000E+00 -0.00000000000E+00 -0.45593999997E+02  0.45594000000E+02  0.51100000000E-03 0. -1.
    9900012    2    1    2    0    0  0.10169548640E+01  0.18008854602E+00 -0.57131769624E+00  0.90007731814E+02  0.89999993074E+02 0.  0.
        -12    1    1    2    0    0 -0.10169548640E+01 -0.18008854602E+00  0.57131769624E+00  0.11802681856E+01  0.00000000000E+00 0.  1.
         11    1    3    3    0    0 -0.33369010684E+02 -0.15358017193E+02 -0.15071060371E+02  0.39705118399E+02  0.51100000000E-03 0. -1.
        -11    1    3    3    0    0  0.55722202026E+01 -0.83553264107E+01 -0.30993083862E+00  0.10047744762E+02  0.51100000000E-03 0.  1.
        -12    1    3    3    0    0  0.28813745346E+02  0.23893432150E+02  0.14809673513E+02  0.40254868653E+02  0.00000000000E+00 0.  1.
</event>
<event>
 7    1  0.1978681E-015  0.9000774E+02  0.7816164E-02  0.1186339E+00
        -11   -1    0    0    0    0  0.00000000000E+00  0.00000000000E+00  0.45593999997E+02  0.45594000000E+02  0.51100000000E-03 0.  1.
         11   -1    0    0    0    0 -0.00000000000E+00 -0.00000000000E+00 -0.45593999997E+02  0.45594000000E+02  0.51100000000E-03 0. -1.
    9900012    2    1    2    0    0 -0.33398990184E+00  0.13559651491E+00 -0.11238701312E+01  0.90007737427E+02  0.89999998761E+02 0.  0.
        -12    1    1    2    0    0  0.33398990184E+00 -0.13559651491E+00  0.11238701312E+01  0.11802625730E+01  0.00000000000E+00 0.  1.
         11    1    3    3    0    0  0.24302199479E+02  0.11376695565E+01 -0.35564505644E+02  0.43089734898E+02  0.51100000000E-03 0. -1.
        -11    1    3    3    0    0 -0.22779007016E+01 -0.72968817463E+01  0.39994261903E+01  0.86272084093E+01  0.51100000000E-03 0.  1.
        -12    1    3    3    0    0 -0.22358288679E+02  0.62948087047E+01  0.30441209323E+02  0.38290794120E+02  0.00000000000E+00 0.  1.
</event>
<event>
 7    1  0.1978681E-015  0.9000757E+02  0.7816164E-02  0.1186339E+00
        -11   -1    0    0    0    0  0.00000000000E+00  0.00000000000E+00  0.45593999997E+02  0.45594000000E+02  0.51100000000E-03 0. -1.
         11   -1    0    0    0    0 -0.00000000000E+00 -0.00000000000E+00 -0.45593999997E+02  0.45594000000E+02  0.51100000000E-03 0.  1.
    9900012    2    1    2    0    0  0.52902526744E+00 -0.23009537590E+00  0.10298606927E+01  0.90007565901E+02  0.89999824971E+02 0.  0.
        -12    1    1    2    0    0 -0.52902526744E+00  0.23009537590E+00 -0.10298606927E+01  0.11804340990E+01  0.00000000000E+00 0.  1.
         11    1    3    3    0    0  0.21478058166E+02 -0.26114852336E+02  0.21462242697E+02  0.40048974481E+02  0.51100000000E-03 0. -1.
        -11    1    3    3    0    0 -0.42122613777E+01  0.24351497434E+01  0.80757178960E+01  0.94281663108E+01  0.51100000000E-03 0.  1.
        -12    1    3    3    0    0 -0.16736771521E+02  0.23449607217E+02 -0.28508099901E+02  0.40530425109E+02  0.00000000000E+00 0.  1.
</event>
<event>
 7    1  0.1978681E-015  0.9000779E+02  0.7816164E-02  0.1186339E+00
        -11   -1    0    0    0    0  0.00000000000E+00  0.00000000000E+00  0.45593999997E+02  0.45594000000E+02  0.51100000000E-03 0.  1.
         11   -1    0    0    0    0 -0.00000000000E+00 -0.00000000000E+00 -0.45593999997E+02  0.45594000000E+02  0.51100000000E-03 0. -1.
    9900012    2    1    2    0    0  0.92005577617E+00 -0.28386385421E+00 -0.68250412364E+00  0.90007791036E+02  0.90000053078E+02 0.  0.
        -12    1    1    2    0    0 -0.92005577617E+00  0.28386385421E+00  0.68250412364E+00  0.11802089636E+01  0.00000000000E+00 0.  1.
         11    1    3    3    0    0  0.34566670772E+02 -0.16480142765E+02 -0.14722518311E+02  0.41026849495E+02  0.51100000000E-03 0. -1.
        -11    1    3    3    0    0  0.27791302351E+01  0.82252209074E+01  0.67262682174E+01  0.10982736828E+02  0.51100000000E-03 0.  1.
        -12    1    3    3    0    0 -0.36425745231E+02  0.79710580033E+01  0.73137459701E+01  0.37998204713E+02  0.00000000000E+00 0.  1.
</event>
<event>
 7    1  0.1978681E-015  0.9000775E+02  0.7816164E-02  0.1186339E+00
        -11   -1    0    0    0    0  0.00000000000E+00  0.00000000000E+00  0.45593999997E+02  0.45594000000E+02  0.51100000000E-03 0. -1.
         11   -1    0    0    0    0 -0.00000000000E+00 -0.00000000000E+00 -0.45593999997E+02  0.45594000000E+02  0.51100000000E-03 0.  1.
    9900012    2    1    2    0    0 -0.49570482547E+00  0.39521004853E+00 -0.99552767062E+00  0.90007750196E+02  0.90000011699E+02 0.  0.
        -12    1    1    2    0    0  0.49570482547E+00 -0.39521004853E+00  0.99552767062E+00  0.11802498038E+01  0.00000000000E+00 0.  1.
         11    1    3    3    0    0  0.78919707613E+01 -0.40017426271E+01  0.44759594833E+01  0.99162170260E+01  0.51100000000E-03 0. -1.
        -11    1    3    3    0    0  0.32666161488E+02 -0.96377992810E+01 -0.12218213043E+02  0.36183559962E+02  0.51100000000E-03 0.  1.
         12    1    3    3    0    0 -0.41053837074E+02  0.14034751957E+02  0.67467258889E+01  0.43907973208E+02  0.00000000000E+00 0. -1.
</event>
<event>
 7    1  0.1978681E-015  0.9000781E+02  0.7816164E-02  0.1186339E+00
        -11   -1    0    0    0    0  0.00000000000E+00  0.00000000000E+00  0.45593999997E+02  0.45594000000E+02  0.51100000000E-03 0.  1.
         11   -1    0    0    0    0 -0.00000000000E+00 -0.00000000000E+00 -0.45593999997E+02  0.45594000000E+02  0.51100000000E-03 0. -1.
    9900012    2    1    2    0    0  0.58744578844E+00 -0.26035597193E-01 -0.10232733141E+01  0.90007805659E+02  0.90000067894E+02 0.  0.
        -12    1    1    2    0    0 -0.58744578844E+00  0.26035597193E-01  0.10232733141E+01  0.11801943408E+01  0.00000000000E+00 0.  1.
         11    1    3    3    0    0  0.54891464326E+01 -0.32766311192E+02  0.11879599276E+02  0.35282952780E+02  0.51100000000E-03 0. -1.
        -11    1    3    3    0    0  0.23430142159E+01 -0.56140289173E+01  0.83113923152E+01  0.10299819357E+02  0.51100000000E-03 0.  1.
        -12    1    3    3    0    0 -0.72447148601E+01  0.38354304512E+02 -0.21214264905E+02  0.44425033522E+02  0.00000000000E+00 0.  1.
</event>
<event>
 7    1  0.1978681E-015  0.9000778E+02  0.7816164E-02  0.1186339E+00
        -11   -1    0    0    0    0  0.00000000000E+00  0.00000000000E+00  0.45593999997E+02  0.45594000000E+02  0.51100000000E-03 0.  1.
         11   -1    0    0    0    0 -0.00000000000E+00 -0.00000000000E+00 -0.45593999997E+02  0.45594000000E+02  0.51100000000E-03 0. -1.
    9900012    2    1    2    0    0 -0.11382686079E+01 -0.22865343221E+00 -0.21208016044E+00  0.90007781457E+02  0.90000043372E+02 0.  0.
        -12    1    1    2    0    0  0.11382686079E+01  0.22865343221E+00  0.21208016044E+00  0.11802185434E+01  0.00000000000E+00 0.  1.
         11    1    3    3    0    0 -0.81465458320E+01 -0.45219182549E+01  0.30493921873E+00  0.93223892798E+01  0.51100000000E-03 0. -1.
        -11    1    3    3    0    0 -0.16493681448E+02 -0.82075816932E+01 -0.33541553218E+02  0.38268024740E+02  0.51100000000E-03 0.  1.
         12    1    3    3    0    0  0.23501958672E+02  0.12500846516E+02  0.33024533839E+02  0.42417367437E+02  0.00000000000E+00 0. -1.
</event>
<event>
 7    1  0.1978681E-015  0.9000773E+02  0.7816164E-02  0.1186339E+00
        -11   -1    0    0    0    0  0.00000000000E+00  0.00000000000E+00  0.45593999997E+02  0.45594000000E+02  0.51100000000E-03 0. -1.
         11   -1    0    0    0    0 -0.00000000000E+00 -0.00000000000E+00 -0.45593999997E+02  0.45594000000E+02  0.51100000000E-03 0.  1.
    9900012    2    1    2    0    0  0.55421297511E+00 -0.17019341567E+00  0.10280675244E+01  0.90007728567E+02  0.89999989784E+02 0.  0.
        -12    1    1    2    0    0 -0.55421297511E+00  0.17019341567E+00 -0.10280675244E+01  0.11802714329E+01  0.00000000000E+00 0.  1.
         11    1    3    3    0    0  0.48408541833E+00  0.84268447406E+01  0.99482857498E+00  0.84991608486E+01  0.51100000000E-03 0. -1.
        -11    1    3    3    0    0  0.92117488200E+01  0.12494110789E+02 -0.35751938829E+02  0.38976406338E+02  0.51100000000E-03 0.  1.
         12    1    3    3    0    0 -0.91416212632E+01 -0.21091148945E+02  0.35785177778E+02  0.42532161381E+02  0.00000000000E+00 0. -1.
</event>
<event>
 7    1  0.1978681E-015  0.9000759E+02  0.7816164E-02  0.1186339E+00
        -11   -1    0    0    0    0  0.00000000000E+00  0.00000000000E+00  0.45593999997E+02  0.45594000000E+02  0.51100000000E-03 0.  1.
         11   -1    0    0    0    0 -0.00000000000E+00 -0.00000000000E+00 -0.45593999997E+02  0.45594000000E+02  0.51100000000E-03 0. -1.
    9900012    2    1    2    0    0 -0.40209519826E+00  0.76739048540E+00 -0.80174906799E+00  0.90007588939E+02  0.89999848313E+02 0.  0.
        -12    1    1    2    0    0  0.40209519826E+00 -0.76739048540E+00  0.80174906799E+00  0.11804110613E+01  0.00000000000E+00 0.  1.
         11    1    3    3    0    0  0.24295908959E+01 -0.20449636450E+02 -0.33411802410E+02  0.39248427783E+02  0.51100000000E-03 0. -1.
        -11    1    3    3    0    0 -0.26433051296E+01 -0.80428638109E+01  0.26264580122E+01  0.88641413707E+01  0.51100000000E-03 0.  1.
        -12    1    3    3    0    0 -0.18838096450E+00  0.29259890746E+02  0.29983595330E+02  0.41895019785E+02  0.00000000000E+00 0.  1.
</event>
<event>
 7    1  0.1978681E-015  0.9000778E+02  0.7816164E-02  0.1186339E+00
        -11   -1    0    0    0    0  0.00000000000E+00  0.00000000000E+00  0.45593999997E+02  0.45594000000E+02  0.51100000000E-03 0.  1.
         11   -1    0    0    0    0 -0.00000000000E+00 -0.00000000000E+00 -0.45593999997E+02  0.45594000000E+02  0.51100000000E-03 0. -1.
    9900012    2    1    2    0    0 -0.71274757368E+00  0.66614605965E+00  0.66419802352E+00  0.90007780236E+02  0.90000042135E+02 0.  0.
        -12    1    1    2    0    0  0.71274757368E+00 -0.66614605965E+00 -0.66419802352E+00  0.11802197639E+01  0.00000000000E+00 0.  1.
         11    1    3    3    0    0 -0.42560551458E+01  0.76674856436E+01  0.31101380813E+01  0.93046923993E+01  0.51100000000E-03 0. -1.
        -11    1    3    3    0    0 -0.20361103022E+02 -0.35820535101E+02  0.76857692858E+01  0.41913676777E+02  0.51100000000E-03 0.  1.
         12    1    3    3    0    0  0.23904410594E+02  0.28819195517E+02 -0.10131709344E+02  0.38789411060E+02  0.00000000000E+00 0. -1.
</event>
<event>
 7    1  0.1978681E-015  0.9000780E+02  0.7816164E-02  0.1186339E+00
        -11   -1    0    0    0    0  0.00000000000E+00  0.00000000000E+00  0.45593999997E+02  0.45594000000E+02  0.51100000000E-03 0. -1.
         11   -1    0    0    0    0 -0.00000000000E+00 -0.00000000000E+00 -0.45593999997E+02  0.45594000000E+02  0.51100000000E-03 0.  1.
    9900012    2    1    2    0    0 -0.53013894129E+00 -0.97555937059E+00  0.40013003418E+00  0.90007801954E+02  0.90000064140E+02 0.  0.
        -12    1    1    2    0    0  0.53013894129E+00  0.97555937059E+00 -0.40013003418E+00  0.11801980456E+01  0.00000000000E+00 0.  1.
         11    1    3    3    0    0 -0.69177015877E+01  0.89505555734E+00 -0.75665035073E+01  0.10291146452E+02  0.51100000000E-03 0. -1.
        -11    1    3    3    0    0 -0.10270755926E+02 -0.16109518870E+02 -0.30182614231E+02  0.35721075398E+02  0.51100000000E-03 0.  1.
         12    1    3    3    0    0  0.16658318572E+02  0.14238903942E+02  0.38149247772E+02  0.43995580104E+02  0.00000000000E+00 0. -1.
</event>
<event>
 7    1  0.1978681E-015  0.9000741E+02  0.7816164E-02  0.1186340E+00
        -11   -1    0    0    0    0  0.00000000000E+00  0.00000000000E+00  0.45593999997E+02  0.45594000000E+02  0.51100000000E-03 0.  1.
         11   -1    0    0    0    0 -0.00000000000E+00 -0.00000000000E+00 -0.45593999997E+02  0.45594000000E+02  0.51100000000E-03 0. -1.
    9900012    2    1    2    0    0  0.97986268710E+00 -0.17651963621E+00 -0.63442679872E+00  0.90007412252E+02  0.89999669293E+02 0.  0.
        -12    1    1    2    0    0 -0.97986268710E+00  0.17651963621E+00  0.63442679872E+00  0.11805877479E+01  0.00000000000E+00 0.  1.
         11    1    3    3    0    0 -0.76801024359E+01  0.83947502450E+01  0.38150552177E+01  0.12000435479E+02  0.51100000000E-03 0. -1.
        -11    1    3    3    0    0 -0.15284383780E+02  0.13958730863E+02  0.25973802232E+02  0.33212903478E+02  0.51100000000E-03 0.  1.
         12    1    3    3    0    0  0.23944348903E+02 -0.22530000744E+02 -0.30423284248E+02  0.44794073295E+02  0.00000000000E+00 0. -1.
</event>
<event>
 7    1  0.1978681E-015  0.9000768E+02  0.7816164E-02  0.1186339E+00
        -11   -1    0    0    0    0  0.00000000000E+00  0.00000000000E+00  0.45593999997E+02  0.45594000000E+02  0.51100000000E-03 0.  1.
         11   -1    0    0    0    0 -0.00000000000E+00 -0.00000000000E+00 -0.45593999997E+02  0.45594000000E+02  0.51100000000E-03 0. -1.
    9900012    2    1    2    0    0  0.66021164196E+00 -0.59982887618E+00 -0.77296816057E+00  0.90007680607E+02  0.89999941191E+02 0.  0.
        -12    1    1    2    0    0 -0.66021164196E+00  0.59982887618E+00  0.77296816057E+00  0.11803193933E+01  0.00000000000E+00 0.  1.
         11    1    3    3    0    0 -0.23369752804E+01 -0.15819356478E+02 -0.36228338528E+02  0.39600580874E+02  0.51100000000E-03 0. -1.
        -11    1    3    3    0    0  0.62682264131E+01  0.49122079034E+01 -0.44085175274E+01  0.91024983330E+01  0.51100000000E-03 0.  1.
        -12    1    3    3    0    0 -0.32710394907E+01  0.10307319699E+02  0.39863887894E+02  0.41304601400E+02  0.00000000000E+00 0.  1.
</event>
<event>
 7    1  0.1978681E-015  0.9000817E+02  0.7816164E-02  0.1186338E+00
        -11   -1    0    0    0    0  0.00000000000E+00  0.00000000000E+00  0.45593999997E+02  0.45594000000E+02  0.51100000000E-03 0.  1.
         11   -1    0    0    0    0 -0.00000000000E+00 -0.00000000000E+00 -0.45593999997E+02  0.45594000000E+02  0.51100000000E-03 0. -1.
    9900012    2    1    2    0    0  0.87036617400E+00  0.52282054839E+00 -0.60092309194E+00  0.90008174943E+02  0.90000442051E+02 0.  0.
        -12    1    1    2    0    0 -0.87036617400E+00 -0.52282054839E+00  0.60092309194E+00  0.11798250570E+01  0.00000000000E+00 0.  1.
         11    1    3    3    0    0 -0.26838947637E+02  0.29095238447E+02  0.12611922105E+02  0.41544224508E+02  0.51100000000E-03 0. -1.
        -11    1    3    3    0    0  0.96323347579E+01 -0.50511338382E+00 -0.11535738606E+02  0.15036963718E+02  0.51100000000E-03 0.  1.
        -12    1    3    3    0    0  0.18076979053E+02 -0.28067304515E+02 -0.16771065907E+01  0.33426986716E+02  0.00000000000E+00 0.  1.
</event>
<event>
 7    1  0.1978681E-015  0.9000773E+02  0.7816164E-02  0.1186339E+00
        -11   -1    0    0    0    0  0.00000000000E+00  0.00000000000E+00  0.45593999997E+02  0.45594000000E+02  0.51100000000E-03 0. -1.
         11   -1    0    0    0    0 -0.00000000000E+00 -0.00000000000E+00 -0.45593999997E+02  0.45594000000E+02  0.51100000000E-03 0.  1.
    9900012    2    1    2    0    0 -0.60801237858E+00 -0.86078981421E+00  0.53140645281E+00  0.90007732668E+02  0.89999993939E+02 0.  0.
        -12    1    1    2    0    0  0.60801237858E+00  0.86078981421E+00 -0.53140645281E+00  0.11802673319E+01  0.00000000000E+00 0.  1.
         11    1    3    3    0    0  0.36152606749E+02  0.51875383305E+01  0.13485038630E+02  0.38932862672E+02  0.51100000000E-03 0. -1.
        -11    1    3    3    0    0 -0.15674631721E+01  0.10416067073E+02 -0.22076340522E+01  0.10762204348E+02  0.51100000000E-03 0.  1.
        -12    1    3    3    0    0 -0.35193155956E+02 -0.16464395217E+02 -0.10745998125E+02  0.40312665649E+02  0.00000000000E+00 0.  1.
</event>
<event>
 7    1  0.1978681E-015  0.9000767E+02  0.7816164E-02  0.1186339E+00
        -11   -1    0    0    0    0  0.00000000000E+00  0.00000000000E+00  0.45593999997E+02  0.45594000000E+02  0.51100000000E-03 0.  1.
         11   -1    0    0    0    0 -0.00000000000E+00 -0.00000000000E+00 -0.45593999997E+02  0.45594000000E+02  0.51100000000E-03 0. -1.
    9900012    2    1    2    0    0  0.87840077492E+00 -0.44555670333E+00  0.65043400539E+00  0.90007672464E+02  0.89999932940E+02 0.  0.
        -12    1    1    2    0    0 -0.87840077492E+00  0.44555670333E+00 -0.65043400539E+00  0.11803275362E+01  0.00000000000E+00 0.  1.
         11    1    3    3    0    0 -0.65076218859E+00  0.24557630279E+00 -0.11433013516E+02  0.11454151975E+02  0.51100000000E-03 0. -1.
        -11    1    3    3    0    0  0.29380620758E+02 -0.18137804447E+02  0.25635366849E+02  0.43004335363E+02  0.51100000000E-03 0.  1.
         12    1    3    3    0    0 -0.27851457795E+02  0.17446671441E+02 -0.13551919327E+02  0.35549185126E+02  0.00000000000E+00 0. -1.
</event>
<event>
 7    1  0.1978681E-015  0.9000772E+02  0.7816164E-02  0.1186339E+00
        -11   -1    0    0    0    0  0.00000000000E+00  0.00000000000E+00  0.45593999997E+02  0.45594000000E+02  0.51100000000E-03 0. -1.
         11   -1    0    0    0    0 -0.00000000000E+00 -0.00000000000E+00 -0.45593999997E+02  0.45594000000E+02  0.51100000000E-03 0.  1.
    9900012    2    1    2    0    0  0.20060686513E+00 -0.11577856124E+01  0.11117986635E+00  0.90007715458E+02  0.89999976502E+02 0.  0.
        -12    1    1    2    0    0 -0.20060686513E+00  0.11577856124E+01 -0.11117986635E+00  0.11802845425E+01  0.00000000000E+00 0.  1.
         11    1    3    3    0    0  0.18212239771E+01 -0.48023471725E+00 -0.88141618873E+01  0.90131532881E+01  0.51100000000E-03 0. -1.
        -11    1    3    3    0    0  0.18367762265E+02  0.24383075134E+02 -0.21070908270E+02  0.37093021165E+02  0.51100000000E-03 0.  1.
         12    1    3    3    0    0 -0.19988379377E+02 -0.25060626029E+02  0.29996250023E+02  0.43901541004E+02  0.00000000000E+00 0. -1.
</event>
<event>
 7    1  0.1978681E-015  0.9000770E+02  0.7816164E-02  0.1186339E+00
        -11   -1    0    0    0    0  0.00000000000E+00  0.00000000000E+00  0.45593999997E+02  0.45594000000E+02  0.51100000000E-03 0.  1.
         11   -1    0    0    0    0 -0.00000000000E+00 -0.00000000000E+00 -0.45593999997E+02  0.45594000000E+02  0.51100000000E-03 0. -1.
    9900012    2    1    2    0    0 -0.80504075453E+00  0.97554041065E-01 -0.85761441872E+00  0.90007699234E+02  0.89999960064E+02 0.  0.
        -12    1    1    2    0    0  0.80504075453E+00 -0.97554041065E-01  0.85761441872E+00  0.11803007662E+01  0.00000000000E+00 0.  1.
         11    1    3    3    0    0 -0.72477801409E+01 -0.27787383748E+02 -0.27998213803E+02  0.40106969331E+02  0.51100000000E-03 0. -1.
        -11    1    3    3    0    0  0.45328181828E+01  0.10178570902E+02 -0.57198526262E+01  0.12524634151E+02  0.51100000000E-03 0.  1.
        -12    1    3    3    0    0  0.19099212035E+01  0.17706366887E+02  0.32860452010E+02  0.37376095752E+02  0.00000000000E+00 0.  1.
</event>
<event>
 7    1  0.1978681E-015  0.9000769E+02  0.7816164E-02  0.1186339E+00
        -11   -1    0    0    0    0  0.00000000000E+00  0.00000000000E+00  0.45593999997E+02  0.45594000000E+02  0.51100000000E-03 0.  1.
         11   -1    0    0    0    0 -0.00000000000E+00 -0.00000000000E+00 -0.45593999997E+02  0.45594000000E+02  0.51100000000E-03 0. -1.
    9900012    2    1    2    0    0  0.78405589982E+00  0.87747638870E+00 -0.91820817489E-01  0.90007686682E+02  0.89999947346E+02 0.  0.
        -12    1    1    2    0    0 -0.78405589982E+00 -0.87747638870E+00  0.91820817489E-01  0.11803133183E+01  0.00000000000E+00 0.  1.
         11    1    3    3    0    0  0.26772234772E+02  0.41246491444E+01 -0.10468519270E+02  0.29040578183E+02  0.51100000000E-03 0. -1.
        -11    1    3    3    0    0 -0.10780553431E+02 -0.10074667092E+02 -0.20865615590E+02  0.25555687498E+02  0.51100000000E-03 0.  1.
        -12    1    3    3    0    0 -0.15207625441E+02  0.68274943364E+01  0.31242314043E+02  0.35411421000E+02  0.00000000000E+00 0.  1.
</event>
<event>
 7    1  0.1978681E-015  0.9000776E+02  0.7816164E-02  0.1186339E+00
        -11   -1    0    0    0    0  0.00000000000E+00  0.00000000000E+00  0.45593999997E+02  0.45594000000E+02  0.51100000000E-03 0.  1.
         11   -1    0    0    0    0 -0.00000000000E+00 -0.00000000000E+00 -0.45593999997E+02  0.45594000000E+02  0.51100000000E-03 0. -1.
    9900012    2    1    2    0    0  0.66981364771E+00 -0.72087818915E+00 -0.65165008188E+00  0.90007761246E+02  0.90000022895E+02 0.  0.
        -12    1    1    2    0    0 -0.66981364771E+00  0.72087818915E+00  0.65165008188E+00  0.11802387536E+01  0.00000000000E+00 0.  1.
         11    1    3    3    0    0  0.12336132151E+02 -0.57449462792E+01  0.18251018823E+01  0.13730096916E+02  0.51100000000E-03 0. -1.
        -11    1    3    3    0    0  0.40079854936E+01 -0.24184927112E+02  0.23655502715E+02  0.34066955486E+02  0.51100000000E-03 0.  1.
         12    1    3    3    0    0 -0.15674303997E+02  0.29208995202E+02 -0.26132254679E+02  0.42210708844E+02  0.00000000000E+00 0. -1.
</event>
<event>
 7    1  0.1978681E-015  0.9000774E+02  0.7816164E-02  0.1186339E+00
        -11   -1    0    0    0    0  0.00000000000E+00  0.00000000000E+00  0.45593999997E+02  0.45594000000E+02  0.51100000000E-03 0.  1.
         11   -1    0    0    0    0 -0.00000000000E+00 -0.00000000000E+00 -0.45593999997E+02  0.45594000000E+02  0.51100000000E-03 0. -1.
    9900012    2    1    2    0    0  0.92831335091E+00  0.72311947961E+00  0.91305037328E-01  0.90007744066E+02  0.90000005488E+02 0.  0.
        -12    1    1    2    0    0 -0.92831335091E+00 -0.72311947961E+00 -0.91305037328E-01  0.11802559337E+01  0.00000000000E+00 0.  1.
         11    1    3    3    0    0  0.73638802055E+01  0.21465530815E+01  0.48492763935E+01  0.90746847667E+01  0.51100000000E-03 0. -1.
        -11    1    3    3    0    0  0.37097013570E+02  0.16695862749E+01 -0.29948988498E+01  0.37255138619E+02  0.51100000000E-03 0.  1.
         12    1    3    3    0    0 -0.43532580424E+02 -0.30930198767E+01 -0.17630725064E+01  0.43677920681E+02  0.00000000000E+00 0. -1.
</event>
<event>
 7    1  0.1978681E-015  0.9000774E+02  0.7816164E-02  0.1186339E+00
        -11   -1    0    0    0    0  0.00000000000E+00  0.00000000000E+00  0.45593999997E+02  0.45594000000E+02  0.51100000000E-03 0. -1.
         11   -1    0    0    0    0 -0.00000000000E+00 -0.00000000000E+00 -0.45593999997E+02  0.45594000000E+02  0.51100000000E-03 0.  1.
    9900012    2    1    2    0    0  0.31134839620E+00  0.10762490810E+01  0.37116976362E+00  0.90007738630E+02  0.89999999980E+02 0.  0.
        -12    1    1    2    0    0 -0.31134839620E+00 -0.10762490810E+01 -0.37116976362E+00  0.11802613700E+01  0.00000000000E+00 0.  1.
         11    1    3    3    0    0 -0.79745028310E+01  0.43501499030E+01  0.39760979203E+01  0.99159394166E+01  0.51100000000E-03 0. -1.
        -11    1    3    3    0    0 -0.22336263482E+02 -0.17253240563E+01  0.28132441503E+02  0.35962753991E+02  0.51100000000E-03 0.  1.
         12    1    3    3    0    0  0.30622114710E+02 -0.15485767657E+01 -0.31737369660E+02  0.44129045222E+02  0.00000000000E+00 0. -1.
</event>
<event>
 7    1  0.1978681E-015  0.9000772E+02  0.7816164E-02  0.1186339E+00
        -11   -1    0    0    0    0  0.00000000000E+00  0.00000000000E+00  0.45593999997E+02  0.45594000000E+02  0.51100000000E-03 0.  1.
         11   -1    0    0    0    0 -0.00000000000E+00 -0.00000000000E+00 -0.45593999997E+02  0.45594000000E+02  0.51100000000E-03 0. -1.
    9900012    2    1    2    0    0 -0.50174835814E+00  0.33879947375E+00 -0.10131731773E+01  0.90007721903E+02  0.89999983032E+02 0.  0.
        -12    1    1    2    0    0  0.50174835814E+00 -0.33879947375E+00  0.10131731773E+01  0.11802780967E+01  0.00000000000E+00 0.  1.
         11    1    3    3    0    0 -0.21471462709E+02  0.94532577425E+01 -0.14156381990E+02  0.27400564668E+02  0.51100000000E-03 0. -1.
        -11    1    3    3    0    0 -0.76123947662E+01 -0.79261579949E+01 -0.17513822630E+02  0.20676230749E+02  0.51100000000E-03 0.  1.
        -12    1    3    3    0    0  0.28582109117E+02 -0.11883002739E+01  0.30657031442E+02  0.41930926486E+02  0.00000000000E+00 0.  1.
</event>
<event>
 7    1  0.1978681E-015  0.9000793E+02  0.7816164E-02  0.1186339E+00
        -11   -1    0    0    0    0  0.00000000000E+00  0.00000000000E+00  0.45593999997E+02  0.45594000000E+02  0.51100000000E-03 0. -1.
         11   -1    0    0    0    0 -0.00000000000E+00 -0.00000000000E+00 -0.45593999997E+02  0.45594000000E+02  0.51100000000E-03 0.  1.
    9900012    2    1    2    0    0 -0.68149075553E+00  0.38790089401E+00  0.88185205755E+00  0.90007932288E+02  0.90000196194E+02 0.  0.
        -12    1    1    2    0    0  0.68149075553E+00 -0.38790089401E+00 -0.88185205755E+00  0.11800677120E+01  0.00000000000E+00 0.  1.
         11    1    3    3    0    0  0.10968774716E+02  0.89299208494E+00  0.34789060257E+02  0.36488219572E+02  0.51100000000E-03 0. -1.
        -11    1    3    3    0    0 -0.25031261927E+01  0.11157553505E+01  0.91087546843E+01  0.95120956103E+01  0.51100000000E-03 0.  1.
        -12    1    3    3    0    0 -0.91471392792E+01 -0.16208465414E+01 -0.43015962884E+02  0.44007617106E+02  0.00000000000E+00 0.  1.
</event>
<event>
 7    1  0.1978681E-015  0.9000781E+02  0.7816164E-02  0.1186339E+00
        -11   -1    0    0    0    0  0.00000000000E+00  0.00000000000E+00  0.45593999997E+02  0.45594000000E+02  0.51100000000E-03 0.  1.
         11   -1    0    0    0    0 -0.00000000000E+00 -0.00000000000E+00 -0.45593999997E+02  0.45594000000E+02  0.51100000000E-03 0. -1.
    9900012    2    1    2    0    0 -0.72066231519E+00 -0.93452706016E+00  0.12524645300E-01  0.90007808547E+02  0.90000070820E+02 0.  0.
        -12    1    1    2    0    0  0.72066231519E+00  0.93452706016E+00 -0.12524645300E-01  0.11801914529E+01  0.00000000000E+00 0.  1.
         11    1    3    3    0    0  0.78312747983E+01 -0.84857304524E+01 -0.52213963000E+01  0.12672784456E+02  0.51100000000E-03 0. -1.
        -11    1    3    3    0    0  0.33417117164E+02 -0.69583519980E+00 -0.37372750632E+01  0.33632649782E+02  0.51100000000E-03 0.  1.
         12    1    3    3    0    0 -0.41969054278E+02  0.82470385920E+01  0.89711960085E+01  0.43702374310E+02  0.00000000000E+00 0. -1.
</event>
<event>
 7    1  0.1978681E-015  0.9000762E+02  0.7816164E-02  0.1186339E+00
        -11   -1    0    0    0    0  0.00000000000E+00  0.00000000000E+00  0.45593999997E+02  0.45594000000E+02  0.51100000000E-03 0.  1.
         11   -1    0    0    0    0 -0.00000000000E+00 -0.00000000000E+00 -0.45593999997E+02  0.45594000000E+02  0.51100000000E-03 0. -1.
    9900012    2    1    2    0    0  0.40681868154E+00 -0.10959761204E+01 -0.16319957871E+00  0.90007619045E+02  0.89999878816E+02 0.  0.
        -12    1    1    2    0    0 -0.40681868154E+00  0.10959761204E+01  0.16319957871E+00  0.11803809548E+01  0.00000000000E+00 0.  1.
         11    1    3    3    0    0  0.29932725961E+01  0.76950459558E+01  0.16463643991E+01  0.84192594147E+01  0.51100000000E-03 0. -1.
        -11    1    3    3    0    0 -0.39819601226E+02 -0.15408149593E+02 -0.74862877072E+01  0.43348082075E+02  0.51100000000E-03 0.  1.
         12    1    3    3    0    0  0.37233147311E+02  0.66171275168E+01  0.56767237294E+01  0.38240277556E+02  0.00000000000E+00 0. -1.
</event>
<event>
 7    1  0.1978681E-015  0.9000772E+02  0.7816164E-02  0.1186339E+00
        -11   -1    0    0    0    0  0.00000000000E+00  0.00000000000E+00  0.45593999997E+02  0.45594000000E+02  0.51100000000E-03 0.  1.
         11   -1    0    0    0    0 -0.00000000000E+00 -0.00000000000E+00 -0.45593999997E+02  0.45594000000E+02  0.51100000000E-03 0. -1.
    9900012    2    1    2    0    0 -0.92150153562E+00  0.70315134346E+00  0.22242703624E+00  0.90007720085E+02  0.89999981190E+02 0.  0.
        -12    1    1    2    0    0  0.92150153562E+00 -0.70315134346E+00 -0.22242703624E+00  0.11802799153E+01  0.00000000000E+00 0.  1.
         11    1    3    3    0    0  0.13552426809E+02 -0.33386626595E+02  0.67315719261E+00  0.36038704870E+02  0.51100000000E-03 0. -1.
        -11    1    3    3    0    0 -0.23720120063E+01 -0.87793478608E+01 -0.23194560895E+01  0.93852685966E+01  0.51100000000E-03 0.  1.
        -12    1    3    3    0    0 -0.12101916339E+02  0.42869125800E+02  0.18687259332E+01  0.44583746618E+02  0.00000000000E+00 0.  1.
</event>
<event>
 7    1  0.1978681E-015  0.9000755E+02  0.7816164E-02  0.1186339E+00
        -11   -1    0    0    0    0  0.00000000000E+00  0.00000000000E+00  0.45593999997E+02  0.45594000000E+02  0.51100000000E-03 0. -1.
         11   -1    0    0    0    0 -0.00000000000E+00 -0.00000000000E+00 -0.45593999997E+02  0.45594000000E+02  0.51100000000E-03 0.  1.
    9900012    2    1    2    0    0 -0.29929206582E+00 -0.11417365992E+01  0.17755569873E-01  0.90007553702E+02  0.89999812610E+02 0.  0.
        -12    1    1    2    0    0  0.29929206582E+00  0.11417365992E+01 -0.17755569873E-01  0.11804462982E+01  0.00000000000E+00 0.  1.
         11    1    3    3    0    0  0.75050517823E+00  0.99555914612E+01  0.20746330938E+01  0.10197115381E+02  0.51100000000E-03 0. -1.
        -11    1    3    3    0    0 -0.38559602327E+01  0.23465597929E+02  0.25977961955E+02  0.35218705585E+02  0.51100000000E-03 0.  1.
         12    1    3    3    0    0  0.28061629887E+01 -0.34562925990E+02 -0.28034839479E+02  0.44591732735E+02  0.00000000000E+00 0. -1.
</event>
<event>
 7    1  0.1978681E-015  0.9000675E+02  0.7816164E-02  0.1186341E+00
        -11   -1    0    0    0    0  0.00000000000E+00  0.00000000000E+00  0.45593999997E+02  0.45594000000E+02  0.51100000000E-03 0.  1.
         11   -1    0    0    0    0 -0.00000000000E+00 -0.00000000000E+00 -0.45593999997E+02  0.45594000000E+02  0.51100000000E-03 0. -1.
    9900012    2    1    2    0    0  0.46123766331E+00  0.93994767967E+00 -0.54690381519E+00  0.90006752521E+02  0.89999000849E+02 0.  0.
        -12    1    1    2    0    0 -0.46123766331E+00 -0.93994767967E+00  0.54690381519E+00  0.11812474786E+01  0.00000000000E+00 0.  1.
         11    1    3    3    0    0 -0.53988341709E+01  0.27884272934E+02  0.14705386456E+02  0.31983253095E+02  0.51100000000E-03 0. -1.
        -11    1    3    3    0    0 -0.47783068572E+01  0.72064119853E+01  0.10754239781E+02  0.13799212429E+02  0.51100000000E-03 0.  1.
        -12    1    3    3    0    0  0.10638378691E+02 -0.34150737239E+02 -0.26006530052E+02  0.44224286998E+02  0.00000000000E+00 0.  1.
</event>
<event>
 7    1  0.1978681E-015  0.9000774E+02  0.7816164E-02  0.1186339E+00
        -11   -1    0    0    0    0  0.00000000000E+00  0.00000000000E+00  0.45593999997E+02  0.45594000000E+02  0.51100000000E-03 0. -1.
         11   -1    0    0    0    0 -0.00000000000E+00 -0.00000000000E+00 -0.45593999997E+02  0.45594000000E+02  0.51100000000E-03 0.  1.
    9900012    2    1    2    0    0 -0.27665689205E+00  0.41790094254E+00  0.10685619242E+01  0.90007743748E+02  0.90000005166E+02 0.  0.
        -12    1    1    2    0    0  0.27665689205E+00 -0.41790094254E+00 -0.10685619242E+01  0.11802562517E+01  0.00000000000E+00 0.  1.
         11    1    3    3    0    0  0.70501752151E+01  0.39628982164E+01 -0.20578862680E+02  0.22111063346E+02  0.51100000000E-03 0. -1.
        -11    1    3    3    0    0  0.14870980222E+02 -0.21409444951E+01 -0.17381464078E+02  0.22974877364E+02  0.51100000000E-03 0.  1.
         12    1    3    3    0    0 -0.22197812329E+02 -0.14040527787E+01  0.39028888683E+02  0.44921803038E+02  0.00000000000E+00 0. -1.
</event>
<event>
 7    1  0.1978681E-015  0.9000764E+02  0.7816164E-02  0.1186339E+00
        -11   -1    0    0    0    0  0.00000000000E+00  0.00000000000E+00  0.45593999997E+02  0.45594000000E+02  0.51100000000E-03 0.  1.
         11   -1    0    0    0    0 -0.00000000000E+00 -0.00000000000E+00 -0.45593999997E+02  0.45594000000E+02  0.51100000000E-03 0. -1.
    9900012    2    1    2    0    0 -0.23266771389E+00  0.29437648377E+00 -0.11191287027E+01  0.90007643769E+02  0.89999903867E+02 0.  0.
        -12    1    1    2    0    0  0.23266771389E+00 -0.29437648377E+00  0.11191287027E+01  0.11803562312E+01  0.00000000000E+00 0.  1.
         11    1    3    3    0    0 -0.52201928840E+01 -0.19151128733E+02 -0.30031877412E+02  0.35999025079E+02  0.51100000000E-03 0. -1.
        -11    1    3    3    0    0  0.79141048558E+01 -0.26505146160E+01 -0.75622390370E+01  0.11262581539E+02  0.51100000000E-03 0.  1.
        -12    1    3    3    0    0 -0.29265796857E+01  0.22096019832E+02  0.36474987746E+02  0.42746037152E+02  0.00000000000E+00 0.  1.
</event>
<event>
 7    1  0.1978681E-015  0.9000764E+02  0.7816164E-02  0.1186339E+00
        -11   -1    0    0    0    0  0.00000000000E+00  0.00000000000E+00  0.45593999997E+02  0.45594000000E+02  0.51100000000E-03 0.  1.
         11   -1    0    0    0    0 -0.00000000000E+00 -0.00000000000E+00 -0.45593999997E+02  0.45594000000E+02  0.51100000000E-03 0. -1.
    9900012    2    1    2    0    0 -0.11993963430E+00  0.97425574501E+00  0.65550494995E+00  0.90007641363E+02  0.89999901429E+02 0.  0.
        -12    1    1    2    0    0  0.11993963430E+00 -0.97425574501E+00 -0.65550494995E+00  0.11803586370E+01  0.00000000000E+00 0.  1.
         11    1    3    3    0    0 -0.26809029202E+02  0.25447335725E+02 -0.15025990740E+02  0.39900768667E+02  0.51100000000E-03 0. -1.
        -11    1    3    3    0    0  0.59085357314E+01  0.52874608311E+01 -0.39305556579E+01  0.88497064681E+01  0.51100000000E-03 0.  1.
        -12    1    3    3    0    0  0.20780553836E+02 -0.29760540811E+02  0.19612051348E+02  0.41257166228E+02  0.00000000000E+00 0.  1.
</event>
<event>
 7    1  0.1978681E-015  0.9000777E+02  0.7816164E-02  0.1186339E+00
        -11   -1    0    0    0    0  0.00000000000E+00  0.00000000000E+00  0.45593999997E+02  0.45594000000E+02  0.51100000000E-03 0.  1.
         11   -1    0    0    0    0 -0.00000000000E+00 -0.00000000000E+00 -0.45593999997E+02  0.45594000000E+02  0.51100000000E-03 0. -1.
    9900012    2    1    2    0    0  0.25511564744E+00 -0.11266949314E+01  0.24172030936E+00  0.90007765206E+02  0.90000026906E+02 0.  0.
        -12    1    1    2    0    0 -0.25511564744E+00  0.11266949314E+01 -0.24172030936E+00  0.11802347944E+01  0.00000000000E+00 0.  1.
         11    1    3    3    0    0  0.86155725273E+01 -0.32404147072E+00  0.44338030098E+00  0.86330573495E+01  0.51100000000E-03 0. -1.
        -11    1    3    3    0    0 -0.36631028602E+01  0.28387751319E+02  0.28340388608E+02  0.40279776243E+02  0.51100000000E-03 0.  1.
         12    1    3    3    0    0 -0.46973540196E+01 -0.29190404780E+02 -0.28542048599E+02  0.41094931613E+02  0.00000000000E+00 0. -1.
</event>
<event>
 7    1  0.1978681E-015  0.9000782E+02  0.7816164E-02  0.1186339E+00
        -11   -1    0    0    0    0  0.00000000000E+00  0.00000000000E+00  0.45593999997E+02  0.45594000000E+02  0.51100000000E-03 0. -1.
         11   -1    0    0    0    0 -0.00000000000E+00 -0.00000000000E+00 -0.45593999997E+02  0.45594000000E+02  0.51100000000E-03 0.  1.
    9900012    2    1    2    0    0 -0.11584354941E+00 -0.10854761438E+01  0.44848959010E+00  0.90007821582E+02  0.90000084027E+02 0.  0.
        -12    1    1    2    0    0  0.11584354941E+00  0.10854761438E+01 -0.44848959010E+00  0.11801784183E+01  0.00000000000E+00 0.  1.
         11    1    3    3    0    0  0.44092474071E+01 -0.75298774860E+01 -0.41626832457E+00  0.87357768533E+01  0.51100000000E-03 0. -1.
        -11    1    3    3    0    0  0.28225241997E+02 -0.16327174594E+02 -0.17891543476E+02  0.37193389792E+02  0.51100000000E-03 0.  1.
         12    1    3    3    0    0 -0.32750332954E+02  0.22771575936E+02  0.18756301390E+02  0.44078654937E+02  0.00000000000E+00 0. -1.
</event>
<event>
 7    1  0.1978681E-015  0.9000767E+02  0.7816164E-02  0.1186339E+00
        -11   -1    0    0    0    0  0.00000000000E+00  0.00000000000E+00  0.45593999997E+02  0.45594000000E+02  0.51100000000E-03 0. -1.
         11   -1    0    0    0    0 -0.00000000000E+00 -0.00000000000E+00 -0.45593999997E+02  0.45594000000E+02  0.51100000000E-03 0.  1.
    9900012    2    1    2    0    0  0.65974250243E+00 -0.90449460736E+00 -0.37391631523E+00  0.90007667812E+02  0.89999928227E+02 0.  0.
        -12    1    1    2    0    0 -0.65974250243E+00  0.90449460736E+00  0.37391631523E+00  0.11803321884E+01  0.00000000000E+00 0.  1.
         11    1    3    3    0    0 -0.18793472451E+02  0.68552980874E+01  0.29579537272E+02  0.35709084896E+02  0.51100000000E-03 0. -1.
        -11    1    3    3    0    0 -0.61123634134E+01  0.69931280536E+01  0.32796183781E+01  0.98499098188E+01  0.51100000000E-03 0.  1.
        -12    1    3    3    0    0  0.25565578367E+02 -0.14752920748E+02 -0.33233071965E+02  0.44448673097E+02  0.00000000000E+00 0.  1.
</event>
<event>
 7    1  0.1978681E-015  0.9000774E+02  0.7816164E-02  0.1186339E+00
        -11   -1    0    0    0    0  0.00000000000E+00  0.00000000000E+00  0.45593999997E+02  0.45594000000E+02  0.51100000000E-03 0.  1.
         11   -1    0    0    0    0 -0.00000000000E+00 -0.00000000000E+00 -0.45593999997E+02  0.45594000000E+02  0.51100000000E-03 0. -1.
    9900012    2    1    2    0    0  0.77668829693E+00  0.37742057653E+00 -0.80455655941E+00  0.90007744833E+02  0.90000006265E+02 0.  0.
        -12    1    1    2    0    0 -0.77668829693E+00 -0.37742057653E+00  0.80455655941E+00  0.11802551671E+01  0.00000000000E+00 0.  1.
         11    1    3    3    0    0 -0.99864584240E+01  0.36577220473E+01  0.15553695033E+01  0.10748369969E+02  0.51100000000E-03 0. -1.
        -11    1    3    3    0    0 -0.12083463137E+02  0.25797824445E+02  0.21113444438E+02  0.35458643005E+02  0.51100000000E-03 0.  1.
         12    1    3    3    0    0  0.22846609858E+02 -0.29078125915E+02 -0.23473370500E+02  0.43800731859E+02  0.00000000000E+00 0. -1.
</event>
<event>
 7    1  0.1978681E-015  0.9000787E+02  0.7816164E-02  0.1186339E+00
        -11   -1    0    0    0    0  0.00000000000E+00  0.00000000000E+00  0.45593999997E+02  0.45594000000E+02  0.51100000000E-03 0.  1.
         11   -1    0    0    0    0 -0.00000000000E+00 -0.00000000000E+00 -0.45593999997E+02  0.45594000000E+02  0.51100000000E-03 0. -1.
    9900012    2    1    2    0    0  0.93040249850E-02  0.56711453348E+00 -0.10348874952E+01  0.90007873911E+02  0.90000137046E+02 0.  0.
        -12    1    1    2    0    0 -0.93040249850E-02 -0.56711453348E+00  0.10348874952E+01  0.11801260893E+01  0.00000000000E+00 0.  1.
         11    1    3    3    0    0 -0.17727300713E+01 -0.94477551916E+01  0.47072724753E+01  0.10703320255E+02  0.51100000000E-03 0. -1.
        -11    1    3    3    0    0 -0.57272548202E+01 -0.33308729576E+02 -0.96870066813E+01  0.35158370446E+02  0.51100000000E-03 0.  1.
         12    1    3    3    0    0  0.75092889165E+01  0.43323599301E+02  0.39448467107E+01  0.44146183210E+02  0.00000000000E+00 0. -1.
</event>
<event>
 7    1  0.1978681E-015  0.9000763E+02  0.7816164E-02  0.1186339E+00
        -11   -1    0    0    0    0  0.00000000000E+00  0.00000000000E+00  0.45593999997E+02  0.45594000000E+02  0.51100000000E-03 0. -1.
         11   -1    0    0    0    0 -0.00000000000E+00 -0.00000000000E+00 -0.45593999997E+02  0.45594000000E+02  0.51100000000E-03 0.  1.
    9900012    2    1    2    0    0  0.90316756288E+00  0.72672922883E+00  0.22230936994E+00  0.90007632060E+02  0.89999892003E+02 0.  0.
        -12    1    1    2    0    0 -0.90316756288E+00 -0.72672922883E+00 -0.22230936994E+00  0.11803679404E+01  0.00000000000E+00 0.  1.
         11    1    3    3    0    0 -0.21504552367E+02 -0.16374962363E+02  0.30204977074E+02  0.40533021171E+02  0.51100000000E-03 0. -1.
        -11    1    3    3    0    0  0.54371448609E+01  0.58777640192E+01  0.46853285170E+01  0.92770123249E+01  0.51100000000E-03 0.  1.
        -12    1    3    3    0    0  0.16970575069E+02  0.11223927572E+02 -0.34667996221E+02  0.40197598564E+02  0.00000000000E+00 0.  1.
</event>
<event>
 7    1  0.1978681E-015  0.9000775E+02  0.7816164E-02  0.1186339E+00
        -11   -1    0    0    0    0  0.00000000000E+00  0.00000000000E+00  0.45593999997E+02  0.45594000000E+02  0.51100000000E-03 0. -1.
         11   -1    0    0    0    0 -0.00000000000E+00 -0.00000000000E+00 -0.45593999997E+02  0.45594000000E+02  0.51100000000E-03 0.  1.
    9900012    2    1    2    0    0  0.10699710723E+01  0.43651735442E+00  0.24001809004E+00  0.90007748256E+02  0.90000009733E+02 0.  0.
        -12    1    1    2    0    0 -0.10699710723E+01 -0.43651735442E+00 -0.24001809004E+00  0.11802517443E+01  0.00000000000E+00 0.  1.
         11    1    3    3    0    0  0.73325861292E+01  0.68528045645E+01  0.33682571306E+01  0.10586449173E+02  0.51100000000E-03 0. -1.
        -11    1    3    3    0    0 -0.19093681370E+02  0.32784312879E+02  0.11223811804E+01  0.37955758180E+02  0.51100000000E-03 0.  1.
         12    1    3    3    0    0  0.12831066313E+02 -0.39200600089E+02 -0.42506202209E+01  0.41465540903E+02  0.00000000000E+00 0. -1.
</event>
<event>
 7    1  0.1978681E-015  0.9000754E+02  0.7816164E-02  0.1186339E+00
        -11   -1    0    0    0    0  0.00000000000E+00  0.00000000000E+00  0.45593999997E+02  0.45594000000E+02  0.51100000000E-03 0.  1.
         11   -1    0    0    0    0 -0.00000000000E+00 -0.00000000000E+00 -0.45593999997E+02  0.45594000000E+02  0.51100000000E-03 0. -1.
    9900012    2    1    2    0    0 -0.89506225346E+00  0.74916348894E+00  0.17634597089E+00  0.90007542346E+02  0.89999801105E+02 0.  0.
        -12    1    1    2    0    0  0.89506225346E+00 -0.74916348894E+00 -0.17634597089E+00  0.11804576537E+01  0.00000000000E+00 0.  1.
         11    1    3    3    0    0  0.47158406870E+01 -0.43815035885E+01  0.75813500172E+01  0.99455314300E+01  0.51100000000E-03 0. -1.
        -11    1    3    3    0    0 -0.11464824669E+02 -0.63923464658E+01  0.34127519115E+02  0.36564899278E+02  0.51100000000E-03 0.  1.
         12    1    3    3    0    0  0.58539217283E+01  0.11523013543E+02 -0.41532523161E+02  0.43497111638E+02  0.00000000000E+00 0. -1.
</event>
<event>
 7    1  0.1978681E-015  0.9000767E+02  0.7816164E-02  0.1186339E+00
        -11   -1    0    0    0    0  0.00000000000E+00  0.00000000000E+00  0.45593999997E+02  0.45594000000E+02  0.51100000000E-03 0. -1.
         11   -1    0    0    0    0 -0.00000000000E+00 -0.00000000000E+00 -0.45593999997E+02  0.45594000000E+02  0.51100000000E-03 0.  1.
    9900012    2    1    2    0    0  0.98237203569E+00  0.47246412849E+00  0.45264793925E+00  0.90007674907E+02  0.89999935415E+02 0.  0.
        -12    1    1    2    0    0 -0.98237203569E+00 -0.47246412849E+00 -0.45264793925E+00  0.11803250934E+01  0.00000000000E+00 0.  1.
         11    1    3    3    0    0 -0.29106115960E+01 -0.33877001057E+00  0.89186987225E+01  0.93877373284E+01  0.51100000000E-03 0. -1.
        -11    1    3    3    0    0  0.72164372904E+01 -0.21988523703E+02 -0.37186468844E+02  0.43799607386E+02  0.51100000000E-03 0.  1.
         12    1    3    3    0    0 -0.33234536587E+01  0.22799757842E+02  0.28720418061E+02  0.36820330192E+02  0.00000000000E+00 0. -1.
</event>
<event>
 7    1  0.1978681E-015  0.9000779E+02  0.7816164E-02  0.1186339E+00
        -11   -1    0    0    0    0  0.00000000000E+00  0.00000000000E+00  0.45593999997E+02  0.45594000000E+02  0.51100000000E-03 0. -1.
         11   -1    0    0    0    0 -0.00000000000E+00 -0.00000000000E+00 -0.45593999997E+02  0.45594000000E+02  0.51100000000E-03 0.  1.
    9900012    2    1    2    0    0  0.93489248392E+00  0.55119295287E+00  0.46375230821E+00  0.90007786532E+02  0.90000048514E+02 0.  0.
        -12    1    1    2    0    0 -0.93489248392E+00 -0.55119295287E+00 -0.46375230821E+00  0.11802134685E+01  0.00000000000E+00 0.  1.
         11    1    3    3    0    0 -0.16281694607E+01 -0.40865541495E+01 -0.75425791656E+01  0.87316299361E+01  0.51100000000E-03 0. -1.
        -11    1    3    3    0    0 -0.10429465779E+02 -0.36090042239E+02  0.85297408838E+01  0.38522998131E+02  0.51100000000E-03 0.  1.
         12    1    3    3    0    0  0.12992527723E+02  0.40727789341E+02 -0.52340940991E+00  0.42753158464E+02  0.00000000000E+00 0. -1.
</event>
<event>
 7    1  0.1978681E-015  0.9000775E+02  0.7816164E-02  0.1186339E+00
        -11   -1    0    0    0    0  0.00000000000E+00  0.00000000000E+00  0.45593999997E+02  0.45594000000E+02  0.51100000000E-03 0.  1.
         11   -1    0    0    0    0 -0.00000000000E+00 -0.00000000000E+00 -0.45593999997E+02  0.45594000000E+02  0.51100000000E-03 0. -1.
    9900012    2    1    2    0    0  0.29071067304E-02 -0.86740864583E+00 -0.80036773650E+00  0.90007748025E+02  0.90000009499E+02 0.  0.
        -12    1    1    2    0    0 -0.29071067304E-02  0.86740864583E+00  0.80036773650E+00  0.11802519747E+01  0.00000000000E+00 0.  1.
         11    1    3    3    0    0 -0.28939799917E+02 -0.17831432908E+02 -0.10992901844E+02  0.35725563816E+02  0.51100000000E-03 0. -1.
        -11    1    3    3    0    0 -0.35693465405E+01 -0.73551589742E+01 -0.64389343002E+01  0.10406655248E+02  0.51100000000E-03 0.  1.
        -12    1    3    3    0    0  0.32512053564E+02  0.24319183236E+02  0.16631468407E+02  0.43875528961E+02  0.00000000000E+00 0.  1.
</event>
<event>
 7    1  0.1978681E-015  0.9000756E+02  0.7816164E-02  0.1186339E+00
        -11   -1    0    0    0    0  0.00000000000E+00  0.00000000000E+00  0.45593999997E+02  0.45594000000E+02  0.51100000000E-03 0.  1.
         11   -1    0    0    0    0 -0.00000000000E+00 -0.00000000000E+00 -0.45593999997E+02  0.45594000000E+02  0.51100000000E-03 0. -1.
    9900012    2    1    2    0    0  0.14002467735E+00 -0.99285111641E+00 -0.62295171589E+00  0.90007564025E+02  0.89999823070E+02 0.  0.
        -12    1    1    2    0    0 -0.14002467735E+00  0.99285111641E+00  0.62295171589E+00  0.11804359745E+01  0.00000000000E+00 0.  1.
         11    1    3    3    0    0  0.12014375702E+02  0.55013817311E+01 -0.37262948345E+02  0.39536536824E+02  0.51100000000E-03 0. -1.
        -11    1    3    3    0    0  0.58476014179E+01  0.68427199229E+01  0.18140463676E+01  0.91819400331E+01  0.51100000000E-03 0.  1.
        -12    1    3    3    0    0 -0.17721952442E+02 -0.13336952770E+02  0.34825950261E+02  0.41289087168E+02  0.00000000000E+00 0.  1.
</event>
<event>
 7    1  0.1978681E-015  0.9000767E+02  0.7816164E-02  0.1186339E+00
        -11   -1    0    0    0    0  0.00000000000E+00  0.00000000000E+00  0.45593999997E+02  0.45594000000E+02  0.51100000000E-03 0.  1.
         11   -1    0    0    0    0 -0.00000000000E+00 -0.00000000000E+00 -0.45593999997E+02  0.45594000000E+02  0.51100000000E-03 0. -1.
    9900012    2    1    2    0    0  0.64465702249E+00 -0.98466922723E+00 -0.89531536357E-01  0.90007672901E+02  0.89999933384E+02 0.  0.
        -12    1    1    2    0    0 -0.64465702249E+00  0.98466922723E+00  0.89531536357E-01  0.11803270986E+01  0.00000000000E+00 0.  1.
         11    1    3    3    0    0 -0.19383620086E+01  0.83360462133E+01 -0.47690335715E+01  0.97974790234E+01  0.51100000000E-03 0. -1.
        -11    1    3    3    0    0  0.21342955550E+00  0.20935568220E+02  0.32749762294E+02  0.38870174935E+02  0.51100000000E-03 0.  1.
         12    1    3    3    0    0  0.23695894756E+01 -0.30256283661E+02 -0.28070260259E+02  0.41340018943E+02  0.00000000000E+00 0. -1.
</event>
<event>
 7    1  0.1978681E-015  0.9000778E+02  0.7816164E-02  0.1186339E+00
        -11   -1    0    0    0    0  0.00000000000E+00  0.00000000000E+00  0.45593999997E+02  0.45594000000E+02  0.51100000000E-03 0. -1.
         11   -1    0    0    0    0 -0.00000000000E+00 -0.00000000000E+00 -0.45593999997E+02  0.45594000000E+02  0.51100000000E-03 0.  1.
    9900012    2    1    2    0    0 -0.48084481745E+00 -0.15289323841E+00  0.10669230969E+01  0.90007782657E+02  0.90000044589E+02 0.  0.
        -12    1    1    2    0    0  0.48084481745E+00  0.15289323841E+00 -0.10669230969E+01  0.11802173425E+01  0.00000000000E+00 0.  1.
         11    1    3    3    0    0  0.19390344192E+01 -0.12760537121E+02 -0.17454994558E+00  0.12908200108E+02  0.51100000000E-03 0. -1.
        -11    1    3    3    0    0  0.39905876205E+01 -0.27223132895E+02 -0.17508023665E+02  0.32612185561E+02  0.51100000000E-03 0.  1.
         12    1    3    3    0    0 -0.64104668571E+01  0.39830776777E+02  0.18749496707E+02  0.44487396988E+02  0.00000000000E+00 0. -1.
</event>
<event>
 7    1  0.1978681E-015  0.9000774E+02  0.7816164E-02  0.1186339E+00
        -11   -1    0    0    0    0  0.00000000000E+00  0.00000000000E+00  0.45593999997E+02  0.45594000000E+02  0.51100000000E-03 0. -1.
         11   -1    0    0    0    0 -0.00000000000E+00 -0.00000000000E+00 -0.45593999997E+02  0.45594000000E+02  0.51100000000E-03 0.  1.
    9900012    2    1    2    0    0 -0.19994601074E+00 -0.30684624840E+00  0.11220011543E+01  0.90007737479E+02  0.89999998814E+02 0.  0.
        -12    1    1    2    0    0  0.19994601074E+00  0.30684624840E+00 -0.11220011543E+01  0.11802625207E+01  0.00000000000E+00 0.  1.
         11    1    3    3    0    0 -0.23619620309E+02 -0.93650200729E+01  0.28982057712E+02  0.38542829865E+02  0.51100000000E-03 0. -1.
        -11    1    3    3    0    0  0.49504556362E+01  0.62018453895E+00  0.84787620003E+01  0.98377357754E+01  0.51100000000E-03 0.  1.
        -12    1    3    3    0    0  0.18469218662E+02  0.84379892856E+01 -0.36338818558E+02  0.41627171839E+02  0.00000000000E+00 0.  1.
</event>
<event>
 7    1  0.1978681E-015  0.9000767E+02  0.7816164E-02  0.1186339E+00
        -11   -1    0    0    0    0  0.00000000000E+00  0.00000000000E+00  0.45593999997E+02  0.45594000000E+02  0.51100000000E-03 0. -1.
         11   -1    0    0    0    0 -0.00000000000E+00 -0.00000000000E+00 -0.45593999997E+02  0.45594000000E+02  0.51100000000E-03 0.  1.
    9900012    2    1    2    0    0  0.65097284627E+00 -0.94585669130E+00  0.27342766275E+00  0.90007672412E+02  0.89999932888E+02 0.  0.
        -12    1    1    2    0    0 -0.65097284627E+00  0.94585669130E+00 -0.27342766275E+00  0.11803275875E+01  0.00000000000E+00 0.  1.
         11    1    3    3    0    0  0.12433919623E+02  0.20461107809E+02 -0.36621775291E+01  0.24221288869E+02  0.51100000000E-03 0. -1.
        -11    1    3    3    0    0 -0.10936353796E+02  0.54396648480E+01 -0.24063973730E+02  0.26986452527E+02  0.51100000000E-03 0.  1.
         12    1    3    3    0    0 -0.84659297994E+00 -0.26846629349E+02  0.27999578922E+02  0.38799931017E+02  0.00000000000E+00 0. -1.
</event>
<event>
 7    1  0.1978681E-015  0.9000848E+02  0.7816164E-02  0.1186338E+00
        -11   -1    0    0    0    0  0.00000000000E+00  0.00000000000E+00  0.45593999997E+02  0.45594000000E+02  0.51100000000E-03 0. -1.
         11   -1    0    0    0    0 -0.00000000000E+00 -0.00000000000E+00 -0.45593999997E+02  0.45594000000E+02  0.51100000000E-03 0.  1.
    9900012    2    1    2    0    0  0.97314881738E+00  0.62316679030E+00 -0.23646425965E+00  0.90008478565E+02  0.90000749679E+02 0.  0.
        -12    1    1    2    0    0 -0.97314881738E+00 -0.62316679030E+00  0.23646425965E+00  0.11795214349E+01  0.00000000000E+00 0.  1.
         11    1    3    3    0    0  0.43058059598E+01  0.78551632024E+01  0.47972601922E+01  0.10161557927E+02  0.51100000000E-03 0. -1.
        -11    1    3    3    0    0 -0.13922932361E+02 -0.40332630797E+02  0.66474206729E+01  0.43182836341E+02  0.51100000000E-03 0.  1.
         12    1    3    3    0    0  0.10590275219E+02  0.33100634385E+02 -0.11681145125E+02  0.36664084297E+02  0.00000000000E+00 0. -1.
</event>
<event>
 7    1  0.1978681E-015  0.9000764E+02  0.7816164E-02  0.1186339E+00
        -11   -1    0    0    0    0  0.00000000000E+00  0.00000000000E+00  0.45593999997E+02  0.45594000000E+02  0.51100000000E-03 0.  1.
         11   -1    0    0    0    0 -0.00000000000E+00 -0.00000000000E+00 -0.45593999997E+02  0.45594000000E+02  0.51100000000E-03 0. -1.
    9900012    2    1    2    0    0  0.33697062580E+00 -0.74184147495E+00 -0.85402987864E+00  0.90007641999E+02  0.89999902073E+02 0.  0.
        -12    1    1    2    0    0 -0.33697062580E+00  0.74184147495E+00  0.85402987864E+00  0.11803580009E+01  0.00000000000E+00 0.  1.
         11    1    3    3    0    0  0.29529710381E+01  0.60354353507E+01 -0.42506257591E+01  0.79507444576E+01  0.51100000000E-03 0. -1.
        -11    1    3    3    0    0  0.13079758058E+02  0.25367192919E+02 -0.23766678739E+02  0.37140672665E+02  0.51100000000E-03 0.  1.
         12    1    3    3    0    0 -0.15695758470E+02 -0.32144469745E+02  0.27163274619E+02  0.44916224877E+02  0.00000000000E+00 0. -1.
</event>
<event>
 7    1  0.1978681E-015  0.9000770E+02  0.7816164E-02  0.1186339E+00
        -11   -1    0    0    0    0  0.00000000000E+00  0.00000000000E+00  0.45593999997E+02  0.45594000000E+02  0.51100000000E-03 0.  1.
         11   -1    0    0    0    0 -0.00000000000E+00 -0.00000000000E+00 -0.45593999997E+02  0.45594000000E+02  0.51100000000E-03 0. -1.
    9900012    2    1    2    0    0  0.10268754377E+01  0.52990345842E+00 -0.24051252810E+00  0.90007696176E+02  0.89999956966E+02 0.  0.
        -12    1    1    2    0    0 -0.10268754377E+01 -0.52990345842E+00  0.24051252810E+00  0.11803038236E+01  0.00000000000E+00 0.  1.
         11    1    3    3    0    0  0.20045972787E+02  0.20088074578E+02  0.23708927043E+02  0.36979521184E+02  0.51100000000E-03 0. -1.
        -11    1    3    3    0    0  0.61602566918E+01  0.22504649664E+01  0.55050474894E+01  0.85626458058E+01  0.51100000000E-03 0.  1.
        -12    1    3    3    0    0 -0.25179354041E+02 -0.21808636086E+02 -0.29454487060E+02  0.44465529187E+02  0.00000000000E+00 0.  1.
</event>
<event>
 7    1  0.1978681E-015  0.9000771E+02  0.7816164E-02  0.1186339E+00
        -11   -1    0    0    0    0  0.00000000000E+00  0.00000000000E+00  0.45593999997E+02  0.45594000000E+02  0.51100000000E-03 0.  1.
         11   -1    0    0    0    0 -0.00000000000E+00 -0.00000000000E+00 -0.45593999997E+02  0.45594000000E+02  0.51100000000E-03 0. -1.
    9900012    2    1    2    0    0 -0.95497501011E+00  0.62214530543E+00  0.30667464439E+00  0.90007707075E+02  0.89999968009E+02 0.  0.
        -12    1    1    2    0    0  0.95497501011E+00 -0.62214530543E+00 -0.30667464439E+00  0.11802929249E+01  0.00000000000E+00 0.  1.
         11    1    3    3    0    0  0.62045501969E+00  0.13992002154E+02 -0.15518565150E+02  0.20904232903E+02  0.51100000000E-03 0. -1.
        -11    1    3    3    0    0 -0.21552557084E+02  0.88593113625E+00 -0.17457979434E+02  0.27750290756E+02  0.51100000000E-03 0.  1.
         12    1    3    3    0    0  0.19977127054E+02 -0.14255787985E+02  0.33283219229E+02  0.41353183416E+02  0.00000000000E+00 0. -1.
</event>
<event>
 7    1  0.1978681E-015  0.9000778E+02  0.7816164E-02  0.1186339E+00
        -11   -1    0    0    0    0  0.00000000000E+00  0.00000000000E+00  0.45593999997E+02  0.45594000000E+02  0.51100000000E-03 0. -1.
         11   -1    0    0    0    0 -0.00000000000E+00 -0.00000000000E+00 -0.45593999997E+02  0.45594000000E+02  0.51100000000E-03 0.  1.
    9900012    2    1    2    0    0 -0.20873131062E+00  0.27892195621E+00  0.11276363316E+01  0.90007775481E+02  0.90000037318E+02 0.  0.
        -12    1    1    2    0    0  0.20873131062E+00 -0.27892195621E+00 -0.11276363316E+01  0.11802245185E+01  0.00000000000E+00 0.  1.
         11    1    3    3    0    0  0.46815995803E+01  0.90677332504E+01 -0.20204321517E+02  0.22635277095E+02  0.51100000000E-03 0.  1.
        -11    1    3    3    0    0  0.27818958004E+02  0.33677837041E+01  0.36678201093E+01  0.28261091559E+02  0.51100000000E-03 0. -1.
         12    1    3    3    0    0 -0.32709288895E+02 -0.12156594998E+02  0.17664137739E+02  0.39111406828E+02  0.00000000000E+00 0. -1.
</event>
<event>
 7    1  0.1978681E-015  0.9000784E+02  0.7816164E-02  0.1186339E+00
        -11   -1    0    0    0    0  0.00000000000E+00  0.00000000000E+00  0.45593999997E+02  0.45594000000E+02  0.51100000000E-03 0.  1.
         11   -1    0    0    0    0 -0.00000000000E+00 -0.00000000000E+00 -0.45593999997E+02  0.45594000000E+02  0.51100000000E-03 0. -1.
    9900012    2    1    2    0    0 -0.86779963903E+00 -0.14071862346E+00 -0.78733870329E+00  0.90007838919E+02  0.90000101592E+02 0.  0.
        -12    1    1    2    0    0  0.86779963903E+00  0.14071862346E+00  0.78733870329E+00  0.11801610815E+01  0.00000000000E+00 0.  1.
         11    1    3    3    0    0  0.17899562288E+02 -0.13532864415E+02  0.31536013133E+02  0.38704688010E+02  0.51100000000E-03 0. -1.
        -11    1    3    3    0    0 -0.54639529707E+01 -0.63602289739E+01  0.28238941401E+01  0.88476930915E+01  0.51100000000E-03 0.  1.
        -12    1    3    3    0    0 -0.13303408957E+02  0.19752374766E+02 -0.35147245976E+02  0.42455457817E+02  0.00000000000E+00 0.  1.
</event>
<event>
 7    1  0.1978681E-015  0.9000758E+02  0.7816164E-02  0.1186339E+00
        -11   -1    0    0    0    0  0.00000000000E+00  0.00000000000E+00  0.45593999997E+02  0.45594000000E+02  0.51100000000E-03 0.  1.
         11   -1    0    0    0    0 -0.00000000000E+00 -0.00000000000E+00 -0.45593999997E+02  0.45594000000E+02  0.51100000000E-03 0. -1.
    9900012    2    1    2    0    0 -0.97594923210E+00 -0.65076488358E+00  0.13194047865E+00  0.90007584765E+02  0.89999844084E+02 0.  0.
        -12    1    1    2    0    0  0.97594923210E+00  0.65076488358E+00 -0.13194047865E+00  0.11804152351E+01  0.00000000000E+00 0.  1.
         11    1    3    3    0    0 -0.33821552903E+01  0.11495717614E+02 -0.55301749804E+00  0.11995679493E+02  0.51100000000E-03 0. -1.
        -11    1    3    3    0    0 -0.24169430421E+02  0.42749155867E+01  0.27486752667E+02  0.36850479544E+02  0.51100000000E-03 0.  1.
         12    1    3    3    0    0  0.26575636480E+02 -0.16421398085E+02 -0.26801794690E+02  0.41161425728E+02  0.00000000000E+00 0. -1.
</event>
<event>
 7    1  0.1978681E-015  0.9000773E+02  0.7816164E-02  0.1186339E+00
        -11   -1    0    0    0    0  0.00000000000E+00  0.00000000000E+00  0.45593999997E+02  0.45594000000E+02  0.51100000000E-03 0.  1.
         11   -1    0    0    0    0 -0.00000000000E+00 -0.00000000000E+00 -0.45593999997E+02  0.45594000000E+02  0.51100000000E-03 0. -1.
    9900012    2    1    2    0    0  0.10530872613E+01  0.41299159383E+00 -0.33688826236E+00  0.90007725228E+02  0.89999986401E+02 0.  0.
        -12    1    1    2    0    0 -0.10530872613E+01 -0.41299159383E+00  0.33688826236E+00  0.11802747721E+01  0.00000000000E+00 0.  1.
         11    1    3    3    0    0  0.11930822075E+02  0.18963564939E+01 -0.84565569508E+00  0.12110153473E+02  0.51100000000E-03 0. -1.
        -11    1    3    3    0    0  0.18635315512E+02  0.17400222618E+02 -0.24098540881E+02  0.35082508523E+02  0.51100000000E-03 0.  1.
         12    1    3    3    0    0 -0.29513050326E+02 -0.18883587518E+02  0.24607308314E+02  0.42815063232E+02  0.00000000000E+00 0. -1.
</event>
<event>
 7    1  0.1978681E-015  0.9000814E+02  0.7816164E-02  0.1186338E+00
        -11   -1    0    0    0    0  0.00000000000E+00  0.00000000000E+00  0.45593999997E+02  0.45594000000E+02  0.51100000000E-03 0.  1.
         11   -1    0    0    0    0 -0.00000000000E+00 -0.00000000000E+00 -0.45593999997E+02  0.45594000000E+02  0.51100000000E-03 0. -1.
    9900012    2    1    2    0    0  0.10765497318E+01 -0.48224266702E+00 -0.23499104161E-01  0.90008140041E+02  0.90000406689E+02 0.  0.
        -12    1    1    2    0    0 -0.10765497318E+01  0.48224266702E+00  0.23499104161E-01  0.11798599590E+01  0.00000000000E+00 0.  1.
         11    1    3    3    0    0  0.19615261608E+02  0.28152391458E+02 -0.71181340698E+01  0.35042595019E+02  0.51100000000E-03 0. -1.
        -11    1    3    3    0    0  0.92924567588E+01 -0.68728847148E+01  0.14827496327E+02  0.18800025120E+02  0.51100000000E-03 0.  1.
        -12    1    3    3    0    0 -0.27831168635E+02 -0.21761749410E+02 -0.77328613610E+01  0.36165519903E+02  0.00000000000E+00 0.  1.
</event>
<event>
 7    1  0.1978681E-015  0.9000774E+02  0.7816164E-02  0.1186339E+00
        -11   -1    0    0    0    0  0.00000000000E+00  0.00000000000E+00  0.45593999997E+02  0.45594000000E+02  0.51100000000E-03 0.  1.
         11   -1    0    0    0    0 -0.00000000000E+00 -0.00000000000E+00 -0.45593999997E+02  0.45594000000E+02  0.51100000000E-03 0. -1.
    9900012    2    1    2    0    0  0.75997334026E-01 -0.72122936091E+00 -0.93116882456E+00  0.90007736146E+02  0.89999997463E+02 0.  0.
        -12    1    1    2    0    0 -0.75997334026E-01  0.72122936091E+00  0.93116882456E+00  0.11802638542E+01  0.00000000000E+00 0.  1.
         11    1    3    3    0    0 -0.51640838121E+01  0.43786205797E+01  0.55401893549E+01  0.87483585974E+01  0.51100000000E-03 0. -1.
        -11    1    3    3    0    0  0.53911743192E+01 -0.33311205310E+02  0.22706594975E+02  0.40672971558E+02  0.51100000000E-03 0.  1.
         12    1    3    3    0    0 -0.15109317307E+00  0.28211355369E+02 -0.29177953154E+02  0.40586405990E+02  0.00000000000E+00 0. -1.
</event>
<event>
 7    1  0.1978681E-015  0.9000769E+02  0.7816164E-02  0.1186339E+00
        -11   -1    0    0    0    0  0.00000000000E+00  0.00000000000E+00  0.45593999997E+02  0.45594000000E+02  0.51100000000E-03 0.  1.
         11   -1    0    0    0    0 -0.00000000000E+00 -0.00000000000E+00 -0.45593999997E+02  0.45594000000E+02  0.51100000000E-03 0. -1.
    9900012    2    1    2    0    0  0.61354899571E+00 -0.54118316814E+00  0.85076397457E+00  0.90007694560E+02  0.89999955328E+02 0.  0.
        -12    1    1    2    0    0 -0.61354899571E+00  0.54118316814E+00 -0.85076397457E+00  0.11803054401E+01  0.00000000000E+00 0.  1.
         11    1    3    3    0    0 -0.35260208574E+01  0.99815549497E+01 -0.35738845709E+02  0.37273708632E+02  0.51100000000E-03 0. -1.
        -11    1    3    3    0    0  0.20819848523E+01  0.82242320572E+01 -0.29051854993E+01  0.89673160367E+01  0.51100000000E-03 0.  1.
        -12    1    3    3    0    0  0.20575850008E+01 -0.18746970175E+02  0.39494795183E+02  0.43766669891E+02  0.00000000000E+00 0.  1.
</event>
<event>
 7    1  0.1978681E-015  0.9000771E+02  0.7816164E-02  0.1186339E+00
        -11   -1    0    0    0    0  0.00000000000E+00  0.00000000000E+00  0.45593999997E+02  0.45594000000E+02  0.51100000000E-03 0. -1.
         11   -1    0    0    0    0 -0.00000000000E+00 -0.00000000000E+00 -0.45593999997E+02  0.45594000000E+02  0.51100000000E-03 0.  1.
    9900012    2    1    2    0    0 -0.44580555150E+00 -0.10156969352E+01  0.40337048245E+00  0.90007707409E+02  0.89999968347E+02 0.  0.
        -12    1    1    2    0    0  0.44580555150E+00  0.10156969352E+01 -0.40337048245E+00  0.11802925908E+01  0.00000000000E+00 0.  1.
         11    1    3    3    0    0  0.96119587171E+01  0.19654556865E+02  0.31065014965E+02  0.37996401290E+02  0.51100000000E-03 0. -1.
        -11    1    3    3    0    0 -0.40397353423E+01  0.17805097812E+01  0.66916582889E+01  0.80167304828E+01  0.51100000000E-03 0.  1.
        -12    1    3    3    0    0 -0.60180289263E+01 -0.22450763582E+02 -0.37353302771E+02  0.43994575637E+02  0.00000000000E+00 0.  1.
</event>
<event>
 7    1  0.1978681E-015  0.9000739E+02  0.7816164E-02  0.1186340E+00
        -11   -1    0    0    0    0  0.00000000000E+00  0.00000000000E+00  0.45593999997E+02  0.45594000000E+02  0.51100000000E-03 0.  1.
         11   -1    0    0    0    0 -0.00000000000E+00 -0.00000000000E+00 -0.45593999997E+02  0.45594000000E+02  0.51100000000E-03 0. -1.
    9900012    2    1    2    0    0 -0.11252125674E+01  0.20621619403E+00  0.29192148360E+00  0.90007387196E+02  0.89999643906E+02 0.  0.
        -12    1    1    2    0    0  0.11252125674E+01 -0.20621619403E+00 -0.29192148360E+00  0.11806128041E+01  0.00000000000E+00 0.  1.
         11    1    3    3    0    0 -0.10351335688E+01 -0.74059585265E+00  0.27875972352E+01  0.30644220220E+01  0.51100000000E-03 0. -1.
        -11    1    3    3    0    0  0.25704053766E+02 -0.70918725090E+01  0.32941728247E+02  0.42381015748E+02  0.51100000000E-03 0.  1.
         12    1    3    3    0    0 -0.25794132764E+02  0.80386845557E+01 -0.35437403999E+02  0.44561949426E+02  0.00000000000E+00 0. -1.
</event>
<event>
 7    1  0.1978681E-015  0.9000773E+02  0.7816164E-02  0.1186339E+00
        -11   -1    0    0    0    0  0.00000000000E+00  0.00000000000E+00  0.45593999997E+02  0.45594000000E+02  0.51100000000E-03 0. -1.
         11   -1    0    0    0    0 -0.00000000000E+00 -0.00000000000E+00 -0.45593999997E+02  0.45594000000E+02  0.51100000000E-03 0.  1.
    9900012    2    1    2    0    0 -0.66427671663E+00  0.61773235087E+00  0.75509551004E+00  0.90007734757E+02  0.89999996056E+02 0.  0.
        -12    1    1    2    0    0  0.66427671663E+00 -0.61773235087E+00 -0.75509551004E+00  0.11802652426E+01  0.00000000000E+00 0.  1.
         11    1    3    3    0    0  0.59014643152E+01  0.70618237294E+01 -0.48752330480E-01  0.92032066422E+01  0.51100000000E-03 0. -1.
        -11    1    3    3    0    0 -0.10183836406E+02  0.34749197965E+02  0.11677171636E+02  0.38046992271E+02  0.51100000000E-03 0.  1.
         12    1    3    3    0    0  0.36180953741E+01 -0.41193289344E+02 -0.10873323796E+02  0.42757535844E+02  0.00000000000E+00 0. -1.
</event>
<event>
 7    1  0.1978681E-015  0.9000779E+02  0.7816164E-02  0.1186339E+00
        -11   -1    0    0    0    0  0.00000000000E+00  0.00000000000E+00  0.45593999997E+02  0.45594000000E+02  0.51100000000E-03 0.  1.
         11   -1    0    0    0    0 -0.00000000000E+00 -0.00000000000E+00 -0.45593999997E+02  0.45594000000E+02  0.51100000000E-03 0. -1.
    9900012    2    1    2    0    0  0.43605325248E+00 -0.62480989124E+00 -0.90131964356E+00  0.90007785215E+02  0.90000047180E+02 0.  0.
        -12    1    1    2    0    0 -0.43605325248E+00  0.62480989124E+00  0.90131964356E+00  0.11802147851E+01  0.00000000000E+00 0.  1.
         11    1    3    3    0    0  0.90686036597E+01  0.13092641098E+02 -0.30879442356E+02  0.34744737497E+02  0.51100000000E-03 0. -1.
        -11    1    3    3    0    0  0.22757821230E+01  0.55471813261E+01 -0.87775081302E+01  0.10629913178E+02  0.51100000000E-03 0.  1.
        -12    1    3    3    0    0 -0.10908332530E+02 -0.19264632316E+02  0.38755630842E+02  0.44633134540E+02  0.00000000000E+00 0.  1.
</event>
<event>
 7    1  0.1978681E-015  0.9000772E+02  0.7816164E-02  0.1186339E+00
        -11   -1    0    0    0    0  0.00000000000E+00  0.00000000000E+00  0.45593999997E+02  0.45594000000E+02  0.51100000000E-03 0. -1.
         11   -1    0    0    0    0 -0.00000000000E+00 -0.00000000000E+00 -0.45593999997E+02  0.45594000000E+02  0.51100000000E-03 0.  1.
    9900012    2    1    2    0    0 -0.95822287668E+00 -0.42446434964E+00  0.54287299920E+00  0.90007715221E+02  0.89999976262E+02 0.  0.
        -12    1    1    2    0    0  0.95822287668E+00  0.42446434964E+00 -0.54287299920E+00  0.11802847787E+01  0.00000000000E+00 0.  1.
         11    1    3    3    0    0  0.96534201529E+00  0.48638424693E+00  0.14123299380E+02  0.14164605200E+02  0.51100000000E-03 0. -1.
        -11    1    3    3    0    0 -0.11652306853E+02 -0.33220792910E+02  0.75831182020E+01  0.36012511971E+02  0.51100000000E-03 0.  1.
         12    1    3    3    0    0  0.97287419607E+01  0.32309944314E+02 -0.21163544583E+02  0.39830598050E+02  0.00000000000E+00 0. -1.
</event>
<event>
 7    1  0.1978681E-015  0.9000778E+02  0.7816164E-02  0.1186339E+00
        -11   -1    0    0    0    0  0.00000000000E+00  0.00000000000E+00  0.45593999997E+02  0.45594000000E+02  0.51100000000E-03 0.  1.
         11   -1    0    0    0    0 -0.00000000000E+00 -0.00000000000E+00 -0.45593999997E+02  0.45594000000E+02  0.51100000000E-03 0. -1.
    9900012    2    1    2    0    0 -0.90405514670E-01  0.82416571750E+00 -0.83993172890E+00  0.90007784936E+02  0.90000046898E+02 0.  0.
        -12    1    1    2    0    0  0.90405514670E-01 -0.82416571750E+00  0.83993172890E+00  0.11802150635E+01  0.00000000000E+00 0.  1.
         11    1    3    3    0    0  0.33962904844E+01 -0.74022461210E+01 -0.11190948607E+01  0.82207305186E+01  0.51100000000E-03 0. -1.
        -11    1    3    3    0    0  0.37170211533E+02 -0.69447283546E+01  0.49716254346E+01  0.38138837647E+02  0.51100000000E-03 0.  1.
         12    1    3    3    0    0 -0.40656907532E+02  0.15171140193E+02 -0.46924623028E+01  0.43648216771E+02  0.00000000000E+00 0. -1.
</event>
<event>
 7    1  0.3536135E-015  0.9000773E+02  0.7816164E-02  0.1186339E+00
        -11   -1    0    0    0    0  0.00000000000E+00  0.00000000000E+00  0.45593999997E+02  0.45594000000E+02  0.51100000000E-03 0. -1.
         11   -1    0    0    0    0 -0.00000000000E+00 -0.00000000000E+00 -0.45593999997E+02  0.45594000000E+02  0.51100000000E-03 0.  1.
    9900012    2    1    2    0    0  0.99275746778E-01 -0.90196151337E+00  0.75474261143E+00  0.90007734498E+02  0.89999995793E+02 0.  0.
        -12    1    1    2    0    0 -0.99275746778E-01  0.90196151337E+00 -0.75474261143E+00  0.11802655019E+01  0.00000000000E+00 0.  1.
         11    1    3    3    0    0 -0.40396637747E+01  0.78635907483E+01  0.23255921081E+01  0.91412975984E+01  0.51100000000E-03 0. -1.
        -11    1    3    3    0    0 -0.24166171727E+02 -0.96519738549E+01 -0.30696958190E+02  0.40242610472E+02  0.51100000000E-03 0.  1.
         12    1    3    3    0    0  0.28305111248E+02  0.88642159331E+00  0.29126108693E+02  0.40623826428E+02  0.00000000000E+00 0. -1.
</event>
<event>
 7    1  0.1978681E-015  0.9000774E+02  0.7816164E-02  0.1186339E+00
        -11   -1    0    0    0    0  0.00000000000E+00  0.00000000000E+00  0.45593999997E+02  0.45594000000E+02  0.51100000000E-03 0.  1.
         11   -1    0    0    0    0 -0.00000000000E+00 -0.00000000000E+00 -0.45593999997E+02  0.45594000000E+02  0.51100000000E-03 0. -1.
    9900012    2    1    2    0    0  0.42176790740E+00  0.91280424887E+00 -0.61799017465E+00  0.90007740867E+02  0.90000002247E+02 0.  0.
        -12    1    1    2    0    0 -0.42176790740E+00 -0.91280424887E+00  0.61799017465E+00  0.11802591327E+01  0.00000000000E+00 0.  1.
         11    1    3    3    0    0 -0.38946885369E+01 -0.37397993160E+01  0.67355235420E+01  0.86326111559E+01  0.51100000000E-03 0. -1.
        -11    1    3    3    0    0 -0.12057243200E+02  0.32468640128E+02  0.19180433659E+02  0.39591397310E+02  0.51100000000E-03 0.  1.
         12    1    3    3    0    0  0.16373699644E+02 -0.27816036563E+02 -0.26533947375E+02  0.41783732402E+02  0.00000000000E+00 0. -1.
</event>
<event>
 7    1  0.1978681E-015  0.9000790E+02  0.7816164E-02  0.1186339E+00
        -11   -1    0    0    0    0  0.00000000000E+00  0.00000000000E+00  0.45593999997E+02  0.45594000000E+02  0.51100000000E-03 0.  1.
         11   -1    0    0    0    0 -0.00000000000E+00 -0.00000000000E+00 -0.45593999997E+02  0.45594000000E+02  0.51100000000E-03 0. -1.
    9900012    2    1    2    0    0 -0.32976132932E+00 -0.38796868344E+00 -0.10646039565E+01  0.90007896692E+02  0.90000160128E+02 0.  0.
        -12    1    1    2    0    0  0.32976132932E+00  0.38796868344E+00  0.10646039565E+01  0.11801033081E+01  0.00000000000E+00 0.  1.
         11    1    3    3    0    0 -0.21553858834E+01  0.86257052026E+01 -0.43369895475E+01  0.98923180876E+01  0.51100000000E-03 0. -1.
        -11    1    3    3    0    0  0.16124979836E+02  0.30724734004E+02  0.12508159223E+02  0.36884662148E+02  0.51100000000E-03 0.  1.
         12    1    3    3    0    0 -0.14299355282E+02 -0.39738407890E+02 -0.92357736317E+01  0.43230916457E+02  0.00000000000E+00 0. -1.
</event>
<event>
 7    1  0.1978681E-015  0.9000772E+02  0.7816164E-02  0.1186339E+00
        -11   -1    0    0    0    0  0.00000000000E+00  0.00000000000E+00  0.45593999997E+02  0.45594000000E+02  0.51100000000E-03 0.  1.
         11   -1    0    0    0    0 -0.00000000000E+00 -0.00000000000E+00 -0.45593999997E+02  0.45594000000E+02  0.51100000000E-03 0. -1.
    9900012    2    1    2    0    0  0.10596480554E+01 -0.46982152536E+00 -0.22243677637E+00  0.90007718514E+02  0.89999979598E+02 0.  0.
        -12    1    1    2    0    0 -0.10596480554E+01  0.46982152536E+00  0.22243677637E+00  0.11802814861E+01  0.00000000000E+00 0.  1.
         11    1    3    3    0    0 -0.51459916626E+01 -0.72039687267E+01 -0.46482996785E+01  0.99992542607E+01  0.51100000000E-03 0. -1.
        -11    1    3    3    0    0  0.42412066874E+02  0.67458161018E+01 -0.29945149063E+01  0.43049466561E+02  0.51100000000E-03 0.  1.
         12    1    3    3    0    0 -0.36206427156E+02 -0.11668900503E-01  0.74203778085E+01  0.36958997692E+02  0.00000000000E+00 0. -1.
</event>
<event>
 7    1  0.1978681E-015  0.9000777E+02  0.7816164E-02  0.1186339E+00
        -11   -1    0    0    0    0  0.00000000000E+00  0.00000000000E+00  0.45593999997E+02  0.45594000000E+02  0.51100000000E-03 0.  1.
         11   -1    0    0    0    0 -0.00000000000E+00 -0.00000000000E+00 -0.45593999997E+02  0.45594000000E+02  0.51100000000E-03 0. -1.
    9900012    2    1    2    0    0  0.25662970970E+00  0.51564899916E+00 -0.10301461098E+01  0.90007765402E+02  0.90000027106E+02 0.  0.
        -12    1    1    2    0    0 -0.25662970970E+00 -0.51564899916E+00  0.10301461098E+01  0.11802345978E+01  0.00000000000E+00 0.  1.
         11    1    3    3    0    0  0.57666154168E+01  0.28555928501E+01  0.50795677508E+01  0.81981871586E+01  0.51100000000E-03 0. -1.
        -11    1    3    3    0    0 -0.97203713715E+01  0.36402889824E+02  0.10995513509E+02  0.39249934073E+02  0.51100000000E-03 0.  1.
         12    1    3    3    0    0  0.42103856644E+01 -0.38742833675E+02 -0.17105227370E+02  0.42559644171E+02  0.00000000000E+00 0. -1.
</event>
<event>
 7    1  0.1978681E-015  0.9000766E+02  0.7816164E-02  0.1186339E+00
        -11   -1    0    0    0    0  0.00000000000E+00  0.00000000000E+00  0.45593999997E+02  0.45594000000E+02  0.51100000000E-03 0. -1.
         11   -1    0    0    0    0 -0.00000000000E+00 -0.00000000000E+00 -0.45593999997E+02  0.45594000000E+02  0.51100000000E-03 0.  1.
    9900012    2    1    2    0    0 -0.61354285435E+00 -0.61569808996E+00  0.79854378935E+00  0.90007664812E+02  0.89999925188E+02 0.  0.
        -12    1    1    2    0    0  0.61354285435E+00  0.61569808996E+00 -0.79854378935E+00  0.11803351878E+01  0.00000000000E+00 0.  1.
         11    1    3    3    0    0 -0.44885684903E+01  0.45744526053E+01 -0.39033351219E+01  0.75039249107E+01  0.51100000000E-03 0. -1.
        -11    1    3    3    0    0 -0.32506055154E+02 -0.24601986152E+02 -0.15536460978E+01  0.40796018933E+02  0.51100000000E-03 0.  1.
         12    1    3    3    0    0  0.36381080790E+02  0.19411835457E+02  0.62555250090E+01  0.41707720969E+02  0.00000000000E+00 0. -1.
</event>
<event>
 7    1  0.1978681E-015  0.9000772E+02  0.7816164E-02  0.1186339E+00
        -11   -1    0    0    0    0  0.00000000000E+00  0.00000000000E+00  0.45593999997E+02  0.45594000000E+02  0.51100000000E-03 0.  1.
         11   -1    0    0    0    0 -0.00000000000E+00 -0.00000000000E+00 -0.45593999997E+02  0.45594000000E+02  0.51100000000E-03 0. -1.
    9900012    2    1    2    0    0 -0.75451413651E+00 -0.82841472137E+00  0.37082335735E+00  0.90007715079E+02  0.89999976118E+02 0.  0.
        -12    1    1    2    0    0  0.75451413651E+00  0.82841472137E+00 -0.37082335735E+00  0.11802849212E+01  0.00000000000E+00 0.  1.
         11    1    3    3    0    0 -0.75500201132E+01 -0.47239753161E+01 -0.40064989866E+01  0.97657964799E+01  0.51100000000E-03 0. -1.
        -11    1    3    3    0    0 -0.27359607583E+02 -0.34243932494E+01  0.27027520545E+02  0.38610380253E+02  0.51100000000E-03 0.  1.
         12    1    3    3    0    0  0.34155113559E+02  0.73199538441E+01 -0.22650198201E+02  0.41631538346E+02  0.00000000000E+00 0. -1.
</event>
<event>
 7    1  0.1978681E-015  0.9000875E+02  0.7816164E-02  0.1186337E+00
        -11   -1    0    0    0    0  0.00000000000E+00  0.00000000000E+00  0.45593999997E+02  0.45594000000E+02  0.51100000000E-03 0. -1.
         11   -1    0    0    0    0 -0.00000000000E+00 -0.00000000000E+00 -0.45593999997E+02  0.45594000000E+02  0.51100000000E-03 0.  1.
    9900012    2    1    2    0    0  0.83094912196E+00 -0.59193459166E+00  0.59141258586E+00  0.90008749454E+02  0.90001024141E+02 0.  0.
        -12    1    1    2    0    0 -0.83094912196E+00  0.59193459166E+00 -0.59141258586E+00  0.11792505462E+01  0.00000000000E+00 0.  1.
         11    1    3    3    0    0  0.32930527340E+02 -0.64488126349E+01 -0.12286898999E+02  0.35734782811E+02  0.51100000000E-03 0. -1.
        -11    1    3    3    0    0  0.26672117457E+01 -0.10449769351E+01 -0.11110665980E+02  0.11474009503E+02  0.51100000000E-03 0.  1.
        -12    1    3    3    0    0 -0.34766789964E+02  0.69018549783E+01  0.23988977565E+02  0.42799957140E+02  0.00000000000E+00 0.  1.
</event>
<event>
 7    1  0.1978681E-015  0.9000773E+02  0.7816164E-02  0.1186339E+00
        -11   -1    0    0    0    0  0.00000000000E+00  0.00000000000E+00  0.45593999997E+02  0.45594000000E+02  0.51100000000E-03 0. -1.
         11   -1    0    0    0    0 -0.00000000000E+00 -0.00000000000E+00 -0.45593999997E+02  0.45594000000E+02  0.51100000000E-03 0.  1.
    9900012    2    1    2    0    0  0.11047024193E+01  0.33722856282E+00  0.24280059945E+00  0.90007727714E+02  0.89999988919E+02 0.  0.
        -12    1    1    2    0    0 -0.11047024193E+01 -0.33722856282E+00 -0.24280059945E+00  0.11802722864E+01  0.00000000000E+00 0.  1.
         11    1    3    3    0    0  0.71449117124E+01  0.81612122163E+01  0.28485156148E+01  0.11214686339E+02  0.51100000000E-03 0. -1.
        -11    1    3    3    0    0  0.29676128389E+02  0.14070841733E+02 -0.13495533023E+02  0.35507613199E+02  0.51100000000E-03 0.  1.
         12    1    3    3    0    0 -0.35716337682E+02 -0.21894825387E+02  0.10889818007E+02  0.43285428176E+02  0.00000000000E+00 0. -1.
</event>
<event>
 7    1  0.1978681E-015  0.9000773E+02  0.7816164E-02  0.1186339E+00
        -11   -1    0    0    0    0  0.00000000000E+00  0.00000000000E+00  0.45593999997E+02  0.45594000000E+02  0.51100000000E-03 0. -1.
         11   -1    0    0    0    0 -0.00000000000E+00 -0.00000000000E+00 -0.45593999997E+02  0.45594000000E+02  0.51100000000E-03 0.  1.
    9900012    2    1    2    0    0  0.43800186248E+00  0.53281311746E+00  0.95775587662E+00  0.90007732332E+02  0.89999993598E+02 0.  0.
        -12    1    1    2    0    0 -0.43800186248E+00 -0.53281311746E+00 -0.95775587662E+00  0.11802676683E+01  0.00000000000E+00 0.  1.
         11    1    3    3    0    0  0.66469255610E+01 -0.95451009279E+01  0.38044728794E+02  0.39783061224E+02  0.51100000000E-03 0. -1.
        -11    1    3    3    0    0 -0.33656366294E+01 -0.21978680897E+00  0.54266282010E+01  0.63893747782E+01  0.51100000000E-03 0.  1.
        -12    1    3    3    0    0 -0.28432870691E+01  0.10297700854E+02 -0.42513601118E+02  0.43835296329E+02  0.00000000000E+00 0.  1.
</event>
<event>
 7    1  0.1978681E-015  0.9000765E+02  0.7816164E-02  0.1186339E+00
        -11   -1    0    0    0    0  0.00000000000E+00  0.00000000000E+00  0.45593999997E+02  0.45594000000E+02  0.51100000000E-03 0. -1.
         11   -1    0    0    0    0 -0.00000000000E+00 -0.00000000000E+00 -0.45593999997E+02  0.45594000000E+02  0.51100000000E-03 0.  1.
    9900012    2    1    2    0    0 -0.76369107812E+00  0.82833744336E+00 -0.35193091216E+00  0.90007651598E+02  0.89999911799E+02 0.  0.
        -12    1    1    2    0    0  0.76369107812E+00 -0.82833744336E+00  0.35193091216E+00  0.11803484019E+01  0.00000000000E+00 0.  1.
         11    1    3    3    0    0  0.26889673018E+02 -0.26337670447E+02 -0.21400378136E+01  0.37700227608E+02  0.51100000000E-03 0. -1.
        -11    1    3    3    0    0  0.40093773696E+00 -0.70001747446E+01  0.39474093554E+01  0.80464425931E+01  0.51100000000E-03 0.  1.
        -12    1    3    3    0    0 -0.28054301833E+02  0.34166182635E+02 -0.21593024539E+01  0.44260981397E+02  0.00000000000E+00 0.  1.
</event>
<event>
 7    1  0.1978681E-015  0.9000770E+02  0.7816164E-02  0.1186339E+00
        -11   -1    0    0    0    0  0.00000000000E+00  0.00000000000E+00  0.45593999997E+02  0.45594000000E+02  0.51100000000E-03 0.  1.
         11   -1    0    0    0    0 -0.00000000000E+00 -0.00000000000E+00 -0.45593999997E+02  0.45594000000E+02  0.51100000000E-03 0. -1.
    9900012    2    1    2    0    0  0.37215771336E+00 -0.10190792510E+01 -0.46485416430E+00  0.90007697802E+02  0.89999958613E+02 0.  0.
        -12    1    1    2    0    0 -0.37215771336E+00  0.10190792510E+01  0.46485416430E+00  0.11803021976E+01  0.00000000000E+00 0.  1.
         11    1    3    3    0    0  0.40228256894E+01  0.31248836919E+01  0.70249074413E+01  0.86774045333E+01  0.51100000000E-03 0. -1.
        -11    1    3    3    0    0 -0.26966110282E+02  0.20588346158E+02  0.18407429544E+02  0.38599022836E+02  0.51100000000E-03 0.  1.
         12    1    3    3    0    0  0.23315442306E+02 -0.24732309100E+02 -0.25897191149E+02  0.42731270433E+02  0.00000000000E+00 0. -1.
</event>
<event>
 7    1  0.1978681E-015  0.9000780E+02  0.7816164E-02  0.1186339E+00
        -11   -1    0    0    0    0  0.00000000000E+00  0.00000000000E+00  0.45593999997E+02  0.45594000000E+02  0.51100000000E-03 0. -1.
         11   -1    0    0    0    0 -0.00000000000E+00 -0.00000000000E+00 -0.45593999997E+02  0.45594000000E+02  0.51100000000E-03 0.  1.
    9900012    2    1    2    0    0 -0.91385126547E-01  0.19521877976E+00  0.11603482398E+01  0.90007801012E+02  0.90000063185E+02 0.  0.
        -12    1    1    2    0    0  0.91385126547E-01 -0.19521877976E+00 -0.11603482398E+01  0.11801989879E+01  0.00000000000E+00 0.  1.
         11    1    3    3    0    0  0.95983728036E+01  0.48089457828E+01  0.84433016748E+01  0.13658113466E+02  0.51100000000E-03 0. -1.
        -11    1    3    3    0    0  0.14839468576E+02  0.29274967936E+02 -0.10318963070E+02  0.34405153311E+02  0.51100000000E-03 0.  1.
         12    1    3    3    0    0 -0.24529226506E+02 -0.33888694939E+02  0.30360096351E+01  0.41944534235E+02  0.00000000000E+00 0. -1.
</event>
<event>
 7    1  0.1978681E-015  0.9000775E+02  0.7816164E-02  0.1186339E+00
        -11   -1    0    0    0    0  0.00000000000E+00  0.00000000000E+00  0.45593999997E+02  0.45594000000E+02  0.51100000000E-03 0. -1.
         11   -1    0    0    0    0 -0.00000000000E+00 -0.00000000000E+00 -0.45593999997E+02  0.45594000000E+02  0.51100000000E-03 0.  1.
    9900012    2    1    2    0    0 -0.15131536162E+00 -0.20917816209E+00  0.11516688183E+01  0.90007748794E+02  0.90000010278E+02 0.  0.
        -12    1    1    2    0    0  0.15131536162E+00  0.20917816209E+00 -0.11516688183E+01  0.11802512060E+01  0.00000000000E+00 0.  1.
         11    1    3    3    0    0 -0.16114896862E+01 -0.56036489867E+01 -0.65298828230E+01  0.87542647275E+01  0.51100000000E-03 0. -1.
        -11    1    3    3    0    0  0.23220016519E+02  0.10470848770E+02 -0.28815655590E+02  0.38459717218E+02  0.51100000000E-03 0.  1.
         12    1    3    3    0    0 -0.21759842195E+02 -0.50763779449E+01  0.36497207232E+02  0.42793766849E+02  0.00000000000E+00 0. -1.
</event>
<event>
 7    1  0.1978681E-015  0.9000802E+02  0.7816164E-02  0.1186338E+00
        -11   -1    0    0    0    0  0.00000000000E+00  0.00000000000E+00  0.45593999997E+02  0.45594000000E+02  0.51100000000E-03 0. -1.
         11   -1    0    0    0    0 -0.00000000000E+00 -0.00000000000E+00 -0.45593999997E+02  0.45594000000E+02  0.51100000000E-03 0.  1.
    9900012    2    1    2    0    0 -0.10412490687E+00  0.93985821287E+00 -0.70581994819E+00  0.90008018112E+02  0.90000283151E+02 0.  0.
        -12    1    1    2    0    0  0.10412490687E+00 -0.93985821287E+00  0.70581994819E+00  0.11799818879E+01  0.00000000000E+00 0.  1.
         11    1    3    3    0    0  0.22535429876E+01 -0.80565465168E+01 -0.52700411105E+01  0.98873520895E+01  0.51100000000E-03 0. -1.
        -11    1    3    3    0    0  0.30444161977E+02  0.27549061563E+02 -0.46630785109E+01  0.41322416349E+02  0.51100000000E-03 0.  1.
         12    1    3    3    0    0 -0.32801829871E+02 -0.18552656833E+02  0.92272996732E+01  0.38798249674E+02  0.00000000000E+00 0. -1.
</event>
<event>
 7    1  0.1978681E-015  0.9000670E+02  0.7816164E-02  0.1186341E+00
        -11   -1    0    0    0    0  0.00000000000E+00  0.00000000000E+00  0.45593999997E+02  0.45594000000E+02  0.51100000000E-03 0.  1.
         11   -1    0    0    0    0 -0.00000000000E+00 -0.00000000000E+00 -0.45593999997E+02  0.45594000000E+02  0.51100000000E-03 0. -1.
    9900012    2    1    2    0    0 -0.11735415903E+01  0.13515757926E+00  0.27499817110E-02  0.90006697753E+02  0.89998945358E+02 0.  0.
        -12    1    1    2    0    0  0.11735415903E+01 -0.13515757926E+00 -0.27499817110E-02  0.11813022466E+01  0.00000000000E+00 0.  1.
         11    1    3    3    0    0  0.79337867193E+01  0.64009968325E+01  0.13191446616E+02  0.16671292579E+02  0.51100000000E-03 0. -1.
        -11    1    3    3    0    0  0.30319218814E+02 -0.66918713684E+01 -0.13618357009E+02  0.33904215369E+02  0.51100000000E-03 0.  1.
         12    1    3    3    0    0 -0.39426547124E+02  0.42603211518E+00  0.42966037443E+00  0.39431189806E+02  0.00000000000E+00 0. -1.
</event>
<event>
 7    1  0.1978681E-015  0.9000769E+02  0.7816164E-02  0.1186339E+00
        -11   -1    0    0    0    0  0.00000000000E+00  0.00000000000E+00  0.45593999997E+02  0.45594000000E+02  0.51100000000E-03 0.  1.
         11   -1    0    0    0    0 -0.00000000000E+00 -0.00000000000E+00 -0.45593999997E+02  0.45594000000E+02  0.51100000000E-03 0. -1.
    9900012    2    1    2    0    0  0.35225528358E+00 -0.76621591020E+00 -0.82581579439E+00  0.90007685494E+02  0.89999946143E+02 0.  0.
        -12    1    1    2    0    0 -0.35225528358E+00  0.76621591020E+00  0.82581579439E+00  0.11803145056E+01  0.00000000000E+00 0.  1.
         11    1    3    3    0    0 -0.11625217319E+02  0.35432471424E+02 -0.10434139896E+02  0.38723080773E+02  0.51100000000E-03 0. -1.
        -11    1    3    3    0    0  0.38137962902E+01  0.86941305954E+00 -0.84050257627E+01  0.92706730901E+01  0.51100000000E-03 0.  1.
        -12    1    3    3    0    0  0.81636763126E+01 -0.37068100394E+02  0.18013349864E+02  0.42013931631E+02  0.00000000000E+00 0.  1.
</event>
<event>
 7    1  0.1978681E-015  0.9000771E+02  0.7816164E-02  0.1186339E+00
        -11   -1    0    0    0    0  0.00000000000E+00  0.00000000000E+00  0.45593999997E+02  0.45594000000E+02  0.51100000000E-03 0.  1.
         11   -1    0    0    0    0 -0.00000000000E+00 -0.00000000000E+00 -0.45593999997E+02  0.45594000000E+02  0.51100000000E-03 0. -1.
    9900012    2    1    2    0    0  0.15594899754E-02  0.11381252696E+01  0.31265469128E+00  0.90007709986E+02  0.89999970958E+02 0.  0.
        -12    1    1    2    0    0 -0.15594899754E-02 -0.11381252696E+01 -0.31265469128E+00  0.11802900141E+01  0.00000000000E+00 0.  1.
         11    1    3    3    0    0 -0.71282780793E+01 -0.63760353357E+01  0.35531876547E+01  0.10202515266E+02  0.51100000000E-03 0. -1.
        -11    1    3    3    0    0  0.22622016594E+02  0.38748740085E+02 -0.13846467081E+01  0.44890285583E+02  0.51100000000E-03 0.  1.
         12    1    3    3    0    0 -0.15492179025E+02 -0.31234579480E+02 -0.18558862554E+01  0.34914909137E+02  0.00000000000E+00 0. -1.
</event>
<event>
 7    1  0.1978681E-015  0.9000771E+02  0.7816164E-02  0.1186339E+00
        -11   -1    0    0    0    0  0.00000000000E+00  0.00000000000E+00  0.45593999997E+02  0.45594000000E+02  0.51100000000E-03 0. -1.
         11   -1    0    0    0    0 -0.00000000000E+00 -0.00000000000E+00 -0.45593999997E+02  0.45594000000E+02  0.51100000000E-03 0.  1.
    9900012    2    1    2    0    0  0.17433450659E+00 -0.11339834127E+01 -0.27706499207E+00  0.90007713632E+02  0.89999974652E+02 0.  0.
        -12    1    1    2    0    0 -0.17433450659E+00  0.11339834127E+01  0.27706499207E+00  0.11802863680E+01  0.00000000000E+00 0.  1.
         11    1    3    3    0    0 -0.19491148180E+01 -0.43414895046E+01 -0.67673820491E+01  0.82731517423E+01  0.51100000000E-03 0. -1.
        -11    1    3    3    0    0  0.16506879006E+02 -0.72403012457E+01 -0.33460655134E+02  0.38006768593E+02  0.51100000000E-03 0.  1.
         12    1    3    3    0    0 -0.14383429681E+02  0.10447807338E+02  0.39950972191E+02  0.43727793296E+02  0.00000000000E+00 0. -1.
</event>
<event>
 7    1  0.1978681E-015  0.9000773E+02  0.7816164E-02  0.1186339E+00
        -11   -1    0    0    0    0  0.00000000000E+00  0.00000000000E+00  0.45593999997E+02  0.45594000000E+02  0.51100000000E-03 0.  1.
         11   -1    0    0    0    0 -0.00000000000E+00 -0.00000000000E+00 -0.45593999997E+02  0.45594000000E+02  0.51100000000E-03 0. -1.
    9900012    2    1    2    0    0 -0.46163189281E+00 -0.10451208025E+00 -0.10812033933E+01  0.90007734116E+02  0.89999995406E+02 0.  0.
        -12    1    1    2    0    0  0.46163189281E+00  0.10451208025E+00  0.10812033933E+01  0.11802658841E+01  0.00000000000E+00 0.  1.
         11    1    3    3    0    0 -0.22756979431E+02  0.10815136140E+02  0.29585390668E+02  0.38860553570E+02  0.51100000000E-03 0. -1.
        -11    1    3    3    0    0 -0.76079931870E+01 -0.46666847663E+01 -0.17766621540E+01  0.91003316265E+01  0.51100000000E-03 0.  1.
        -12    1    3    3    0    0  0.29903340725E+02 -0.62529634539E+01 -0.28889931907E+02  0.42046848920E+02  0.00000000000E+00 0.  1.
</event>
<event>
 7    1  0.1978681E-015  0.9000782E+02  0.7816164E-02  0.1186339E+00
        -11   -1    0    0    0    0  0.00000000000E+00  0.00000000000E+00  0.45593999997E+02  0.45594000000E+02  0.51100000000E-03 0. -1.
         11   -1    0    0    0    0 -0.00000000000E+00 -0.00000000000E+00 -0.45593999997E+02  0.45594000000E+02  0.51100000000E-03 0.  1.
    9900012    2    1    2    0    0  0.52501190000E+00  0.19341648580E+00  0.10391262956E+01  0.90007817433E+02  0.90000079824E+02 0.  0.
        -12    1    1    2    0    0 -0.52501190000E+00 -0.19341648580E+00 -0.10391262956E+01  0.11801825666E+01  0.00000000000E+00 0.  1.
         11    1    3    3    0    0 -0.25830904357E+02  0.20832034968E+02  0.25354261555E+02  0.41761799291E+02  0.51100000000E-03 0. -1.
        -11    1    3    3    0    0 -0.42682433329E+01 -0.61351441362E+01 -0.67887539017E+01  0.10096785356E+02  0.51100000000E-03 0.  1.
        -12    1    3    3    0    0  0.30624159590E+02 -0.14503474346E+02 -0.17526381358E+02  0.38149232786E+02  0.00000000000E+00 0.  1.
</event>
<event>
 7    1  0.1978681E-015  0.9000777E+02  0.7816164E-02  0.1186339E+00
        -11   -1    0    0    0    0  0.00000000000E+00  0.00000000000E+00  0.45593999997E+02  0.45594000000E+02  0.51100000000E-03 0.  1.
         11   -1    0    0    0    0 -0.00000000000E+00 -0.00000000000E+00 -0.45593999997E+02  0.45594000000E+02  0.51100000000E-03 0. -1.
    9900012    2    1    2    0    0 -0.44471919997E+00  0.54587136339E+00 -0.94720230983E+00  0.90007769968E+02  0.90000031732E+02 0.  0.
        -12    1    1    2    0    0  0.44471919997E+00 -0.54587136339E+00  0.94720230983E+00  0.11802300318E+01  0.00000000000E+00 0.  1.
         11    1    3    3    0    0 -0.16819419262E+02  0.51927645041E+01 -0.33562964639E+02  0.37898948048E+02  0.51100000000E-03 0. -1.
        -11    1    3    3    0    0 -0.55662601180E+01  0.43607887374E+01 -0.42665483843E+01  0.82585207810E+01  0.51100000000E-03 0.  1.
        -12    1    3    3    0    0  0.21940960180E+02 -0.90076818781E+01  0.36882310713E+02  0.43850301139E+02  0.00000000000E+00 0.  1.
</event>
<event>
 7    1  0.1978681E-015  0.9000768E+02  0.7816164E-02  0.1186339E+00
        -11   -1    0    0    0    0  0.00000000000E+00  0.00000000000E+00  0.45593999997E+02  0.45594000000E+02  0.51100000000E-03 0.  1.
         11   -1    0    0    0    0 -0.00000000000E+00 -0.00000000000E+00 -0.45593999997E+02  0.45594000000E+02  0.51100000000E-03 0. -1.
    9900012    2    1    2    0    0 -0.26434035267E+00  0.11449424715E+01 -0.11132789873E+00  0.90007676745E+02  0.89999937278E+02 0.  0.
        -12    1    1    2    0    0  0.26434035267E+00 -0.11449424715E+01  0.11132789873E+00  0.11803232549E+01  0.00000000000E+00 0.  1.
         11    1    3    3    0    0 -0.33884258799E+01  0.84452289510E+01 -0.25913721148E+01  0.94614233430E+01  0.51100000000E-03 0. -1.
        -11    1    3    3    0    0 -0.12984245328E+02 -0.66840632335E+01  0.38449670660E+02  0.41129606151E+02  0.51100000000E-03 0.  1.
         12    1    3    3    0    0  0.16108330855E+02 -0.61622324598E+00 -0.35969626444E+02  0.39416647251E+02  0.00000000000E+00 0. -1.
</event>
<event>
 7    1  0.1978681E-015  0.9000772E+02  0.7816164E-02  0.1186339E+00
        -11   -1    0    0    0    0  0.00000000000E+00  0.00000000000E+00  0.45593999997E+02  0.45594000000E+02  0.51100000000E-03 0.  1.
         11   -1    0    0    0    0 -0.00000000000E+00 -0.00000000000E+00 -0.45593999997E+02  0.45594000000E+02  0.51100000000E-03 0. -1.
    9900012    2    1    2    0    0 -0.41494821302E+00  0.92756652695E+00 -0.60041650509E+00  0.90007719668E+02  0.89999980768E+02 0.  0.
        -12    1    1    2    0    0  0.41494821302E+00 -0.92756652695E+00  0.60041650509E+00  0.11802803315E+01  0.00000000000E+00 0.  1.
         11    1    3    3    0    0 -0.18394999762E+02 -0.10789022626E+01 -0.57832357106E+01  0.19312841891E+02  0.51100000000E-03 0. -1.
        -11    1    3    3    0    0 -0.79994033574E+01  0.89851642750E+01  0.31096945540E+02  0.33342820116E+02  0.51100000000E-03 0.  1.
         12    1    3    3    0    0  0.25979454907E+02 -0.69786954855E+01 -0.25914126334E+02  0.37352057662E+02  0.00000000000E+00 0. -1.
</event>
<event>
 7    1  0.1978681E-015  0.9000772E+02  0.7816164E-02  0.1186339E+00
        -11   -1    0    0    0    0  0.00000000000E+00  0.00000000000E+00  0.45593999997E+02  0.45594000000E+02  0.51100000000E-03 0. -1.
         11   -1    0    0    0    0 -0.00000000000E+00 -0.00000000000E+00 -0.45593999997E+02  0.45594000000E+02  0.51100000000E-03 0.  1.
    9900012    2    1    2    0    0 -0.34953746488E+00  0.73830775177E+00 -0.85192557930E+00  0.90007723775E+02  0.89999984928E+02 0.  0.
        -12    1    1    2    0    0  0.34953746488E+00 -0.73830775177E+00  0.85192557930E+00  0.11802762254E+01  0.00000000000E+00 0.  1.
         11    1    3    3    0    0 -0.49141342211E+01  0.36273447331E+02 -0.71024977789E+01  0.37287493498E+02  0.51100000000E-03 0. -1.
        -11    1    3    3    0    0 -0.99404447108E+01 -0.55565579272E+00 -0.74665284326E+01  0.12444687280E+02  0.51100000000E-03 0.  1.
        -12    1    3    3    0    0  0.14505041467E+02 -0.34979483786E+02  0.13717100632E+02  0.40275542996E+02  0.00000000000E+00 0.  1.
</event>
<event>
 7    1  0.1978681E-015  0.9000775E+02  0.7816164E-02  0.1186339E+00
        -11   -1    0    0    0    0  0.00000000000E+00  0.00000000000E+00  0.45593999997E+02  0.45594000000E+02  0.51100000000E-03 0.  1.
         11   -1    0    0    0    0 -0.00000000000E+00 -0.00000000000E+00 -0.45593999997E+02  0.45594000000E+02  0.51100000000E-03 0. -1.
    9900012    2    1    2    0    0 -0.79805134083E+00 -0.17958415196E+00  0.85080211667E+00  0.90007745514E+02  0.90000006955E+02 0.  0.
        -12    1    1    2    0    0  0.79805134083E+00  0.17958415196E+00 -0.85080211667E+00  0.11802544861E+01  0.00000000000E+00 0.  1.
         11    1    3    3    0    0  0.25103766011E+02 -0.10555692634E+02 -0.22760051217E+02  0.35491430608E+02  0.51100000000E-03 0. -1.
        -11    1    3    3    0    0  0.93895578645E+01  0.93689226785E+00 -0.23196126712E+01  0.97171069366E+01  0.51100000000E-03 0.  1.
        -12    1    3    3    0    0 -0.35291375217E+02  0.94392162140E+01  0.25930466005E+02  0.44799207969E+02  0.00000000000E+00 0.  1.
</event>
<event>
 7    1  0.1978681E-015  0.9000769E+02  0.7816164E-02  0.1186339E+00
        -11   -1    0    0    0    0  0.00000000000E+00  0.00000000000E+00  0.45593999997E+02  0.45594000000E+02  0.51100000000E-03 0. -1.
         11   -1    0    0    0    0 -0.00000000000E+00 -0.00000000000E+00 -0.45593999997E+02  0.45594000000E+02  0.51100000000E-03 0.  1.
    9900012    2    1    2    0    0 -0.50184577180E+00  0.39257348886E+00  0.99356147771E+00  0.90007691764E+02  0.89999952495E+02 0.  0.
        -12    1    1    2    0    0  0.50184577180E+00 -0.39257348886E+00 -0.99356147771E+00  0.11803082364E+01  0.00000000000E+00 0.  1.
         11    1    3    3    0    0  0.15414552330E+01  0.31594607407E+02  0.21708926771E+02  0.38364994503E+02  0.51100000000E-03 0. -1.
        -11    1    3    3    0    0  0.71571723000E+01  0.11619693403E+01  0.54081005237E+01  0.90455978030E+01  0.51100000000E-03 0.  1.
        -12    1    3    3    0    0 -0.92004733047E+01 -0.32364003258E+02 -0.26123465817E+02  0.42597099458E+02  0.00000000000E+00 0.  1.
</event>
<event>
 7    1  0.1978681E-015  0.9000768E+02  0.7816164E-02  0.1186339E+00
        -11   -1    0    0    0    0  0.00000000000E+00  0.00000000000E+00  0.45593999997E+02  0.45594000000E+02  0.51100000000E-03 0. -1.
         11   -1    0    0    0    0 -0.00000000000E+00 -0.00000000000E+00 -0.45593999997E+02  0.45594000000E+02  0.51100000000E-03 0.  1.
    9900012    2    1    2    0    0 -0.58872338301E+00 -0.57666998465E+00  0.84499291219E+00  0.90007679487E+02  0.89999940056E+02 0.  0.
        -12    1    1    2    0    0  0.58872338301E+00  0.57666998465E+00 -0.84499291219E+00  0.11803205135E+01  0.00000000000E+00 0.  1.
         11    1    3    3    0    0  0.87002021280E+01 -0.53628153559E+01 -0.11835360946E+01  0.10288540400E+02  0.51100000000E-03 0. -1.
        -11    1    3    3    0    0  0.32476478046E+02 -0.79225310690E+01  0.10918996105E+02  0.35166924816E+02  0.51100000000E-03 0.  1.
         12    1    3    3    0    0 -0.41765403557E+02  0.12708676440E+02 -0.88904670986E+01  0.44552214270E+02  0.00000000000E+00 0. -1.
</event>
<event>
 7    1  0.1978681E-015  0.9000771E+02  0.7816164E-02  0.1186339E+00
        -11   -1    0    0    0    0  0.00000000000E+00  0.00000000000E+00  0.45593999997E+02  0.45594000000E+02  0.51100000000E-03 0.  1.
         11   -1    0    0    0    0 -0.00000000000E+00 -0.00000000000E+00 -0.45593999997E+02  0.45594000000E+02  0.51100000000E-03 0. -1.
    9900012    2    1    2    0    0 -0.87140882213E+00  0.39103795010E+00 -0.69341942371E+00  0.90007705752E+02  0.89999966668E+02 0.  0.
        -12    1    1    2    0    0  0.87140882213E+00 -0.39103795010E+00  0.69341942371E+00  0.11802942476E+01  0.00000000000E+00 0.  1.
         11    1    3    3    0    0  0.56832752130E+01 -0.58033425523E+01  0.50030525504E+01  0.95398604292E+01  0.51100000000E-03 0. -1.
        -11    1    3    3    0    0  0.16127120759E+02  0.36365564143E+02 -0.13335011077E+02  0.41956653824E+02  0.51100000000E-03 0.  1.
         12    1    3    3    0    0 -0.22681804794E+02 -0.30171183641E+02  0.76385391030E+01  0.38511191499E+02  0.00000000000E+00 0. -1.
</event>
<event>
 7    1  0.1978681E-015  0.9000784E+02  0.7816164E-02  0.1186339E+00
        -11   -1    0    0    0    0  0.00000000000E+00  0.00000000000E+00  0.45593999997E+02  0.45594000000E+02  0.51100000000E-03 0. -1.
         11   -1    0    0    0    0 -0.00000000000E+00 -0.00000000000E+00 -0.45593999997E+02  0.45594000000E+02  0.51100000000E-03 0.  1.
    9900012    2    1    2    0    0  0.40308516216E+00  0.74276819925E+00 -0.82376993591E+00  0.90007839353E+02  0.90000102032E+02 0.  0.
        -12    1    1    2    0    0 -0.40308516216E+00 -0.74276819925E+00  0.82376993591E+00  0.11801606471E+01  0.00000000000E+00 0.  1.
         11    1    3    3    0    0  0.45258488623E+01  0.50460032201E+00 -0.11505029220E+00  0.45553447993E+01  0.51100000000E-03 0. -1.
        -11    1    3    3    0    0  0.22555048611E+02  0.25140122506E+02 -0.24643494225E+02  0.41809780977E+02  0.51100000000E-03 0.  1.
         12    1    3    3    0    0 -0.26677812311E+02 -0.24901954629E+02  0.23934774582E+02  0.43642713576E+02  0.00000000000E+00 0. -1.
</event>
<event>
 7    1  0.1978681E-015  0.9000768E+02  0.7816164E-02  0.1186339E+00
        -11   -1    0    0    0    0  0.00000000000E+00  0.00000000000E+00  0.45593999997E+02  0.45594000000E+02  0.51100000000E-03 0.  1.
         11   -1    0    0    0    0 -0.00000000000E+00 -0.00000000000E+00 -0.45593999997E+02  0.45594000000E+02  0.51100000000E-03 0. -1.
    9900012    2    1    2    0    0 -0.84844240600E+00 -0.16088866295E+00 -0.80461692389E+00  0.90007683063E+02  0.89999943679E+02 0.  0.
        -12    1    1    2    0    0  0.84844240600E+00  0.16088866295E+00  0.80461692389E+00  0.11803169373E+01  0.00000000000E+00 0.  1.
         11    1    3    3    0    0 -0.14509210222E+02 -0.92253666553E+01 -0.36978799319E+02  0.40780585706E+02  0.51100000000E-03 0. -1.
        -11    1    3    3    0    0  0.25715211920E+01 -0.10484992383E+02  0.98587573822E+01  0.14619948150E+02  0.51100000000E-03 0.  1.
        -12    1    3    3    0    0  0.11089246624E+02  0.19549470375E+02  0.26315425013E+02  0.34607149207E+02  0.00000000000E+00 0.  1.
</event>
<event>
 7    1  0.1978681E-015  0.9000779E+02  0.7816164E-02  0.1186339E+00
        -11   -1    0    0    0    0  0.00000000000E+00  0.00000000000E+00  0.45593999997E+02  0.45594000000E+02  0.51100000000E-03 0. -1.
         11   -1    0    0    0    0 -0.00000000000E+00 -0.00000000000E+00 -0.45593999997E+02  0.45594000000E+02  0.51100000000E-03 0.  1.
    9900012    2    1    2    0    0 -0.62285784169E+00  0.89413218030E+00  0.45330186155E+00  0.90007785263E+02  0.90000047229E+02 0.  0.
        -12    1    1    2    0    0  0.62285784169E+00 -0.89413218030E+00 -0.45330186155E+00  0.11802147366E+01  0.00000000000E+00 0.  1.
         11    1    3    3    0    0 -0.57765284648E+01  0.76977480978E+01  0.14323756516E+02  0.17256697479E+02  0.51100000000E-03 0. -1.
        -11    1    3    3    0    0 -0.28610734361E+02 -0.16305357970E+02  0.43638862721E+01  0.33218704413E+02  0.51100000000E-03 0.  1.
        -12    1    3    3    0    0  0.33764404985E+02  0.95017420528E+01 -0.18234340927E+02  0.39532383371E+02  0.00000000000E+00 0.  1.
</event>
<event>
 7    1  0.2394221E-015  0.9000772E+02  0.7816164E-02  0.1186339E+00
        -11   -1    0    0    0    0  0.00000000000E+00  0.00000000000E+00  0.45593999997E+02  0.45594000000E+02  0.51100000000E-03 0. -1.
         11   -1    0    0    0    0 -0.00000000000E+00 -0.00000000000E+00 -0.45593999997E+02  0.45594000000E+02  0.51100000000E-03 0.  1.
    9900012    2    1    2    0    0  0.46990714826E+00 -0.84932011997E+00  0.67150172067E+00  0.90007715308E+02  0.89999976350E+02 0.  0.
        -12    1    1    2    0    0 -0.46990714826E+00  0.84932011997E+00 -0.67150172067E+00  0.11802846924E+01  0.00000000000E+00 0.  1.
         11    1    3    3    0    0  0.52738105140E+01 -0.42855901533E+01  0.63026916781E+01  0.92684023947E+01  0.51100000000E-03 0. -1.
        -11    1    3    3    0    0  0.29257380896E+02  0.16947739986E+01 -0.27529402237E+02  0.40208638171E+02  0.51100000000E-03 0.  1.
         12    1    3    3    0    0 -0.34061284261E+02  0.17414960347E+01  0.21898212280E+02  0.40530674742E+02  0.00000000000E+00 0. -1.
</event>
<event>
 7    1  0.1978681E-015  0.9000788E+02  0.7816164E-02  0.1186339E+00
        -11   -1    0    0    0    0  0.00000000000E+00  0.00000000000E+00  0.45593999997E+02  0.45594000000E+02  0.51100000000E-03 0. -1.
         11   -1    0    0    0    0 -0.00000000000E+00 -0.00000000000E+00 -0.45593999997E+02  0.45594000000E+02  0.51100000000E-03 0.  1.
    9900012    2    1    2    0    0  0.90353219860E+00 -0.12651008842E+00  0.74853088571E+00  0.90007884021E+02  0.90000147290E+02 0.  0.
        -12    1    1    2    0    0 -0.90353219860E+00  0.12651008842E+00 -0.74853088571E+00  0.11801159787E+01  0.00000000000E+00 0.  1.
         11    1    3    3    0    0  0.60473517909E+01 -0.32398262251E+01 -0.46434831129E+00  0.68762313273E+01  0.51100000000E-03 0. -1.
        -11    1    3    3    0    0  0.22992777625E+02 -0.28094396354E+01 -0.31806780114E+02  0.39347579792E+02  0.51100000000E-03 0.  1.
         12    1    3    3    0    0 -0.28136597218E+02  0.59227557720E+01  0.33019659311E+02  0.43784072902E+02  0.00000000000E+00 0. -1.
</event>
<event>
 7    1  0.1978681E-015  0.9000750E+02  0.7816164E-02  0.1186340E+00
        -11   -1    0    0    0    0  0.00000000000E+00  0.00000000000E+00  0.45593999997E+02  0.45594000000E+02  0.51100000000E-03 0. -1.
         11   -1    0    0    0    0 -0.00000000000E+00 -0.00000000000E+00 -0.45593999997E+02  0.45594000000E+02  0.51100000000E-03 0.  1.
    9900012    2    1    2    0    0  0.32699759705E+00 -0.54454609719E+00  0.99505359814E+00  0.90007496064E+02  0.89999754211E+02 0.  0.
        -12    1    1    2    0    0 -0.32699759705E+00  0.54454609719E+00 -0.99505359814E+00  0.11805039363E+01  0.00000000000E+00 0.  1.
         11    1    3    3    0    0 -0.16407519241E+02  0.12227598286E+02  0.35598264509E+02  0.41060410176E+02  0.51100000000E-03 0. -1.
        -11    1    3    3    0    0 -0.13897223927E+01 -0.10062664113E+02 -0.42637047742E+00  0.10167120016E+02  0.51100000000E-03 0.  1.
        -12    1    3    3    0    0  0.18124239231E+02 -0.27094802710E+01 -0.34176840433E+02  0.38779965872E+02  0.00000000000E+00 0.  1.
</event>
<event>
 7    1  0.1978681E-015  0.9000768E+02  0.7816164E-02  0.1186339E+00
        -11   -1    0    0    0    0  0.00000000000E+00  0.00000000000E+00  0.45593999997E+02  0.45594000000E+02  0.51100000000E-03 0. -1.
         11   -1    0    0    0    0 -0.00000000000E+00 -0.00000000000E+00 -0.45593999997E+02  0.45594000000E+02  0.51100000000E-03 0.  1.
    9900012    2    1    2    0    0  0.14130419661E+00 -0.44844026343E+00  0.10826260725E+01  0.90007684466E+02  0.89999945101E+02 0.  0.
        -12    1    1    2    0    0 -0.14130419661E+00  0.44844026343E+00 -0.10826260725E+01  0.11803155335E+01  0.00000000000E+00 0.  1.
         11    1    3    3    0    0 -0.14790991420E+01 -0.17457446202E+02  0.39856672084E+01  0.17967629379E+02  0.51100000000E-03 0. -1.
        -11    1    3    3    0    0 -0.17040827634E+01 -0.15879309736E+02 -0.26836783504E+02  0.31229302344E+02  0.51100000000E-03 0.  1.
        -12    1    3    3    0    0  0.33244861019E+01  0.32888315674E+02  0.23933742368E+02  0.40810752743E+02  0.00000000000E+00 0.  1.
</event>
<event>
 7    1  0.1978681E-015  0.9000772E+02  0.7816164E-02  0.1186339E+00
        -11   -1    0    0    0    0  0.00000000000E+00  0.00000000000E+00  0.45593999997E+02  0.45594000000E+02  0.51100000000E-03 0.  1.
         11   -1    0    0    0    0 -0.00000000000E+00 -0.00000000000E+00 -0.45593999997E+02  0.45594000000E+02  0.51100000000E-03 0. -1.
    9900012    2    1    2    0    0 -0.11032613926E+01  0.17626408333E+00 -0.38053611239E+00  0.90007719330E+02  0.89999980425E+02 0.  0.
        -12    1    1    2    0    0  0.11032613926E+01 -0.17626408333E+00  0.38053611239E+00  0.11802806701E+01  0.00000000000E+00 0.  1.
         11    1    3    3    0    0 -0.65857502925E+01 -0.63523639659E+00  0.92234172111E+01  0.11351081777E+02  0.51100000000E-03 0. -1.
        -11    1    3    3    0    0  0.24579544406E+01  0.18936601420E+02  0.29677221576E+02  0.35289855400E+02  0.51100000000E-03 0.  1.
         12    1    3    3    0    0  0.30245344594E+01 -0.18125100940E+02 -0.39281174900E+02  0.43366782153E+02  0.00000000000E+00 0. -1.
</event>
<event>
 7    1  0.1978681E-015  0.9000779E+02  0.7816164E-02  0.1186339E+00
        -11   -1    0    0    0    0  0.00000000000E+00  0.00000000000E+00  0.45593999997E+02  0.45594000000E+02  0.51100000000E-03 0. -1.
         11   -1    0    0    0    0 -0.00000000000E+00 -0.00000000000E+00 -0.45593999997E+02  0.45594000000E+02  0.51100000000E-03 0.  1.
    9900012    2    1    2    0    0 -0.93706913565E+00 -0.19208138211E+00  0.69130532418E+00  0.90007789479E+02  0.90000051500E+02 0.  0.
        -12    1    1    2    0    0  0.93706913565E+00  0.19208138211E+00 -0.69130532418E+00  0.11802105209E+01  0.00000000000E+00 0.  1.
         11    1    3    3    0    0  0.93650125140E+01 -0.10580271423E+01  0.32860992539E+01  0.99810485115E+01  0.51100000000E-03 0. -1.
        -11    1    3    3    0    0  0.22464491523E+02  0.57052739379E+01  0.27017843308E+02  0.35597294664E+02  0.51100000000E-03 0.  1.
         12    1    3    3    0    0 -0.32766573173E+02 -0.48393281778E+01 -0.29612637238E+02  0.44429446304E+02  0.00000000000E+00 0. -1.
</event>
<event>
 7    1  0.1978681E-015  0.9000775E+02  0.7816164E-02  0.1186339E+00
        -11   -1    0    0    0    0  0.00000000000E+00  0.00000000000E+00  0.45593999997E+02  0.45594000000E+02  0.51100000000E-03 0. -1.
         11   -1    0    0    0    0 -0.00000000000E+00 -0.00000000000E+00 -0.45593999997E+02  0.45594000000E+02  0.51100000000E-03 0.  1.
    9900012    2    1    2    0    0  0.10725749629E+01  0.15155653743E+00 -0.46861731135E+00  0.90007750611E+02  0.90000012119E+02 0.  0.
        -12    1    1    2    0    0 -0.10725749629E+01 -0.15155653743E+00  0.46861731135E+00  0.11802493887E+01  0.00000000000E+00 0.  1.
         11    1    3    3    0    0  0.35377140189E+02 -0.52591371457E+01 -0.17146204962E+01  0.35806989474E+02  0.51100000000E-03 0. -1.
        -11    1    3    3    0    0  0.72481090353E+01  0.91862383829E+01 -0.34855976054E+01  0.12209482018E+02  0.51100000000E-03 0.  1.
        -12    1    3    3    0    0 -0.41552674261E+02 -0.37755446997E+01  0.47316007903E+01  0.41991279120E+02  0.00000000000E+00 0.  1.
</event>
<event>
 7    1  0.1978681E-015  0.9000778E+02  0.7816164E-02  0.1186339E+00
        -11   -1    0    0    0    0  0.00000000000E+00  0.00000000000E+00  0.45593999997E+02  0.45594000000E+02  0.51100000000E-03 0.  1.
         11   -1    0    0    0    0 -0.00000000000E+00 -0.00000000000E+00 -0.45593999997E+02  0.45594000000E+02  0.51100000000E-03 0. -1.
    9900012    2    1    2    0    0 -0.96577271366E-01 -0.11149045431E+01 -0.37495508835E+00  0.90007775179E+02  0.90000037011E+02 0.  0.
        -12    1    1    2    0    0  0.96577271366E-01  0.11149045431E+01  0.37495508835E+00  0.11802248209E+01  0.00000000000E+00 0.  1.
         11    1    3    3    0    0 -0.51470161964E+01  0.11454242235E+02  0.49039276969E+00  0.12567096970E+02  0.51100000000E-03 0. -1.
        -11    1    3    3    0    0  0.43674347076E+01  0.13751753022E+02  0.32133832192E+02  0.35224542136E+02  0.51100000000E-03 0.  1.
         12    1    3    3    0    0  0.68300421752E+00 -0.26320899800E+02 -0.32999180050E+02  0.42216136074E+02  0.00000000000E+00 0. -1.
</event>
<event>
 7    1  0.1978681E-015  0.9000781E+02  0.7816164E-02  0.1186339E+00
        -11   -1    0    0    0    0  0.00000000000E+00  0.00000000000E+00  0.45593999997E+02  0.45594000000E+02  0.51100000000E-03 0.  1.
         11   -1    0    0    0    0 -0.00000000000E+00 -0.00000000000E+00 -0.45593999997E+02  0.45594000000E+02  0.51100000000E-03 0. -1.
    9900012    2    1    2    0    0  0.10272808876E+01 -0.44813684273E+00 -0.36976013832E+00  0.90007807129E+02  0.90000069384E+02 0.  0.
        -12    1    1    2    0    0 -0.10272808876E+01  0.44813684273E+00  0.36976013832E+00  0.11801928706E+01  0.00000000000E+00 0.  1.
         11    1    3    3    0    0  0.36591719224E+01 -0.10217119908E+02 -0.44678573788E+01  0.11736303855E+02  0.51100000000E-03 0. -1.
        -11    1    3    3    0    0 -0.20233808629E+02 -0.18104642763E+02 -0.23010902518E+02  0.35590542791E+02  0.51100000000E-03 0.  1.
         12    1    3    3    0    0  0.17601917595E+02  0.27873625828E+02  0.27108999758E+02  0.42680960483E+02  0.00000000000E+00 0. -1.
</event>
<event>
 7    1  0.1978681E-015  0.9000766E+02  0.7816164E-02  0.1186339E+00
        -11   -1    0    0    0    0  0.00000000000E+00  0.00000000000E+00  0.45593999997E+02  0.45594000000E+02  0.51100000000E-03 0. -1.
         11   -1    0    0    0    0 -0.00000000000E+00 -0.00000000000E+00 -0.45593999997E+02  0.45594000000E+02  0.51100000000E-03 0.  1.
    9900012    2    1    2    0    0  0.90622703012E+00  0.66915204098E+00  0.35241336428E+00  0.90007658074E+02  0.89999918360E+02 0.  0.
        -12    1    1    2    0    0 -0.90622703012E+00 -0.66915204098E+00 -0.35241336428E+00  0.11803419265E+01  0.00000000000E+00 0.  1.
         11    1    3    3    0    0  0.30698460794E+01 -0.19919437097E+02  0.32360323861E+02  0.38123463771E+02  0.51100000000E-03 0. -1.
        -11    1    3    3    0    0  0.31057557713E+01  0.53087355440E+01  0.72036342159E+01  0.94721031542E+01  0.51100000000E-03 0.  1.
        -12    1    3    3    0    0 -0.52693748206E+01  0.15279853594E+02 -0.39211544712E+02  0.42412091149E+02  0.00000000000E+00 0.  1.
</event>
<event>
 7    1  0.1978681E-015  0.9000890E+02  0.7816164E-02  0.1186337E+00
        -11   -1    0    0    0    0  0.00000000000E+00  0.00000000000E+00  0.45593999997E+02  0.45594000000E+02  0.51100000000E-03 0.  1.
         11   -1    0    0    0    0 -0.00000000000E+00 -0.00000000000E+00 -0.45593999997E+02  0.45594000000E+02  0.51100000000E-03 0. -1.
    9900012    2    1    2    0    0 -0.10416637938E+01 -0.64042873443E-02  0.55242462841E+00  0.90008899731E+02  0.90001176400E+02 0.  0.
        -12    1    1    2    0    0  0.10416637938E+01  0.64042873443E-02 -0.55242462841E+00  0.11791002690E+01  0.00000000000E+00 0.  1.
         11    1    3    3    0    0  0.41480742580E+01 -0.10751526236E+02 -0.37231907690E+01  0.12110490750E+02  0.51100000000E-03 0. -1.
        -11    1    3    3    0    0  0.13262433776E+02 -0.47629837294E+01  0.35650008729E+02  0.38334074742E+02  0.51100000000E-03 0.  1.
         12    1    3    3    0    0 -0.18452171827E+02  0.15508105678E+02 -0.31374393332E+02  0.39564334239E+02  0.00000000000E+00 0. -1.
</event>
<event>
 7    1  0.1978681E-015  0.9000778E+02  0.7816164E-02  0.1186339E+00
        -11   -1    0    0    0    0  0.00000000000E+00  0.00000000000E+00  0.45593999997E+02  0.45594000000E+02  0.51100000000E-03 0. -1.
         11   -1    0    0    0    0 -0.00000000000E+00 -0.00000000000E+00 -0.45593999997E+02  0.45594000000E+02  0.51100000000E-03 0.  1.
    9900012    2    1    2    0    0  0.19751699360E+00  0.11141881047E+01  0.33541209091E+00  0.90007775714E+02  0.90000037553E+02 0.  0.
        -12    1    1    2    0    0 -0.19751699360E+00 -0.11141881047E+01 -0.33541209091E+00  0.11802242863E+01  0.00000000000E+00 0.  1.
         11    1    3    3    0    0 -0.25786255382E+02 -0.23125437832E+02  0.10667862828E+02  0.36242518388E+02  0.51100000000E-03 0. -1.
        -11    1    3    3    0    0  0.12135607615E+02 -0.10061032759E+02 -0.35339606030E+01  0.16155068250E+02  0.51100000000E-03 0.  1.
        -12    1    3    3    0    0  0.13848164761E+02  0.34300658695E+02 -0.67984901338E+01  0.37610189075E+02  0.00000000000E+00 0.  1.
</event>
<event>
 7    1  0.1978681E-015  0.9000782E+02  0.7816164E-02  0.1186339E+00
        -11   -1    0    0    0    0  0.00000000000E+00  0.00000000000E+00  0.45593999997E+02  0.45594000000E+02  0.51100000000E-03 0.  1.
         11   -1    0    0    0    0 -0.00000000000E+00 -0.00000000000E+00 -0.45593999997E+02  0.45594000000E+02  0.51100000000E-03 0. -1.
    9900012    2    1    2    0    0  0.10430097506E+01  0.38631124083E+00 -0.39461076938E+00  0.90007820618E+02  0.90000083050E+02 0.  0.
        -12    1    1    2    0    0 -0.10430097506E+01 -0.38631124083E+00  0.39461076938E+00  0.11801793821E+01  0.00000000000E+00 0.  1.
         11    1    3    3    0    0  0.34850520891E+02  0.30005062311E+00  0.80860680479E+01  0.35777553487E+02  0.51100000000E-03 0. -1.
        -11    1    3    3    0    0  0.82077317951E+01  0.71825251729E+01 -0.26389656940E+01  0.11221393375E+02  0.51100000000E-03 0.  1.
        -12    1    3    3    0    0 -0.42015242936E+02 -0.70962645551E+01 -0.58417131232E+01  0.43008873756E+02  0.00000000000E+00 0.  1.
</event>
<event>
 7    1  0.1978681E-015  0.9000775E+02  0.7816164E-02  0.1186339E+00
        -11   -1    0    0    0    0  0.00000000000E+00  0.00000000000E+00  0.45593999997E+02  0.45594000000E+02  0.51100000000E-03 0.  1.
         11   -1    0    0    0    0 -0.00000000000E+00 -0.00000000000E+00 -0.45593999997E+02  0.45594000000E+02  0.51100000000E-03 0. -1.
    9900012    2    1    2    0    0  0.49635494276E+00 -0.75006323690E+00  0.76421315429E+00  0.90007752215E+02  0.90000013744E+02 0.  0.
        -12    1    1    2    0    0 -0.49635494276E+00  0.75006323690E+00 -0.76421315429E+00  0.11802477849E+01  0.00000000000E+00 0.  1.
         11    1    3    3    0    0  0.45481142846E+01 -0.39085272564E+01  0.52437936044E+01  0.79661346013E+01  0.51100000000E-03 0. -1.
        -11    1    3    3    0    0 -0.22915881518E+02 -0.16974856820E+02 -0.32143782556E+02  0.42970991926E+02  0.51100000000E-03 0.  1.
         12    1    3    3    0    0  0.18864122176E+02  0.20133320840E+02  0.27664202106E+02  0.39070625688E+02  0.00000000000E+00 0. -1.
</event>
<event>
 7    1  0.1978681E-015  0.9000777E+02  0.7816164E-02  0.1186339E+00
        -11   -1    0    0    0    0  0.00000000000E+00  0.00000000000E+00  0.45593999997E+02  0.45594000000E+02  0.51100000000E-03 0.  1.
         11   -1    0    0    0    0 -0.00000000000E+00 -0.00000000000E+00 -0.45593999997E+02  0.45594000000E+02  0.51100000000E-03 0. -1.
    9900012    2    1    2    0    0  0.21770728766E-01 -0.49786390063E+00 -0.10698631517E+01  0.90007767145E+02  0.90000028872E+02 0.  0.
        -12    1    1    2    0    0 -0.21770728766E-01  0.49786390063E+00  0.10698631517E+01  0.11802328548E+01  0.00000000000E+00 0.  1.
         11    1    3    3    0    0  0.34274540388E+01  0.53671805326E+01  0.69644561781E+01  0.94370396934E+01  0.51100000000E-03 0. -1.
        -11    1    3    3    0    0 -0.10466399941E+01  0.36431251513E+02  0.36452006529E+01  0.36628118026E+02  0.51100000000E-03 0.  1.
         12    1    3    3    0    0 -0.23590433159E+01 -0.42296295946E+02 -0.11679519983E+02  0.43942609426E+02  0.00000000000E+00 0. -1.
</event>
<event>
 7    1  0.1978681E-015  0.9000765E+02  0.7816164E-02  0.1186339E+00
        -11   -1    0    0    0    0  0.00000000000E+00  0.00000000000E+00  0.45593999997E+02  0.45594000000E+02  0.51100000000E-03 0.  1.
         11   -1    0    0    0    0 -0.00000000000E+00 -0.00000000000E+00 -0.45593999997E+02  0.45594000000E+02  0.51100000000E-03 0. -1.
    9900012    2    1    2    0    0 -0.16192054878E-02  0.11792770827E+01 -0.50204853013E-01  0.90007653616E+02  0.89999913843E+02 0.  0.
        -12    1    1    2    0    0  0.16192054878E-02 -0.11792770827E+01  0.50204853013E-01  0.11803463843E+01  0.00000000000E+00 0.  1.
         11    1    3    3    0    0  0.89116225932E+01  0.14130642508E+01 -0.14606841334E+00  0.90241400733E+01  0.51100000000E-03 0. -1.
        -11    1    3    3    0    0 -0.27679677373E+02  0.29296289377E+02  0.14929223030E+02  0.42980446849E+02  0.51100000000E-03 0.  1.
         12    1    3    3    0    0  0.18766435575E+02 -0.29530076546E+02 -0.14833359470E+02  0.38003066694E+02  0.00000000000E+00 0. -1.
</event>
<event>
 7    1  0.1978681E-015  0.9000780E+02  0.7816164E-02  0.1186339E+00
        -11   -1    0    0    0    0  0.00000000000E+00  0.00000000000E+00  0.45593999997E+02  0.45594000000E+02  0.51100000000E-03 0.  1.
         11   -1    0    0    0    0 -0.00000000000E+00 -0.00000000000E+00 -0.45593999997E+02  0.45594000000E+02  0.51100000000E-03 0. -1.
    9900012    2    1    2    0    0 -0.11439513144E+01  0.23919289108E-01  0.28928264178E+00  0.90007796124E+02  0.90000058233E+02 0.  0.
        -12    1    1    2    0    0  0.11439513144E+01 -0.23919289108E-01 -0.28928264178E+00  0.11802038760E+01  0.00000000000E+00 0.  1.
         11    1    3    3    0    0  0.74423058622E-01  0.14458346743E+02 -0.42631714902E+01  0.15073949740E+02  0.51100000000E-03 0. -1.
        -11    1    3    3    0    0 -0.16757134615E+02  0.19888024665E+02  0.21383904909E+02  0.33669072975E+02  0.51100000000E-03 0.  1.
         12    1    3    3    0    0  0.15538760242E+02 -0.34322452119E+02 -0.16831450777E+02  0.41264773410E+02  0.00000000000E+00 0. -1.
</event>
<event>
 7    1  0.1978681E-015  0.9000770E+02  0.7816164E-02  0.1186339E+00
        -11   -1    0    0    0    0  0.00000000000E+00  0.00000000000E+00  0.45593999997E+02  0.45594000000E+02  0.51100000000E-03 0.  1.
         11   -1    0    0    0    0 -0.00000000000E+00 -0.00000000000E+00 -0.45593999997E+02  0.45594000000E+02  0.51100000000E-03 0. -1.
    9900012    2    1    2    0    0  0.93746592445E+00  0.31241166646E+00 -0.64549711166E+00  0.90007699221E+02  0.89999960050E+02 0.  0.
        -12    1    1    2    0    0 -0.93746592445E+00 -0.31241166646E+00  0.64549711166E+00  0.11803007795E+01  0.00000000000E+00 0.  1.
         11    1    3    3    0    0 -0.19729410258E+02 -0.13304917219E+01 -0.29331567175E+02  0.35374576613E+02  0.51100000000E-03 0. -1.
        -11    1    3    3    0    0 -0.34152350690E+01  0.10409378502E+02 -0.52165270970E+01  0.12133884233E+02  0.51100000000E-03 0.  1.
        -12    1    3    3    0    0  0.24082111251E+02 -0.87664751133E+01  0.33902597160E+02  0.42499238375E+02  0.00000000000E+00 0.  1.
</event>
<event>
 7    1  0.1978681E-015  0.9000772E+02  0.7816164E-02  0.1186339E+00
        -11   -1    0    0    0    0  0.00000000000E+00  0.00000000000E+00  0.45593999997E+02  0.45594000000E+02  0.51100000000E-03 0.  1.
         11   -1    0    0    0    0 -0.00000000000E+00 -0.00000000000E+00 -0.45593999997E+02  0.45594000000E+02  0.51100000000E-03 0. -1.
    9900012    2    1    2    0    0 -0.90189153443E+00  0.72354778454E+00  0.23694461199E+00  0.90007715083E+02  0.89999976122E+02 0.  0.
        -12    1    1    2    0    0  0.90189153443E+00 -0.72354778454E+00 -0.23694461199E+00  0.11802849171E+01  0.00000000000E+00 0.  1.
         11    1    3    3    0    0  0.65469997360E+01  0.22861854339E+02 -0.30449108636E+02  0.38635162823E+02  0.51100000000E-03 0. -1.
        -11    1    3    3    0    0  0.64510347764E+01 -0.40424062260E+01 -0.49329650039E+01  0.90714409976E+01  0.51100000000E-03 0.  1.
        -12    1    3    3    0    0 -0.13899926047E+02 -0.18095900328E+02  0.35619018252E+02  0.42301111262E+02  0.00000000000E+00 0.  1.
</event>
<event>
 7    1  0.1978681E-015  0.9000773E+02  0.7816164E-02  0.1186339E+00
        -11   -1    0    0    0    0  0.00000000000E+00  0.00000000000E+00  0.45593999997E+02  0.45594000000E+02  0.51100000000E-03 0. -1.
         11   -1    0    0    0    0 -0.00000000000E+00 -0.00000000000E+00 -0.45593999997E+02  0.45594000000E+02  0.51100000000E-03 0.  1.
    9900012    2    1    2    0    0  0.41039768743E+00 -0.10402578306E+01  0.37745293510E+00  0.90007731669E+02  0.89999992927E+02 0.  0.
        -12    1    1    2    0    0 -0.41039768743E+00  0.10402578306E+01 -0.37745293510E+00  0.11802683314E+01  0.00000000000E+00 0.  1.
         11    1    3    3    0    0  0.29246521718E+02  0.16199883725E+02  0.11834422577E+02  0.35466164485E+02  0.51100000000E-03 0. -1.
        -11    1    3    3    0    0  0.22278036106E+01  0.99727618978E+01  0.32189573194E+01  0.10713579014E+02  0.51100000000E-03 0.  1.
        -12    1    3    3    0    0 -0.31063927641E+02 -0.27212903453E+02 -0.14675926962E+02  0.43827988170E+02  0.00000000000E+00 0.  1.
</event>
<event>
 7    1  0.1978681E-015  0.9000776E+02  0.7816164E-02  0.1186339E+00
        -11   -1    0    0    0    0  0.00000000000E+00  0.00000000000E+00  0.45593999997E+02  0.45594000000E+02  0.51100000000E-03 0. -1.
         11   -1    0    0    0    0 -0.00000000000E+00 -0.00000000000E+00 -0.45593999997E+02  0.45594000000E+02  0.51100000000E-03 0.  1.
    9900012    2    1    2    0    0  0.76711218917E+00  0.89240076678E+00 -0.90156882552E-01  0.90007759134E+02  0.90000020754E+02 0.  0.
        -12    1    1    2    0    0 -0.76711218917E+00 -0.89240076678E+00  0.90156882552E-01  0.11802408664E+01  0.00000000000E+00 0.  1.
         11    1    3    3    0    0 -0.17556287712E+02  0.70440780284E+01  0.92355097494E+01  0.21050817421E+02  0.51100000000E-03 0. -1.
        -11    1    3    3    0    0 -0.22095771626E+02  0.94050270307E+01 -0.90026252907E+01  0.25646148241E+02  0.51100000000E-03 0.  1.
         12    1    3    3    0    0  0.40419171528E+02 -0.15556704292E+02 -0.32304134127E+00  0.43310793472E+02  0.00000000000E+00 0. -1.
</event>
<event>
 7    1  0.1978681E-015  0.9000776E+02  0.7816164E-02  0.1186339E+00
        -11   -1    0    0    0    0  0.00000000000E+00  0.00000000000E+00  0.45593999997E+02  0.45594000000E+02  0.51100000000E-03 0.  1.
         11   -1    0    0    0    0 -0.00000000000E+00 -0.00000000000E+00 -0.45593999997E+02  0.45594000000E+02  0.51100000000E-03 0. -1.
    9900012    2    1    2    0    0  0.27500211058E+00  0.11455763329E+01  0.70636889727E-01  0.90007762369E+02  0.90000024032E+02 0.  0.
        -12    1    1    2    0    0 -0.27500211058E+00 -0.11455763329E+01 -0.70636889727E-01  0.11802376309E+01  0.00000000000E+00 0.  1.
         11    1    3    3    0    0 -0.39602655977E+02  0.39896027689E+01 -0.79069717531E+01  0.40580875955E+02  0.51100000000E-03 0. -1.
        -11    1    3    3    0    0  0.88512611322E+01  0.29762555434E+01  0.14447875187E+02  0.17203023524E+02  0.51100000000E-03 0.  1.
        -12    1    3    3    0    0  0.31026396956E+02 -0.58202819794E+01 -0.64702665443E+01  0.32223862890E+02  0.00000000000E+00 0.  1.
</event>
<event>
 7    1  0.1978681E-015  0.9000790E+02  0.7816164E-02  0.1186339E+00
        -11   -1    0    0    0    0  0.00000000000E+00  0.00000000000E+00  0.45593999997E+02  0.45594000000E+02  0.51100000000E-03 0. -1.
         11   -1    0    0    0    0 -0.00000000000E+00 -0.00000000000E+00 -0.45593999997E+02  0.45594000000E+02  0.51100000000E-03 0.  1.
    9900012    2    1    2    0    0  0.11133374430E+01 -0.83943686809E-01 -0.38218593091E+00  0.90007901322E+02  0.90000164819E+02 0.  0.
        -12    1    1    2    0    0 -0.11133374430E+01  0.83943686809E-01  0.38218593091E+00  0.11800986782E+01  0.00000000000E+00 0.  1.
         11    1    3    3    0    0  0.23699792920E+02 -0.32026846200E+01  0.17977712235E+01  0.23982688650E+02  0.51100000000E-03 0. -1.
        -11    1    3    3    0    0 -0.11874816377E+02 -0.21582012856E+02  0.19532688189E+02  0.31437564331E+02  0.51100000000E-03 0.  1.
         12    1    3    3    0    0 -0.10711639100E+02  0.24700753789E+02 -0.21712645344E+02  0.34587648341E+02  0.00000000000E+00 0. -1.
</event>
<event>
 7    1  0.1978681E-015  0.9000767E+02  0.7816164E-02  0.1186339E+00
        -11   -1    0    0    0    0  0.00000000000E+00  0.00000000000E+00  0.45593999997E+02  0.45594000000E+02  0.51100000000E-03 0. -1.
         11   -1    0    0    0    0 -0.00000000000E+00 -0.00000000000E+00 -0.45593999997E+02  0.45594000000E+02  0.51100000000E-03 0.  1.
    9900012    2    1    2    0    0 -0.65892793544E+00 -0.84015702947E+00 -0.50311183859E+00  0.90007673189E+02  0.89999933675E+02 0.  0.
        -12    1    1    2    0    0  0.65892793544E+00  0.84015702947E+00  0.50311183859E+00  0.11803268108E+01  0.00000000000E+00 0.  1.
         11    1    3    3    0    0  0.30405563791E+02 -0.17586997121E+02 -0.22834930479E+01  0.35199646560E+02  0.51100000000E-03 0. -1.
        -11    1    3    3    0    0  0.62570205998E+01 -0.49969268263E+01 -0.71105746784E+01  0.10708868148E+02  0.51100000000E-03 0.  1.
        -12    1    3    3    0    0 -0.37321512326E+02  0.21743766918E+02  0.88909558877E+01  0.44099158481E+02  0.00000000000E+00 0.  1.
</event>
<event>
 7    1  0.1978681E-015  0.9000782E+02  0.7816164E-02  0.1186339E+00
        -11   -1    0    0    0    0  0.00000000000E+00  0.00000000000E+00  0.45593999997E+02  0.45594000000E+02  0.51100000000E-03 0.  1.
         11   -1    0    0    0    0 -0.00000000000E+00 -0.00000000000E+00 -0.45593999997E+02  0.45594000000E+02  0.51100000000E-03 0. -1.
    9900012    2    1    2    0    0 -0.11940875985E+00  0.92530981239E+00 -0.72275154935E+00  0.90007819292E+02  0.90000081707E+02 0.  0.
        -12    1    1    2    0    0  0.11940875985E+00 -0.92530981239E+00  0.72275154935E+00  0.11801807077E+01  0.00000000000E+00 0.  1.
         11    1    3    3    0    0 -0.13665811889E+02 -0.22668235046E+02  0.51936173102E+01  0.26973634455E+02  0.51100000000E-03 0. -1.
        -11    1    3    3    0    0  0.10813772732E+02 -0.17767461917E+02 -0.57613621278E+01  0.21582717102E+02  0.51100000000E-03 0.  1.
        -12    1    3    3    0    0  0.27326303969E+01  0.41361006775E+02 -0.15500673170E+00  0.41451467736E+02  0.00000000000E+00 0.  1.
</event>
<event>
 7    1  0.1978681E-015  0.9000776E+02  0.7816164E-02  0.1186339E+00
        -11   -1    0    0    0    0  0.00000000000E+00  0.00000000000E+00  0.45593999997E+02  0.45594000000E+02  0.51100000000E-03 0. -1.
         11   -1    0    0    0    0 -0.00000000000E+00 -0.00000000000E+00 -0.45593999997E+02  0.45594000000E+02  0.51100000000E-03 0.  1.
    9900012    2    1    2    0    0 -0.81468617915E+00 -0.61862324281E-01 -0.85171545475E+00  0.90007762849E+02  0.90000024518E+02 0.  0.
        -12    1    1    2    0    0  0.81468617915E+00  0.61862324281E-01  0.85171545475E+00  0.11802371514E+01  0.00000000000E+00 0.  1.
         11    1    3    3    0    0  0.12982299275E+02  0.16525188764E+02 -0.33540901969E+02  0.39580475785E+02  0.51100000000E-03 0. -1.
        -11    1    3    3    0    0 -0.93157332000E+00  0.84257310099E+01  0.18293833496E+01  0.86722209153E+01  0.51100000000E-03 0.  1.
        -12    1    3    3    0    0 -0.12865412134E+02 -0.25012782099E+02  0.30859803165E+02  0.41755066149E+02  0.00000000000E+00 0.  1.
</event>
<event>
 7    1  0.1978681E-015  0.9000778E+02  0.7816164E-02  0.1186339E+00
        -11   -1    0    0    0    0  0.00000000000E+00  0.00000000000E+00  0.45593999997E+02  0.45594000000E+02  0.51100000000E-03 0.  1.
         11   -1    0    0    0    0 -0.00000000000E+00 -0.00000000000E+00 -0.45593999997E+02  0.45594000000E+02  0.51100000000E-03 0. -1.
    9900012    2    1    2    0    0 -0.19645168919E-01  0.10005091416E+01  0.62571479257E+00  0.90007778209E+02  0.90000040081E+02 0.  0.
        -12    1    1    2    0    0  0.19645168919E-01 -0.10005091416E+01 -0.62571479257E+00  0.11802217913E+01  0.00000000000E+00 0.  1.
         11    1    3    3    0    0  0.12346834329E+02  0.28127486743E+02  0.12366659739E+02  0.33113956300E+02  0.51100000000E-03 0. -1.
        -11    1    3    3    0    0  0.12731400803E+02  0.35772206486E+01  0.46010514504E+01  0.14001955174E+02  0.51100000000E-03 0.  1.
        -12    1    3    3    0    0 -0.25097880301E+02 -0.30704198250E+02 -0.16341996397E+02  0.42891866735E+02  0.00000000000E+00 0.  1.
</event>
<event>
 7    1  0.1978681E-015  0.9000774E+02  0.7816164E-02  0.1186339E+00
        -11   -1    0    0    0    0  0.00000000000E+00  0.00000000000E+00  0.45593999997E+02  0.45594000000E+02  0.51100000000E-03 0. -1.
         11   -1    0    0    0    0 -0.00000000000E+00 -0.00000000000E+00 -0.45593999997E+02  0.45594000000E+02  0.51100000000E-03 0.  1.
    9900012    2    1    2    0    0  0.10360885284E+01 -0.48852574229E+00 -0.28440503007E+00  0.90007736021E+02  0.89999997336E+02 0.  0.
        -12    1    1    2    0    0 -0.10360885284E+01  0.48852574229E+00  0.28440503007E+00  0.11802639793E+01  0.00000000000E+00 0.  1.
         11    1    3    3    0    0  0.37031514275E+02  0.12080242121E+02 -0.48841541745E+01  0.39257104599E+02  0.51100000000E-03 0. -1.
        -11    1    3    3    0    0 -0.35582878919E+01 -0.46301301318E+01  0.14736725558E+02  0.15851517220E+02  0.51100000000E-03 0.  1.
        -12    1    3    3    0    0 -0.32437137855E+02 -0.79386377316E+01 -0.10136976413E+02  0.34899114202E+02  0.00000000000E+00 0.  1.
</event>
<event>
 7    1  0.1992110E-015  0.9000781E+02  0.7816164E-02  0.1186339E+00
        -11   -1    0    0    0    0  0.00000000000E+00  0.00000000000E+00  0.45593999997E+02  0.45594000000E+02  0.51100000000E-03 0. -1.
         11   -1    0    0    0    0 -0.00000000000E+00 -0.00000000000E+00 -0.45593999997E+02  0.45594000000E+02  0.51100000000E-03 0.  1.
    9900012    2    1    2    0    0 -0.86860706889E+00 -0.10883135234E-01  0.79891039658E+00  0.90007807429E+02  0.90000069687E+02 0.  0.
        -12    1    1    2    0    0  0.86860706889E+00  0.10883135234E-01 -0.79891039658E+00  0.11801925709E+01  0.00000000000E+00 0.  1.
         11    1    3    3    0    0 -0.55369336673E+01 -0.69652825289E+01  0.43896000772E+01  0.99217631619E+01  0.51100000000E-03 0. -1.
        -11    1    3    3    0    0 -0.10005560036E+02  0.41315412140E+02 -0.42112005282E+01  0.42717779929E+02  0.51100000000E-03 0.  1.
         12    1    3    3    0    0  0.14673886634E+02 -0.34361012746E+02  0.62051084760E+00  0.37368264338E+02  0.00000000000E+00 0. -1.
</event>
<event>
 7    1  0.1978681E-015  0.9000761E+02  0.7816164E-02  0.1186339E+00
        -11   -1    0    0    0    0  0.00000000000E+00  0.00000000000E+00  0.45593999997E+02  0.45594000000E+02  0.51100000000E-03 0. -1.
         11   -1    0    0    0    0 -0.00000000000E+00 -0.00000000000E+00 -0.45593999997E+02  0.45594000000E+02  0.51100000000E-03 0.  1.
    9900012    2    1    2    0    0 -0.40484634311E+00  0.30387311057E+00  0.10663383022E+01  0.90007611588E+02  0.89999871261E+02 0.  0.
        -12    1    1    2    0    0  0.40484634311E+00 -0.30387311057E+00 -0.10663383022E+01  0.11803884121E+01  0.00000000000E+00 0.  1.
         11    1    3    3    0    0  0.23569175044E+01 -0.28299616011E+02  0.24331266467E+02  0.37395639514E+02  0.51100000000E-03 0. -1.
        -11    1    3    3    0    0 -0.66113362259E+01 -0.21848684787E+01  0.65654610106E+01  0.95701983002E+01  0.51100000000E-03 0.  1.
        -12    1    3    3    0    0  0.38495723784E+01  0.30788357600E+02 -0.29830389176E+02  0.43041773774E+02  0.00000000000E+00 0.  1.
</event>
<event>
 7    1  0.1978681E-015  0.9000780E+02  0.7816164E-02  0.1186339E+00
        -11   -1    0    0    0    0  0.00000000000E+00  0.00000000000E+00  0.45593999997E+02  0.45594000000E+02  0.51100000000E-03 0.  1.
         11   -1    0    0    0    0 -0.00000000000E+00 -0.00000000000E+00 -0.45593999997E+02  0.45594000000E+02  0.51100000000E-03 0. -1.
    9900012    2    1    2    0    0  0.36057129182E+00 -0.10060210096E+01 -0.50078185987E+00  0.90007799848E+02  0.90000062006E+02 0.  0.
        -12    1    1    2    0    0 -0.36057129182E+00  0.10060210096E+01  0.50078185987E+00  0.11802001523E+01  0.00000000000E+00 0.  1.
         11    1    3    3    0    0  0.10839541893E+02  0.15205229946E+01 -0.13018274071E+02  0.17008324981E+02  0.51100000000E-03 0. -1.
        -11    1    3    3    0    0  0.72355949605E+01  0.22035844992E+02  0.30086259113E+02  0.37988357251E+02  0.51100000000E-03 0.  1.
         12    1    3    3    0    0 -0.17714565561E+02 -0.24562388996E+02 -0.17568766902E+02  0.35011117616E+02  0.00000000000E+00 0. -1.
</event>
<event>
 7    1  0.1978681E-015  0.9000799E+02  0.7816164E-02  0.1186339E+00
        -11   -1    0    0    0    0  0.00000000000E+00  0.00000000000E+00  0.45593999997E+02  0.45594000000E+02  0.51100000000E-03 0. -1.
         11   -1    0    0    0    0 -0.00000000000E+00 -0.00000000000E+00 -0.45593999997E+02  0.45594000000E+02  0.51100000000E-03 0.  1.
    9900012    2    1    2    0    0  0.70360922719E+00  0.83310524189E+00  0.45087218382E+00  0.90007993214E+02  0.90000257924E+02 0.  0.
        -12    1    1    2    0    0 -0.70360922719E+00 -0.83310524189E+00 -0.45087218382E+00  0.11800067859E+01  0.00000000000E+00 0.  1.
         11    1    3    3    0    0  0.94501549939E+01  0.51862253986E+01 -0.71758463807E+01  0.12949715628E+02  0.51100000000E-03 0. -1.
        -11    1    3    3    0    0  0.16640271331E+02 -0.14007895275E+02 -0.25957205997E+02  0.33865857489E+02  0.51100000000E-03 0.  1.
         12    1    3    3    0    0 -0.25386817098E+02  0.96547751186E+01  0.33583924562E+02  0.43192420098E+02  0.00000000000E+00 0. -1.
</event>
<event>
 7    1  0.1978681E-015  0.9000772E+02  0.7816164E-02  0.1186339E+00
        -11   -1    0    0    0    0  0.00000000000E+00  0.00000000000E+00  0.45593999997E+02  0.45594000000E+02  0.51100000000E-03 0. -1.
         11   -1    0    0    0    0 -0.00000000000E+00 -0.00000000000E+00 -0.45593999997E+02  0.45594000000E+02  0.51100000000E-03 0.  1.
    9900012    2    1    2    0    0 -0.11341521411E+01 -0.32673917926E+00 -0.65687054322E-03  0.90007720371E+02  0.89999981480E+02 0.  0.
        -12    1    1    2    0    0  0.11341521411E+01  0.32673917926E+00  0.65687054321E-03  0.11802796287E+01  0.00000000000E+00 0.  1.
         11    1    3    3    0    0  0.64302218729E+01  0.70846600390E+01 -0.25403480264E+01  0.98991681246E+01  0.51100000000E-03 0. -1.
        -11    1    3    3    0    0  0.92668681228E+00  0.32126852443E+02 -0.15671615189E+02  0.35757417682E+02  0.51100000000E-03 0.  1.
         12    1    3    3    0    0 -0.84910608263E+01 -0.39538251662E+02  0.18211306345E+02  0.44351134565E+02  0.00000000000E+00 0. -1.
</event>
<event>
 7    1  0.1978681E-015  0.9000772E+02  0.7816164E-02  0.1186339E+00
        -11   -1    0    0    0    0  0.00000000000E+00  0.00000000000E+00  0.45593999997E+02  0.45594000000E+02  0.51100000000E-03 0.  1.
         11   -1    0    0    0    0 -0.00000000000E+00 -0.00000000000E+00 -0.45593999997E+02  0.45594000000E+02  0.51100000000E-03 0. -1.
    9900012    2    1    2    0    0 -0.82080814671E-01 -0.32719838111E+00 -0.11310492404E+01  0.90007716803E+02  0.89999977865E+02 0.  0.
        -12    1    1    2    0    0  0.82080814671E-01  0.32719838111E+00  0.11310492404E+01  0.11802831970E+01  0.00000000000E+00 0.  1.
         11    1    3    3    0    0  0.70784056544E+01 -0.86969603669E+00  0.60170333640E+01  0.93308567972E+01  0.51100000000E-03 0. -1.
        -11    1    3    3    0    0 -0.16521888248E+02  0.33158501116E+02  0.15202333322E+02  0.40044599214E+02  0.51100000000E-03 0.  1.
         12    1    3    3    0    0  0.93614017787E+01 -0.32616003460E+02 -0.22350415926E+02  0.40632260792E+02  0.00000000000E+00 0. -1.
</event>
<event>
 7    1  0.1978681E-015  0.9000768E+02  0.7816164E-02  0.1186339E+00
        -11   -1    0    0    0    0  0.00000000000E+00  0.00000000000E+00  0.45593999997E+02  0.45594000000E+02  0.51100000000E-03 0. -1.
         11   -1    0    0    0    0 -0.00000000000E+00 -0.00000000000E+00 -0.45593999997E+02  0.45594000000E+02  0.51100000000E-03 0.  1.
    9900012    2    1    2    0    0  0.25491335854E+00 -0.33485757959E+00  0.11027439265E+01  0.90007680303E+02  0.89999940883E+02 0.  0.
        -12    1    1    2    0    0 -0.25491335854E+00  0.33485757959E+00 -0.11027439265E+01  0.11803196967E+01  0.00000000000E+00 0.  1.
         11    1    3    3    0    0  0.25600102367E+02  0.19498522638E+02  0.22533845984E+02  0.39285262394E+02  0.51100000000E-03 0. -1.
        -11    1    3    3    0    0 -0.53562946275E+01  0.36391730630E+01  0.64608442142E+01  0.91474576217E+01  0.51100000000E-03 0.  1.
        -12    1    3    3    0    0 -0.19988894381E+02 -0.23472553281E+02 -0.27891946272E+02  0.41574960288E+02  0.00000000000E+00 0.  1.
</event>
<event>
 7    1  0.1978681E-015  0.9000773E+02  0.7816164E-02  0.1186339E+00
        -11   -1    0    0    0    0  0.00000000000E+00  0.00000000000E+00  0.45593999997E+02  0.45594000000E+02  0.51100000000E-03 0. -1.
         11   -1    0    0    0    0 -0.00000000000E+00 -0.00000000000E+00 -0.45593999997E+02  0.45594000000E+02  0.51100000000E-03 0.  1.
    9900012    2    1    2    0    0  0.62672691800E+00  0.94776192852E+00  0.31937593754E+00  0.90007728721E+02  0.89999989940E+02 0.  0.
        -12    1    1    2    0    0 -0.62672691800E+00 -0.94776192852E+00 -0.31937593754E+00  0.11802712791E+01  0.00000000000E+00 0.  1.
         11    1    3    3    0    0  0.81948032813E+01  0.20785853799E+02  0.38617820803E+02  0.44615497339E+02  0.51100000000E-03 0. -1.
        -11    1    3    3    0    0 -0.51041136641E+01 -0.82046032760E+00 -0.88908227048E+01  0.10284544719E+02  0.51100000000E-03 0.  1.
        -12    1    3    3    0    0 -0.24639626992E+01 -0.19017631543E+02 -0.29407622160E+02  0.35107686663E+02  0.00000000000E+00 0.  1.
</event>
<event>
 7    1  0.1978681E-015  0.9000787E+02  0.7816164E-02  0.1186339E+00
        -11   -1    0    0    0    0  0.00000000000E+00  0.00000000000E+00  0.45593999997E+02  0.45594000000E+02  0.51100000000E-03 0. -1.
         11   -1    0    0    0    0 -0.00000000000E+00 -0.00000000000E+00 -0.45593999997E+02  0.45594000000E+02  0.51100000000E-03 0.  1.
    9900012    2    1    2    0    0  0.79308355998E+00  0.84349427618E-01  0.86983916480E+00  0.90007865884E+02  0.90000128914E+02 0.  0.
        -12    1    1    2    0    0 -0.79308355998E+00 -0.84349427618E-01 -0.86983916480E+00  0.11801341160E+01  0.00000000000E+00 0.  1.
         11    1    3    3    0    0 -0.90041245689E+01  0.45976849991E+01  0.31921549781E+01  0.10602019632E+02  0.51100000000E-03 0. -1.
        -11    1    3    3    0    0  0.16841248902E+02  0.29263303577E+02 -0.21405284565E+02  0.39976928451E+02  0.51100000000E-03 0.  1.
         12    1    3    3    0    0 -0.70440407735E+01 -0.33776639148E+02  0.19082968752E+02  0.39428917801E+02  0.00000000000E+00 0. -1.
</event>
<event>
 7    1  0.1978681E-015  0.9000791E+02  0.7816164E-02  0.1186339E+00
        -11   -1    0    0    0    0  0.00000000000E+00  0.00000000000E+00  0.45593999997E+02  0.45594000000E+02  0.51100000000E-03 0.  1.
         11   -1    0    0    0    0 -0.00000000000E+00 -0.00000000000E+00 -0.45593999997E+02  0.45594000000E+02  0.51100000000E-03 0. -1.
    9900012    2    1    2    0    0 -0.10775489249E+01 -0.70918786616E-01 -0.47588028848E+00  0.90007913898E+02  0.90000177561E+02 0.  0.
        -12    1    1    2    0    0  0.10775489249E+01  0.70918786616E-01  0.47588028848E+00  0.11800861022E+01  0.00000000000E+00 0.  1.
         11    1    3    3    0    0 -0.78988115025E+00  0.89928597443E+01 -0.28715709624E+01  0.94731915775E+01  0.51100000000E-03 0. -1.
        -11    1    3    3    0    0  0.25237125246E+02 -0.24846704588E+02 -0.22143876487E+02  0.41768678285E+02  0.51100000000E-03 0.  1.
         12    1    3    3    0    0 -0.25524793021E+02  0.15782926057E+02  0.24539567161E+02  0.38766044035E+02  0.00000000000E+00 0. -1.
</event>
<event>
 7    1  0.1978681E-015  0.9000775E+02  0.7816164E-02  0.1186339E+00
        -11   -1    0    0    0    0  0.00000000000E+00  0.00000000000E+00  0.45593999997E+02  0.45594000000E+02  0.51100000000E-03 0.  1.
         11   -1    0    0    0    0 -0.00000000000E+00 -0.00000000000E+00 -0.45593999997E+02  0.45594000000E+02  0.51100000000E-03 0. -1.
    9900012    2    1    2    0    0  0.57377482467E+00 -0.71290610111E+00 -0.74533652748E+00  0.90007754603E+02  0.90000016164E+02 0.  0.
        -12    1    1    2    0    0 -0.57377482467E+00  0.71290610111E+00  0.74533652748E+00  0.11802453972E+01  0.00000000000E+00 0.  1.
         11    1    3    3    0    0  0.79111014756E+01 -0.10659529434E+02  0.10814825043E+02  0.17122252634E+02  0.51100000000E-03 0. -1.
        -11    1    3    3    0    0  0.18327198273E+02  0.38855148597E+01  0.22840012062E+02  0.29540642741E+02  0.51100000000E-03 0.  1.
         12    1    3    3    0    0 -0.25664524924E+02  0.60611084727E+01 -0.34400173633E+02  0.43344859228E+02  0.00000000000E+00 0. -1.
</event>
<event>
 7    1  0.1978681E-015  0.9000776E+02  0.7816164E-02  0.1186339E+00
        -11   -1    0    0    0    0  0.00000000000E+00  0.00000000000E+00  0.45593999997E+02  0.45594000000E+02  0.51100000000E-03 0. -1.
         11   -1    0    0    0    0 -0.00000000000E+00 -0.00000000000E+00 -0.45593999997E+02  0.45594000000E+02  0.51100000000E-03 0.  1.
    9900012    2    1    2    0    0  0.66762982257E-01 -0.66741691823E+00  0.97111746269E+00  0.90007757752E+02  0.90000019354E+02 0.  0.
        -12    1    1    2    0    0 -0.66762982257E-01  0.66741691823E+00 -0.97111746269E+00  0.11802422484E+01  0.00000000000E+00 0.  1.
         11    1    3    3    0    0  0.26898692169E+02  0.43829298317E+01  0.29068676240E+02  0.39846425848E+02  0.51100000000E-03 0. -1.
        -11    1    3    3    0    0 -0.41537349407E+01  0.44230949487E+01  0.57315940110E+01  0.83467630283E+01  0.51100000000E-03 0.  1.
        -12    1    3    3    0    0 -0.22678194246E+02 -0.94734416987E+01 -0.33829152788E+02  0.41814568875E+02  0.00000000000E+00 0.  1.
</event>
<event>
 7    1  0.1978681E-015  0.9000765E+02  0.7816164E-02  0.1186339E+00
        -11   -1    0    0    0    0  0.00000000000E+00  0.00000000000E+00  0.45593999997E+02  0.45594000000E+02  0.51100000000E-03 0. -1.
         11   -1    0    0    0    0 -0.00000000000E+00 -0.00000000000E+00 -0.45593999997E+02  0.45594000000E+02  0.51100000000E-03 0.  1.
    9900012    2    1    2    0    0 -0.82992104675E+00  0.62482445391E+00 -0.56039383631E+00  0.90007654375E+02  0.89999914613E+02 0.  0.
        -12    1    1    2    0    0  0.82992104675E+00 -0.62482445391E+00  0.56039383631E+00  0.11803456247E+01  0.00000000000E+00 0.  1.
         11    1    3    3    0    0  0.22601190322E+02  0.17920952770E+02  0.31750249278E+02  0.42895835248E+02  0.51100000000E-03 0. -1.
        -11    1    3    3    0    0 -0.71083491982E+01 -0.69934410424E+01 -0.60171778484E+00  0.99899404649E+01  0.51100000000E-03 0.  1.
        -12    1    3    3    0    0 -0.16322762171E+02 -0.10302687274E+02 -0.31708925329E+02  0.37121878663E+02  0.00000000000E+00 0.  1.
</event>
<event>
 7    1  0.1978681E-015  0.9000768E+02  0.7816164E-02  0.1186339E+00
        -11   -1    0    0    0    0  0.00000000000E+00  0.00000000000E+00  0.45593999997E+02  0.45594000000E+02  0.51100000000E-03 0. -1.
         11   -1    0    0    0    0 -0.00000000000E+00 -0.00000000000E+00 -0.45593999997E+02  0.45594000000E+02  0.51100000000E-03 0.  1.
    9900012    2    1    2    0    0 -0.38498267361E+00  0.29396070611E+00  0.10763471842E+01  0.90007683171E+02  0.89999943789E+02 0.  0.
        -12    1    1    2    0    0  0.38498267361E+00 -0.29396070611E+00 -0.10763471842E+01  0.11803168289E+01  0.00000000000E+00 0.  1.
         11    1    3    3    0    0 -0.27967111661E+01 -0.30125634801E+02 -0.93464250721E+01  0.31665930074E+02  0.51100000000E-03 0. -1.
        -11    1    3    3    0    0 -0.21746227063E+01 -0.63263288304E+01  0.19159719538E+02  0.20293995994E+02  0.51100000000E-03 0.  1.
        -12    1    3    3    0    0  0.45863511988E+01  0.36745924338E+02 -0.87369472818E+01  0.38047757103E+02  0.00000000000E+00 0.  1.
</event>
<event>
 7    1  0.1978681E-015  0.9000747E+02  0.7816164E-02  0.1186340E+00
        -11   -1    0    0    0    0  0.00000000000E+00  0.00000000000E+00  0.45593999997E+02  0.45594000000E+02  0.51100000000E-03 0.  1.
         11   -1    0    0    0    0 -0.00000000000E+00 -0.00000000000E+00 -0.45593999997E+02  0.45594000000E+02  0.51100000000E-03 0. -1.
    9900012    2    1    2    0    0 -0.51306984279E+00  0.10523166709E+01  0.15176214783E+00  0.90007473512E+02  0.89999731362E+02 0.  0.
        -12    1    1    2    0    0  0.51306984279E+00 -0.10523166709E+01 -0.15176214783E+00  0.11805264880E+01  0.00000000000E+00 0.  1.
         11    1    3    3    0    0  0.58552148722E+01 -0.32232474601E+02 -0.22628852322E+02  0.39815586367E+02  0.51100000000E-03 0. -1.
        -11    1    3    3    0    0  0.86038435332E+01  0.87897610376E+00  0.19655982954E+01  0.88691769322E+01  0.51100000000E-03 0.  1.
        -12    1    3    3    0    0 -0.14972128248E+02  0.32405815168E+02  0.20815016175E+02  0.41322710213E+02  0.00000000000E+00 0.  1.
</event>
<event>
 7    1  0.1978681E-015  0.9000769E+02  0.7816164E-02  0.1186339E+00
        -11   -1    0    0    0    0  0.00000000000E+00  0.00000000000E+00  0.45593999997E+02  0.45594000000E+02  0.51100000000E-03 0. -1.
         11   -1    0    0    0    0 -0.00000000000E+00 -0.00000000000E+00 -0.45593999997E+02  0.45594000000E+02  0.51100000000E-03 0.  1.
    9900012    2    1    2    0    0  0.29413158041E+00  0.11006871811E+01  0.30838232187E+00  0.90007692704E+02  0.89999953447E+02 0.  0.
        -12    1    1    2    0    0 -0.29413158041E+00 -0.11006871811E+01 -0.30838232187E+00  0.11803072963E+01  0.00000000000E+00 0.  1.
         11    1    3    3    0    0 -0.48565706292E+01  0.63147665375E+01  0.48008983254E+01  0.93011386233E+01  0.51100000000E-03 0. -1.
        -11    1    3    3    0    0 -0.24996865463E+02  0.16611828772E+02  0.20077073019E+02  0.36109347812E+02  0.51100000000E-03 0.  1.
         12    1    3    3    0    0  0.30147567673E+02 -0.21825908129E+02 -0.24569589022E+02  0.44597206268E+02  0.00000000000E+00 0. -1.
</event>
<event>
 7    1  0.1978681E-015  0.9000777E+02  0.7816164E-02  0.1186339E+00
        -11   -1    0    0    0    0  0.00000000000E+00  0.00000000000E+00  0.45593999997E+02  0.45594000000E+02  0.51100000000E-03 0.  1.
         11   -1    0    0    0    0 -0.00000000000E+00 -0.00000000000E+00 -0.45593999997E+02  0.45594000000E+02  0.51100000000E-03 0. -1.
    9900012    2    1    2    0    0 -0.11324921663E+01 -0.29953609670E+00 -0.14381205198E+00  0.90007770240E+02  0.90000032007E+02 0.  0.
        -12    1    1    2    0    0  0.11324921663E+01  0.29953609670E+00  0.14381205198E+00  0.11802297600E+01  0.00000000000E+00 0.  1.
         11    1    3    3    0    0  0.27811587059E+02  0.23867260757E+02  0.84119506163E+01  0.37601747622E+02  0.51100000000E-03 0. -1.
        -11    1    3    3    0    0  0.12543707039E+01  0.64937123223E+01  0.38060621929E+01  0.76307178735E+01  0.51100000000E-03 0.  1.
        -12    1    3    3    0    0 -0.30198449930E+02 -0.30660509176E+02 -0.12361824861E+02  0.44775304745E+02  0.00000000000E+00 0.  1.
</event>
<event>
 7    1  0.1978681E-015  0.9000778E+02  0.7816164E-02  0.1186339E+00
        -11   -1    0    0    0    0  0.00000000000E+00  0.00000000000E+00  0.45593999997E+02  0.45594000000E+02  0.51100000000E-03 0.  1.
         11   -1    0    0    0    0 -0.00000000000E+00 -0.00000000000E+00 -0.45593999997E+02  0.45594000000E+02  0.51100000000E-03 0. -1.
    9900012    2    1    2    0    0  0.24153500084E+00 -0.11391700983E+00 -0.11496106191E+01  0.90007779335E+02  0.90000041223E+02 0.  0.
        -12    1    1    2    0    0 -0.24153500084E+00  0.11391700983E+00  0.11496106191E+01  0.11802206646E+01  0.00000000000E+00 0.  1.
         11    1    3    3    0    0  0.12476794020E+02 -0.17084743385E+01 -0.33432773819E+02  0.35725895917E+02  0.51100000000E-03 0. -1.
        -11    1    3    3    0    0  0.10056706401E+02  0.12406510580E+00 -0.46791686766E+01  0.11092671254E+02  0.51100000000E-03 0.  1.
        -12    1    3    3    0    0 -0.22291965420E+02  0.14704922229E+01  0.36962331877E+02  0.43189212165E+02  0.00000000000E+00 0.  1.
</event>
<event>
 7    1  0.1978681E-015  0.9000774E+02  0.7816164E-02  0.1186339E+00
        -11   -1    0    0    0    0  0.00000000000E+00  0.00000000000E+00  0.45593999997E+02  0.45594000000E+02  0.51100000000E-03 0.  1.
         11   -1    0    0    0    0 -0.00000000000E+00 -0.00000000000E+00 -0.45593999997E+02  0.45594000000E+02  0.51100000000E-03 0. -1.
    9900012    2    1    2    0    0  0.10330306149E+01 -0.46893049858E+00 -0.32554105170E+00  0.90007735182E+02  0.89999996487E+02 0.  0.
        -12    1    1    2    0    0 -0.10330306149E+01  0.46893049858E+00  0.32554105170E+00  0.11802648178E+01  0.00000000000E+00 0.  1.
         11    1    3    3    0    0  0.62505815915E+01  0.68943979419E+01 -0.20568045826E+01  0.95306315932E+01  0.51100000000E-03 0. -1.
        -11    1    3    3    0    0  0.19574539377E+02  0.25529530612E+02  0.17198793681E+02  0.36479008065E+02  0.51100000000E-03 0.  1.
         12    1    3    3    0    0 -0.24792090354E+02 -0.32892859053E+02 -0.15467530150E+02  0.43998095524E+02  0.00000000000E+00 0. -1.
</event>
<event>
 7    1  0.1978681E-015  0.9000771E+02  0.7816164E-02  0.1186339E+00
        -11   -1    0    0    0    0  0.00000000000E+00  0.00000000000E+00  0.45593999997E+02  0.45594000000E+02  0.51100000000E-03 0.  1.
         11   -1    0    0    0    0 -0.00000000000E+00 -0.00000000000E+00 -0.45593999997E+02  0.45594000000E+02  0.51100000000E-03 0. -1.
    9900012    2    1    2    0    0 -0.66862788160E+00  0.94477935596E+00 -0.23113173397E+00  0.90007706327E+02  0.89999967251E+02 0.  0.
        -12    1    1    2    0    0  0.66862788160E+00 -0.94477935596E+00  0.23113173397E+00  0.11802936728E+01  0.00000000000E+00 0.  1.
         11    1    3    3    0    0 -0.31372982785E+00 -0.55924344771E+01 -0.87103050955E+01  0.10355827582E+02  0.51100000000E-03 0. -1.
        -11    1    3    3    0    0  0.30401666245E+02  0.28282020594E+02  0.50647886146E+01  0.41830444455E+02  0.51100000000E-03 0.  1.
         12    1    3    3    0    0 -0.30756564299E+02 -0.21744806761E+02  0.34143847470E+01  0.37821434290E+02  0.00000000000E+00 0. -1.
</event>
<event>
 7    1  0.1978681E-015  0.9000767E+02  0.7816164E-02  0.1186339E+00
        -11   -1    0    0    0    0  0.00000000000E+00  0.00000000000E+00  0.45593999997E+02  0.45594000000E+02  0.51100000000E-03 0.  1.
         11   -1    0    0    0    0 -0.00000000000E+00 -0.00000000000E+00 -0.45593999997E+02  0.45594000000E+02  0.51100000000E-03 0. -1.
    9900012    2    1    2    0    0  0.32313936793E+00  0.63994100136E+00 -0.93767472253E+00  0.90007670630E+02  0.89999931082E+02 0.  0.
        -12    1    1    2    0    0 -0.32313936793E+00 -0.63994100136E+00  0.93767472253E+00  0.11803293700E+01  0.00000000000E+00 0.  1.
         11    1    3    3    0    0  0.58394366084E+01 -0.36905189345E+02  0.41450707893E+01  0.37593531792E+02  0.51100000000E-03 0. -1.
        -11    1    3    3    0    0 -0.14138491231E+02  0.19696239585E+01  0.37474374643E+01  0.14758714057E+02  0.51100000000E-03 0.  1.
        -12    1    3    3    0    0  0.86221939903E+01  0.35575506388E+02 -0.88301829762E+01  0.37655424780E+02  0.00000000000E+00 0.  1.
</event>
<event>
 7    1  0.1978681E-015  0.9000768E+02  0.7816164E-02  0.1186339E+00
        -11   -1    0    0    0    0  0.00000000000E+00  0.00000000000E+00  0.45593999997E+02  0.45594000000E+02  0.51100000000E-03 0.  1.
         11   -1    0    0    0    0 -0.00000000000E+00 -0.00000000000E+00 -0.45593999997E+02  0.45594000000E+02  0.51100000000E-03 0. -1.
    9900012    2    1    2    0    0 -0.10954012220E+01  0.43917047325E+00  0.19497862404E-01  0.90007680252E+02  0.89999940831E+02 0.  0.
        -12    1    1    2    0    0  0.10954012220E+01 -0.43917047325E+00 -0.19497862404E-01  0.11803197483E+01  0.00000000000E+00 0.  1.
         11    1    3    3    0    0 -0.30372129353E+01 -0.48347499445E+01  0.85188830764E+01  0.10255283447E+02  0.51100000000E-03 0. -1.
        -11    1    3    3    0    0  0.22113304703E+02 -0.24214773249E+02  0.15944042505E+02  0.36463214066E+02  0.51100000000E-03 0.  1.
         12    1    3    3    0    0 -0.20171492990E+02  0.29488693666E+02 -0.24443427719E+02  0.43289182739E+02  0.00000000000E+00 0. -1.
</event>
<event>
 7    1  0.1978681E-015  0.9000775E+02  0.7816164E-02  0.1186339E+00
        -11   -1    0    0    0    0  0.00000000000E+00  0.00000000000E+00  0.45593999997E+02  0.45594000000E+02  0.51100000000E-03 0.  1.
         11   -1    0    0    0    0 -0.00000000000E+00 -0.00000000000E+00 -0.45593999997E+02  0.45594000000E+02  0.51100000000E-03 0. -1.
    9900012    2    1    2    0    0 -0.34585522813E+00 -0.11267733945E+01  0.61208989565E-01  0.90007753983E+02  0.90000015535E+02 0.  0.
        -12    1    1    2    0    0  0.34585522813E+00  0.11267733945E+01 -0.61208989565E-01  0.11802460174E+01  0.00000000000E+00 0.  1.
         11    1    3    3    0    0 -0.10208215312E+02 -0.30336324860E+02  0.93467158763E+01  0.33344585225E+02  0.51100000000E-03 0. -1.
        -11    1    3    3    0    0 -0.51716784363E+01 -0.60330270305E+01  0.10795363235E+02  0.13404608932E+02  0.51100000000E-03 0.  1.
        -12    1    3    3    0    0  0.15034038521E+02  0.35242578496E+02 -0.20080870121E+02  0.43258559825E+02  0.00000000000E+00 0.  1.
</event>
<event>
 7    1  0.1978681E-015  0.9000771E+02  0.7816164E-02  0.1186339E+00
        -11   -1    0    0    0    0  0.00000000000E+00  0.00000000000E+00  0.45593999997E+02  0.45594000000E+02  0.51100000000E-03 0.  1.
         11   -1    0    0    0    0 -0.00000000000E+00 -0.00000000000E+00 -0.45593999997E+02  0.45594000000E+02  0.51100000000E-03 0. -1.
    9900012    2    1    2    0    0  0.84987700671E+00  0.73010092080E+00 -0.37114542625E+00  0.90007708846E+02  0.89999969803E+02 0.  0.
        -12    1    1    2    0    0 -0.84987700671E+00 -0.73010092080E+00  0.37114542625E+00  0.11802911541E+01  0.00000000000E+00 0.  1.
         11    1    3    3    0    0 -0.15403333388E+02 -0.59449384024E+01 -0.35425592999E+02  0.39084237381E+02  0.51100000000E-03 0. -1.
        -11    1    3    3    0    0 -0.44877034688E+01  0.83075428120E+01 -0.79364641324E+00  0.94754749162E+01  0.51100000000E-03 0.  1.
        -12    1    3    3    0    0  0.20740913863E+02 -0.16325034888E+01  0.35848093986E+02  0.41447996549E+02  0.00000000000E+00 0.  1.
</event>
<event>
 7    1  0.1978681E-015  0.9000734E+02  0.7816164E-02  0.1186340E+00
        -11   -1    0    0    0    0  0.00000000000E+00  0.00000000000E+00  0.45593999997E+02  0.45594000000E+02  0.51100000000E-03 0.  1.
         11   -1    0    0    0    0 -0.00000000000E+00 -0.00000000000E+00 -0.45593999997E+02  0.45594000000E+02  0.51100000000E-03 0. -1.
    9900012    2    1    2    0    0  0.44540551250E+00  0.10291241535E+01 -0.36943341824E+00  0.90007337625E+02  0.89999593680E+02 0.  0.
        -12    1    1    2    0    0 -0.44540551250E+00 -0.10291241535E+01  0.36943341824E+00  0.11806623753E+01  0.00000000000E+00 0.  1.
         11    1    3    3    0    0  0.12800474184E+02  0.13027287513E+02  0.15362208058E+01  0.18328184141E+02  0.51100000000E-03 0. -1.
        -11    1    3    3    0    0  0.25564576139E+02 -0.19148447409E+02  0.54333132719E+01  0.32399559946E+02  0.51100000000E-03 0.  1.
         12    1    3    3    0    0 -0.37919644811E+02  0.71502840499E+01 -0.73389674960E+01  0.39279593537E+02  0.00000000000E+00 0. -1.
</event>
<event>
 7    1  0.1978681E-015  0.9000787E+02  0.7816164E-02  0.1186339E+00
        -11   -1    0    0    0    0  0.00000000000E+00  0.00000000000E+00  0.45593999997E+02  0.45594000000E+02  0.51100000000E-03 0.  1.
         11   -1    0    0    0    0 -0.00000000000E+00 -0.00000000000E+00 -0.45593999997E+02  0.45594000000E+02  0.51100000000E-03 0. -1.
    9900012    2    1    2    0    0  0.58771369244E+00 -0.10212666136E+01 -0.65647324913E-01  0.90007871849E+02  0.90000134958E+02 0.  0.
        -12    1    1    2    0    0 -0.58771369244E+00  0.10212666136E+01  0.65647324913E-01  0.11801281505E+01  0.00000000000E+00 0.  1.
         11    1    3    3    0    0 -0.31827460937E+02 -0.23846518931E+02 -0.18628423135E+02  0.43916533146E+02  0.51100000000E-03 0. -1.
        -11    1    3    3    0    0  0.61207975888E+01  0.70401910148E+00  0.80898474121E+01  0.10168846416E+02  0.51100000000E-03 0.  1.
        -12    1    3    3    0    0  0.26294377040E+02  0.22121233216E+02  0.10472928397E+02  0.35922492288E+02  0.00000000000E+00 0.  1.
</event>
<event>
 7    1  0.1978681E-015  0.9000778E+02  0.7816164E-02  0.1186339E+00
        -11   -1    0    0    0    0  0.00000000000E+00  0.00000000000E+00  0.45593999997E+02  0.45594000000E+02  0.51100000000E-03 0.  1.
         11   -1    0    0    0    0 -0.00000000000E+00 -0.00000000000E+00 -0.45593999997E+02  0.45594000000E+02  0.51100000000E-03 0. -1.
    9900012    2    1    2    0    0 -0.83035356556E+00 -0.83608169322E+00 -0.66280201677E-01  0.90007782771E+02  0.90000044704E+02 0.  0.
        -12    1    1    2    0    0  0.83035356556E+00  0.83608169322E+00  0.66280201677E-01  0.11802172286E+01  0.00000000000E+00 0.  1.
         11    1    3    3    0    0 -0.34777352968E+02 -0.36537154101E+00 -0.17503903519E+02  0.38935644524E+02  0.51100000000E-03 0. -1.
        -11    1    3    3    0    0 -0.45462987890E+01 -0.71839926460E+01  0.59508743808E+00  0.85224827566E+01  0.51100000000E-03 0.  1.
        -12    1    3    3    0    0  0.38493298192E+02  0.67132824938E+01  0.16842535879E+02  0.42549655491E+02  0.00000000000E+00 0.  1.
</event>
<event>
 7    1  0.1978681E-015  0.9000769E+02  0.7816164E-02  0.1186339E+00
        -11   -1    0    0    0    0  0.00000000000E+00  0.00000000000E+00  0.45593999997E+02  0.45594000000E+02  0.51100000000E-03 0.  1.
         11   -1    0    0    0    0 -0.00000000000E+00 -0.00000000000E+00 -0.45593999997E+02  0.45594000000E+02  0.51100000000E-03 0. -1.
    9900012    2    1    2    0    0 -0.20651092773E+00  0.10805417853E+01 -0.42767135870E+00  0.90007694911E+02  0.89999955683E+02 0.  0.
        -12    1    1    2    0    0  0.20651092773E+00 -0.10805417853E+01  0.42767135870E+00  0.11803050894E+01  0.00000000000E+00 0.  1.
         11    1    3    3    0    0  0.71692663556E+01  0.28263696203E+02 -0.23017258965E+02  0.37148743097E+02  0.51100000000E-03 0. -1.
        -11    1    3    3    0    0  0.57319837752E+01  0.81483829053E+01  0.64191361442E+01  0.11851459449E+02  0.51100000000E-03 0.  1.
        -12    1    3    3    0    0 -0.13107761059E+02 -0.35331537323E+02  0.16170451462E+02  0.41007492365E+02  0.00000000000E+00 0.  1.
</event>
<event>
 7    1  0.1978681E-015  0.9000779E+02  0.7816164E-02  0.1186339E+00
        -11   -1    0    0    0    0  0.00000000000E+00  0.00000000000E+00  0.45593999997E+02  0.45594000000E+02  0.51100000000E-03 0. -1.
         11   -1    0    0    0    0 -0.00000000000E+00 -0.00000000000E+00 -0.45593999997E+02  0.45594000000E+02  0.51100000000E-03 0.  1.
    9900012    2    1    2    0    0 -0.78708104196E-01  0.11360176883E+01  0.31011298071E+00  0.90007787640E+02  0.90000049637E+02 0.  0.
        -12    1    1    2    0    0  0.78708104196E-01 -0.11360176883E+01 -0.31011298071E+00  0.11802123600E+01  0.00000000000E+00 0.  1.
         11    1    3    3    0    0 -0.68337529988E+01  0.35113115824E+02 -0.58234392118E+01  0.36242841051E+02  0.51100000000E-03 0. -1.
        -11    1    3    3    0    0  0.37016667104E+01  0.91073432364E+01 -0.13688542567E+01  0.99257140548E+01  0.51100000000E-03 0.  1.
        -12    1    3    3    0    0  0.30533781842E+01 -0.43084441372E+02  0.75024064492E+01  0.43839232534E+02  0.00000000000E+00 0.  1.
</event>
<event>
 7    1  0.1978681E-015  0.9000751E+02  0.7816164E-02  0.1186339E+00
        -11   -1    0    0    0    0  0.00000000000E+00  0.00000000000E+00  0.45593999997E+02  0.45594000000E+02  0.51100000000E-03 0.  1.
         11   -1    0    0    0    0 -0.00000000000E+00 -0.00000000000E+00 -0.45593999997E+02  0.45594000000E+02  0.51100000000E-03 0. -1.
    9900012    2    1    2    0    0 -0.80082081824E+00 -0.67396846683E+00  0.54589599755E+00  0.90007512847E+02  0.89999771217E+02 0.  0.
        -12    1    1    2    0    0  0.80082081824E+00  0.67396846683E+00 -0.54589599755E+00  0.11804871526E+01  0.00000000000E+00 0.  1.
         11    1    3    3    0    0 -0.83849501277E+01 -0.21075733669E+01 -0.47720774615E+00  0.86589249699E+01  0.51100000000E-03 0. -1.
        -11    1    3    3    0    0  0.80710311741E+00 -0.31218848186E+02  0.25224470806E+02  0.40144013566E+02  0.51100000000E-03 0.  1.
         12    1    3    3    0    0  0.67770261920E+01  0.32652453086E+02 -0.24201367062E+02  0.41204574312E+02  0.00000000000E+00 0. -1.
</event>
<event>
 7    1  0.1978681E-015  0.9000786E+02  0.7816164E-02  0.1186339E+00
        -11   -1    0    0    0    0  0.00000000000E+00  0.00000000000E+00  0.45593999997E+02  0.45594000000E+02  0.51100000000E-03 0.  1.
         11   -1    0    0    0    0 -0.00000000000E+00 -0.00000000000E+00 -0.45593999997E+02  0.45594000000E+02  0.51100000000E-03 0. -1.
    9900012    2    1    2    0    0  0.72513871026E+00 -0.34897582193E-01 -0.93042259717E+00  0.90007860093E+02  0.90000123046E+02 0.  0.
        -12    1    1    2    0    0 -0.72513871026E+00  0.34897582193E-01  0.93042259717E+00  0.11801399068E+01  0.00000000000E+00 0.  1.
         11    1    3    3    0    0  0.39858605410E+01 -0.92385145894E+01 -0.34769466465E+01  0.10645487040E+02  0.51100000000E-03 0. -1.
        -11    1    3    3    0    0  0.14833820069E+02  0.39495219659E+02 -0.71016920241E+01  0.42782573831E+02  0.51100000000E-03 0.  1.
         12    1    3    3    0    0 -0.18094541899E+02 -0.30291602652E+02  0.96482160734E+01  0.36579799222E+02  0.00000000000E+00 0. -1.
</event>
<event>
 7    1  0.1978681E-015  0.9000777E+02  0.7816164E-02  0.1186339E+00
        -11   -1    0    0    0    0  0.00000000000E+00  0.00000000000E+00  0.45593999997E+02  0.45594000000E+02  0.51100000000E-03 0. -1.
         11   -1    0    0    0    0 -0.00000000000E+00 -0.00000000000E+00 -0.45593999997E+02  0.45594000000E+02  0.51100000000E-03 0.  1.
    9900012    2    1    2    0    0  0.38615417725E+00 -0.95175811505E+00 -0.58136911931E+00  0.90007767561E+02  0.90000029292E+02 0.  0.
        -12    1    1    2    0    0 -0.38615417725E+00  0.95175811505E+00  0.58136911931E+00  0.11802324394E+01  0.00000000000E+00 0.  1.
         11    1    3    3    0    0 -0.27296450993E+02 -0.17640402298E+02  0.13698391943E+02  0.35269334728E+02  0.51100000000E-03 0. -1.
        -11    1    3    3    0    0 -0.10787148253E+02  0.39446186741E+01  0.76266619536E+00  0.11511048775E+02  0.51100000000E-03 0.  1.
        -12    1    3    3    0    0  0.38469753424E+02  0.12744025509E+02 -0.15042427257E+02  0.43227384057E+02  0.00000000000E+00 0.  1.
</event>
<event>
 7    1  0.1978681E-015  0.9000783E+02  0.7816164E-02  0.1186339E+00
        -11   -1    0    0    0    0  0.00000000000E+00  0.00000000000E+00  0.45593999997E+02  0.45594000000E+02  0.51100000000E-03 0. -1.
         11   -1    0    0    0    0 -0.00000000000E+00 -0.00000000000E+00 -0.45593999997E+02  0.45594000000E+02  0.51100000000E-03 0.  1.
    9900012    2    1    2    0    0 -0.46775503337E+00  0.39820260787E+00  0.10076943182E+01  0.90007827162E+02  0.90000089681E+02 0.  0.
        -12    1    1    2    0    0  0.46775503337E+00 -0.39820260787E+00 -0.10076943182E+01  0.11801728378E+01  0.00000000000E+00 0.  1.
         11    1    3    3    0    0  0.32704576072E+02  0.11863319261E+01  0.19698707776E+02  0.38197326711E+02  0.51100000000E-03 0. -1.
        -11    1    3    3    0    0 -0.13291672949E+02  0.13950883698E+02  0.22386243660E+01  0.19398638226E+02  0.51100000000E-03 0.  1.
        -12    1    3    3    0    0 -0.19880658157E+02 -0.14739013016E+02 -0.20929637824E+02  0.32411862225E+02  0.00000000000E+00 0.  1.
</event>
<event>
 7    1  0.1978681E-015  0.9000782E+02  0.7816164E-02  0.1186339E+00
        -11   -1    0    0    0    0  0.00000000000E+00  0.00000000000E+00  0.45593999997E+02  0.45594000000E+02  0.51100000000E-03 0. -1.
         11   -1    0    0    0    0 -0.00000000000E+00 -0.00000000000E+00 -0.45593999997E+02  0.45594000000E+02  0.51100000000E-03 0.  1.
    9900012    2    1    2    0    0  0.95446891685E+00  0.38359836466E+00 -0.57850599922E+00  0.90007818739E+02  0.90000081146E+02 0.  0.
        -12    1    1    2    0    0 -0.95446891685E+00 -0.38359836466E+00  0.57850599922E+00  0.11801812614E+01  0.00000000000E+00 0.  1.
         11    1    3    3    0    0 -0.20997177690E+02  0.15789906208E+02  0.25958389438E+02  0.36932920159E+02  0.51100000000E-03 0. -1.
        -11    1    3    3    0    0 -0.91525926222E+01 -0.23588780090E+01  0.10371727377E+01  0.95084165200E+01  0.51100000000E-03 0.  1.
        -12    1    3    3    0    0  0.31104239229E+02 -0.13047429835E+02 -0.27574068175E+02  0.43566482059E+02  0.00000000000E+00 0.  1.
</event>
<event>
 7    1  0.1978681E-015  0.9000646E+02  0.7816164E-02  0.1186342E+00
        -11   -1    0    0    0    0  0.00000000000E+00  0.00000000000E+00  0.45593999997E+02  0.45594000000E+02  0.51100000000E-03 0. -1.
         11   -1    0    0    0    0 -0.00000000000E+00 -0.00000000000E+00 -0.45593999997E+02  0.45594000000E+02  0.51100000000E-03 0.  1.
    9900012    2    1    2    0    0 -0.68336100541E+00 -0.96130474597E+00 -0.70258115260E-01  0.90006464863E+02  0.89998709389E+02 0.  0.
        -12    1    1    2    0    0  0.68336100541E+00  0.96130474597E+00  0.70258115260E-01  0.11815351375E+01  0.00000000000E+00 0.  1.
         11    1    3    3    0    0 -0.38703923967E+02  0.17024997448E+02 -0.52250535844E+01  0.42604523865E+02  0.51100000000E-03 0. -1.
        -11    1    3    3    0    0  0.14358935391E+01 -0.81364331512E+01  0.47131147806E+01  0.95119286097E+01  0.51100000000E-03 0.  1.
        -12    1    3    3    0    0  0.36584669423E+02 -0.98498690427E+01  0.44168068855E+00  0.37890012388E+02  0.00000000000E+00 0.  1.
</event>
<event>
 7    1  0.1978681E-015  0.9000771E+02  0.7816164E-02  0.1186339E+00
        -11   -1    0    0    0    0  0.00000000000E+00  0.00000000000E+00  0.45593999997E+02  0.45594000000E+02  0.51100000000E-03 0.  1.
         11   -1    0    0    0    0 -0.00000000000E+00 -0.00000000000E+00 -0.45593999997E+02  0.45594000000E+02  0.51100000000E-03 0. -1.
    9900012    2    1    2    0    0  0.19270871859E+00 -0.30545982894E+00 -0.11236723798E+01  0.90007711063E+02  0.89999972049E+02 0.  0.
        -12    1    1    2    0    0 -0.19270871859E+00  0.30545982894E+00  0.11236723798E+01  0.11802889369E+01  0.00000000000E+00 0.  1.
         11    1    3    3    0    0 -0.45948626977E+01 -0.28634610607E+01  0.68305714528E+01  0.87160127977E+01  0.51100000000E-03 0. -1.
        -11    1    3    3    0    0 -0.15312795542E+02  0.36343366095E+02  0.53283164636E+01  0.39795890781E+02  0.51100000000E-03 0.  1.
         12    1    3    3    0    0  0.20100366958E+02 -0.33785364863E+02 -0.13282560296E+02  0.41495807485E+02  0.00000000000E+00 0. -1.
</event>
<event>
 7    1  0.1978681E-015  0.9000776E+02  0.7816164E-02  0.1186339E+00
        -11   -1    0    0    0    0  0.00000000000E+00  0.00000000000E+00  0.45593999997E+02  0.45594000000E+02  0.51100000000E-03 0.  1.
         11   -1    0    0    0    0 -0.00000000000E+00 -0.00000000000E+00 -0.45593999997E+02  0.45594000000E+02  0.51100000000E-03 0. -1.
    9900012    2    1    2    0    0 -0.75855117070E+00  0.38355339768E+00 -0.81880697609E+00  0.90007763604E+02  0.90000025283E+02 0.  0.
        -12    1    1    2    0    0  0.75855117070E+00 -0.38355339768E+00  0.81880697609E+00  0.11802363965E+01  0.00000000000E+00 0.  1.
         11    1    3    3    0    0  0.42837161518E+01 -0.48831066943E+01 -0.62252349334E+01  0.89971387282E+01  0.51100000000E-03 0. -1.
        -11    1    3    3    0    0  0.14907595969E+01 -0.37093149191E+02 -0.33179402845E+01  0.37271072014E+02  0.51100000000E-03 0.  1.
         12    1    3    3    0    0 -0.65330269194E+01  0.42359809283E+02  0.87243682419E+01  0.43739552861E+02  0.00000000000E+00 0. -1.
</event>
<event>
 7    1  0.1978681E-015  0.9000768E+02  0.7816164E-02  0.1186339E+00
        -11   -1    0    0    0    0  0.00000000000E+00  0.00000000000E+00  0.45593999997E+02  0.45594000000E+02  0.51100000000E-03 0.  1.
         11   -1    0    0    0    0 -0.00000000000E+00 -0.00000000000E+00 -0.45593999997E+02  0.45594000000E+02  0.51100000000E-03 0. -1.
    9900012    2    1    2    0    0  0.21579264032E+00 -0.79122653563E+00 -0.84884614010E+00  0.90007684083E+02  0.89999944713E+02 0.  0.
        -12    1    1    2    0    0 -0.21579264032E+00  0.79122653563E+00  0.84884614010E+00  0.11803159170E+01  0.00000000000E+00 0.  1.
         11    1    3    3    0    0  0.17848150332E+02 -0.25451950901E+02 -0.25548809748E+02  0.40238041140E+02  0.51100000000E-03 0. -1.
        -11    1    3    3    0    0 -0.33740718118E+01 -0.71689725426E+01  0.20540743428E+01  0.81852153041E+01  0.51100000000E-03 0.  1.
        -12    1    3    3    0    0 -0.14258285880E+02  0.31829696908E+02  0.22645889265E+02  0.41584427639E+02  0.00000000000E+00 0.  1.
</event>
<event>
 7    1  0.2921793E-015  0.9000770E+02  0.7816164E-02  0.1186339E+00
        -11   -1    0    0    0    0  0.00000000000E+00  0.00000000000E+00  0.45593999997E+02  0.45594000000E+02  0.51100000000E-03 0. -1.
         11   -1    0    0    0    0 -0.00000000000E+00 -0.00000000000E+00 -0.45593999997E+02  0.45594000000E+02  0.51100000000E-03 0.  1.
    9900012    2    1    2    0    0  0.24549418456E+00 -0.10789053658E+01  0.41085182449E+00  0.90007701985E+02  0.89999962851E+02 0.  0.
        -12    1    1    2    0    0 -0.24549418456E+00  0.10789053658E+01 -0.41085182449E+00  0.11802980152E+01  0.00000000000E+00 0.  1.
         11    1    3    3    0    0 -0.94713780658E+01  0.82275087580E+00 -0.28926484188E+00  0.95114455200E+01  0.51100000000E-03 0. -1.
        -11    1    3    3    0    0 -0.97121916677E+00 -0.37058510911E+02 -0.15697722413E+02  0.40257856213E+02  0.51100000000E-03 0.  1.
         12    1    3    3    0    0  0.10688091417E+02  0.35156854670E+02  0.16397839079E+02  0.40238400252E+02  0.00000000000E+00 0. -1.
</event>
<event>
 7    1  0.1978681E-015  0.9000779E+02  0.7816164E-02  0.1186339E+00
        -11   -1    0    0    0    0  0.00000000000E+00  0.00000000000E+00  0.45593999997E+02  0.45594000000E+02  0.51100000000E-03 0.  1.
         11   -1    0    0    0    0 -0.00000000000E+00 -0.00000000000E+00 -0.45593999997E+02  0.45594000000E+02  0.51100000000E-03 0. -1.
    9900012    2    1    2    0    0  0.68679487231E+00 -0.95953971429E+00 -0.22316288676E-01  0.90007787444E+02  0.90000049439E+02 0.  0.
        -12    1    1    2    0    0 -0.68679487231E+00  0.95953971429E+00  0.22316288676E-01  0.11802125557E+01  0.00000000000E+00 0.  1.
         11    1    3    3    0    0 -0.30096518965E+01  0.45500188257E+01  0.24144944369E+01  0.59657740067E+01  0.51100000000E-03 0. -1.
        -11    1    3    3    0    0  0.25618687571E+02  0.31713558189E+02 -0.24681904396E+01  0.40843100888E+02  0.51100000000E-03 0.  1.
         12    1    3    3    0    0 -0.21922240802E+02 -0.37223116729E+02  0.31379714104E-01  0.43198912550E+02  0.00000000000E+00 0. -1.
</event>
<event>
 7    1  0.1978681E-015  0.9000773E+02  0.7816164E-02  0.1186339E+00
        -11   -1    0    0    0    0  0.00000000000E+00  0.00000000000E+00  0.45593999997E+02  0.45594000000E+02  0.51100000000E-03 0. -1.
         11   -1    0    0    0    0 -0.00000000000E+00 -0.00000000000E+00 -0.45593999997E+02  0.45594000000E+02  0.51100000000E-03 0.  1.
    9900012    2    1    2    0    0 -0.30092461380E+00 -0.41786908045E-01  0.11404955636E+01  0.90007732276E+02  0.89999993542E+02 0.  0.
        -12    1    1    2    0    0  0.30092461380E+00  0.41786908045E-01 -0.11404955636E+01  0.11802677237E+01  0.00000000000E+00 0.  1.
         11    1    3    3    0    0  0.18918281005E+02 -0.31930799699E+02  0.10836960763E+02  0.38664157103E+02  0.51100000000E-03 0. -1.
        -11    1    3    3    0    0 -0.58726873044E+01 -0.49521310376E+01  0.53591291757E+01  0.93665534628E+01  0.51100000000E-03 0.  1.
        -12    1    3    3    0    0 -0.13346518315E+02  0.36841143829E+02 -0.15055594375E+02  0.41977021711E+02  0.00000000000E+00 0.  1.
</event>
<event>
 7    1  0.1978681E-015  0.9000775E+02  0.7816164E-02  0.1186339E+00
        -11   -1    0    0    0    0  0.00000000000E+00  0.00000000000E+00  0.45593999997E+02  0.45594000000E+02  0.51100000000E-03 0.  1.
         11   -1    0    0    0    0 -0.00000000000E+00 -0.00000000000E+00 -0.45593999997E+02  0.45594000000E+02  0.51100000000E-03 0. -1.
    9900012    2    1    2    0    0  0.55216475428E+00  0.10397051519E+01 -0.84403507815E-01  0.90007747200E+02  0.90000008664E+02 0.  0.
        -12    1    1    2    0    0 -0.55216475428E+00 -0.10397051519E+01  0.84403507815E-01  0.11802527995E+01  0.00000000000E+00 0.  1.
         11    1    3    3    0    0 -0.53756670768E+01 -0.38494365402E+02  0.60812455808E+01  0.39340761461E+02  0.51100000000E-03 0. -1.
        -11    1    3    3    0    0 -0.87057073472E+01  0.17911472796E+01  0.25751245196E+01  0.92535839297E+01  0.51100000000E-03 0.  1.
        -12    1    3    3    0    0  0.14633539178E+02  0.37742923275E+02 -0.87407736082E+01  0.41413401810E+02  0.00000000000E+00 0.  1.
</event>
<event>
 7    1  0.1978681E-015  0.9000769E+02  0.7816164E-02  0.1186339E+00
        -11   -1    0    0    0    0  0.00000000000E+00  0.00000000000E+00  0.45593999997E+02  0.45594000000E+02  0.51100000000E-03 0.  1.
         11   -1    0    0    0    0 -0.00000000000E+00 -0.00000000000E+00 -0.45593999997E+02  0.45594000000E+02  0.51100000000E-03 0. -1.
    9900012    2    1    2    0    0  0.34900688704E+00 -0.11169186644E+01  0.15432727808E+00  0.90007690711E+02  0.89999951428E+02 0.  0.
        -12    1    1    2    0    0 -0.34900688704E+00  0.11169186644E+01 -0.15432727808E+00  0.11803092895E+01  0.00000000000E+00 0.  1.
         11    1    3    3    0    0  0.92440406273E+01 -0.90642521893E+00  0.24157809290E+01  0.95973898303E+01  0.51100000000E-03 0. -1.
        -11    1    3    3    0    0  0.42350971781E+01 -0.23818693101E+02  0.29866082821E+02  0.38434998276E+02  0.51100000000E-03 0.  1.
         12    1    3    3    0    0 -0.13130130918E+02  0.23608199656E+02 -0.32127536472E+02  0.41975302604E+02  0.00000000000E+00 0. -1.
</event>
<event>
 7    1  0.1978681E-015  0.9000778E+02  0.7816164E-02  0.1186339E+00
        -11   -1    0    0    0    0  0.00000000000E+00  0.00000000000E+00  0.45593999997E+02  0.45594000000E+02  0.51100000000E-03 0.  1.
         11   -1    0    0    0    0 -0.00000000000E+00 -0.00000000000E+00 -0.45593999997E+02  0.45594000000E+02  0.51100000000E-03 0. -1.
    9900012    2    1    2    0    0  0.45895404733E+00  0.25043680817E+00 -0.10580931232E+01  0.90007780330E+02  0.90000042230E+02 0.  0.
        -12    1    1    2    0    0 -0.45895404733E+00 -0.25043680817E+00  0.10580931232E+01  0.11802196702E+01  0.00000000000E+00 0.  1.
         11    1    3    3    0    0  0.33814605788E+02  0.80056036048E+01 -0.11892139724E+02  0.36727921819E+02  0.51100000000E-03 0. -1.
        -11    1    3    3    0    0  0.89467604095E+01 -0.35760811899E+01  0.26244586525E+01  0.99860233317E+01  0.51100000000E-03 0.  1.
        -12    1    3    3    0    0 -0.42302412150E+02 -0.41790856067E+01  0.82095879482E+01  0.43293835179E+02  0.00000000000E+00 0.  1.
</event>
<event>
 7    1  0.1978681E-015  0.9000774E+02  0.7816164E-02  0.1186339E+00
        -11   -1    0    0    0    0  0.00000000000E+00  0.00000000000E+00  0.45593999997E+02  0.45594000000E+02  0.51100000000E-03 0.  1.
         11   -1    0    0    0    0 -0.00000000000E+00 -0.00000000000E+00 -0.45593999997E+02  0.45594000000E+02  0.51100000000E-03 0. -1.
    9900012    2    1    2    0    0 -0.10122931411E+01  0.35873176280E+00 -0.48948755702E+00  0.90007735644E+02  0.89999996955E+02 0.  0.
        -12    1    1    2    0    0  0.10122931411E+01 -0.35873176280E+00  0.48948755702E+00  0.11802643559E+01  0.00000000000E+00 0.  1.
         11    1    3    3    0    0 -0.60133071017E+01  0.10761846220E+01 -0.52903767441E+01  0.80812203284E+01  0.51100000000E-03 0. -1.
        -11    1    3    3    0    0 -0.35484725494E+02 -0.14024954344E+02 -0.41472244362E+01  0.38380523166E+02  0.51100000000E-03 0.  1.
         12    1    3    3    0    0  0.40485739454E+02  0.13307501485E+02  0.89481136233E+01  0.43545992150E+02  0.00000000000E+00 0. -1.
</event>
<event>
 7    1  0.1978681E-015  0.9000771E+02  0.7816164E-02  0.1186339E+00
        -11   -1    0    0    0    0  0.00000000000E+00  0.00000000000E+00  0.45593999997E+02  0.45594000000E+02  0.51100000000E-03 0.  1.
         11   -1    0    0    0    0 -0.00000000000E+00 -0.00000000000E+00 -0.45593999997E+02  0.45594000000E+02  0.51100000000E-03 0. -1.
    9900012    2    1    2    0    0 -0.97296653582E-01  0.69891838124E+00 -0.94611802221E+00  0.90007706454E+02  0.89999967379E+02 0.  0.
        -12    1    1    2    0    0  0.97296653582E-01 -0.69891838124E+00  0.94611802221E+00  0.11802935459E+01  0.00000000000E+00 0.  1.
         11    1    3    3    0    0 -0.26405424516E+02  0.27041634789E+01  0.29927137073E+02  0.40002405898E+02  0.51100000000E-03 0. -1.
        -11    1    3    3    0    0  0.15432161186E-01  0.76771413419E+01  0.79867980383E+00  0.77185897044E+01  0.51100000000E-03 0.  1.
        -12    1    3    3    0    0  0.26292695701E+02 -0.96823864396E+01 -0.31671934899E+02  0.42286710852E+02  0.00000000000E+00 0.  1.
</event>
<event>
 7    1  0.1978681E-015  0.9000775E+02  0.7816164E-02  0.1186339E+00
        -11   -1    0    0    0    0  0.00000000000E+00  0.00000000000E+00  0.45593999997E+02  0.45594000000E+02  0.51100000000E-03 0.  1.
         11   -1    0    0    0    0 -0.00000000000E+00 -0.00000000000E+00 -0.45593999997E+02  0.45594000000E+02  0.51100000000E-03 0. -1.
    9900012    2    1    2    0    0  0.11344295330E+00  0.39264616693E+00 -0.11072223491E+01  0.90007753565E+02  0.90000015112E+02 0.  0.
        -12    1    1    2    0    0 -0.11344295330E+00 -0.39264616693E+00  0.11072223491E+01  0.11802464346E+01  0.00000000000E+00 0.  1.
         11    1    3    3    0    0  0.28942252567E+02 -0.21289909029E+02 -0.64260374866E+01  0.36499426957E+02  0.51100000000E-03 0. -1.
        -11    1    3    3    0    0  0.98976922111E+01  0.42259223833E+01  0.88440671649E+00  0.10798375183E+02  0.51100000000E-03 0.  1.
        -12    1    3    3    0    0 -0.38726501825E+02  0.17456632812E+02  0.44344084210E+01  0.42709951426E+02  0.00000000000E+00 0.  1.
</event>
<event>
 7    1  0.1978681E-015  0.9000812E+02  0.7816164E-02  0.1186338E+00
        -11   -1    0    0    0    0  0.00000000000E+00  0.00000000000E+00  0.45593999997E+02  0.45594000000E+02  0.51100000000E-03 0. -1.
         11   -1    0    0    0    0 -0.00000000000E+00 -0.00000000000E+00 -0.45593999997E+02  0.45594000000E+02  0.51100000000E-03 0.  1.
    9900012    2    1    2    0    0  0.14714123246E-02 -0.98663861762E+00  0.64704229109E+00  0.90008117949E+02  0.90000384306E+02 0.  0.
        -12    1    1    2    0    0 -0.14714123246E-02  0.98663861762E+00 -0.64704229109E+00  0.11798820506E+01  0.00000000000E+00 0.  1.
         11    1    3    3    0    0  0.67859348221E+01  0.66906276510E+01  0.36043147066E+01  0.10188449074E+02  0.51100000000E-03 0. -1.
        -11    1    3    3    0    0  0.22753857970E+02 -0.32391391691E+02  0.66169382714E+01  0.40133828382E+02  0.51100000000E-03 0.  1.
         12    1    3    3    0    0 -0.29538321380E+02  0.24714125423E+02 -0.95742106869E+01  0.39685840493E+02  0.00000000000E+00 0. -1.
</event>
<event>
 7    1  0.1978681E-015  0.9000775E+02  0.7816164E-02  0.1186339E+00
        -11   -1    0    0    0    0  0.00000000000E+00  0.00000000000E+00  0.45593999997E+02  0.45594000000E+02  0.51100000000E-03 0. -1.
         11   -1    0    0    0    0 -0.00000000000E+00 -0.00000000000E+00 -0.45593999997E+02  0.45594000000E+02  0.51100000000E-03 0.  1.
    9900012    2    1    2    0    0 -0.10520550880E+01 -0.11537897448E+00  0.52235158095E+00  0.90007752827E+02  0.90000014364E+02 0.  0.
        -12    1    1    2    0    0  0.10520550880E+01  0.11537897448E+00 -0.52235158095E+00  0.11802471733E+01  0.00000000000E+00 0.  1.
         11    1    3    3    0    0 -0.42844455890E+01  0.32136579350E+01  0.70375990624E+01  0.88437476305E+01  0.51100000000E-03 0. -1.
        -11    1    3    3    0    0 -0.21825131565E+02  0.16953813887E+02 -0.30368424030E+02  0.41061044208E+02  0.51100000000E-03 0.  1.
         12    1    3    3    0    0  0.25057522066E+02 -0.20282850796E+02  0.23853176549E+02  0.40102960988E+02  0.00000000000E+00 0. -1.
</event>
<event>
 7    1  0.1978681E-015  0.9000760E+02  0.7816164E-02  0.1186339E+00
        -11   -1    0    0    0    0  0.00000000000E+00  0.00000000000E+00  0.45593999997E+02  0.45594000000E+02  0.51100000000E-03 0. -1.
         11   -1    0    0    0    0 -0.00000000000E+00 -0.00000000000E+00 -0.45593999997E+02  0.45594000000E+02  0.51100000000E-03 0.  1.
    9900012    2    1    2    0    0 -0.11029559164E+01  0.40182317928E+00  0.12393863891E+00  0.90007604131E+02  0.89999863706E+02 0.  0.
        -12    1    1    2    0    0  0.11029559164E+01 -0.40182317928E+00 -0.12393863891E+00  0.11803958688E+01  0.00000000000E+00 0.  1.
         11    1    3    3    0    0  0.15597350458E+02 -0.31241749630E+02  0.25292443325E+01  0.35010303318E+02  0.51100000000E-03 0. -1.
        -11    1    3    3    0    0 -0.78421049951E+01 -0.76977340413E+01  0.77075318983E+01  0.13422360759E+02  0.51100000000E-03 0.  1.
        -12    1    3    3    0    0 -0.88582013789E+01  0.39341306850E+02 -0.10112837592E+02  0.41574940054E+02  0.00000000000E+00 0.  1.
</event>
<event>
 7    1  0.1978681E-015  0.9000774E+02  0.7816164E-02  0.1186339E+00
        -11   -1    0    0    0    0  0.00000000000E+00  0.00000000000E+00  0.45593999997E+02  0.45594000000E+02  0.51100000000E-03 0. -1.
         11   -1    0    0    0    0 -0.00000000000E+00 -0.00000000000E+00 -0.45593999997E+02  0.45594000000E+02  0.51100000000E-03 0.  1.
    9900012    2    1    2    0    0 -0.85643302752E+00  0.25210719601E+00  0.77199010586E+00  0.90007743972E+02  0.90000005392E+02 0.  0.
        -12    1    1    2    0    0  0.85643302752E+00 -0.25210719601E+00 -0.77199010586E+00  0.11802560284E+01  0.00000000000E+00 0.  1.
         11    1    3    3    0    0  0.16931483392E+02  0.89308840893E+00  0.33679342678E+02  0.37706376917E+02  0.51100000000E-03 0. -1.
        -11    1    3    3    0    0  0.98874875431E+01 -0.23204419355E+00 -0.81762981457E+00  0.99239494758E+01  0.51100000000E-03 0.  1.
        -12    1    3    3    0    0 -0.27675403962E+02 -0.40893701937E+00 -0.32089722758E+02  0.42377417579E+02  0.00000000000E+00 0.  1.
</event>
<event>
 7    1  0.1978681E-015  0.9000772E+02  0.7816164E-02  0.1186339E+00
        -11   -1    0    0    0    0  0.00000000000E+00  0.00000000000E+00  0.45593999997E+02  0.45594000000E+02  0.51100000000E-03 0. -1.
         11   -1    0    0    0    0 -0.00000000000E+00 -0.00000000000E+00 -0.45593999997E+02  0.45594000000E+02  0.51100000000E-03 0.  1.
    9900012    2    1    2    0    0  0.50892600919E+00  0.10078186911E+01  0.34402642198E+00  0.90007721060E+02  0.89999982178E+02 0.  0.
        -12    1    1    2    0    0 -0.50892600919E+00 -0.10078186911E+01 -0.34402642198E+00  0.11802789399E+01  0.00000000000E+00 0.  1.
         11    1    3    3    0    0 -0.36650017582E+02  0.12027823710E+00  0.16143145460E+02  0.40047963759E+02  0.51100000000E-03 0. -1.
        -11    1    3    3    0    0  0.47961938138E+01 -0.40716388306E+01  0.74895515573E+01  0.97813649690E+01  0.51100000000E-03 0.  1.
        -12    1    3    3    0    0  0.32362749777E+02  0.49591792846E+01 -0.23288670595E+02  0.40178392332E+02  0.00000000000E+00 0.  1.
</event>
<event>
 7    1  0.2079933E-015  0.9000771E+02  0.7816164E-02  0.1186339E+00
        -11   -1    0    0    0    0  0.00000000000E+00  0.00000000000E+00  0.45593999997E+02  0.45594000000E+02  0.51100000000E-03 0.  1.
         11   -1    0    0    0    0 -0.00000000000E+00 -0.00000000000E+00 -0.45593999997E+02  0.45594000000E+02  0.51100000000E-03 0. -1.
    9900012    2    1    2    0    0 -0.15263845550E+00 -0.10840840725E+01 -0.44107477688E+00  0.90007710318E+02  0.89999971294E+02 0.  0.
        -12    1    1    2    0    0  0.15263845550E+00  0.10840840725E+01  0.44107477688E+00  0.11802896819E+01  0.00000000000E+00 0.  1.
         11    1    3    3    0    0 -0.66390690892E+01  0.58051978883E+01  0.22337712436E+01  0.90976532756E+01  0.51100000000E-03 0. -1.
        -11    1    3    3    0    0  0.11685863914E+01  0.20200682271E+02  0.31214559068E+02  0.37199218493E+02  0.51100000000E-03 0.  1.
         12    1    3    3    0    0  0.53178442423E+01 -0.27089964232E+02 -0.33889405089E+02  0.43710838550E+02  0.00000000000E+00 0. -1.
</event>
<event>
 7    1  0.1978681E-015  0.9000784E+02  0.7816164E-02  0.1186339E+00
        -11   -1    0    0    0    0  0.00000000000E+00  0.00000000000E+00  0.45593999997E+02  0.45594000000E+02  0.51100000000E-03 0.  1.
         11   -1    0    0    0    0 -0.00000000000E+00 -0.00000000000E+00 -0.45593999997E+02  0.45594000000E+02  0.51100000000E-03 0. -1.
    9900012    2    1    2    0    0  0.96912787060E+00  0.51937562013E+00 -0.42874093218E+00  0.90007839565E+02  0.90000102248E+02 0.  0.
        -12    1    1    2    0    0 -0.96912787060E+00 -0.51937562013E+00  0.42874093218E+00  0.11801604346E+01  0.00000000000E+00 0.  1.
         11    1    3    3    0    0 -0.21379714321E+01  0.80442677601E+01 -0.36138799265E+01  0.90742103802E+01  0.51100000000E-03 0. -1.
        -11    1    3    3    0    0  0.10656508082E+02  0.22891370886E+02  0.30335612470E+02  0.39469297051E+02  0.51100000000E-03 0.  1.
         12    1    3    3    0    0 -0.75494087790E+01 -0.30416263026E+02 -0.27150473475E+02  0.41464332134E+02  0.00000000000E+00 0. -1.
</event>
<event>
 7    1  0.1978681E-015  0.9000793E+02  0.7816164E-02  0.1186339E+00
        -11   -1    0    0    0    0  0.00000000000E+00  0.00000000000E+00  0.45593999997E+02  0.45594000000E+02  0.51100000000E-03 0.  1.
         11   -1    0    0    0    0 -0.00000000000E+00 -0.00000000000E+00 -0.45593999997E+02  0.45594000000E+02  0.51100000000E-03 0. -1.
    9900012    2    1    2    0    0  0.54444737147E+00  0.21163715991E+00 -0.10253571060E+01  0.90007927789E+02  0.90000191636E+02 0.  0.
        -12    1    1    2    0    0 -0.54444737147E+00 -0.21163715991E+00  0.10253571060E+01  0.11800722107E+01  0.00000000000E+00 0.  1.
         11    1    3    3    0    0 -0.31840750060E+02 -0.18364058796E+02  0.49136237373E+01  0.37083901067E+02  0.51100000000E-03 0. -1.
        -11    1    3    3    0    0 -0.55157571735E+01  0.21904547926E+01  0.74421697139E+01  0.95188003292E+01  0.51100000000E-03 0.  1.
        -12    1    3    3    0    0  0.37900954605E+02  0.16385241163E+02 -0.13381150557E+02  0.43405226393E+02  0.00000000000E+00 0.  1.
</event>
<event>
 7    1  0.1978681E-015  0.9000773E+02  0.7816164E-02  0.1186339E+00
        -11   -1    0    0    0    0  0.00000000000E+00  0.00000000000E+00  0.45593999997E+02  0.45594000000E+02  0.51100000000E-03 0.  1.
         11   -1    0    0    0    0 -0.00000000000E+00 -0.00000000000E+00 -0.45593999997E+02  0.45594000000E+02  0.51100000000E-03 0. -1.
    9900012    2    1    2    0    0 -0.64205228554E+00  0.98976271165E+00  0.34404346544E-01  0.90007726717E+02  0.89999987910E+02 0.  0.
        -12    1    1    2    0    0  0.64205228554E+00 -0.98976271165E+00 -0.34404346544E-01  0.11802732827E+01  0.00000000000E+00 0.  1.
         11    1    3    3    0    0 -0.21471850114E+01  0.12760802911E+01 -0.69241164533E+01  0.73608541150E+01  0.51100000000E-03 0. -1.
        -11    1    3    3    0    0  0.26103513913E+02  0.32175027097E+02  0.63335109200E+01  0.41913472394E+02  0.51100000000E-03 0.  1.
         12    1    3    3    0    0 -0.24598381187E+02 -0.32461344676E+02  0.62500987982E+00  0.40733400209E+02  0.00000000000E+00 0. -1.
</event>
<event>
 7    1  0.1978681E-015  0.9000779E+02  0.7816164E-02  0.1186339E+00
        -11   -1    0    0    0    0  0.00000000000E+00  0.00000000000E+00  0.45593999997E+02  0.45594000000E+02  0.51100000000E-03 0.  1.
         11   -1    0    0    0    0 -0.00000000000E+00 -0.00000000000E+00 -0.45593999997E+02  0.45594000000E+02  0.51100000000E-03 0. -1.
    9900012    2    1    2    0    0  0.97223511539E+00  0.47151213610E+00 -0.47468959921E+00  0.90007790260E+02  0.90000052292E+02 0.  0.
        -12    1    1    2    0    0 -0.97223511539E+00 -0.47151213610E+00  0.47468959921E+00  0.11802097397E+01  0.00000000000E+00 0.  1.
         11    1    3    3    0    0  0.60077741142E+00 -0.71291422279E+01  0.30120046453E+01  0.77625881411E+01  0.51100000000E-03 0. -1.
        -11    1    3    3    0    0 -0.36187367388E+02  0.17894039012E+02  0.10597458065E+02  0.41737612634E+02  0.51100000000E-03 0.  1.
         12    1    3    3    0    0  0.36558825092E+02 -0.10293384648E+02 -0.14084152309E+02  0.40507589485E+02  0.00000000000E+00 0. -1.
</event>
<event>
 7    1  0.1978681E-015  0.9000774E+02  0.7816164E-02  0.1186339E+00
        -11   -1    0    0    0    0  0.00000000000E+00  0.00000000000E+00  0.45593999997E+02  0.45594000000E+02  0.51100000000E-03 0. -1.
         11   -1    0    0    0    0 -0.00000000000E+00 -0.00000000000E+00 -0.45593999997E+02  0.45594000000E+02  0.51100000000E-03 0.  1.
    9900012    2    1    2    0    0  0.57594754138E+00  0.52547935442E-01  0.10288529656E+01  0.90007739317E+02  0.90000000676E+02 0.  0.
        -12    1    1    2    0    0 -0.57594754138E+00 -0.52547935442E-01 -0.10288529656E+01  0.11802606834E+01  0.00000000000E+00 0.  1.
         11    1    3    3    0    0 -0.35399203781E+02  0.92925924500E+01  0.68591317928E+01  0.37235783757E+02  0.51100000000E-03 0. -1.
        -11    1    3    3    0    0 -0.47697035324E+01  0.64859511966E+01  0.22432808049E+01  0.83576278777E+01  0.51100000000E-03 0.  1.
        -12    1    3    3    0    0  0.40744854855E+02 -0.15725995711E+02 -0.80735596321E+01  0.44414327682E+02  0.00000000000E+00 0.  1.
</event>
<event>
 7    1  0.1978681E-015  0.9000773E+02  0.7816164E-02  0.1186339E+00
        -11   -1    0    0    0    0  0.00000000000E+00  0.00000000000E+00  0.45593999997E+02  0.45594000000E+02  0.51100000000E-03 0.  1.
         11   -1    0    0    0    0 -0.00000000000E+00 -0.00000000000E+00 -0.45593999997E+02  0.45594000000E+02  0.51100000000E-03 0. -1.
    9900012    2    1    2    0    0  0.11545782287E+01 -0.11968771522E+00 -0.21371023920E+00  0.90007725413E+02  0.89999986588E+02 0.  0.
        -12    1    1    2    0    0 -0.11545782287E+01  0.11968771522E+00  0.21371023920E+00  0.11802745874E+01  0.00000000000E+00 0.  1.
         11    1    3    3    0    0  0.21388845176E+02 -0.20539715087E+02 -0.22943980265E+02  0.37493850489E+02  0.51100000000E-03 0. -1.
        -11    1    3    3    0    0  0.76077453317E+01 -0.50610256376E+01  0.16544090946E+01  0.92859484841E+01  0.51100000000E-03 0.  1.
        -12    1    3    3    0    0 -0.27842012279E+02  0.25481053010E+02  0.21075860932E+02  0.43227926439E+02  0.00000000000E+00 0.  1.
</event>
<event>
 7    1  0.1978681E-015  0.9000743E+02  0.7816164E-02  0.1186340E+00
        -11   -1    0    0    0    0  0.00000000000E+00  0.00000000000E+00  0.45593999997E+02  0.45594000000E+02  0.51100000000E-03 0. -1.
         11   -1    0    0    0    0 -0.00000000000E+00 -0.00000000000E+00 -0.45593999997E+02  0.45594000000E+02  0.51100000000E-03 0.  1.
    9900012    2    1    2    0    0 -0.55676297530E+00  0.91824079098E+00  0.49049743698E+00  0.90007432807E+02  0.89999690120E+02 0.  0.
        -12    1    1    2    0    0  0.55676297530E+00 -0.91824079098E+00 -0.49049743698E+00  0.11805671927E+01  0.00000000000E+00 0.  1.
         11    1    3    3    0    0  0.67229793067E+01 -0.64762995262E+01 -0.31846242959E+01  0.98632012287E+01  0.51100000000E-03 0. -1.
        -11    1    3    3    0    0 -0.28923348455E+02 -0.26717566870E+02  0.51975119600E+01  0.39716527997E+02  0.51100000000E-03 0.  1.
         12    1    3    3    0    0  0.21643606173E+02  0.34112107187E+02 -0.15223902271E+01  0.40427703582E+02  0.00000000000E+00 0. -1.
</event>
<event>
 7    1  0.1978681E-015  0.9000787E+02  0.7816164E-02  0.1186339E+00
        -11   -1    0    0    0    0  0.00000000000E+00  0.00000000000E+00  0.45593999997E+02  0.45594000000E+02  0.51100000000E-03 0.  1.
         11   -1    0    0    0    0 -0.00000000000E+00 -0.00000000000E+00 -0.45593999997E+02  0.45594000000E+02  0.51100000000E-03 0. -1.
    9900012    2    1    2    0    0  0.11171965931E+01 -0.37801698966E+00  0.41098556616E-01  0.90007866887E+02  0.90000129930E+02 0.  0.
        -12    1    1    2    0    0 -0.11171965931E+01  0.37801698966E+00 -0.41098556616E-01  0.11801331126E+01  0.00000000000E+00 0.  1.
         11    1    3    3    0    0  0.47999579825E+01  0.94393917541E+01  0.24969027412E+00  0.10592641730E+02  0.51100000000E-03 0. -1.
        -11    1    3    3    0    0  0.22657196142E+02 -0.31324733326E+02  0.15882210726E+02  0.41795120203E+02  0.51100000000E-03 0.  1.
         12    1    3    3    0    0 -0.26339957532E+02  0.21507324583E+02 -0.16090802444E+02  0.37620104954E+02  0.00000000000E+00 0. -1.
</event>
<event>
 7    1  0.1978681E-015  0.9000777E+02  0.7816164E-02  0.1186339E+00
        -11   -1    0    0    0    0  0.00000000000E+00  0.00000000000E+00  0.45593999997E+02  0.45594000000E+02  0.51100000000E-03 0. -1.
         11   -1    0    0    0    0 -0.00000000000E+00 -0.00000000000E+00 -0.45593999997E+02  0.45594000000E+02  0.51100000000E-03 0.  1.
    9900012    2    1    2    0    0 -0.10254098462E+01  0.43033437842E+00  0.39533923194E+00  0.90007768608E+02  0.90000030354E+02 0.  0.
        -12    1    1    2    0    0  0.10254098462E+01 -0.43033437842E+00 -0.39533923194E+00  0.11802313918E+01  0.00000000000E+00 0.  1.
         11    1    3    3    0    0 -0.95441989887E+01 -0.27183019024E+02  0.23615616464E+02  0.37251920740E+02  0.51100000000E-03 0. -1.
        -11    1    3    3    0    0 -0.59244997734E+01 -0.37629655295E+01 -0.15995179550E+02  0.17467265849E+02  0.51100000000E-03 0.  1.
        -12    1    3    3    0    0  0.14443288916E+02  0.31376318932E+02 -0.72250976815E+01  0.35288582019E+02  0.00000000000E+00 0.  1.
</event>
<event>
 7    1  0.1978681E-015  0.9000779E+02  0.7816164E-02  0.1186339E+00
        -11   -1    0    0    0    0  0.00000000000E+00  0.00000000000E+00  0.45593999997E+02  0.45594000000E+02  0.51100000000E-03 0. -1.
         11   -1    0    0    0    0 -0.00000000000E+00 -0.00000000000E+00 -0.45593999997E+02  0.45594000000E+02  0.51100000000E-03 0.  1.
    9900012    2    1    2    0    0 -0.60035694652E+00  0.92273143337E+00  0.42548091325E+00  0.90007789947E+02  0.90000051974E+02 0.  0.
        -12    1    1    2    0    0  0.60035694652E+00 -0.92273143337E+00 -0.42548091325E+00  0.11802100529E+01  0.00000000000E+00 0.  1.
         11    1    3    3    0    0 -0.35749652243E+02  0.21527509104E+01 -0.37327591515E+01  0.36008408228E+02  0.51100000000E-03 0. -1.
        -11    1    3    3    0    0 -0.85838695322E+01  0.18542303884E+00  0.55459984082E+01  0.10221315789E+02  0.51100000000E-03 0.  1.
        -12    1    3    3    0    0  0.43733164828E+02 -0.14154425159E+01 -0.13877583434E+01  0.43778065931E+02  0.00000000000E+00 0.  1.
</event>
<event>
 7    1  0.1978681E-015  0.9000774E+02  0.7816164E-02  0.1186339E+00
        -11   -1    0    0    0    0  0.00000000000E+00  0.00000000000E+00  0.45593999997E+02  0.45594000000E+02  0.51100000000E-03 0. -1.
         11   -1    0    0    0    0 -0.00000000000E+00 -0.00000000000E+00 -0.45593999997E+02  0.45594000000E+02  0.51100000000E-03 0.  1.
    9900012    2    1    2    0    0 -0.33227306554E+00 -0.67398595244E+00  0.91014431804E+00  0.90007735143E+02  0.89999996446E+02 0.  0.
        -12    1    1    2    0    0  0.33227306554E+00  0.67398595244E+00 -0.91014431804E+00  0.11802648575E+01  0.00000000000E+00 0.  1.
         11    1    3    3    0    0  0.72539013072E+01 -0.12002254713E+02  0.33431405028E+02  0.36253717668E+02  0.51100000000E-03 0. -1.
        -11    1    3    3    0    0  0.23211172627E+01 -0.90343511135E+01  0.44998218462E+01  0.10356422273E+02  0.51100000000E-03 0.  1.
        -12    1    3    3    0    0 -0.99072916355E+01  0.20362619874E+02 -0.37021082556E+02  0.43397595202E+02  0.00000000000E+00 0.  1.
</event>
<event>
 7    1  0.1978681E-015  0.9000771E+02  0.7816164E-02  0.1186339E+00
        -11   -1    0    0    0    0  0.00000000000E+00  0.00000000000E+00  0.45593999997E+02  0.45594000000E+02  0.51100000000E-03 0.  1.
         11   -1    0    0    0    0 -0.00000000000E+00 -0.00000000000E+00 -0.45593999997E+02  0.45594000000E+02  0.51100000000E-03 0. -1.
    9900012    2    1    2    0    0  0.72789483622E+00 -0.72058094279E+00 -0.58652964293E+00  0.90007709862E+02  0.89999970832E+02 0.  0.
        -12    1    1    2    0    0 -0.72789483622E+00  0.72058094279E+00  0.58652964293E+00  0.11802901380E+01  0.00000000000E+00 0.  1.
         11    1    3    3    0    0  0.14279203078E+02  0.38678142503E+02 -0.10106667497E+02  0.42450430813E+02  0.51100000000E-03 0. -1.
        -11    1    3    3    0    0 -0.32148300114E+01 -0.68380869882E+01 -0.63678275689E+01  0.98814874320E+01  0.51100000000E-03 0.  1.
        -12    1    3    3    0    0 -0.10336478230E+02 -0.32560636458E+02  0.15887965423E+02  0.37675791618E+02  0.00000000000E+00 0.  1.
</event>
<event>
 7    1  0.1978681E-015  0.9000829E+02  0.7816164E-02  0.1186338E+00
        -11   -1    0    0    0    0  0.00000000000E+00  0.00000000000E+00  0.45593999997E+02  0.45594000000E+02  0.51100000000E-03 0. -1.
         11   -1    0    0    0    0 -0.00000000000E+00 -0.00000000000E+00 -0.45593999997E+02  0.45594000000E+02  0.51100000000E-03 0.  1.
    9900012    2    1    2    0    0 -0.77551844924E+00 -0.79726528336E+00  0.39325623508E+00  0.90008291874E+02  0.90000560525E+02 0.  0.
        -12    1    1    2    0    0  0.77551844924E+00  0.79726528336E+00 -0.39325623508E+00  0.11797081264E+01  0.00000000000E+00 0.  1.
         11    1    3    3    0    0  0.19160031507E+02  0.54417885329E+01  0.31376601739E+02  0.37164647270E+02  0.51100000000E-03 0. -1.
        -11    1    3    3    0    0 -0.18514628789E+02  0.42254300166E+01  0.11440455554E+01  0.19025103903E+02  0.51100000000E-03 0.  1.
        -12    1    3    3    0    0 -0.14209211670E+01 -0.10464483833E+02 -0.32127391059E+02  0.33818540700E+02  0.00000000000E+00 0.  1.
</event>
<event>
 7    1  0.1978681E-015  0.9000780E+02  0.7816164E-02  0.1186339E+00
        -11   -1    0    0    0    0  0.00000000000E+00  0.00000000000E+00  0.45593999997E+02  0.45594000000E+02  0.51100000000E-03 0. -1.
         11   -1    0    0    0    0 -0.00000000000E+00 -0.00000000000E+00 -0.45593999997E+02  0.45594000000E+02  0.51100000000E-03 0.  1.
    9900012    2    1    2    0    0  0.78703773083E+00  0.10736964567E+00  0.87287720119E+00  0.90007800339E+02  0.90000062504E+02 0.  0.
        -12    1    1    2    0    0 -0.78703773083E+00 -0.10736964567E+00 -0.87287720119E+00  0.11801996606E+01  0.00000000000E+00 0.  1.
         11    1    3    3    0    0  0.22600412412E+01 -0.18346365736E+02  0.29745127165E+02  0.35020986743E+02  0.51100000000E-03 0. -1.
        -11    1    3    3    0    0 -0.11077436775E+02 -0.22404606934E+01  0.63934789008E+01  0.12984831240E+02  0.51100000000E-03 0.  1.
        -12    1    3    3    0    0  0.96044332648E+01  0.20694196075E+02 -0.35265728864E+02  0.42001982356E+02  0.00000000000E+00 0.  1.
</event>
<event>
 7    1  0.1978681E-015  0.9000778E+02  0.7816164E-02  0.1186339E+00
        -11   -1    0    0    0    0  0.00000000000E+00  0.00000000000E+00  0.45593999997E+02  0.45594000000E+02  0.51100000000E-03 0.  1.
         11   -1    0    0    0    0 -0.00000000000E+00 -0.00000000000E+00 -0.45593999997E+02  0.45594000000E+02  0.51100000000E-03 0. -1.
    9900012    2    1    2    0    0  0.83437286743E-01  0.11589187825E+01 -0.20704316615E+00  0.90007779089E+02  0.90000040973E+02 0.  0.
        -12    1    1    2    0    0 -0.83437286743E-01 -0.11589187825E+01  0.20704316615E+00  0.11802209107E+01  0.00000000000E+00 0.  1.
         11    1    3    3    0    0 -0.24854551478E+01  0.33343893038E+01 -0.39317404984E+02  0.39536742079E+02  0.51100000000E-03 0. -1.
        -11    1    3    3    0    0  0.10007035276E+02  0.43082754922E+01  0.81569273717E+00  0.10925536492E+02  0.51100000000E-03 0.  1.
        -12    1    3    3    0    0 -0.74381428411E+01 -0.64837460135E+01  0.38294669080E+02  0.39545500519E+02  0.00000000000E+00 0.  1.
</event>
<event>
 7    1  0.1978681E-015  0.9000803E+02  0.7816164E-02  0.1186338E+00
        -11   -1    0    0    0    0  0.00000000000E+00  0.00000000000E+00  0.45593999997E+02  0.45594000000E+02  0.51100000000E-03 0. -1.
         11   -1    0    0    0    0 -0.00000000000E+00 -0.00000000000E+00 -0.45593999997E+02  0.45594000000E+02  0.51100000000E-03 0.  1.
    9900012    2    1    2    0    0  0.11126805446E+01 -0.11343000665E+00 -0.37604931499E+00  0.90008026505E+02  0.90000291655E+02 0.  0.
        -12    1    1    2    0    0 -0.11126805446E+01  0.11343000665E+00  0.37604931499E+00  0.11799734946E+01  0.00000000000E+00 0.  1.
         11    1    3    3    0    0 -0.58375006099E+01 -0.54452120305E+01 -0.42363914371E+01  0.90373536004E+01  0.51100000000E-03 0. -1.
        -11    1    3    3    0    0  0.18691177072E+01  0.19652036950E+02 -0.34478834092E+02  0.39730166850E+02  0.51100000000E-03 0.  1.
         12    1    3    3    0    0  0.50810634473E+01 -0.14320254926E+02  0.38339176214E+02  0.41240506055E+02  0.00000000000E+00 0. -1.
</event>
<event>
 7    1  0.1978681E-015  0.9000768E+02  0.7816164E-02  0.1186339E+00
        -11   -1    0    0    0    0  0.00000000000E+00  0.00000000000E+00  0.45593999997E+02  0.45594000000E+02  0.51100000000E-03 0.  1.
         11   -1    0    0    0    0 -0.00000000000E+00 -0.00000000000E+00 -0.45593999997E+02  0.45594000000E+02  0.51100000000E-03 0. -1.
    9900012    2    1    2    0    0 -0.55595051925E+00 -0.57253742591E+00  0.86963493235E+00  0.90007684364E+02  0.89999944998E+02 0.  0.
        -12    1    1    2    0    0  0.55595051925E+00  0.57253742591E+00 -0.86963493235E+00  0.11803156355E+01  0.00000000000E+00 0.  1.
         11    1    3    3    0    0  0.20835788926E+02  0.29959716543E+02 -0.18134267377E+02  0.40750047473E+02  0.51100000000E-03 0. -1.
        -11    1    3    3    0    0  0.12686719516E+01  0.90720046410E+00  0.91334308494E+01  0.92656408599E+01  0.51100000000E-03 0.  1.
        -12    1    3    3    0    0 -0.22660411397E+02 -0.31439454433E+02  0.98704714599E+01  0.39991996031E+02  0.00000000000E+00 0.  1.
</event>
<event>
 7    1  0.1978681E-015  0.9000775E+02  0.7816164E-02  0.1186339E+00
        -11   -1    0    0    0    0  0.00000000000E+00  0.00000000000E+00  0.45593999997E+02  0.45594000000E+02  0.51100000000E-03 0.  1.
         11   -1    0    0    0    0 -0.00000000000E+00 -0.00000000000E+00 -0.45593999997E+02  0.45594000000E+02  0.51100000000E-03 0. -1.
    9900012    2    1    2    0    0 -0.11392839398E+01 -0.22387215906E+00  0.21192467901E+00  0.90007746337E+02  0.90000007789E+02 0.  0.
        -12    1    1    2    0    0  0.11392839398E+01  0.22387215906E+00 -0.21192467901E+00  0.11802536629E+01  0.00000000000E+00 0.  1.
         11    1    3    3    0    0  0.10042061505E+02 -0.21459769257E+02  0.23240464631E+02  0.33188610883E+02  0.51100000000E-03 0. -1.
        -11    1    3    3    0    0 -0.31374605365E+00 -0.24333869663E+01  0.12515764845E+02  0.12753986774E+02  0.51100000000E-03 0.  1.
         12    1    3    3    0    0 -0.10867599391E+02  0.23669284065E+02 -0.35544304797E+02  0.44065148680E+02  0.00000000000E+00 0. -1.
</event>
<event>
 7    1  0.1978681E-015  0.9000764E+02  0.7816164E-02  0.1186339E+00
        -11   -1    0    0    0    0  0.00000000000E+00  0.00000000000E+00  0.45593999997E+02  0.45594000000E+02  0.51100000000E-03 0. -1.
         11   -1    0    0    0    0 -0.00000000000E+00 -0.00000000000E+00 -0.45593999997E+02  0.45594000000E+02  0.51100000000E-03 0.  1.
    9900012    2    1    2    0    0  0.31642619910E+00 -0.20125676347E+00  0.11192025320E+01  0.90007642371E+02  0.89999902450E+02 0.  0.
        -12    1    1    2    0    0 -0.31642619910E+00  0.20125676347E+00 -0.11192025320E+01  0.11803576289E+01  0.00000000000E+00 0.  1.
         11    1    3    3    0    0 -0.22654706701E+02  0.14123502303E+01  0.31781744342E+02  0.39055214026E+02  0.51100000000E-03 0. -1.
        -11    1    3    3    0    0 -0.70823473196E+01  0.56193547957E+01 -0.31602204448E+01  0.95772535414E+01  0.51100000000E-03 0.  1.
        -12    1    3    3    0    0  0.30053480220E+02 -0.72329617895E+01 -0.27502321366E+02  0.41375174804E+02  0.00000000000E+00 0.  1.
</event>
<event>
 7    1  0.1978681E-015  0.9000771E+02  0.7816164E-02  0.1186339E+00
        -11   -1    0    0    0    0  0.00000000000E+00  0.00000000000E+00  0.45593999997E+02  0.45594000000E+02  0.51100000000E-03 0.  1.
         11   -1    0    0    0    0 -0.00000000000E+00 -0.00000000000E+00 -0.45593999997E+02  0.45594000000E+02  0.51100000000E-03 0. -1.
    9900012    2    1    2    0    0  0.13577338506E+00 -0.96165686094E+00 -0.67072517767E+00  0.90007707412E+02  0.89999968349E+02 0.  0.
        -12    1    1    2    0    0 -0.13577338506E+00  0.96165686094E+00  0.67072517767E+00  0.11802925884E+01  0.00000000000E+00 0.  1.
         11    1    3    3    0    0 -0.10488451306E+01 -0.67950738060E+01  0.55144046457E+01  0.88137258293E+01  0.51100000000E-03 0. -1.
        -11    1    3    3    0    0 -0.17377078666E+02 -0.28804269044E+02  0.14676614338E+02  0.36702204113E+02  0.51100000000E-03 0.  1.
         12    1    3    3    0    0  0.18561697181E+02  0.34637685989E+02 -0.20861744161E+02  0.44491777469E+02  0.00000000000E+00 0. -1.
</event>
<event>
 7    1  0.1978681E-015  0.9000769E+02  0.7816164E-02  0.1186339E+00
        -11   -1    0    0    0    0  0.00000000000E+00  0.00000000000E+00  0.45593999997E+02  0.45594000000E+02  0.51100000000E-03 0. -1.
         11   -1    0    0    0    0 -0.00000000000E+00 -0.00000000000E+00 -0.45593999997E+02  0.45594000000E+02  0.51100000000E-03 0.  1.
    9900012    2    1    2    0    0  0.19379697362E+00  0.22308113430E+00  0.11427168716E+01  0.90007693130E+02  0.89999953879E+02 0.  0.
        -12    1    1    2    0    0 -0.19379697362E+00 -0.22308113430E+00 -0.11427168716E+01  0.11803068703E+01  0.00000000000E+00 0.  1.
         11    1    3    3    0    0 -0.30859132441E+02 -0.64009218773E+01  0.22423793009E+02  0.38679249593E+02  0.51100000000E-03 0. -1.
        -11    1    3    3    0    0 -0.52428045189E+00  0.36768131926E+01  0.75842023922E+01  0.84447588143E+01  0.51100000000E-03 0.  1.
        -12    1    3    3    0    0  0.31577209866E+02  0.29471898190E+01 -0.28865278530E+02  0.42883684723E+02  0.00000000000E+00 0.  1.
</event>
<event>
 7    1  0.1978681E-015  0.9000771E+02  0.7816164E-02  0.1186339E+00
        -11   -1    0    0    0    0  0.00000000000E+00  0.00000000000E+00  0.45593999997E+02  0.45594000000E+02  0.51100000000E-03 0.  1.
         11   -1    0    0    0    0 -0.00000000000E+00 -0.00000000000E+00 -0.45593999997E+02  0.45594000000E+02  0.51100000000E-03 0. -1.
    9900012    2    1    2    0    0 -0.14163026049E+00  0.55489657701E+00 -0.10320471506E+01  0.90007707383E+02  0.89999968320E+02 0.  0.
        -12    1    1    2    0    0  0.14163026049E+00 -0.55489657701E+00  0.10320471506E+01  0.11802926175E+01  0.00000000000E+00 0.  1.
         11    1    3    3    0    0 -0.16170247434E+01  0.23280630139E+02 -0.31686875564E+02  0.39353025194E+02  0.51100000000E-03 0. -1.
        -11    1    3    3    0    0 -0.55841057620E+01 -0.23198845625E+01 -0.57395142911E+01  0.83370334114E+01  0.51100000000E-03 0.  1.
        -12    1    3    3    0    0  0.70595002449E+01 -0.20405849000E+02  0.36394342704E+02  0.42317648777E+02  0.00000000000E+00 0.  1.
</event>
<event>
 7    1  0.1978681E-015  0.9000753E+02  0.7816164E-02  0.1186339E+00
        -11   -1    0    0    0    0  0.00000000000E+00  0.00000000000E+00  0.45593999997E+02  0.45594000000E+02  0.51100000000E-03 0.  1.
         11   -1    0    0    0    0 -0.00000000000E+00 -0.00000000000E+00 -0.45593999997E+02  0.45594000000E+02  0.51100000000E-03 0. -1.
    9900012    2    1    2    0    0  0.26980527827E+00 -0.27829020156E+00 -0.11150234700E+01  0.90007526509E+02  0.89999785059E+02 0.  0.
        -12    1    1    2    0    0 -0.26980527827E+00  0.27829020156E+00  0.11150234700E+01  0.11804734910E+01  0.00000000000E+00 0.  1.
         11    1    3    3    0    0 -0.63475602495E+01  0.21025569386E+01  0.55765565375E+01  0.87069081699E+01  0.51100000000E-03 0. -1.
        -11    1    3    3    0    0 -0.36885824078E+02  0.55728838887E+00 -0.77069957109E+01  0.37686501183E+02  0.51100000000E-03 0.  1.
         12    1    3    3    0    0  0.43503189606E+02 -0.29381355290E+01  0.10154157034E+01  0.43614117156E+02  0.00000000000E+00 0. -1.
</event>
<event>
 7    1  0.1978681E-015  0.9000765E+02  0.7816164E-02  0.1186339E+00
        -11   -1    0    0    0    0  0.00000000000E+00  0.00000000000E+00  0.45593999997E+02  0.45594000000E+02  0.51100000000E-03 0.  1.
         11   -1    0    0    0    0 -0.00000000000E+00 -0.00000000000E+00 -0.45593999997E+02  0.45594000000E+02  0.51100000000E-03 0. -1.
    9900012    2    1    2    0    0  0.98314180197E+00 -0.27694792320E+00 -0.59158175597E+00  0.90007645422E+02  0.89999905542E+02 0.  0.
        -12    1    1    2    0    0 -0.98314180197E+00  0.27694792320E+00  0.59158175597E+00  0.11803545776E+01  0.00000000000E+00 0.  1.
         11    1    3    3    0    0  0.24183499474E+02 -0.27007765928E+02 -0.24835424900E+02  0.43943820925E+02  0.51100000000E-03 0. -1.
        -11    1    3    3    0    0 -0.27433389803E+01  0.73631222155E+01  0.14063842326E+02  0.16110032239E+02  0.51100000000E-03 0.  1.
        -12    1    3    3    0    0 -0.20457018692E+02  0.19367695790E+02  0.10180000818E+02  0.29953792258E+02  0.00000000000E+00 0.  1.
</event>
<event>
 7    1  0.1978681E-015  0.9000775E+02  0.7816164E-02  0.1186339E+00
        -11   -1    0    0    0    0  0.00000000000E+00  0.00000000000E+00  0.45593999997E+02  0.45594000000E+02  0.51100000000E-03 0.  1.
         11   -1    0    0    0    0 -0.00000000000E+00 -0.00000000000E+00 -0.45593999997E+02  0.45594000000E+02  0.51100000000E-03 0. -1.
    9900012    2    1    2    0    0  0.56917682627E+00  0.84991276284E+00 -0.58878438123E+00  0.90007753834E+02  0.90000015385E+02 0.  0.
        -12    1    1    2    0    0 -0.56917682627E+00 -0.84991276284E+00  0.58878438123E+00  0.11802461657E+01  0.00000000000E+00 0.  1.
         11    1    3    3    0    0  0.57283337315E+01  0.33846242723E+02 -0.96227604475E+01  0.35650799047E+02  0.51100000000E-03 0. -1.
        -11    1    3    3    0    0  0.91798481598E+01  0.60607111844E+01 -0.22932690296E+01  0.11236588246E+02  0.51100000000E-03 0.  1.
        -12    1    3    3    0    0 -0.14339005065E+02 -0.39057041145E+02  0.11327245096E+02  0.43120366542E+02  0.00000000000E+00 0.  1.
</event>
<event>
 7    1  0.1978681E-015  0.9000758E+02  0.7816164E-02  0.1186339E+00
        -11   -1    0    0    0    0  0.00000000000E+00  0.00000000000E+00  0.45593999997E+02  0.45594000000E+02  0.51100000000E-03 0. -1.
         11   -1    0    0    0    0 -0.00000000000E+00 -0.00000000000E+00 -0.45593999997E+02  0.45594000000E+02  0.51100000000E-03 0.  1.
    9900012    2    1    2    0    0 -0.34287132932E+00  0.90741671091E+00 -0.67262426905E+00  0.90007580904E+02  0.89999840171E+02 0.  0.
        -12    1    1    2    0    0  0.34287132932E+00 -0.90741671091E+00  0.67262426905E+00  0.11804190963E+01  0.00000000000E+00 0.  1.
         11    1    3    3    0    0 -0.10796257256E+01  0.72890768607E+01  0.39697474211E+02  0.40375558104E+02  0.51100000000E-03 0. -1.
        -11    1    3    3    0    0 -0.73095885644E+01  0.80638163231E+01 -0.88097641373E+01  0.14002398476E+02  0.51100000000E-03 0.  1.
        -12    1    3    3    0    0  0.80463429606E+01 -0.14445476473E+02 -0.31560334343E+02  0.35629624323E+02  0.00000000000E+00 0.  1.
</event>
<event>
 7    1  0.1978681E-015  0.9000776E+02  0.7816164E-02  0.1186339E+00
        -11   -1    0    0    0    0  0.00000000000E+00  0.00000000000E+00  0.45593999997E+02  0.45594000000E+02  0.51100000000E-03 0.  1.
         11   -1    0    0    0    0 -0.00000000000E+00 -0.00000000000E+00 -0.45593999997E+02  0.45594000000E+02  0.51100000000E-03 0. -1.
    9900012    2    1    2    0    0  0.28784543563E+00 -0.52572695775E+00 -0.10167179217E+01  0.90007763091E+02  0.90000024764E+02 0.  0.
        -12    1    1    2    0    0 -0.28784543563E+00  0.52572695775E+00  0.10167179217E+01  0.11802369090E+01  0.00000000000E+00 0.  1.
         11    1    3    3    0    0 -0.33111475731E+02 -0.15890107299E+02 -0.42080529781E+00  0.36729312714E+02  0.51100000000E-03 0. -1.
        -11    1    3    3    0    0 -0.10678197048E+00 -0.10739588837E+02 -0.11408082773E+01  0.10800537698E+02  0.51100000000E-03 0.  1.
        -12    1    3    3    0    0  0.33506103137E+02  0.26103969178E+02  0.54489565337E+00  0.42477912679E+02  0.00000000000E+00 0.  1.
</event>
<event>
 7    1  0.1978681E-015  0.9000816E+02  0.7816164E-02  0.1186338E+00
        -11   -1    0    0    0    0  0.00000000000E+00  0.00000000000E+00  0.45593999997E+02  0.45594000000E+02  0.51100000000E-03 0.  1.
         11   -1    0    0    0    0 -0.00000000000E+00 -0.00000000000E+00 -0.45593999997E+02  0.45594000000E+02  0.51100000000E-03 0. -1.
    9900012    2    1    2    0    0 -0.65149800922E+00  0.94407422026E+00  0.27623281798E+00  0.90008156638E+02  0.90000423505E+02 0.  0.
        -12    1    1    2    0    0  0.65149800922E+00 -0.94407422026E+00 -0.27623281798E+00  0.11798433621E+01  0.00000000000E+00 0.  1.
         11    1    3    3    0    0 -0.73484239367E+01 -0.21458774361E+00  0.72909134391E+01  0.10353878563E+02  0.51100000000E-03 0. -1.
        -11    1    3    3    0    0  0.23721011437E+02  0.21139543647E+02  0.23413236058E+02  0.39468295025E+02  0.51100000000E-03 0.  1.
         12    1    3    3    0    0 -0.17024085510E+02 -0.19980881683E+02 -0.30427916679E+02  0.40185983050E+02  0.00000000000E+00 0. -1.
</event>
<event>
 7    1  0.1978681E-015  0.9000763E+02  0.7816164E-02  0.1186339E+00
        -11   -1    0    0    0    0  0.00000000000E+00  0.00000000000E+00  0.45593999997E+02  0.45594000000E+02  0.51100000000E-03 0. -1.
         11   -1    0    0    0    0 -0.00000000000E+00 -0.00000000000E+00 -0.45593999997E+02  0.45594000000E+02  0.51100000000E-03 0.  1.
    9900012    2    1    2    0    0 -0.97546503698E+00  0.48719554305E+00 -0.45209236981E+00  0.90007627581E+02  0.89999887465E+02 0.  0.
        -12    1    1    2    0    0  0.97546503698E+00 -0.48719554305E+00  0.45209236981E+00  0.11803724185E+01  0.00000000000E+00 0.  1.
         11    1    3    3    0    0  0.37337373559E+02 -0.56152061221E+01  0.13169856784E+02  0.39988187406E+02  0.51100000000E-03 0. -1.
        -11    1    3    3    0    0  0.36034527305E+01 -0.32356209072E+01 -0.32760039244E+01  0.58469065505E+01  0.51100000000E-03 0.  1.
        -12    1    3    3    0    0 -0.41916291326E+02  0.93380225724E+01 -0.10345945230E+02  0.44172533625E+02  0.00000000000E+00 0.  1.
</event>
<event>
 7    1  0.1978681E-015  0.9000763E+02  0.7816164E-02  0.1186339E+00
        -11   -1    0    0    0    0  0.00000000000E+00  0.00000000000E+00  0.45593999997E+02  0.45594000000E+02  0.51100000000E-03 0. -1.
         11   -1    0    0    0    0 -0.00000000000E+00 -0.00000000000E+00 -0.45593999997E+02  0.45594000000E+02  0.51100000000E-03 0.  1.
    9900012    2    1    2    0    0  0.89510794687E+00  0.65535088229E+00  0.40320563371E+00  0.90007628110E+02  0.89999888001E+02 0.  0.
        -12    1    1    2    0    0 -0.89510794687E+00 -0.65535088229E+00 -0.40320563371E+00  0.11803718899E+01  0.00000000000E+00 0.  1.
         11    1    3    3    0    0  0.36501069078E+01 -0.40368097514E+01  0.63569394633E+01  0.83683805487E+01  0.51100000000E-03 0. -1.
        -11    1    3    3    0    0  0.35631187271E+02 -0.60660804628E+01  0.11769478243E+02  0.38011833117E+02  0.51100000000E-03 0.  1.
         12    1    3    3    0    0 -0.38386186232E+02  0.10758241096E+02 -0.17723212073E+02  0.43627414444E+02  0.00000000000E+00 0. -1.
</event>
<event>
 7    1  0.1978681E-015  0.9000767E+02  0.7816164E-02  0.1186339E+00
        -11   -1    0    0    0    0  0.00000000000E+00  0.00000000000E+00  0.45593999997E+02  0.45594000000E+02  0.51100000000E-03 0.  1.
         11   -1    0    0    0    0 -0.00000000000E+00 -0.00000000000E+00 -0.45593999997E+02  0.45594000000E+02  0.51100000000E-03 0. -1.
    9900012    2    1    2    0    0 -0.67602265352E+00  0.75399293727E+00 -0.60635485968E+00  0.90007670303E+02  0.89999930751E+02 0.  0.
        -12    1    1    2    0    0  0.67602265352E+00 -0.75399293727E+00  0.60635485968E+00  0.11803296969E+01  0.00000000000E+00 0.  1.
         11    1    3    3    0    0 -0.60453811338E+01 -0.29868714522E+02 -0.20838043653E+02  0.36917621860E+02  0.51100000000E-03 0. -1.
        -11    1    3    3    0    0 -0.57660883372E+01 -0.66429492312E+01 -0.87233657908E+00  0.88395430068E+01  0.51100000000E-03 0.  1.
        -12    1    3    3    0    0  0.11135446817E+02  0.37265656691E+02  0.21104025372E+02  0.44250505436E+02  0.00000000000E+00 0.  1.
</event>
<event>
 7    1  0.2982120E-015  0.9000786E+02  0.7816164E-02  0.1186339E+00
        -11   -1    0    0    0    0  0.00000000000E+00  0.00000000000E+00  0.45593999997E+02  0.45594000000E+02  0.51100000000E-03 0. -1.
         11   -1    0    0    0    0 -0.00000000000E+00 -0.00000000000E+00 -0.45593999997E+02  0.45594000000E+02  0.51100000000E-03 0.  1.
    9900012    2    1    2    0    0  0.44883836483E+00  0.99903403936E+00  0.43955464822E+00  0.90007858831E+02  0.90000121768E+02 0.  0.
        -12    1    1    2    0    0 -0.44883836483E+00 -0.99903403936E+00 -0.43955464822E+00  0.11801411688E+01  0.00000000000E+00 0.  1.
         11    1    3    3    0    0 -0.92697040999E+01 -0.12379118084E+01 -0.12839599133E+01  0.94397242049E+01  0.51100000000E-03 0. -1.
        -11    1    3    3    0    0 -0.19891671401E+02  0.17101440655E+02 -0.26320785369E+02  0.37160753576E+02  0.51100000000E-03 0.  1.
         12    1    3    3    0    0  0.29610213865E+02 -0.14864494807E+02  0.28044299931E+02  0.43407381050E+02  0.00000000000E+00 0. -1.
</event>
<event>
 7    1  0.1978681E-015  0.9000775E+02  0.7816164E-02  0.1186339E+00
        -11   -1    0    0    0    0  0.00000000000E+00  0.00000000000E+00  0.45593999997E+02  0.45594000000E+02  0.51100000000E-03 0.  1.
         11   -1    0    0    0    0 -0.00000000000E+00 -0.00000000000E+00 -0.45593999997E+02  0.45594000000E+02  0.51100000000E-03 0. -1.
    9900012    2    1    2    0    0 -0.11351555524E+01 -0.31019611009E+00  0.90488690563E-01  0.90007750892E+02  0.90000012403E+02 0.  0.
        -12    1    1    2    0    0  0.11351555524E+01  0.31019611009E+00 -0.90488690563E-01  0.11802491084E+01  0.00000000000E+00 0.  1.
         11    1    3    3    0    0 -0.17392959062E+02 -0.28634481546E+02  0.11735440891E+02  0.35498860989E+02  0.51100000000E-03 0. -1.
        -11    1    3    3    0    0 -0.11179115342E+02 -0.23072253409E+01  0.10715778681E+01  0.11464911164E+02  0.51100000000E-03 0.  1.
        -12    1    3    3    0    0  0.27436918853E+02  0.30631510777E+02 -0.12716530068E+02  0.43043978738E+02  0.00000000000E+00 0.  1.
</event>
<event>
 7    1  0.1978681E-015  0.9000817E+02  0.7816164E-02  0.1186338E+00
        -11   -1    0    0    0    0  0.00000000000E+00  0.00000000000E+00  0.45593999997E+02  0.45594000000E+02  0.51100000000E-03 0. -1.
         11   -1    0    0    0    0 -0.00000000000E+00 -0.00000000000E+00 -0.45593999997E+02  0.45594000000E+02  0.51100000000E-03 0.  1.
    9900012    2    1    2    0    0 -0.10931899620E+01  0.44377777531E+00  0.10493866535E-02  0.90008167763E+02  0.90000434776E+02 0.  0.
        -12    1    1    2    0    0  0.10931899620E+01 -0.44377777531E+00 -0.10493866535E-02  0.11798322373E+01  0.00000000000E+00 0.  1.
         11    1    3    3    0    0  0.22920921517E+02  0.17838494092E+02  0.24124457092E+02  0.37756720526E+02  0.51100000000E-03 0. -1.
        -11    1    3    3    0    0  0.89923001424E+01 -0.37993142423E+01 -0.12176451705E+01  0.98376272844E+01  0.51100000000E-03 0.  1.
        -12    1    3    3    0    0 -0.33006411621E+02 -0.13595402074E+02 -0.22905762535E+02  0.42413819952E+02  0.00000000000E+00 0.  1.
</event>
<event>
 7    1  0.1978681E-015  0.9000772E+02  0.7816164E-02  0.1186339E+00
        -11   -1    0    0    0    0  0.00000000000E+00  0.00000000000E+00  0.45593999997E+02  0.45594000000E+02  0.51100000000E-03 0.  1.
         11   -1    0    0    0    0 -0.00000000000E+00 -0.00000000000E+00 -0.45593999997E+02  0.45594000000E+02  0.51100000000E-03 0. -1.
    9900012    2    1    2    0    0 -0.39762263695E+00 -0.63286202541E+00 -0.91347310370E+00  0.90007724093E+02  0.89999985251E+02 0.  0.
        -12    1    1    2    0    0  0.39762263695E+00  0.63286202541E+00  0.91347310370E+00  0.11802759066E+01  0.00000000000E+00 0.  1.
         11    1    3    3    0    0  0.67601603052E+01  0.72034476999E+01  0.11117513690E+00  0.98793616336E+01  0.51100000000E-03 0. -1.
        -11    1    3    3    0    0  0.35810689612E+02 -0.90647537640E+01 -0.32637425491E+01  0.37084056777E+02  0.51100000000E-03 0.  1.
         12    1    3    3    0    0 -0.42968472555E+02  0.12284440387E+01  0.22390943085E+01  0.43044305683E+02  0.00000000000E+00 0. -1.
</event>
<event>
 7    1  0.1978681E-015  0.9000768E+02  0.7816164E-02  0.1186339E+00
        -11   -1    0    0    0    0  0.00000000000E+00  0.00000000000E+00  0.45593999997E+02  0.45594000000E+02  0.51100000000E-03 0. -1.
         11   -1    0    0    0    0 -0.00000000000E+00 -0.00000000000E+00 -0.45593999997E+02  0.45594000000E+02  0.51100000000E-03 0.  1.
    9900012    2    1    2    0    0  0.32695161220E+00  0.82121332222E+00  0.78222419080E+00  0.90007676586E+02  0.89999937117E+02 0.  0.
        -12    1    1    2    0    0 -0.32695161220E+00 -0.82121332222E+00 -0.78222419080E+00  0.11803234141E+01  0.00000000000E+00 0.  1.
         11    1    3    3    0    0  0.40602711302E+01  0.33047506358E+01  0.63292744187E+01  0.82138233086E+01  0.51100000000E-03 0. -1.
        -11    1    3    3    0    0  0.13422770350E+02 -0.36170085402E+02  0.11595191960E+02  0.40285162513E+02  0.51100000000E-03 0.  1.
         12    1    3    3    0    0 -0.17156089868E+02  0.33686548088E+02 -0.17142242188E+02  0.41508690764E+02  0.00000000000E+00 0. -1.
</event>
<event>
 7    1  0.2304133E-015  0.9000773E+02  0.7816164E-02  0.1186339E+00
        -11   -1    0    0    0    0  0.00000000000E+00  0.00000000000E+00  0.45593999997E+02  0.45594000000E+02  0.51100000000E-03 0. -1.
         11   -1    0    0    0    0 -0.00000000000E+00 -0.00000000000E+00 -0.45593999997E+02  0.45594000000E+02  0.51100000000E-03 0.  1.
    9900012    2    1    2    0    0 -0.53240726993E-01 -0.11479778181E+01  0.26897321090E+00  0.90007731287E+02  0.89999992540E+02 0.  0.
        -12    1    1    2    0    0  0.53240726993E-01  0.11479778181E+01 -0.26897321090E+00  0.11802687127E+01  0.00000000000E+00 0.  1.
         11    1    3    3    0    0 -0.30002605378E+01  0.79944024322E+01 -0.45911829280E+01  0.96948952795E+01  0.51100000000E-03 0. -1.
        -11    1    3    3    0    0  0.12600146391E+01 -0.30095246103E+01 -0.37417451348E+02  0.37559426792E+02  0.51100000000E-03 0.  1.
         12    1    3    3    0    0  0.16870051717E+01 -0.61328556400E+01  0.42277607487E+02  0.42753409216E+02  0.00000000000E+00 0. -1.
</event>
<event>
 7    1  0.1978681E-015  0.9000775E+02  0.7816164E-02  0.1186339E+00
        -11   -1    0    0    0    0  0.00000000000E+00  0.00000000000E+00  0.45593999997E+02  0.45594000000E+02  0.51100000000E-03 0. -1.
         11   -1    0    0    0    0 -0.00000000000E+00 -0.00000000000E+00 -0.45593999997E+02  0.45594000000E+02  0.51100000000E-03 0.  1.
    9900012    2    1    2    0    0 -0.83799930723E+00 -0.65521689525E+00  0.51131005530E+00  0.90007750030E+02  0.90000011531E+02 0.  0.
        -12    1    1    2    0    0  0.83799930723E+00  0.65521689525E+00 -0.51131005530E+00  0.11802499699E+01  0.00000000000E+00 0.  1.
         11    1    3    3    0    0  0.98397840316E+01 -0.17953841129E+01  0.39500274184E+00  0.10010034032E+02  0.51100000000E-03 0. -1.
        -11    1    3    3    0    0 -0.41599706483E+01 -0.38789155967E+02  0.46454577575E+01  0.39287202172E+02  0.51100000000E-03 0.  1.
         12    1    3    3    0    0 -0.65178126905E+01  0.39929323185E+02 -0.45291504441E+01  0.40710513826E+02  0.00000000000E+00 0. -1.
</event>
<event>
 7    1  0.1978681E-015  0.9000775E+02  0.7816164E-02  0.1186339E+00
        -11   -1    0    0    0    0  0.00000000000E+00  0.00000000000E+00  0.45593999997E+02  0.45594000000E+02  0.51100000000E-03 0. -1.
         11   -1    0    0    0    0 -0.00000000000E+00 -0.00000000000E+00 -0.45593999997E+02  0.45594000000E+02  0.51100000000E-03 0.  1.
    9900012    2    1    2    0    0 -0.42201799982E+00  0.98070894815E+00  0.50307996702E+00  0.90007754819E+02  0.90000016383E+02 0.  0.
        -12    1    1    2    0    0  0.42201799982E+00 -0.98070894815E+00 -0.50307996702E+00  0.11802451806E+01  0.00000000000E+00 0.  1.
         11    1    3    3    0    0  0.37413980472E+02 -0.73331634193E+01 -0.15074091957E+02  0.40997676386E+02  0.51100000000E-03 0. -1.
        -11    1    3    3    0    0 -0.66496574541E-01 -0.17690164032E+01  0.92393985353E+01  0.94074612082E+01  0.51100000000E-03 0.  1.
        -12    1    3    3    0    0 -0.37769501897E+02  0.10082888771E+02  0.63377733889E+01  0.39602617225E+02  0.00000000000E+00 0.  1.
</event>
<event>
 7    1  0.1978681E-015  0.9000762E+02  0.7816164E-02  0.1186339E+00
        -11   -1    0    0    0    0  0.00000000000E+00  0.00000000000E+00  0.45593999997E+02  0.45594000000E+02  0.51100000000E-03 0.  1.
         11   -1    0    0    0    0 -0.00000000000E+00 -0.00000000000E+00 -0.45593999997E+02  0.45594000000E+02  0.51100000000E-03 0. -1.
    9900012    2    1    2    0    0  0.11260541318E+01 -0.32034323077E+00  0.15059119376E+00  0.90007620654E+02  0.89999880446E+02 0.  0.
        -12    1    1    2    0    0 -0.11260541318E+01  0.32034323077E+00 -0.15059119376E+00  0.11803793462E+01  0.00000000000E+00 0.  1.
         11    1    3    3    0    0 -0.13756213103E+02 -0.33075617853E+02 -0.26168106581E+02  0.44362142617E+02  0.51100000000E-03 0. -1.
        -11    1    3    3    0    0  0.18192773070E+01  0.10212247692E+02  0.33168811045E+01  0.10890430357E+02  0.51100000000E-03 0.  1.
        -12    1    3    3    0    0  0.13062989928E+02  0.22543026930E+02  0.23001816671E+02  0.34755047679E+02  0.00000000000E+00 0.  1.
</event>
<event>
 7    1  0.1978681E-015  0.9000768E+02  0.7816164E-02  0.1186339E+00
        -11   -1    0    0    0    0  0.00000000000E+00  0.00000000000E+00  0.45593999997E+02  0.45594000000E+02  0.51100000000E-03 0.  1.
         11   -1    0    0    0    0 -0.00000000000E+00 -0.00000000000E+00 -0.45593999997E+02  0.45594000000E+02  0.51100000000E-03 0. -1.
    9900012    2    1    2    0    0  0.60515047527E+00  0.37470686798E+00 -0.94156862119E+00  0.90007676399E+02  0.89999936927E+02 0.  0.
        -12    1    1    2    0    0 -0.60515047527E+00 -0.37470686798E+00  0.94156862119E+00  0.11803236010E+01  0.00000000000E+00 0.  1.
         11    1    3    3    0    0 -0.31775170519E+01  0.12782918746E+01 -0.89693097593E+01  0.96009979977E+01  0.51100000000E-03 0. -1.
        -11    1    3    3    0    0  0.24525194285E+02 -0.29308792527E+02 -0.11842851256E+02  0.40009293923E+02  0.51100000000E-03 0.  1.
         12    1    3    3    0    0 -0.20742526758E+02  0.28405207520E+02  0.19870592394E+02  0.40397384478E+02  0.00000000000E+00 0. -1.
</event>
<event>
 7    1  0.1978681E-015  0.9000777E+02  0.7816164E-02  0.1186339E+00
        -11   -1    0    0    0    0  0.00000000000E+00  0.00000000000E+00  0.45593999997E+02  0.45594000000E+02  0.51100000000E-03 0.  1.
         11   -1    0    0    0    0 -0.00000000000E+00 -0.00000000000E+00 -0.45593999997E+02  0.45594000000E+02  0.51100000000E-03 0. -1.
    9900012    2    1    2    0    0  0.11231209273E+01  0.23910241322E-01 -0.36190145019E+00  0.90007769100E+02  0.90000030852E+02 0.  0.
        -12    1    1    2    0    0 -0.11231209273E+01 -0.23910241322E-01  0.36190145019E+00  0.11802308997E+01  0.00000000000E+00 0.  1.
         11    1    3    3    0    0  0.94650909090E+01  0.38573823960E+00  0.30357379824E+01  0.99474843686E+01  0.51100000000E-03 0. -1.
        -11    1    3    3    0    0  0.35003176767E+02  0.18596791337E+01  0.62334943103E+01  0.35602489265E+02  0.51100000000E-03 0.  1.
         12    1    3    3    0    0 -0.43345146749E+02 -0.22215071320E+01 -0.96311337429E+01  0.44457795467E+02  0.00000000000E+00 0. -1.
</event>
<event>
 7    1  0.1978681E-015  0.9000743E+02  0.7816164E-02  0.1186340E+00
        -11   -1    0    0    0    0  0.00000000000E+00  0.00000000000E+00  0.45593999997E+02  0.45594000000E+02  0.51100000000E-03 0.  1.
         11   -1    0    0    0    0 -0.00000000000E+00 -0.00000000000E+00 -0.45593999997E+02  0.45594000000E+02  0.51100000000E-03 0. -1.
    9900012    2    1    2    0    0 -0.11126482573E+00  0.11641181896E+01  0.16182353585E+00  0.90007433239E+02  0.89999690557E+02 0.  0.
        -12    1    1    2    0    0  0.11126482573E+00 -0.11641181896E+01 -0.16182353585E+00  0.11805667612E+01  0.00000000000E+00 0.  1.
         11    1    3    3    0    0  0.90907668261E+01 -0.34544867647E+02 -0.79533317290E+01  0.36595702044E+02  0.51100000000E-03 0. -1.
        -11    1    3    3    0    0  0.55117241528E+01 -0.58847790112E+01  0.42731109057E+01  0.91251961196E+01  0.51100000000E-03 0.  1.
        -12    1    3    3    0    0 -0.14713755805E+02  0.41593764848E+02  0.38420443591E+01  0.44286535075E+02  0.00000000000E+00 0.  1.
</event>
<event>
 7    1  0.1978681E-015  0.9000777E+02  0.7816164E-02  0.1186339E+00
        -11   -1    0    0    0    0  0.00000000000E+00  0.00000000000E+00  0.45593999997E+02  0.45594000000E+02  0.51100000000E-03 0.  1.
         11   -1    0    0    0    0 -0.00000000000E+00 -0.00000000000E+00 -0.45593999997E+02  0.45594000000E+02  0.51100000000E-03 0. -1.
    9900012    2    1    2    0    0 -0.10345958161E+01 -0.56785839854E+00  0.91988862330E-02  0.90007772783E+02  0.90000034584E+02 0.  0.
        -12    1    1    2    0    0  0.10345958161E+01  0.56785839854E+00 -0.91988862330E-02  0.11802272167E+01  0.00000000000E+00 0.  1.
         11    1    3    3    0    0 -0.16242954502E+02 -0.18033856364E+02 -0.28950768811E+02  0.37778308079E+02  0.51100000000E-03 0. -1.
        -11    1    3    3    0    0 -0.34167149669E+01 -0.93634739676E+01  0.27147169155E+01  0.10330453722E+02  0.51100000000E-03 0.  1.
        -12    1    3    3    0    0  0.18625073652E+02  0.26829471933E+02  0.26245250782E+02  0.41899010983E+02  0.00000000000E+00 0.  1.
</event>
<event>
 7    1  0.1978681E-015  0.9000773E+02  0.7816164E-02  0.1186339E+00
        -11   -1    0    0    0    0  0.00000000000E+00  0.00000000000E+00  0.45593999997E+02  0.45594000000E+02  0.51100000000E-03 0.  1.
         11   -1    0    0    0    0 -0.00000000000E+00 -0.00000000000E+00 -0.45593999997E+02  0.45594000000E+02  0.51100000000E-03 0. -1.
    9900012    2    1    2    0    0  0.11632249462E+01 -0.19122539808E+00 -0.58063991824E-01  0.90007732719E+02  0.89999993991E+02 0.  0.
        -12    1    1    2    0    0 -0.11632249462E+01  0.19122539808E+00  0.58063991824E-01  0.11802672814E+01  0.00000000000E+00 0.  1.
         11    1    3    3    0    0  0.34530803256E+02 -0.26211227369E+02  0.22870470097E+01  0.43412387610E+02  0.51100000000E-03 0. -1.
        -11    1    3    3    0    0 -0.96898893166E+01 -0.18687540346E+01 -0.16427472556E+01  0.10004239872E+02  0.51100000000E-03 0.  1.
        -12    1    3    3    0    0 -0.23677688993E+02  0.27888756006E+02 -0.70236374599E+00  0.36591105237E+02  0.00000000000E+00 0.  1.
</event>
<event>
 7    1  0.1978681E-015  0.9000781E+02  0.7816164E-02  0.1186339E+00
        -11   -1    0    0    0    0  0.00000000000E+00  0.00000000000E+00  0.45593999997E+02  0.45594000000E+02  0.51100000000E-03 0.  1.
         11   -1    0    0    0    0 -0.00000000000E+00 -0.00000000000E+00 -0.45593999997E+02  0.45594000000E+02  0.51100000000E-03 0. -1.
    9900012    2    1    2    0    0  0.10926853649E+01 -0.44181688188E+00 -0.60744638908E-01  0.90007807908E+02  0.90000070172E+02 0.  0.
        -12    1    1    2    0    0 -0.10926853649E+01  0.44181688188E+00  0.60744638908E-01  0.11801920924E+01  0.00000000000E+00 0.  1.
         11    1    3    3    0    0 -0.12125753444E+01  0.72307802588E+01  0.91441231346E+00  0.73885500781E+01  0.51100000000E-03 0. -1.
        -11    1    3    3    0    0  0.18281488379E+02  0.33255064748E+02  0.50101533493E+01  0.38278111051E+02  0.51100000000E-03 0.  1.
         12    1    3    3    0    0 -0.15976227669E+02 -0.40927661889E+02 -0.59853103017E+01  0.44341146779E+02  0.00000000000E+00 0. -1.
</event>
<event>
 7    1  0.1978681E-015  0.9000768E+02  0.7816164E-02  0.1186339E+00
        -11   -1    0    0    0    0  0.00000000000E+00  0.00000000000E+00  0.45593999997E+02  0.45594000000E+02  0.51100000000E-03 0.  1.
         11   -1    0    0    0    0 -0.00000000000E+00 -0.00000000000E+00 -0.45593999997E+02  0.45594000000E+02  0.51100000000E-03 0. -1.
    9900012    2    1    2    0    0  0.47423051153E+00  0.44495339974E+00 -0.98503187741E+00  0.90007675508E+02  0.89999936025E+02 0.  0.
        -12    1    1    2    0    0 -0.47423051153E+00 -0.44495339974E+00  0.98503187741E+00  0.11803244916E+01  0.00000000000E+00 0.  1.
         11    1    3    3    0    0  0.69881418914E+01  0.63097939600E+01  0.13951508680E+01  0.95180918843E+01  0.51100000000E-03 0. -1.
        -11    1    3    3    0    0  0.25898661691E+02 -0.19083100898E+02  0.20979819684E+02  0.38406487102E+02  0.51100000000E-03 0.  1.
         12    1    3    3    0    0 -0.32412573071E+02  0.13218260338E+02 -0.23360002429E+02  0.42083096522E+02  0.00000000000E+00 0. -1.
</event>
<event>
 7    1  0.1978681E-015  0.9000767E+02  0.7816164E-02  0.1186339E+00
        -11   -1    0    0    0    0  0.00000000000E+00  0.00000000000E+00  0.45593999997E+02  0.45594000000E+02  0.51100000000E-03 0.  1.
         11   -1    0    0    0    0 -0.00000000000E+00 -0.00000000000E+00 -0.45593999997E+02  0.45594000000E+02  0.51100000000E-03 0. -1.
    9900012    2    1    2    0    0  0.11099362832E+01 -0.27001203457E+00 -0.29716722679E+00  0.90007672328E+02  0.89999932803E+02 0.  0.
        -12    1    1    2    0    0 -0.11099362832E+01  0.27001203457E+00  0.29716722679E+00  0.11803276716E+01  0.00000000000E+00 0.  1.
         11    1    3    3    0    0 -0.23444495178E+02 -0.29972413826E+02  0.41106968030E+00  0.38054683328E+02  0.51100000000E-03 0. -1.
        -11    1    3    3    0    0 -0.56829953946E+01 -0.37840071326E+01  0.80755638628E-01  0.68280061781E+01  0.51100000000E-03 0.  1.
        -12    1    3    3    0    0  0.30237426856E+02  0.33486408924E+02 -0.78899254572E+00  0.45124982822E+02  0.00000000000E+00 0.  1.
</event>
<event>
 7    1  0.1978681E-015  0.9000756E+02  0.7816164E-02  0.1186339E+00
        -11   -1    0    0    0    0  0.00000000000E+00  0.00000000000E+00  0.45593999997E+02  0.45594000000E+02  0.51100000000E-03 0.  1.
         11   -1    0    0    0    0 -0.00000000000E+00 -0.00000000000E+00 -0.45593999997E+02  0.45594000000E+02  0.51100000000E-03 0. -1.
    9900012    2    1    2    0    0  0.70778644472E+00 -0.63791810281E+00 -0.69680061272E+00  0.90007562687E+02  0.89999821714E+02 0.  0.
        -12    1    1    2    0    0 -0.70778644472E+00  0.63791810281E+00  0.69680061272E+00  0.11804373135E+01  0.00000000000E+00 0.  1.
         11    1    3    3    0    0 -0.14060354131E+02  0.17984508797E+02 -0.33124392777E+02  0.40228864166E+02  0.51100000000E-03 0. -1.
        -11    1    3    3    0    0  0.12368785147E+02 -0.45069203154E+01 -0.12108187790E+01  0.13219881206E+02  0.51100000000E-03 0.  1.
        -12    1    3    3    0    0  0.23993554291E+01 -0.14115506585E+02  0.33638410943E+02  0.36558817314E+02  0.00000000000E+00 0.  1.
</event>
<event>
 7    1  0.1978681E-015  0.9000769E+02  0.7816164E-02  0.1186339E+00
        -11   -1    0    0    0    0  0.00000000000E+00  0.00000000000E+00  0.45593999997E+02  0.45594000000E+02  0.51100000000E-03 0.  1.
         11   -1    0    0    0    0 -0.00000000000E+00 -0.00000000000E+00 -0.45593999997E+02  0.45594000000E+02  0.51100000000E-03 0. -1.
    9900012    2    1    2    0    0  0.22425624125E+00 -0.51412664478E-01 -0.11576684626E+01  0.90007690552E+02  0.89999951267E+02 0.  0.
        -12    1    1    2    0    0 -0.22425624125E+00  0.51412664478E-01  0.11576684626E+01  0.11803094480E+01  0.00000000000E+00 0.  1.
         11    1    3    3    0    0  0.88941301888E+01  0.23263278930E+01 -0.35772593330E+02  0.36935021147E+02  0.51100000000E-03 0. -1.
        -11    1    3    3    0    0  0.78342943691E+01  0.32569682963E+00 -0.55223344127E+01  0.95905382702E+01  0.51100000000E-03 0.  1.
        -12    1    3    3    0    0 -0.16504168317E+02 -0.27034373871E+01  0.40137259280E+02  0.43482131135E+02  0.00000000000E+00 0.  1.
</event>
<event>
 7    1  0.3728734E-015  0.9000772E+02  0.7816164E-02  0.1186339E+00
        -11   -1    0    0    0    0  0.00000000000E+00  0.00000000000E+00  0.45593999997E+02  0.45594000000E+02  0.51100000000E-03 0. -1.
         11   -1    0    0    0    0 -0.00000000000E+00 -0.00000000000E+00 -0.45593999997E+02  0.45594000000E+02  0.51100000000E-03 0.  1.
    9900012    2    1    2    0    0  0.72137926015E+00 -0.88647279100E-01  0.92994860572E+00  0.90007724275E+02  0.89999985436E+02 0.  0.
        -12    1    1    2    0    0 -0.72137926015E+00  0.88647279100E-01 -0.92994860572E+00  0.11802757247E+01  0.00000000000E+00 0.  1.
         11    1    3    3    0    0  0.48542984645E+01 -0.52878651599E+01  0.62468536899E+01  0.95157192485E+01  0.51100000000E-03 0. -1.
        -11    1    3    3    0    0 -0.42293906671E+01 -0.19828336381E+02 -0.35744295226E+02  0.41093859767E+02  0.51100000000E-03 0.  1.
         12    1    3    3    0    0  0.96471462779E-01  0.25027554262E+02  0.30427390142E+02  0.39398145260E+02  0.00000000000E+00 0. -1.
</event>
<event>
 7    1  0.1978681E-015  0.9000772E+02  0.7816164E-02  0.1186339E+00
        -11   -1    0    0    0    0  0.00000000000E+00  0.00000000000E+00  0.45593999997E+02  0.45594000000E+02  0.51100000000E-03 0. -1.
         11   -1    0    0    0    0 -0.00000000000E+00 -0.00000000000E+00 -0.45593999997E+02  0.45594000000E+02  0.51100000000E-03 0.  1.
    9900012    2    1    2    0    0 -0.11866799640E+00  0.11158887740E+01 -0.36574884679E+00  0.90007719496E+02  0.89999980593E+02 0.  0.
        -12    1    1    2    0    0  0.11866799640E+00 -0.11158887740E+01  0.36574884679E+00  0.11802805041E+01  0.00000000000E+00 0.  1.
         11    1    3    3    0    0  0.88287313564E+01  0.23124264679E+00 -0.13110882172E+01  0.89285454079E+01  0.51100000000E-03 0. -1.
        -11    1    3    3    0    0 -0.14565555702E+02 -0.37284892747E+02  0.10397659316E+02  0.41357344687E+02  0.51100000000E-03 0.  1.
         12    1    3    3    0    0  0.56181563489E+01  0.38169538874E+02 -0.94523199460E+01  0.39721829401E+02  0.00000000000E+00 0. -1.
</event>
<event>
 7    1  0.1978681E-015  0.9000790E+02  0.7816164E-02  0.1186339E+00
        -11   -1    0    0    0    0  0.00000000000E+00  0.00000000000E+00  0.45593999997E+02  0.45594000000E+02  0.51100000000E-03 0.  1.
         11   -1    0    0    0    0 -0.00000000000E+00 -0.00000000000E+00 -0.45593999997E+02  0.45594000000E+02  0.51100000000E-03 0. -1.
    9900012    2    1    2    0    0 -0.43231489476E-01 -0.83282618299E+00 -0.83497102985E+00  0.90007896177E+02  0.90000159606E+02 0.  0.
        -12    1    1    2    0    0  0.43231489476E-01  0.83282618299E+00  0.83497102985E+00  0.11801038232E+01  0.00000000000E+00 0.  1.
         11    1    3    3    0    0 -0.88879650174E+01  0.13661483518E+02  0.77509264061E+00  0.16316642514E+02  0.51100000000E-03 0. -1.
        -11    1    3    3    0    0  0.32335110425E+02  0.33197521712E+01 -0.20730068988E+02  0.38552767491E+02  0.51100000000E-03 0.  1.
         12    1    3    3    0    0 -0.23490376897E+02 -0.17814061872E+02  0.19120005318E+02  0.35138486173E+02  0.00000000000E+00 0. -1.
</event>
<event>
 7    1  0.1978681E-015  0.9000778E+02  0.7816164E-02  0.1186339E+00
        -11   -1    0    0    0    0  0.00000000000E+00  0.00000000000E+00  0.45593999997E+02  0.45594000000E+02  0.51100000000E-03 0.  1.
         11   -1    0    0    0    0 -0.00000000000E+00 -0.00000000000E+00 -0.45593999997E+02  0.45594000000E+02  0.51100000000E-03 0. -1.
    9900012    2    1    2    0    0  0.85437942072E+00 -0.76916276192E+00 -0.26709136839E+00  0.90007782500E+02  0.90000044429E+02 0.  0.
        -12    1    1    2    0    0 -0.85437942072E+00  0.76916276192E+00  0.26709136839E+00  0.11802175003E+01  0.00000000000E+00 0.  1.
         11    1    3    3    0    0 -0.20088163982E+01  0.31899777534E+02 -0.22143139069E+02  0.38883798144E+02  0.51100000000E-03 0. -1.
        -11    1    3    3    0    0  0.12067706808E+01  0.62881528888E+01  0.67413273713E+01  0.92974543406E+01  0.51100000000E-03 0.  1.
        -12    1    3    3    0    0  0.16564251381E+01 -0.38957093185E+02  0.15134720329E+02  0.41826530015E+02  0.00000000000E+00 0.  1.
</event>
<event>
 7    1  0.1978681E-015  0.9000776E+02  0.7816164E-02  0.1186339E+00
        -11   -1    0    0    0    0  0.00000000000E+00  0.00000000000E+00  0.45593999997E+02  0.45594000000E+02  0.51100000000E-03 0.  1.
         11   -1    0    0    0    0 -0.00000000000E+00 -0.00000000000E+00 -0.45593999997E+02  0.45594000000E+02  0.51100000000E-03 0. -1.
    9900012    2    1    2    0    0  0.75556181442E-01  0.57049100509E-01 -0.11764323463E+01  0.90007764260E+02  0.90000025948E+02 0.  0.
        -12    1    1    2    0    0 -0.75556181442E-01 -0.57049100509E-01  0.11764323463E+01  0.11802357400E+01  0.00000000000E+00 0.  1.
         11    1    3    3    0    0 -0.49334373914E+01  0.38558384353E+01 -0.79616614960E+01  0.10128886838E+02  0.51100000000E-03 0. -1.
        -11    1    3    3    0    0 -0.31593188495E+02  0.48384424527E+01 -0.16169984038E+02  0.35819107592E+02  0.51100000000E-03 0.  1.
         12    1    3    3    0    0  0.36602182068E+02 -0.86372317875E+01  0.22955213187E+02  0.44059769831E+02  0.00000000000E+00 0. -1.
</event>
<event>
 7    1  0.3106568E-015  0.9000775E+02  0.7816164E-02  0.1186339E+00
        -11   -1    0    0    0    0  0.00000000000E+00  0.00000000000E+00  0.45593999997E+02  0.45594000000E+02  0.51100000000E-03 0. -1.
         11   -1    0    0    0    0 -0.00000000000E+00 -0.00000000000E+00 -0.45593999997E+02  0.45594000000E+02  0.51100000000E-03 0.  1.
    9900012    2    1    2    0    0  0.10586993766E+01 -0.40714153386E-01  0.52008288842E+00  0.90007750779E+02  0.90000012290E+02 0.  0.
        -12    1    1    2    0    0 -0.10586993766E+01  0.40714153386E-01 -0.52008288842E+00  0.11802492208E+01  0.00000000000E+00 0.  1.
         11    1    3    3    0    0  0.91284329508E+01 -0.32389962025E+01  0.22598004999E+01  0.99461592133E+01  0.51100000000E-03 0. -1.
        -11    1    3    3    0    0  0.23398071278E+02  0.13717662202E+02 -0.27068632561E+02  0.38319118789E+02  0.51100000000E-03 0.  1.
         12    1    3    3    0    0 -0.31467804852E+02 -0.10519380152E+02  0.25328914949E+02  0.41742472777E+02  0.00000000000E+00 0. -1.
</event>
<event>
 7    1  0.1978681E-015  0.9000781E+02  0.7816164E-02  0.1186339E+00
        -11   -1    0    0    0    0  0.00000000000E+00  0.00000000000E+00  0.45593999997E+02  0.45594000000E+02  0.51100000000E-03 0.  1.
         11   -1    0    0    0    0 -0.00000000000E+00 -0.00000000000E+00 -0.45593999997E+02  0.45594000000E+02  0.51100000000E-03 0. -1.
    9900012    2    1    2    0    0 -0.42337968911E-01  0.45506935209E-01 -0.11785558802E+01  0.90007806225E+02  0.90000068467E+02 0.  0.
        -12    1    1    2    0    0  0.42337968911E-01 -0.45506935209E-01  0.11785558802E+01  0.11801937754E+01  0.00000000000E+00 0.  1.
         11    1    3    3    0    0 -0.42013666218E+01 -0.27981208513E+00 -0.91766202409E+01  0.10096540774E+02  0.51100000000E-03 0. -1.
        -11    1    3    3    0    0  0.17759102713E+02 -0.36257956760E+02  0.19947936015E+01  0.40422819785E+02  0.51100000000E-03 0.  1.
         12    1    3    3    0    0 -0.13600074060E+02  0.36583275780E+02  0.60032707592E+01  0.39488445666E+02  0.00000000000E+00 0. -1.
</event>
<event>
 7    1  0.1978681E-015  0.9000780E+02  0.7816164E-02  0.1186339E+00
        -11   -1    0    0    0    0  0.00000000000E+00  0.00000000000E+00  0.45593999997E+02  0.45594000000E+02  0.51100000000E-03 0. -1.
         11   -1    0    0    0    0 -0.00000000000E+00 -0.00000000000E+00 -0.45593999997E+02  0.45594000000E+02  0.51100000000E-03 0.  1.
    9900012    2    1    2    0    0  0.10753660482E+01  0.24895261929E+00  0.41770506772E+00  0.90007802106E+02  0.90000064294E+02 0.  0.
        -12    1    1    2    0    0 -0.10753660482E+01 -0.24895261929E+00 -0.41770506772E+00  0.11801978935E+01  0.00000000000E+00 0.  1.
         11    1    3    3    0    0  0.34645404750E+02 -0.11730559749E+02 -0.18748584919E+02  0.41102549058E+02  0.51100000000E-03 0. -1.
        -11    1    3    3    0    0 -0.65313337009E+01 -0.56124463114E+01 -0.36920087728E+01  0.93695678957E+01  0.51100000000E-03 0.  1.
        -12    1    3    3    0    0 -0.27038705001E+02  0.17591958680E+02  0.22858298759E+02  0.39535685153E+02  0.00000000000E+00 0.  1.
</event>
<event>
 7    1  0.1978681E-015  0.9000773E+02  0.7816164E-02  0.1186339E+00
        -11   -1    0    0    0    0  0.00000000000E+00  0.00000000000E+00  0.45593999997E+02  0.45594000000E+02  0.51100000000E-03 0.  1.
         11   -1    0    0    0    0 -0.00000000000E+00 -0.00000000000E+00 -0.45593999997E+02  0.45594000000E+02  0.51100000000E-03 0. -1.
    9900012    2    1    2    0    0 -0.11012789096E+01  0.37432028320E+00 -0.20023846914E+00  0.90007734625E+02  0.89999995922E+02 0.  0.
        -12    1    1    2    0    0  0.11012789096E+01 -0.37432028320E+00  0.20023846914E+00  0.11802653751E+01  0.00000000000E+00 0.  1.
         11    1    3    3    0    0  0.15033795307E+01  0.42811298764E+01 -0.92024366177E+01  0.10260266224E+02  0.51100000000E-03 0. -1.
        -11    1    3    3    0    0  0.59475638203E+01  0.36794142628E+02  0.38166057576E+00  0.37273691958E+02  0.51100000000E-03 0.  1.
         12    1    3    3    0    0 -0.85522222607E+01 -0.40700952221E+02  0.86205375728E+01  0.42473776443E+02  0.00000000000E+00 0. -1.
</event>
<event>
 7    1  0.1978681E-015  0.9000770E+02  0.7816164E-02  0.1186339E+00
        -11   -1    0    0    0    0  0.00000000000E+00  0.00000000000E+00  0.45593999997E+02  0.45594000000E+02  0.51100000000E-03 0.  1.
         11   -1    0    0    0    0 -0.00000000000E+00 -0.00000000000E+00 -0.45593999997E+02  0.45594000000E+02  0.51100000000E-03 0. -1.
    9900012    2    1    2    0    0  0.53393046247E+00 -0.92977979033E+00 -0.49348924100E+00  0.90007701805E+02  0.89999962669E+02 0.  0.
        -12    1    1    2    0    0 -0.53393046247E+00  0.92977979033E+00  0.49348924100E+00  0.11802981946E+01  0.00000000000E+00 0.  1.
         11    1    3    3    0    0 -0.14208634211E+01 -0.10422417164E+02 -0.38341522498E+02  0.39758244178E+02  0.51100000000E-03 0. -1.
        -11    1    3    3    0    0  0.10705664883E+02  0.19044983316E+01  0.21667666904E+00  0.10875905641E+02  0.51100000000E-03 0.  1.
        -12    1    3    3    0    0 -0.87508709989E+01  0.75881390418E+01  0.37631356588E+02  0.39373551986E+02  0.00000000000E+00 0.  1.
</event>
<event>
 7    1  0.1978681E-015  0.9000796E+02  0.7816164E-02  0.1186339E+00
        -11   -1    0    0    0    0  0.00000000000E+00  0.00000000000E+00  0.45593999997E+02  0.45594000000E+02  0.51100000000E-03 0. -1.
         11   -1    0    0    0    0 -0.00000000000E+00 -0.00000000000E+00 -0.45593999997E+02  0.45594000000E+02  0.51100000000E-03 0.  1.
    9900012    2    1    2    0    0  0.44965065355E+00 -0.10303502024E+01 -0.35872906815E+00  0.90007960257E+02  0.90000224532E+02 0.  0.
        -12    1    1    2    0    0 -0.44965065355E+00  0.10303502024E+01  0.35872906815E+00  0.11800397427E+01  0.00000000000E+00 0.  1.
         11    1    3    3    0    0 -0.81183722506E+01  0.22431923857E+01  0.13803581309E+02  0.16170304180E+02  0.51100000000E-03 0. -1.
        -11    1    3    3    0    0 -0.25090965974E+02  0.33174995729E+01 -0.27191940618E+02  0.37147866853E+02  0.51100000000E-03 0.  1.
         12    1    3    3    0    0  0.33658988878E+02 -0.65910421611E+01  0.13029630241E+02  0.36689789224E+02  0.00000000000E+00 0. -1.
</event>
<event>
 7    1  0.1978681E-015  0.9000778E+02  0.7816164E-02  0.1186339E+00
        -11   -1    0    0    0    0  0.00000000000E+00  0.00000000000E+00  0.45593999997E+02  0.45594000000E+02  0.51100000000E-03 0. -1.
         11   -1    0    0    0    0 -0.00000000000E+00 -0.00000000000E+00 -0.45593999997E+02  0.45594000000E+02  0.51100000000E-03 0.  1.
    9900012    2    1    2    0    0 -0.14022607836E-01 -0.17879234778E+00  0.11665138819E+01  0.90007780540E+02  0.90000042443E+02 0.  0.
        -12    1    1    2    0    0  0.14022607836E-01  0.17879234778E+00 -0.11665138819E+01  0.11802194601E+01  0.00000000000E+00 0.  1.
         11    1    3    3    0    0 -0.21366169955E+01  0.13995424155E+02 -0.17787494437E+01  0.14268881502E+02  0.51100000000E-03 0. -1.
        -11    1    3    3    0    0 -0.19372546542E+02  0.24617970993E+02  0.75740300971E+00  0.31335502468E+02  0.51100000000E-03 0.  1.
         12    1    3    3    0    0  0.21495140930E+02 -0.38792187495E+02  0.21878603159E+01  0.44403396571E+02  0.00000000000E+00 0. -1.
</event>
<event>
 7    1  0.1978681E-015  0.9000771E+02  0.7816164E-02  0.1186339E+00
        -11   -1    0    0    0    0  0.00000000000E+00  0.00000000000E+00  0.45593999997E+02  0.45594000000E+02  0.51100000000E-03 0.  1.
         11   -1    0    0    0    0 -0.00000000000E+00 -0.00000000000E+00 -0.45593999997E+02  0.45594000000E+02  0.51100000000E-03 0. -1.
    9900012    2    1    2    0    0  0.17358408648E+00  0.61687281235E+00 -0.99117673937E+00  0.90007705617E+02  0.89999966531E+02 0.  0.
        -12    1    1    2    0    0 -0.17358408648E+00 -0.61687281235E+00  0.99117673937E+00  0.11802943829E+01  0.00000000000E+00 0.  1.
         11    1    3    3    0    0 -0.11186994604E+02  0.59171803511E+01 -0.42056024377E+01  0.13336002539E+02  0.51100000000E-03 0. -1.
        -11    1    3    3    0    0 -0.25675091127E+02 -0.19339557349E+02  0.14824692784E+02  0.35397744268E+02  0.51100000000E-03 0.  1.
         12    1    3    3    0    0  0.37035669818E+02  0.14039249810E+02 -0.11610267086E+02  0.41273958811E+02  0.00000000000E+00 0. -1.
</event>
<event>
 7    1  0.1978681E-015  0.9000773E+02  0.7816164E-02  0.1186339E+00
        -11   -1    0    0    0    0  0.00000000000E+00  0.00000000000E+00  0.45593999997E+02  0.45594000000E+02  0.51100000000E-03 0. -1.
         11   -1    0    0    0    0 -0.00000000000E+00 -0.00000000000E+00 -0.45593999997E+02  0.45594000000E+02  0.51100000000E-03 0.  1.
    9900012    2    1    2    0    0  0.81946751569E-01 -0.11770224253E+01  0.30723933427E-01  0.90007728413E+02  0.89999989628E+02 0.  0.
        -12    1    1    2    0    0 -0.81946751569E-01  0.11770224253E+01 -0.30723933427E-01  0.11802715873E+01  0.00000000000E+00 0.  1.
         11    1    3    3    0    0 -0.77828177974E-01  0.96303152938E+01  0.18994636261E+01  0.98161597487E+01  0.51100000000E-03 0. -1.
        -11    1    3    3    0    0  0.46968533074E+00 -0.40235171007E+01 -0.40634288926E+02  0.40835704120E+02  0.51100000000E-03 0.  1.
         12    1    3    3    0    0 -0.30991040120E+00 -0.67838206184E+01  0.38765549233E+02  0.39355864544E+02  0.00000000000E+00 0. -1.
</event>
<event>
 7    1  0.1978681E-015  0.9000769E+02  0.7816164E-02  0.1186339E+00
        -11   -1    0    0    0    0  0.00000000000E+00  0.00000000000E+00  0.45593999997E+02  0.45594000000E+02  0.51100000000E-03 0.  1.
         11   -1    0    0    0    0 -0.00000000000E+00 -0.00000000000E+00 -0.45593999997E+02  0.45594000000E+02  0.51100000000E-03 0. -1.
    9900012    2    1    2    0    0  0.75674807872E-01  0.58681772674E+00 -0.10212972620E+01  0.90007690795E+02  0.89999951514E+02 0.  0.
        -12    1    1    2    0    0 -0.75674807872E-01 -0.58681772674E+00  0.10212972620E+01  0.11803092046E+01  0.00000000000E+00 0.  1.
         11    1    3    3    0    0 -0.76000563013E+00  0.98715064972E+01 -0.55535848604E+01  0.11351940545E+02  0.51100000000E-03 0. -1.
        -11    1    3    3    0    0  0.36591043765E+02 -0.19248653939E+02  0.39514024954E+01  0.41533465353E+02  0.51100000000E-03 0.  1.
         12    1    3    3    0    0 -0.35755363327E+02  0.99639651686E+01  0.58088510290E+00  0.37122284898E+02  0.00000000000E+00 0. -1.
</event>
<event>
 7    1  0.1978681E-015  0.9000767E+02  0.7816164E-02  0.1186339E+00
        -11   -1    0    0    0    0  0.00000000000E+00  0.00000000000E+00  0.45593999997E+02  0.45594000000E+02  0.51100000000E-03 0.  1.
         11   -1    0    0    0    0 -0.00000000000E+00 -0.00000000000E+00 -0.45593999997E+02  0.45594000000E+02  0.51100000000E-03 0. -1.
    9900012    2    1    2    0    0  0.96364724613E+00  0.47018961062E+00  0.49344517708E+00  0.90007668509E+02  0.89999928934E+02 0.  0.
        -12    1    1    2    0    0 -0.96364724613E+00 -0.47018961062E+00 -0.49344517708E+00  0.11803314906E+01  0.00000000000E+00 0.  1.
         11    1    3    3    0    0  0.10874367038E+02  0.18066418332E+01 -0.37706653105E+01  0.11650481979E+02  0.51100000000E-03 0. -1.
        -11    1    3    3    0    0  0.23536418872E+02 -0.63987909905E+01 -0.24042390957E+02  0.34248271528E+02  0.51100000000E-03 0.  1.
         12    1    3    3    0    0 -0.33447138664E+02  0.50623387679E+01  0.28306501445E+02  0.44108915002E+02  0.00000000000E+00 0. -1.
</event>
<event>
 7    1  0.1978681E-015  0.9000776E+02  0.7816164E-02  0.1186339E+00
        -11   -1    0    0    0    0  0.00000000000E+00  0.00000000000E+00  0.45593999997E+02  0.45594000000E+02  0.51100000000E-03 0.  1.
         11   -1    0    0    0    0 -0.00000000000E+00 -0.00000000000E+00 -0.45593999997E+02  0.45594000000E+02  0.51100000000E-03 0. -1.
    9900012    2    1    2    0    0 -0.19974745789E+00  0.73952824141E+00 -0.89787114642E+00  0.90007756948E+02  0.90000018539E+02 0.  0.
        -12    1    1    2    0    0  0.19974745789E+00 -0.73952824141E+00  0.89787114642E+00  0.11802430522E+01  0.00000000000E+00 0.  1.
         11    1    3    3    0    0 -0.11212180851E+02  0.66440138338E+01 -0.37304865544E+02  0.39515932392E+02  0.51100000000E-03 0. -1.
        -11    1    3    3    0    0 -0.97597183607E+01 -0.13854484252E+01  0.20167902783E+01  0.10061759941E+02  0.51100000000E-03 0.  1.
        -12    1    3    3    0    0  0.20772151754E+02 -0.45190371671E+01  0.34390204119E+02  0.40430064615E+02  0.00000000000E+00 0.  1.
</event>
<event>
 7    1  0.1978681E-015  0.9000772E+02  0.7816164E-02  0.1186339E+00
        -11   -1    0    0    0    0  0.00000000000E+00  0.00000000000E+00  0.45593999997E+02  0.45594000000E+02  0.51100000000E-03 0. -1.
         11   -1    0    0    0    0 -0.00000000000E+00 -0.00000000000E+00 -0.45593999997E+02  0.45594000000E+02  0.51100000000E-03 0.  1.
    9900012    2    1    2    0    0  0.42754180208E-01  0.63630373928E-01 -0.11777924353E+01  0.90007715388E+02  0.89999976431E+02 0.  0.
        -12    1    1    2    0    0 -0.42754180208E-01 -0.63630373928E-01  0.11777924353E+01  0.11802846119E+01  0.00000000000E+00 0.  1.
         11    1    3    3    0    0  0.10711717302E+02  0.54382865739E+01 -0.34734826965E+00  0.12018173717E+02  0.51100000000E-03 0. -1.
        -11    1    3    3    0    0  0.24429431606E+01  0.11512205425E+02 -0.35421140793E+02  0.37325005832E+02  0.51100000000E-03 0.  1.
         12    1    3    3    0    0 -0.13111906282E+02 -0.16886861625E+02  0.34590696627E+02  0.40664535839E+02  0.00000000000E+00 0. -1.
</event>
<event>
 7    1  0.1978681E-015  0.9000786E+02  0.7816164E-02  0.1186339E+00
        -11   -1    0    0    0    0  0.00000000000E+00  0.00000000000E+00  0.45593999997E+02  0.45594000000E+02  0.51100000000E-03 0.  1.
         11   -1    0    0    0    0 -0.00000000000E+00 -0.00000000000E+00 -0.45593999997E+02  0.45594000000E+02  0.51100000000E-03 0. -1.
    9900012    2    1    2    0    0  0.45111139449E+00  0.63392942027E-01 -0.10886789081E+01  0.90007855127E+02  0.90000118015E+02 0.  0.
        -12    1    1    2    0    0 -0.45111139449E+00 -0.63392942027E-01  0.10886789081E+01  0.11801448725E+01  0.00000000000E+00 0.  1.
         11    1    3    3    0    0  0.12994486298E+01  0.73313437301E+01  0.11853830604E+02  0.13998230884E+02  0.51100000000E-03 0. -1.
        -11    1    3    3    0    0 -0.13286100212E+02  0.31100398286E+02 -0.58294983535E+00  0.33824474322E+02  0.51100000000E-03 0.  1.
         12    1    3    3    0    0  0.12437762976E+02 -0.38368349074E+02 -0.12359559677E+02  0.42185149922E+02  0.00000000000E+00 0. -1.
</event>
<event>
 7    1  0.2143333E-015  0.9000780E+02  0.7816164E-02  0.1186339E+00
        -11   -1    0    0    0    0  0.00000000000E+00  0.00000000000E+00  0.45593999997E+02  0.45594000000E+02  0.51100000000E-03 0.  1.
         11   -1    0    0    0    0 -0.00000000000E+00 -0.00000000000E+00 -0.45593999997E+02  0.45594000000E+02  0.51100000000E-03 0. -1.
    9900012    2    1    2    0    0 -0.93693943430E-01 -0.47699415150E+00 -0.10754436364E+01  0.90007796208E+02  0.90000058318E+02 0.  0.
        -12    1    1    2    0    0  0.93693943430E-01  0.47699415150E+00  0.10754436364E+01  0.11802037920E+01  0.00000000000E+00 0.  1.
         11    1    3    3    0    0  0.76062643415E+01 -0.63128628218E+01 -0.74435017864E-01  0.98849903932E+01  0.51100000000E-03 0. -1.
        -11    1    3    3    0    0  0.15892406244E+02 -0.20033926290E+01  0.33771217674E+02  0.37377497264E+02  0.51100000000E-03 0.  1.
         12    1    3    3    0    0 -0.23592364529E+02  0.78392612993E+01 -0.34772226293E+02  0.42745308551E+02  0.00000000000E+00 0. -1.
</event>
<event>
 7    1  0.1978681E-015  0.9000774E+02  0.7816164E-02  0.1186339E+00
        -11   -1    0    0    0    0  0.00000000000E+00  0.00000000000E+00  0.45593999997E+02  0.45594000000E+02  0.51100000000E-03 0. -1.
         11   -1    0    0    0    0 -0.00000000000E+00 -0.00000000000E+00 -0.45593999997E+02  0.45594000000E+02  0.51100000000E-03 0.  1.
    9900012    2    1    2    0    0 -0.93559282124E+00  0.90725625753E-02  0.71944400870E+00  0.90007739046E+02  0.90000000401E+02 0.  0.
        -12    1    1    2    0    0  0.93559282124E+00 -0.90725625753E-02 -0.71944400870E+00  0.11802609543E+01  0.00000000000E+00 0.  1.
         11    1    3    3    0    0  0.50233853012E+01 -0.38427429303E+01  0.96416145374E+01  0.11530906481E+02  0.51100000000E-03 0. -1.
        -11    1    3    3    0    0 -0.33568242336E+02 -0.18476299111E+02  0.79989614643E+01  0.39143120815E+02  0.51100000000E-03 0.  1.
         12    1    3    3    0    0  0.27609264213E+02  0.22328114604E+02 -0.16921131993E+02  0.39333711751E+02  0.00000000000E+00 0. -1.
</event>
<event>
 7    1  0.1978681E-015  0.9000767E+02  0.7816164E-02  0.1186339E+00
        -11   -1    0    0    0    0  0.00000000000E+00  0.00000000000E+00  0.45593999997E+02  0.45594000000E+02  0.51100000000E-03 0. -1.
         11   -1    0    0    0    0 -0.00000000000E+00 -0.00000000000E+00 -0.45593999997E+02  0.45594000000E+02  0.51100000000E-03 0.  1.
    9900012    2    1    2    0    0  0.90022113168E+00  0.11516256845E+00  0.75466341198E+00  0.90007670653E+02  0.89999931105E+02 0.  0.
        -12    1    1    2    0    0 -0.90022113168E+00 -0.11516256845E+00 -0.75466341198E+00  0.11803293475E+01  0.00000000000E+00 0.  1.
         11    1    3    3    0    0 -0.44331146708E+00 -0.25751820458E+02  0.24934591297E+02  0.35848104906E+02  0.51100000000E-03 0. -1.
        -11    1    3    3    0    0  0.21343809488E+01 -0.10507337266E+02 -0.46869869011E+00  0.10732166472E+02  0.51100000000E-03 0.  1.
        -12    1    3    3    0    0 -0.79084835003E+00  0.36374320292E+02 -0.23711229195E+02  0.43427399275E+02  0.00000000000E+00 0.  1.
</event>
<event>
 7    1  0.1978681E-015  0.9000762E+02  0.7816164E-02  0.1186339E+00
        -11   -1    0    0    0    0  0.00000000000E+00  0.00000000000E+00  0.45593999997E+02  0.45594000000E+02  0.51100000000E-03 0. -1.
         11   -1    0    0    0    0 -0.00000000000E+00 -0.00000000000E+00 -0.45593999997E+02  0.45594000000E+02  0.51100000000E-03 0.  1.
    9900012    2    1    2    0    0  0.26388817443E+00  0.13727707388E+00  0.11422879757E+01  0.90007617103E+02  0.89999876849E+02 0.  0.
        -12    1    1    2    0    0 -0.26388817443E+00 -0.13727707388E+00 -0.11422879757E+01  0.11803828968E+01  0.00000000000E+00 0.  1.
         11    1    3    3    0    0 -0.13088207347E+02 -0.38908129463E+02  0.16230389849E+02  0.44142601473E+02  0.51100000000E-03 0. -1.
        -11    1    3    3    0    0 -0.25286825857E+01  0.80342236586E+01 -0.20879831354E+01  0.86777104844E+01  0.51100000000E-03 0.  1.
        -12    1    3    3    0    0  0.15880778108E+02  0.31011182878E+02 -0.13000118738E+02  0.37187305146E+02  0.00000000000E+00 0.  1.
</event>
<event>
 7    1  0.1978681E-015  0.9000771E+02  0.7816164E-02  0.1186339E+00
        -11   -1    0    0    0    0  0.00000000000E+00  0.00000000000E+00  0.45593999997E+02  0.45594000000E+02  0.51100000000E-03 0.  1.
         11   -1    0    0    0    0 -0.00000000000E+00 -0.00000000000E+00 -0.45593999997E+02  0.45594000000E+02  0.51100000000E-03 0. -1.
    9900012    2    1    2    0    0 -0.10713666405E+01  0.19435897099E+00 -0.45549512726E+00  0.90007712874E+02  0.89999973884E+02 0.  0.
        -12    1    1    2    0    0  0.10713666405E+01 -0.19435897099E+00  0.45549512726E+00  0.11802871256E+01  0.00000000000E+00 0.  1.
         11    1    3    3    0    0 -0.84964228295E+01 -0.45154923579E+01  0.35245244721E+01  0.10247006643E+02  0.51100000000E-03 0. -1.
        -11    1    3    3    0    0  0.58457824094E+01  0.23191427275E+02  0.31603210837E+02  0.39633046899E+02  0.51100000000E-03 0.  1.
         12    1    3    3    0    0  0.15792737796E+01 -0.18481575946E+02 -0.35583230437E+02  0.40127659332E+02  0.00000000000E+00 0. -1.
</event>
<event>
 7    1  0.1978681E-015  0.9000794E+02  0.7816164E-02  0.1186339E+00
        -11   -1    0    0    0    0  0.00000000000E+00  0.00000000000E+00  0.45593999997E+02  0.45594000000E+02  0.51100000000E-03 0.  1.
         11   -1    0    0    0    0 -0.00000000000E+00 -0.00000000000E+00 -0.45593999997E+02  0.45594000000E+02  0.51100000000E-03 0. -1.
    9900012    2    1    2    0    0 -0.34229238788E+00 -0.45024899156E+00  0.10356843019E+01  0.90007944829E+02  0.90000208901E+02 0.  0.
        -12    1    1    2    0    0  0.34229238788E+00  0.45024899156E+00 -0.10356843019E+01  0.11800551709E+01  0.00000000000E+00 0.  1.
         11    1    3    3    0    0  0.23543116751E+02  0.10681595360E+02 -0.21504164342E+02  0.33627427943E+02  0.51100000000E-03 0. -1.
        -11    1    3    3    0    0  0.70772207807E+01 -0.70410498429E+01 -0.79286090227E+01  0.12748579457E+02  0.51100000000E-03 0.  1.
        -12    1    3    3    0    0 -0.30962629919E+02 -0.40907945082E+01  0.30468457667E+02  0.43631937429E+02  0.00000000000E+00 0.  1.
</event>
<event>
 7    1  0.1978681E-015  0.9000775E+02  0.7816164E-02  0.1186339E+00
        -11   -1    0    0    0    0  0.00000000000E+00  0.00000000000E+00  0.45593999997E+02  0.45594000000E+02  0.51100000000E-03 0. -1.
         11   -1    0    0    0    0 -0.00000000000E+00 -0.00000000000E+00 -0.45593999997E+02  0.45594000000E+02  0.51100000000E-03 0.  1.
    9900012    2    1    2    0    0 -0.29094932971E+00  0.11012164673E+01  0.30928436405E+00  0.90007751705E+02  0.90000013227E+02 0.  0.
        -12    1    1    2    0    0  0.29094932971E+00 -0.11012164673E+01 -0.30928436405E+00  0.11802482951E+01  0.00000000000E+00 0.  1.
         11    1    3    3    0    0  0.21367082070E+02 -0.23960832395E+02  0.20988430479E+02  0.38356067310E+02  0.51100000000E-03 0. -1.
        -11    1    3    3    0    0  0.59283027819E+01  0.38613159598E+01  0.47811797399E+01  0.85389820694E+01  0.51100000000E-03 0.  1.
        -12    1    3    3    0    0 -0.27586334182E+02  0.21200732903E+02 -0.25460325855E+02  0.43112702326E+02  0.00000000000E+00 0.  1.
</event>
<event>
 7    1  0.1978681E-015  0.9000775E+02  0.7816164E-02  0.1186339E+00
        -11   -1    0    0    0    0  0.00000000000E+00  0.00000000000E+00  0.45593999997E+02  0.45594000000E+02  0.51100000000E-03 0.  1.
         11   -1    0    0    0    0 -0.00000000000E+00 -0.00000000000E+00 -0.45593999997E+02  0.45594000000E+02  0.51100000000E-03 0. -1.
    9900012    2    1    2    0    0 -0.97859628748E+00  0.65884025608E+00  0.35746689801E-01  0.90007746213E+02  0.90000007663E+02 0.  0.
        -12    1    1    2    0    0  0.97859628748E+00 -0.65884025608E+00 -0.35746689801E-01  0.11802537874E+01  0.00000000000E+00 0.  1.
         11    1    3    3    0    0  0.21343098946E+01  0.75140084180E+01 -0.57445016355E+01  0.96961281207E+01  0.51100000000E-03 0. -1.
        -11    1    3    3    0    0 -0.34912424095E+02 -0.52336531570E+01  0.24873274472E+02  0.43185046773E+02  0.51100000000E-03 0.  1.
         12    1    3    3    0    0  0.31799517913E+02 -0.16215150049E+01 -0.19093026147E+02  0.37126571319E+02  0.00000000000E+00 0. -1.
</event>
<event>
 7    1  0.1978681E-015  0.9000781E+02  0.7816164E-02  0.1186339E+00
        -11   -1    0    0    0    0  0.00000000000E+00  0.00000000000E+00  0.45593999997E+02  0.45594000000E+02  0.51100000000E-03 0.  1.
         11   -1    0    0    0    0 -0.00000000000E+00 -0.00000000000E+00 -0.45593999997E+02  0.45594000000E+02  0.51100000000E-03 0. -1.
    9900012    2    1    2    0    0  0.88480069233E+00 -0.77393223059E+00  0.10486136176E+00  0.90007813884E+02  0.90000076227E+02 0.  0.
        -12    1    1    2    0    0 -0.88480069233E+00  0.77393223059E+00 -0.10486136176E+00  0.11801861158E+01  0.00000000000E+00 0.  1.
         11    1    3    3    0    0  0.62716286034E+01  0.81092243929E+01 -0.34229133075E+01  0.10807829632E+02  0.51100000000E-03 0. -1.
        -11    1    3    3    0    0  0.32904662077E+02  0.58417299493E+01 -0.11746809887E+02  0.35423581665E+02  0.51100000000E-03 0.  1.
         12    1    3    3    0    0 -0.38291489988E+02 -0.14724886573E+02  0.15274584556E+02  0.43776402587E+02  0.00000000000E+00 0. -1.
</event>
<event>
 7    1  0.1978681E-015  0.9000770E+02  0.7816164E-02  0.1186339E+00
        -11   -1    0    0    0    0  0.00000000000E+00  0.00000000000E+00  0.45593999997E+02  0.45594000000E+02  0.51100000000E-03 0. -1.
         11   -1    0    0    0    0 -0.00000000000E+00 -0.00000000000E+00 -0.45593999997E+02  0.45594000000E+02  0.51100000000E-03 0.  1.
    9900012    2    1    2    0    0 -0.26847735594E+00 -0.11475765060E+01 -0.63959839591E-01  0.90007702246E+02  0.89999963115E+02 0.  0.
        -12    1    1    2    0    0  0.26847735594E+00  0.11475765060E+01  0.63959839591E-01  0.11802977543E+01  0.00000000000E+00 0.  1.
         11    1    3    3    0    0 -0.30347638639E+02  0.80888777206E+01  0.22213014000E+02  0.38468520961E+02  0.51100000000E-03 0. -1.
        -11    1    3    3    0    0  0.40544960942E+01 -0.29643579306E+01  0.90390226067E+01  0.10340710153E+02  0.51100000000E-03 0.  1.
        -12    1    3    3    0    0  0.26024665189E+02 -0.62720962959E+01 -0.31315996447E+02  0.41198471131E+02  0.00000000000E+00 0.  1.
</event>
<event>
 7    1  0.1978681E-015  0.9000688E+02  0.7816164E-02  0.1186341E+00
        -11   -1    0    0    0    0  0.00000000000E+00  0.00000000000E+00  0.45593999997E+02  0.45594000000E+02  0.51100000000E-03 0. -1.
         11   -1    0    0    0    0 -0.00000000000E+00 -0.00000000000E+00 -0.45593999997E+02  0.45594000000E+02  0.51100000000E-03 0.  1.
    9900012    2    1    2    0    0 -0.62619844196E+00 -0.33821463857E+00 -0.94262390711E+00  0.90006876187E+02  0.89999126149E+02 0.  0.
        -12    1    1    2    0    0  0.62619844196E+00  0.33821463857E+00  0.94262390711E+00  0.11811238126E+01  0.00000000000E+00 0.  1.
         11    1    3    3    0    0  0.61066105330E+01  0.14705729400E+02  0.38788143866E+02  0.41929336677E+02  0.51100000000E-03 0. -1.
        -11    1    3    3    0    0 -0.16995125641E+01  0.53770793310E+01 -0.53466774267E+01  0.77709899533E+01  0.51100000000E-03 0.  1.
        -12    1    3    3    0    0 -0.50332964109E+01 -0.20421023369E+02 -0.34384090346E+02  0.40306549557E+02  0.00000000000E+00 0.  1.
</event>
<event>
 7    1  0.1978681E-015  0.9000779E+02  0.7816164E-02  0.1186339E+00
        -11   -1    0    0    0    0  0.00000000000E+00  0.00000000000E+00  0.45593999997E+02  0.45594000000E+02  0.51100000000E-03 0.  1.
         11   -1    0    0    0    0 -0.00000000000E+00 -0.00000000000E+00 -0.45593999997E+02  0.45594000000E+02  0.51100000000E-03 0. -1.
    9900012    2    1    2    0    0 -0.72511361627E+00 -0.53141689331E+00 -0.76466044187E+00  0.90007788467E+02  0.90000050475E+02 0.  0.
        -12    1    1    2    0    0  0.72511361627E+00  0.53141689331E+00  0.76466044187E+00  0.11802115329E+01  0.00000000000E+00 0.  1.
         11    1    3    3    0    0  0.25069573098E+01  0.57160277936E+01 -0.80549859694E+01  0.10190221191E+02  0.51100000000E-03 0. -1.
        -11    1    3    3    0    0  0.20719353632E+02  0.79055899124E+01  0.34428748373E+02  0.40952761587E+02  0.51100000000E-03 0.  1.
         12    1    3    3    0    0 -0.23951424558E+02 -0.14153034599E+02 -0.27138422846E+02  0.38864805689E+02  0.00000000000E+00 0. -1.
</event>
<event>
 7    1  0.1978681E-015  0.9000776E+02  0.7816164E-02  0.1186339E+00
        -11   -1    0    0    0    0  0.00000000000E+00  0.00000000000E+00  0.45593999997E+02  0.45594000000E+02  0.51100000000E-03 0. -1.
         11   -1    0    0    0    0 -0.00000000000E+00 -0.00000000000E+00 -0.45593999997E+02  0.45594000000E+02  0.51100000000E-03 0.  1.
    9900012    2    1    2    0    0 -0.56025744920E+00 -0.50259023870E-01  0.10375707930E+01  0.90007759546E+02  0.90000021172E+02 0.  0.
        -12    1    1    2    0    0  0.56025744920E+00  0.50259023870E-01 -0.10375707930E+01  0.11802404541E+01  0.00000000000E+00 0.  1.
         11    1    3    3    0    0  0.43069629927E+01  0.16041212983E+02  0.54554999653E+01  0.17482360376E+02  0.51100000000E-03 0. -1.
        -11    1    3    3    0    0 -0.33249279445E+01 -0.43436548619E+02  0.43187201185E+01  0.43777165800E+02  0.51100000000E-03 0.  1.
         12    1    3    3    0    0 -0.15422924974E+01  0.27345076612E+02 -0.87366492908E+01  0.28748233370E+02  0.00000000000E+00 0. -1.
</event>
<event>
 7    1  0.1978681E-015  0.9000777E+02  0.7816164E-02  0.1186339E+00
        -11   -1    0    0    0    0  0.00000000000E+00  0.00000000000E+00  0.45593999997E+02  0.45594000000E+02  0.51100000000E-03 0.  1.
         11   -1    0    0    0    0 -0.00000000000E+00 -0.00000000000E+00 -0.45593999997E+02  0.45594000000E+02  0.51100000000E-03 0. -1.
    9900012    2    1    2    0    0 -0.10785696646E+01 -0.47536202446E+00  0.60536664564E-01  0.90007768555E+02  0.90000030300E+02 0.  0.
        -12    1    1    2    0    0  0.10785696646E+01  0.47536202446E+00 -0.60536664564E-01  0.11802314449E+01  0.00000000000E+00 0.  1.
         11    1    3    3    0    0 -0.40768021164E+01 -0.49720285449E+01 -0.76842639382E+01  0.10019445887E+02  0.51100000000E-03 0. -1.
        -11    1    3    3    0    0 -0.18514212525E+02 -0.13089807946E+02 -0.27155929743E+02  0.35377445612E+02  0.51100000000E-03 0.  1.
         12    1    3    3    0    0  0.21512444977E+02  0.17586474467E+02  0.34900730346E+02  0.44610877057E+02  0.00000000000E+00 0. -1.
</event>
<event>
 7    1  0.1978681E-015  0.9000763E+02  0.7816164E-02  0.1186339E+00
        -11   -1    0    0    0    0  0.00000000000E+00  0.00000000000E+00  0.45593999997E+02  0.45594000000E+02  0.51100000000E-03 0.  1.
         11   -1    0    0    0    0 -0.00000000000E+00 -0.00000000000E+00 -0.45593999997E+02  0.45594000000E+02  0.51100000000E-03 0. -1.
    9900012    2    1    2    0    0  0.75785970310E+00  0.52939195865E+00 -0.73393138058E+00  0.90007634613E+02  0.89999894590E+02 0.  0.
        -12    1    1    2    0    0 -0.75785970310E+00 -0.52939195865E+00  0.73393138058E+00  0.11803653870E+01  0.00000000000E+00 0.  1.
         11    1    3    3    0    0 -0.36295438933E+01  0.98728501126E+01 -0.34959832065E+01  0.11084613528E+02  0.51100000000E-03 0. -1.
        -11    1    3    3    0    0  0.22239315472E+01  0.15459419601E+02  0.34919973335E+02  0.38253680397E+02  0.51100000000E-03 0.  1.
         12    1    3    3    0    0  0.21634720492E+01 -0.24802877755E+02 -0.32157921509E+02  0.40669340688E+02  0.00000000000E+00 0. -1.
</event>
