<event>
 7    1  0.4374874E-012  0.5052887E+02  0.7816164E-02  0.1300439E+00
        -11   -1    0    0    0    0  0.00000000000E+00  0.00000000000E+00  0.45593999997E+02  0.45594000000E+02  0.51100000000E-03 0. -1.
         11   -1    0    0    0    0 -0.00000000000E+00 -0.00000000000E+00 -0.45593999997E+02  0.45594000000E+02  0.51100000000E-03 0.  1.
    9900012    2    1    2    0    0  0.15716410751E+02  0.27765781255E+02  0.25203587966E+02  0.50528867915E+02  0.30000024513E+02 0.  0.
        -12    1    1    2    0    0 -0.15716410751E+02 -0.27765781255E+02 -0.25203587966E+02  0.40659132085E+02  0.00000000000E+00 0.  1.
         11    1    3    3    0    0 -0.35760137059E+01  0.86370287594E+01  0.48168811254E+01  0.10516105926E+02  0.51100000000E-03 0. -1.
        -11    1    3    3    0    0  0.60644551503E+01 -0.42244870078E+01  0.26941153370E+01  0.78665217511E+01  0.51100000000E-03 0.  1.
        -12    1    3    3    0    0  0.13227969307E+02  0.23353239503E+02  0.17692591503E+02  0.32146240237E+02  0.00000000000E+00 0.  1.
</event>
<event>
 7    1  0.4374874E-012  0.5052889E+02  0.7816164E-02  0.1300439E+00
        -11   -1    0    0    0    0  0.00000000000E+00  0.00000000000E+00  0.45593999997E+02  0.45594000000E+02  0.51100000000E-03 0. -1.
         11   -1    0    0    0    0 -0.00000000000E+00 -0.00000000000E+00 -0.45593999997E+02  0.45594000000E+02  0.51100000000E-03 0.  1.
    9900012    2    1    2    0    0 -0.44847658736E+01 -0.23165467462E+02  0.33112095256E+02  0.50528894502E+02  0.30000105327E+02 0.  0.
        -12    1    1    2    0    0  0.44847658736E+01  0.23165467462E+02 -0.33112095256E+02  0.40659105498E+02  0.00000000000E+00 0.  1.
         11    1    3    3    0    0  0.17176638771E+01 -0.15096607717E+02  0.11025933861E+02  0.18773096482E+02  0.51100000000E-03 0. -1.
        -11    1    3    3    0    0  0.26949592101E+01 -0.11372395864E+02  0.61478602640E+01  0.13205694943E+02  0.51100000000E-03 0.  1.
         12    1    3    3    0    0 -0.88973889608E+01  0.33035361192E+01  0.15938301131E+02  0.18550103077E+02  0.00000000000E+00 0. -1.
</event>
<event>
 7    1  0.4374874E-012  0.5052890E+02  0.7816164E-02  0.1300439E+00
        -11   -1    0    0    0    0  0.00000000000E+00  0.00000000000E+00  0.45593999997E+02  0.45594000000E+02  0.51100000000E-03 0. -1.
         11   -1    0    0    0    0 -0.00000000000E+00 -0.00000000000E+00 -0.45593999997E+02  0.45594000000E+02  0.51100000000E-03 0.  1.
    9900012    2    1    2    0    0  0.28750286633E+02 -0.23096957950E+02  0.17120574751E+02  0.50528898585E+02  0.30000117740E+02 0.  0.
        -12    1    1    2    0    0 -0.28750286633E+02  0.23096957950E+02 -0.17120574751E+02  0.40659101415E+02  0.00000000000E+00 0.  1.
         11    1    3    3    0    0  0.67861990273E+01 -0.33938821387E+01  0.49186476855E+01  0.90423464060E+01  0.51100000000E-03 0. -1.
        -11    1    3    3    0    0  0.17966921688E+02 -0.48885986381E+01 -0.41348506997E+01  0.19073690313E+02  0.51100000000E-03 0.  1.
         12    1    3    3    0    0  0.39971659177E+01 -0.14814477173E+02  0.16336777765E+02  0.22412861866E+02  0.00000000000E+00 0. -1.
</event>
<event>
 7    1  0.4374874E-012  0.5052886E+02  0.7816164E-02  0.1300439E+00
        -11   -1    0    0    0    0  0.00000000000E+00  0.00000000000E+00  0.45593999997E+02  0.45594000000E+02  0.51100000000E-03 0. -1.
         11   -1    0    0    0    0 -0.00000000000E+00 -0.00000000000E+00 -0.45593999997E+02  0.45594000000E+02  0.51100000000E-03 0.  1.
    9900012    2    1    2    0    0  0.10825346596E+02  0.29582717600E+02  0.25706816106E+02  0.50528859529E+02  0.29999999024E+02 0.  0.
        -12    1    1    2    0    0 -0.10825346596E+02 -0.29582717600E+02 -0.25706816106E+02  0.40659140471E+02  0.00000000000E+00 0.  1.
         11    1    3    3    0    0  0.31966933958E+01  0.57329929834E+01 -0.35653114544E+01  0.74697726366E+01  0.51100000000E-03 0. -1.
        -11    1    3    3    0    0  0.11139739501E+02  0.76672891168E+01  0.19814813146E+02  0.23989746535E+02  0.51100000000E-03 0.  1.
         12    1    3    3    0    0 -0.35110863007E+01  0.16182435500E+02  0.94573144146E+01  0.19069340357E+02  0.00000000000E+00 0. -1.
</event>
<event>
 7    1  0.4374874E-012  0.5052881E+02  0.7816164E-02  0.1300439E+00
        -11   -1    0    0    0    0  0.00000000000E+00  0.00000000000E+00  0.45593999997E+02  0.45594000000E+02  0.51100000000E-03 0.  1.
         11   -1    0    0    0    0 -0.00000000000E+00 -0.00000000000E+00 -0.45593999997E+02  0.45594000000E+02  0.51100000000E-03 0. -1.
    9900012    2    1    2    0    0 -0.35319338681E+02 -0.13855404149E+02  0.14619907198E+02  0.50528811672E+02  0.29999853559E+02 0.  0.
        -12    1    1    2    0    0  0.35319338681E+02  0.13855404149E+02 -0.14619907198E+02  0.40659188328E+02  0.00000000000E+00 0.  1.
         11    1    3    3    0    0 -0.44664922606E+01 -0.32345018923E+01 -0.90225046094E+00  0.55879881676E+01  0.51100000000E-03 0. -1.
        -11    1    3    3    0    0 -0.20255640030E+02  0.58218429871E+01  0.14037721987E+02  0.25322765403E+02  0.51100000000E-03 0.  1.
        -12    1    3    3    0    0 -0.10597206390E+02 -0.16442745244E+02  0.14844356720E+01  0.19618058102E+02  0.00000000000E+00 0.  1.
</event>
<event>
 7    1  0.4374874E-012  0.5052886E+02  0.7816164E-02  0.1300439E+00
        -11   -1    0    0    0    0  0.00000000000E+00  0.00000000000E+00  0.45593999997E+02  0.45594000000E+02  0.51100000000E-03 0. -1.
         11   -1    0    0    0    0 -0.00000000000E+00 -0.00000000000E+00 -0.45593999997E+02  0.45594000000E+02  0.51100000000E-03 0.  1.
    9900012    2    1    2    0    0 -0.25582191706E+02 -0.26538221858E+02  0.17159246854E+02  0.50528861980E+02  0.30000006476E+02 0.  0.
        -12    1    1    2    0    0  0.25582191706E+02  0.26538221858E+02 -0.17159246854E+02  0.40659138020E+02  0.00000000000E+00 0.  1.
         11    1    3    3    0    0 -0.65014207765E+00 -0.10253468772E+01 -0.16227679944E+01  0.20266714495E+01  0.51100000000E-03 0.  1.
        -11    1    3    3    0    0 -0.29930885949E+01 -0.74891397471E+01  0.18418266692E+02  0.20106674058E+02  0.51100000000E-03 0. -1.
        -12    1    3    3    0    0 -0.21938961034E+02 -0.18023735234E+02  0.36374815675E+00  0.28395516473E+02  0.00000000000E+00 0.  1.
</event>
<event>
 7    1  0.4374874E-012  0.5052886E+02  0.7816164E-02  0.1300439E+00
        -11   -1    0    0    0    0  0.00000000000E+00  0.00000000000E+00  0.45593999997E+02  0.45594000000E+02  0.51100000000E-03 0. -1.
         11   -1    0    0    0    0 -0.00000000000E+00 -0.00000000000E+00 -0.45593999997E+02  0.45594000000E+02  0.51100000000E-03 0.  1.
    9900012    2    1    2    0    0 -0.10157758662E+02  0.33350364513E+01 -0.39228344220E+02  0.50528861797E+02  0.30000005918E+02 0.  0.
         12    1    1    2    0    0  0.10157758662E+02 -0.33350364513E+01  0.39228344220E+02  0.40659138203E+02  0.00000000000E+00 0. -1.
         11    1    3    3    0    0 -0.32596583002E+01 -0.58381403652E+01 -0.60489582626E+01  0.90166042101E+01  0.51100000000E-03 0. -1.
        -11    1    3    3    0    0 -0.52779969258E+01  0.27372447968E+01  0.15582095905E+01  0.61463629909E+01  0.51100000000E-03 0.  1.
        -12    1    3    3    0    0 -0.16201034360E+01  0.64359320197E+01 -0.34737595548E+02  0.35365894596E+02  0.00000000000E+00 0.  1.
</event>
<event>
 7    1  0.4374874E-012  0.5052886E+02  0.7816164E-02  0.1300439E+00
        -11   -1    0    0    0    0  0.00000000000E+00  0.00000000000E+00  0.45593999997E+02  0.45594000000E+02  0.51100000000E-03 0. -1.
         11   -1    0    0    0    0 -0.00000000000E+00 -0.00000000000E+00 -0.45593999997E+02  0.45594000000E+02  0.51100000000E-03 0.  1.
    9900012    2    1    2    0    0  0.18561289998E+01 -0.12554253192E+02  0.38627855772E+02  0.50528859212E+02  0.29999998062E+02 0.  0.
        -12    1    1    2    0    0 -0.18561289998E+01  0.12554253192E+02 -0.38627855772E+02  0.40659140788E+02  0.00000000000E+00 0.  1.
         11    1    3    3    0    0 -0.66147006511E+01 -0.10693124316E+02  0.10474201853E+02  0.16364781607E+02  0.51100000000E-03 0. -1.
        -11    1    3    3    0    0  0.41619513028E+01 -0.11249186240E+01 -0.12091694954E+01  0.44776524750E+01  0.51100000000E-03 0.  1.
         12    1    3    3    0    0  0.43088783481E+01 -0.73621025198E+00  0.29362823414E+02  0.29686425130E+02  0.00000000000E+00 0. -1.
</event>
<event>
 7    1  0.4374874E-012  0.5052885E+02  0.7816164E-02  0.1300439E+00
        -11   -1    0    0    0    0  0.00000000000E+00  0.00000000000E+00  0.45593999997E+02  0.45594000000E+02  0.51100000000E-03 0. -1.
         11   -1    0    0    0    0 -0.00000000000E+00 -0.00000000000E+00 -0.45593999997E+02  0.45594000000E+02  0.51100000000E-03 0.  1.
    9900012    2    1    2    0    0  0.78493124301E+01 -0.32419285579E+02  0.23249612150E+02  0.50528852835E+02  0.29999978677E+02 0.  0.
        -12    1    1    2    0    0 -0.78493124301E+01  0.32419285579E+02 -0.23249612150E+02  0.40659147165E+02  0.00000000000E+00 0.  1.
         11    1    3    3    0    0 -0.24834753101E+01 -0.75064304102E+01  0.30431698697E+01  0.84720145323E+01  0.51100000000E-03 0. -1.
        -11    1    3    3    0    0  0.12381509342E+02 -0.28510752825E+02  0.12889527160E+02  0.33649735673E+02  0.51100000000E-03 0.  1.
        -12    1    3    3    0    0 -0.20487216015E+01  0.35978976560E+01  0.73169151202E+01  0.84071026294E+01  0.00000000000E+00 0.  1.
</event>
<event>
 7    1  0.4374874E-012  0.5052886E+02  0.7816164E-02  0.1300439E+00
        -11   -1    0    0    0    0  0.00000000000E+00  0.00000000000E+00  0.45593999997E+02  0.45594000000E+02  0.51100000000E-03 0. -1.
         11   -1    0    0    0    0 -0.00000000000E+00 -0.00000000000E+00 -0.45593999997E+02  0.45594000000E+02  0.51100000000E-03 0.  1.
    9900012    2    1    2    0    0  0.36813953415E+02 -0.98050173009E+01  0.14204216921E+02  0.50528864389E+02  0.30000013796E+02 0.  0.
        -12    1    1    2    0    0 -0.36813953415E+02  0.98050173009E+01 -0.14204216921E+02  0.40659135611E+02  0.00000000000E+00 0.  1.
         11    1    3    3    0    0  0.14213668798E+02  0.43525300850E+01  0.28295061714E+01  0.15132052217E+02  0.51100000000E-03 0. -1.
        -11    1    3    3    0    0  0.59491692077E+01 -0.23115301016E+01  0.13419326952E+02  0.14859815671E+02  0.51100000000E-03 0.  1.
         12    1    3    3    0    0  0.16651115409E+02 -0.11846017284E+02 -0.20446162026E+01  0.20536996501E+02  0.00000000000E+00 0. -1.
</event>
<event>
 7    1  0.4374874E-012  0.5052886E+02  0.7816164E-02  0.1300439E+00
        -11   -1    0    0    0    0  0.00000000000E+00  0.00000000000E+00  0.45593999997E+02  0.45594000000E+02  0.51100000000E-03 0. -1.
         11   -1    0    0    0    0 -0.00000000000E+00 -0.00000000000E+00 -0.45593999997E+02  0.45594000000E+02  0.51100000000E-03 0.  1.
    9900012    2    1    2    0    0 -0.16351685689E+01 -0.23429110157E+02  0.33189891949E+02  0.50528857036E+02  0.29999991446E+02 0.  0.
        -12    1    1    2    0    0  0.16351685689E+01  0.23429110157E+02 -0.33189891949E+02  0.40659142964E+02  0.00000000000E+00 0.  1.
         11    1    3    3    0    0 -0.48833171831E+01 -0.38944821413E+01  0.18211454783E+02  0.19252814429E+02  0.51100000000E-03 0. -1.
        -11    1    3    3    0    0 -0.73760220896E+01 -0.10932239156E+02  0.41148701218E+01  0.13814909019E+02  0.51100000000E-03 0.  1.
        -12    1    3    3    0    0  0.10624170704E+02 -0.86023888597E+01  0.10863567045E+02  0.17461133588E+02  0.00000000000E+00 0.  1.
</event>
<event>
 7    1  0.4374874E-012  0.5052886E+02  0.7816164E-02  0.1300439E+00
        -11   -1    0    0    0    0  0.00000000000E+00  0.00000000000E+00  0.45593999997E+02  0.45594000000E+02  0.51100000000E-03 0.  1.
         11   -1    0    0    0    0 -0.00000000000E+00 -0.00000000000E+00 -0.45593999997E+02  0.45594000000E+02  0.51100000000E-03 0. -1.
    9900012    2    1    2    0    0  0.39205886806E+02 -0.88722322080E+01  0.61112703431E+01  0.50528859701E+02  0.29999999549E+02 0.  0.
        -12    1    1    2    0    0 -0.39205886806E+02  0.88722322080E+01 -0.61112703431E+01  0.40659140299E+02  0.00000000000E+00 0.  1.
         11    1    3    3    0    0  0.98816194301E+01 -0.10162689014E+02 -0.13571309032E+01  0.14239678898E+02  0.51100000000E-03 0. -1.
        -11    1    3    3    0    0  0.37083059592E+01 -0.31902869339E+01  0.89954270010E+01  0.10239490759E+02  0.51100000000E-03 0.  1.
         12    1    3    3    0    0  0.25615961417E+02  0.44807437404E+01 -0.15270257547E+01  0.26049690045E+02  0.00000000000E+00 0. -1.
</event>
<event>
 7    1  0.4374874E-012  0.5052885E+02  0.7816164E-02  0.1300439E+00
        -11   -1    0    0    0    0  0.00000000000E+00  0.00000000000E+00  0.45593999997E+02  0.45594000000E+02  0.51100000000E-03 0. -1.
         11   -1    0    0    0    0 -0.00000000000E+00 -0.00000000000E+00 -0.45593999997E+02  0.45594000000E+02  0.51100000000E-03 0.  1.
    9900012    2    1    2    0    0  0.24815500964E+02 -0.29745294276E+01 -0.32070378534E+02  0.50528854747E+02  0.29999984489E+02 0.  0.
         12    1    1    2    0    0 -0.24815500964E+02  0.29745294276E+01  0.32070378534E+02  0.40659145253E+02  0.00000000000E+00 0. -1.
         11    1    3    3    0    0  0.58256104567E+01  0.50313679384E+01 -0.15767965372E+02  0.17546541903E+02  0.51100000000E-03 0. -1.
        -11    1    3    3    0    0  0.68301510906E+01 -0.12373294647E+01 -0.17683751602E+02  0.18997289784E+02  0.51100000000E-03 0.  1.
         12    1    3    3    0    0  0.12159739416E+02 -0.67685679013E+01  0.13813384406E+01  0.13985023060E+02  0.00000000000E+00 0. -1.
</event>
<event>
 7    1  0.4374874E-012  0.5052886E+02  0.7816164E-02  0.1300439E+00
        -11   -1    0    0    0    0  0.00000000000E+00  0.00000000000E+00  0.45593999997E+02  0.45594000000E+02  0.51100000000E-03 0. -1.
         11   -1    0    0    0    0 -0.00000000000E+00 -0.00000000000E+00 -0.45593999997E+02  0.45594000000E+02  0.51100000000E-03 0.  1.
    9900012    2    1    2    0    0  0.28214913123E+01 -0.47166247451E+01  0.40285956685E+02  0.50528859967E+02  0.30000000356E+02 0.  0.
        -12    1    1    2    0    0 -0.28214913123E+01  0.47166247451E+01 -0.40285956685E+02  0.40659140033E+02  0.00000000000E+00 0.  1.
         11    1    3    3    0    0 -0.29865680340E+01 -0.28385210171E+01  0.13446243453E+02  0.14063365651E+02  0.51100000000E-03 0.  1.
        -11    1    3    3    0    0  0.45337791787E+01  0.56123603865E+01  0.27878299387E+02  0.28796758840E+02  0.51100000000E-03 0. -1.
        -12    1    3    3    0    0  0.12742801676E+01 -0.74904641146E+01 -0.10385861548E+01  0.76687354758E+01  0.00000000000E+00 0.  1.
</event>
<event>
 7    1  0.4399475E-012  0.5052887E+02  0.7816164E-02  0.1300439E+00
        -11   -1    0    0    0    0  0.00000000000E+00  0.00000000000E+00  0.45593999997E+02  0.45594000000E+02  0.51100000000E-03 0. -1.
         11   -1    0    0    0    0 -0.00000000000E+00 -0.00000000000E+00 -0.45593999997E+02  0.45594000000E+02  0.51100000000E-03 0.  1.
    9900012    2    1    2    0    0  0.18861355840E+02 -0.91329301997E+01 -0.34842557700E+02  0.50528868366E+02  0.30000025884E+02 0.  0.
         12    1    1    2    0    0 -0.18861355840E+02  0.91329301997E+01  0.34842557700E+02  0.40659131634E+02  0.00000000000E+00 0. -1.
         11    1    3    3    0    0  0.14251042723E+02 -0.16112760337E+01 -0.89859705872E+01  0.16924423087E+02  0.51100000000E-03 0. -1.
        -11    1    3    3    0    0  0.10557238417E+02 -0.10196798410E+02 -0.20216894753E+02  0.24983050545E+02  0.51100000000E-03 0.  1.
         12    1    3    3    0    0 -0.59469252997E+01  0.26751442445E+01 -0.56396923598E+01  0.86213947341E+01  0.00000000000E+00 0. -1.
</event>
<event>
 7    1  0.4374874E-012  0.5052886E+02  0.7816164E-02  0.1300439E+00
        -11   -1    0    0    0    0  0.00000000000E+00  0.00000000000E+00  0.45593999997E+02  0.45594000000E+02  0.51100000000E-03 0. -1.
         11   -1    0    0    0    0 -0.00000000000E+00 -0.00000000000E+00 -0.45593999997E+02  0.45594000000E+02  0.51100000000E-03 0.  1.
    9900012    2    1    2    0    0  0.15977180755E+02  0.26979930570E+02  0.25883940945E+02  0.50528863790E+02  0.30000011977E+02 0.  0.
        -12    1    1    2    0    0 -0.15977180755E+02 -0.26979930570E+02 -0.25883940945E+02  0.40659136210E+02  0.00000000000E+00 0.  1.
         11    1    3    3    0    0  0.86660844925E+01  0.18489735441E+02  0.16570641876E+01  0.20487000735E+02  0.51100000000E-03 0. -1.
        -11    1    3    3    0    0  0.57409169510E+01  0.21577187922E+00  0.16986680005E+01  0.59908395221E+01  0.51100000000E-03 0.  1.
         12    1    3    3    0    0  0.15701793116E+01  0.82744232499E+01  0.22528208757E+02  0.24051023533E+02  0.00000000000E+00 0. -1.
</event>
<event>
 7    1  0.4374874E-012  0.5052887E+02  0.7816164E-02  0.1300439E+00
        -11   -1    0    0    0    0  0.00000000000E+00  0.00000000000E+00  0.45593999997E+02  0.45594000000E+02  0.51100000000E-03 0. -1.
         11   -1    0    0    0    0 -0.00000000000E+00 -0.00000000000E+00 -0.45593999997E+02  0.45594000000E+02  0.51100000000E-03 0.  1.
    9900012    2    1    2    0    0 -0.37045239373E+02 -0.10295551613E+02  0.13221834433E+02  0.50528867582E+02  0.30000023502E+02 0.  0.
        -12    1    1    2    0    0  0.37045239373E+02  0.10295551613E+02 -0.13221834433E+02  0.40659132418E+02  0.00000000000E+00 0.  1.
         11    1    3    3    0    0 -0.49730120638E+01  0.84052858839E+00  0.29778284684E+01  0.58570299592E+01  0.51100000000E-03 0. -1.
        -11    1    3    3    0    0 -0.19200257858E+02 -0.16768756470E+02 -0.26144794137E+01  0.25625701907E+02  0.51100000000E-03 0.  1.
         12    1    3    3    0    0 -0.12871969451E+02  0.56326762682E+01  0.12858485378E+02  0.19046135716E+02  0.00000000000E+00 0. -1.
</event>
<event>
 7    1  0.4374874E-012  0.5052886E+02  0.7816164E-02  0.1300439E+00
        -11   -1    0    0    0    0  0.00000000000E+00  0.00000000000E+00  0.45593999997E+02  0.45594000000E+02  0.51100000000E-03 0. -1.
         11   -1    0    0    0    0 -0.00000000000E+00 -0.00000000000E+00 -0.45593999997E+02  0.45594000000E+02  0.51100000000E-03 0.  1.
    9900012    2    1    2    0    0  0.19598301787E+02 -0.81675361564E+01 -0.34675116549E+02  0.50528858501E+02  0.29999995899E+02 0.  0.
         12    1    1    2    0    0 -0.19598301787E+02  0.81675361564E+01  0.34675116549E+02  0.40659141499E+02  0.00000000000E+00 0. -1.
         11    1    3    3    0    0  0.50075103408E+00 -0.38774471469E+01 -0.21647303818E+02  0.21997525107E+02  0.51100000000E-03 0. -1.
        -11    1    3    3    0    0  0.14217891617E+02  0.15883876946E+01 -0.14909529301E+02  0.20663143075E+02  0.51100000000E-03 0.  1.
        -12    1    3    3    0    0  0.48796591353E+01 -0.58784767041E+01  0.18817165703E+01  0.78681903185E+01  0.00000000000E+00 0.  1.
</event>
<event>
 7    1  0.4374874E-012  0.5052887E+02  0.7816164E-02  0.1300439E+00
        -11   -1    0    0    0    0  0.00000000000E+00  0.00000000000E+00  0.45593999997E+02  0.45594000000E+02  0.51100000000E-03 0. -1.
         11   -1    0    0    0    0 -0.00000000000E+00 -0.00000000000E+00 -0.45593999997E+02  0.45594000000E+02  0.51100000000E-03 0.  1.
    9900012    2    1    2    0    0  0.27976172329E+01  0.19575990522E+02 -0.35526316640E+02  0.50528865219E+02  0.30000016321E+02 0.  0.
         12    1    1    2    0    0 -0.27976172329E+01 -0.19575990522E+02  0.35526316640E+02  0.40659134781E+02  0.00000000000E+00 0. -1.
         11    1    3    3    0    0 -0.26929447809E+01  0.14961561020E+02 -0.12806368842E+02  0.19877206617E+02  0.51100000000E-03 0. -1.
        -11    1    3    3    0    0 -0.35517934338E+01  0.96006176193E+01 -0.11842266214E+02  0.15653318007E+02  0.51100000000E-03 0.  1.
         12    1    3    3    0    0  0.90423554477E+01 -0.49861881167E+01 -0.10877681584E+02  0.14998340596E+02  0.00000000000E+00 0. -1.
</event>
<event>
 7    1  0.4374874E-012  0.5052886E+02  0.7816164E-02  0.1300439E+00
        -11   -1    0    0    0    0  0.00000000000E+00  0.00000000000E+00  0.45593999997E+02  0.45594000000E+02  0.51100000000E-03 0. -1.
         11   -1    0    0    0    0 -0.00000000000E+00 -0.00000000000E+00 -0.45593999997E+02  0.45594000000E+02  0.51100000000E-03 0.  1.
    9900012    2    1    2    0    0  0.15197024614E+02  0.21921937603E+02 -0.30686231294E+02  0.50528859620E+02  0.29999999300E+02 0.  0.
         12    1    1    2    0    0 -0.15197024614E+02 -0.21921937603E+02  0.30686231294E+02  0.40659140380E+02  0.00000000000E+00 0. -1.
         11    1    3    3    0    0 -0.16845039352E+01 -0.31597992043E+01 -0.52022417916E+01  0.63154734137E+01  0.51100000000E-03 0. -1.
        -11    1    3    3    0    0  0.58903198833E+00  0.12641733473E+02 -0.18780108796E+02  0.22646255110E+02  0.51100000000E-03 0.  1.
        -12    1    3    3    0    0  0.16292496561E+02  0.12440003335E+02 -0.67038807068E+01  0.21567131096E+02  0.00000000000E+00 0.  1.
</event>
<event>
 7    1  0.4374874E-012  0.5052887E+02  0.7816164E-02  0.1300439E+00
        -11   -1    0    0    0    0  0.00000000000E+00  0.00000000000E+00  0.45593999997E+02  0.45594000000E+02  0.51100000000E-03 0. -1.
         11   -1    0    0    0    0 -0.00000000000E+00 -0.00000000000E+00 -0.45593999997E+02  0.45594000000E+02  0.51100000000E-03 0.  1.
    9900012    2    1    2    0    0 -0.45409754808E+01 -0.12284705533E+02  0.38491949003E+02  0.50528873271E+02  0.30000040794E+02 0.  0.
        -12    1    1    2    0    0  0.45409754808E+01  0.12284705533E+02 -0.38491949003E+02  0.40659126729E+02  0.00000000000E+00 0.  1.
         11    1    3    3    0    0  0.68384644904E+01  0.40923664607E+01  0.22067040915E+02  0.23462019411E+02  0.51100000000E-03 0. -1.
        -11    1    3    3    0    0 -0.34657700484E+01 -0.66125724802E+00  0.99999873557E+00  0.36672634087E+01  0.51100000000E-03 0.  1.
        -12    1    3    3    0    0 -0.79136699229E+01 -0.15715814745E+02  0.15424909353E+02  0.23399590451E+02  0.00000000000E+00 0.  1.
</event>
<event>
 7    1  0.4374874E-012  0.5052886E+02  0.7816164E-02  0.1300439E+00
        -11   -1    0    0    0    0  0.00000000000E+00  0.00000000000E+00  0.45593999997E+02  0.45594000000E+02  0.51100000000E-03 0. -1.
         11   -1    0    0    0    0 -0.00000000000E+00 -0.00000000000E+00 -0.45593999997E+02  0.45594000000E+02  0.51100000000E-03 0.  1.
    9900012    2    1    2    0    0 -0.24717778502E+02 -0.15475917389E+01 -0.32245960258E+02  0.50528861209E+02  0.30000004132E+02 0.  0.
         12    1    1    2    0    0  0.24717778502E+02  0.15475917389E+01  0.32245960258E+02  0.40659138791E+02  0.00000000000E+00 0. -1.
         11    1    3    3    0    0  0.28507288441E+01 -0.90289320637E+01 -0.11390997613E+02  0.14812261678E+02  0.51100000000E-03 0. -1.
        -11    1    3    3    0    0 -0.47891054163E+00  0.99183913745E+00 -0.46551619413E+00  0.11957448597E+01  0.51100000000E-03 0.  1.
        -12    1    3    3    0    0 -0.27089596804E+02  0.64895011874E+01 -0.20389446451E+02  0.34520854671E+02  0.00000000000E+00 0.  1.
</event>
<event>
 7    1  0.4374874E-012  0.5052882E+02  0.7816164E-02  0.1300439E+00
        -11   -1    0    0    0    0  0.00000000000E+00  0.00000000000E+00  0.45593999997E+02  0.45594000000E+02  0.51100000000E-03 0. -1.
         11   -1    0    0    0    0 -0.00000000000E+00 -0.00000000000E+00 -0.45593999997E+02  0.45594000000E+02  0.51100000000E-03 0.  1.
    9900012    2    1    2    0    0 -0.23956779385E+02 -0.29977885526E+02  0.13437549785E+02  0.50528823381E+02  0.29999889147E+02 0.  0.
        -12    1    1    2    0    0  0.23956779385E+02  0.29977885526E+02 -0.13437549785E+02  0.40659176619E+02  0.00000000000E+00 0.  1.
         11    1    3    3    0    0 -0.47414055326E+01 -0.15239798899E+01 -0.20606312264E+01  0.53897720213E+01  0.51100000000E-03 0. -1.
        -11    1    3    3    0    0 -0.83237518078E+01 -0.24878078499E+02  0.47015692937E+00  0.26237848268E+02  0.51100000000E-03 0.  1.
         12    1    3    3    0    0 -0.10891622045E+02 -0.35758271380E+01  0.15028024082E+02  0.18901203091E+02  0.00000000000E+00 0. -1.
</event>
<event>
 7    1  0.4374874E-012  0.5052885E+02  0.7816164E-02  0.1300439E+00
        -11   -1    0    0    0    0  0.00000000000E+00  0.00000000000E+00  0.45593999997E+02  0.45594000000E+02  0.51100000000E-03 0. -1.
         11   -1    0    0    0    0 -0.00000000000E+00 -0.00000000000E+00 -0.45593999997E+02  0.45594000000E+02  0.51100000000E-03 0.  1.
    9900012    2    1    2    0    0 -0.35121169678E+02 -0.20047927659E+02  0.42131628597E+01  0.50528847226E+02  0.29999961629E+02 0.  0.
        -12    1    1    2    0    0  0.35121169678E+02  0.20047927659E+02 -0.42131628597E+01  0.40659152774E+02  0.00000000000E+00 0.  1.
         11    1    3    3    0    0 -0.68495756635E+01 -0.12567891437E+02 -0.40502084611E+01  0.14875240192E+02  0.51100000000E-03 0. -1.
        -11    1    3    3    0    0 -0.32408583002E+01  0.32048033136E+01 -0.37519287828E+01  0.59034648007E+01  0.51100000000E-03 0.  1.
         12    1    3    3    0    0 -0.25030735715E+02 -0.10684839536E+02  0.12015300104E+02  0.29750142233E+02  0.00000000000E+00 0. -1.
</event>
<event>
 7    1  0.4374874E-012  0.5052886E+02  0.7816164E-02  0.1300439E+00
        -11   -1    0    0    0    0  0.00000000000E+00  0.00000000000E+00  0.45593999997E+02  0.45594000000E+02  0.51100000000E-03 0. -1.
         11   -1    0    0    0    0 -0.00000000000E+00 -0.00000000000E+00 -0.45593999997E+02  0.45594000000E+02  0.51100000000E-03 0.  1.
    9900012    2    1    2    0    0 -0.10557670027E+02  0.43188687992E+01 -0.39026255089E+02  0.50528860678E+02  0.30000002517E+02 0.  0.
         12    1    1    2    0    0  0.10557670027E+02 -0.43188687992E+01  0.39026255089E+02  0.40659139322E+02  0.00000000000E+00 0. -1.
         11    1    3    3    0    0 -0.98452054998E+00 -0.51102734847E+01 -0.93950968050E+00  0.52883697396E+01  0.51100000000E-03 0.  1.
        -11    1    3    3    0    0 -0.92650325265E+01  0.32587686526E+01 -0.40104521119E+01  0.10608681692E+02  0.51100000000E-03 0. -1.
        -12    1    3    3    0    0 -0.30811695009E+00  0.61703736314E+01 -0.34076293297E+02  0.34631809246E+02  0.00000000000E+00 0.  1.
</event>
<event>
 7    1  0.4374874E-012  0.5052886E+02  0.7816164E-02  0.1300439E+00
        -11   -1    0    0    0    0  0.00000000000E+00  0.00000000000E+00  0.45593999997E+02  0.45594000000E+02  0.51100000000E-03 0. -1.
         11   -1    0    0    0    0 -0.00000000000E+00 -0.00000000000E+00 -0.45593999997E+02  0.45594000000E+02  0.51100000000E-03 0.  1.
    9900012    2    1    2    0    0  0.79572399690E+01  0.19788018102E+02  0.34616216610E+02  0.50528858584E+02  0.29999996151E+02 0.  0.
        -12    1    1    2    0    0 -0.79572399690E+01 -0.19788018102E+02 -0.34616216610E+02  0.40659141416E+02  0.00000000000E+00 0.  1.
         11    1    3    3    0    0  0.89734008151E+01  0.22767484845E+02  0.23947124489E+02  0.34239524820E+02  0.51100000000E-03 0. -1.
        -11    1    3    3    0    0  0.45005277064E+01  0.35629262330E+00  0.82483561881E+01  0.94030353682E+01  0.51100000000E-03 0.  1.
        -12    1    3    3    0    0 -0.55166885525E+01 -0.33357593665E+01  0.24207359327E+01  0.68862983955E+01  0.00000000000E+00 0.  1.
</event>
<event>
 7    1  0.4374874E-012  0.5052882E+02  0.7816164E-02  0.1300439E+00
        -11   -1    0    0    0    0  0.00000000000E+00  0.00000000000E+00  0.45593999997E+02  0.45594000000E+02  0.51100000000E-03 0. -1.
         11   -1    0    0    0    0 -0.00000000000E+00 -0.00000000000E+00 -0.45593999997E+02  0.45594000000E+02  0.51100000000E-03 0.  1.
    9900012    2    1    2    0    0 -0.21927050754E+02 -0.10988184715E+02  0.32428892603E+02  0.50528821042E+02  0.29999882038E+02 0.  0.
        -12    1    1    2    0    0  0.21927050754E+02  0.10988184715E+02 -0.32428892603E+02  0.40659178958E+02  0.00000000000E+00 0.  1.
         11    1    3    3    0    0 -0.14497751982E+02 -0.50736453460E+01  0.27317895171E+01  0.15600941121E+02  0.51100000000E-03 0. -1.
        -11    1    3    3    0    0  0.57637561940E+00 -0.52244478056E+01  0.12982244084E+01  0.54140973951E+01  0.51100000000E-03 0.  1.
         12    1    3    3    0    0 -0.80056743915E+01 -0.69009156320E+00  0.28398878678E+02  0.29513782526E+02  0.00000000000E+00 0. -1.
</event>
<event>
 7    1  0.4374874E-012  0.5052886E+02  0.7816164E-02  0.1300439E+00
        -11   -1    0    0    0    0  0.00000000000E+00  0.00000000000E+00  0.45593999997E+02  0.45594000000E+02  0.51100000000E-03 0.  1.
         11   -1    0    0    0    0 -0.00000000000E+00 -0.00000000000E+00 -0.45593999997E+02  0.45594000000E+02  0.51100000000E-03 0. -1.
    9900012    2    1    2    0    0 -0.36955318013E+01  0.38035883796E+02  0.13884534207E+02  0.50528859557E+02  0.29999999109E+02 0.  0.
        -12    1    1    2    0    0  0.36955318013E+01 -0.38035883796E+02 -0.13884534207E+02  0.40659140443E+02  0.00000000000E+00 0.  1.
         11    1    3    3    0    0 -0.36371237647E+01  0.29885242566E+02  0.43580012327E+01  0.30419542527E+02  0.51100000000E-03 0. -1.
        -11    1    3    3    0    0 -0.11462953459E+01  0.25663735141E+01 -0.43118592053E+01  0.51470764616E+01  0.51100000000E-03 0.  1.
         12    1    3    3    0    0  0.10878873093E+01  0.55842677155E+01  0.13838392180E+02  0.14962240569E+02  0.00000000000E+00 0. -1.
</event>
<event>
 7    1  0.4374874E-012  0.5052884E+02  0.7816164E-02  0.1300439E+00
        -11   -1    0    0    0    0  0.00000000000E+00  0.00000000000E+00  0.45593999997E+02  0.45594000000E+02  0.51100000000E-03 0. -1.
         11   -1    0    0    0    0 -0.00000000000E+00 -0.00000000000E+00 -0.45593999997E+02  0.45594000000E+02  0.51100000000E-03 0.  1.
    9900012    2    1    2    0    0  0.10396101546E+01 -0.25974762353E+02  0.31263370406E+02  0.50528838699E+02  0.29999935710E+02 0.  0.
        -12    1    1    2    0    0 -0.10396101546E+01  0.25974762353E+02 -0.31263370406E+02  0.40659161301E+02  0.00000000000E+00 0.  1.
         11    1    3    3    0    0  0.50738130223E+01 -0.19896119417E+02  0.28108568236E+02  0.34809348672E+02  0.51100000000E-03 0. -1.
        -11    1    3    3    0    0 -0.44457356194E+01 -0.10250731282E+02  0.27565189250E+01  0.11508277623E+02  0.51100000000E-03 0.  1.
        -12    1    3    3    0    0  0.41153275173E+00  0.41720883457E+01  0.39828324493E+00  0.42112124042E+01  0.00000000000E+00 0.  1.
</event>
<event>
 7    1  0.4374874E-012  0.5052886E+02  0.7816164E-02  0.1300439E+00
        -11   -1    0    0    0    0  0.00000000000E+00  0.00000000000E+00  0.45593999997E+02  0.45594000000E+02  0.51100000000E-03 0. -1.
         11   -1    0    0    0    0 -0.00000000000E+00 -0.00000000000E+00 -0.45593999997E+02  0.45594000000E+02  0.51100000000E-03 0.  1.
    9900012    2    1    2    0    0  0.16731563544E+02  0.17958131780E+02 -0.32414902928E+02  0.50528860222E+02  0.30000001130E+02 0.  0.
         12    1    1    2    0    0 -0.16731563544E+02 -0.17958131780E+02  0.32414902928E+02  0.40659139778E+02  0.00000000000E+00 0. -1.
         11    1    3    3    0    0  0.46832738781E+01  0.18805058781E+02 -0.18834451258E+02  0.27024060473E+02  0.51100000000E-03 0. -1.
        -11    1    3    3    0    0  0.83117393400E+01 -0.29115960680E+01 -0.16240564673E+02  0.18474802940E+02  0.51100000000E-03 0.  1.
         12    1    3    3    0    0  0.37365503264E+01  0.20646690669E+01  0.26601130036E+01  0.50299968081E+01  0.00000000000E+00 0. -1.
</event>
<event>
 7    1  0.4374874E-012  0.5052884E+02  0.7816164E-02  0.1300439E+00
        -11   -1    0    0    0    0  0.00000000000E+00  0.00000000000E+00  0.45593999997E+02  0.45594000000E+02  0.51100000000E-03 0. -1.
         11   -1    0    0    0    0 -0.00000000000E+00 -0.00000000000E+00 -0.45593999997E+02  0.45594000000E+02  0.51100000000E-03 0.  1.
    9900012    2    1    2    0    0 -0.62896504402E+01 -0.63615294190E+01  0.39662806212E+02  0.50528844133E+02  0.29999952227E+02 0.  0.
        -12    1    1    2    0    0  0.62896504402E+01  0.63615294190E+01 -0.39662806212E+02  0.40659155867E+02  0.00000000000E+00 0.  1.
         11    1    3    3    0    0 -0.44423302848E+01  0.91749353503E+00  0.60321110112E+01  0.75473476307E+01  0.51100000000E-03 0. -1.
        -11    1    3    3    0    0 -0.69344272817E+01  0.35353367639E+01  0.54407891745E+00  0.78026219880E+01  0.51100000000E-03 0.  1.
        -12    1    3    3    0    0  0.50871071263E+01 -0.10814359718E+02  0.33086616283E+02  0.35178874514E+02  0.00000000000E+00 0.  1.
</event>
<event>
 7    1  0.4374874E-012  0.5052886E+02  0.7816164E-02  0.1300439E+00
        -11   -1    0    0    0    0  0.00000000000E+00  0.00000000000E+00  0.45593999997E+02  0.45594000000E+02  0.51100000000E-03 0. -1.
         11   -1    0    0    0    0 -0.00000000000E+00 -0.00000000000E+00 -0.45593999997E+02  0.45594000000E+02  0.51100000000E-03 0.  1.
    9900012    2    1    2    0    0 -0.12364956507E+02  0.42487160198E+01  0.38499633184E+02  0.50528862128E+02  0.30000006924E+02 0.  0.
        -12    1    1    2    0    0  0.12364956507E+02 -0.42487160198E+01 -0.38499633184E+02  0.40659137872E+02  0.00000000000E+00 0.  1.
         11    1    3    3    0    0 -0.15432702375E+02 -0.11896610755E+01  0.28341656475E+02  0.32292926286E+02  0.51100000000E-03 0. -1.
        -11    1    3    3    0    0 -0.13850182239E+01  0.41148682636E+01  0.12356184206E+02  0.13096782227E+02  0.51100000000E-03 0.  1.
        -12    1    3    3    0    0  0.44527640912E+01  0.13235088317E+01 -0.21982074976E+01  0.51391536154E+01  0.00000000000E+00 0.  1.
</event>
<event>
 7    1  0.4374874E-012  0.5052886E+02  0.7816164E-02  0.1300439E+00
        -11   -1    0    0    0    0  0.00000000000E+00  0.00000000000E+00  0.45593999997E+02  0.45594000000E+02  0.51100000000E-03 0. -1.
         11   -1    0    0    0    0 -0.00000000000E+00 -0.00000000000E+00 -0.45593999997E+02  0.45594000000E+02  0.51100000000E-03 0.  1.
    9900012    2    1    2    0    0 -0.75081896504E+01  0.60891312981E+01 -0.39493228019E+02  0.50528862145E+02  0.30000006976E+02 0.  0.
         12    1    1    2    0    0  0.75081896504E+01 -0.60891312981E+01  0.39493228019E+02  0.40659137855E+02  0.00000000000E+00 0. -1.
         11    1    3    3    0    0  0.34287623402E+01  0.15066719791E+01 -0.11210855595E+01  0.39093867461E+01  0.51100000000E-03 0. -1.
        -11    1    3    3    0    0  0.40926505399E+01 -0.31023996053E+01 -0.23712075288E+02  0.24261846312E+02  0.51100000000E-03 0.  1.
         12    1    3    3    0    0 -0.15029602530E+02  0.76848589243E+01 -0.14660067171E+02  0.22357629087E+02  0.00000000000E+00 0. -1.
</event>
<event>
 7    1  0.4374874E-012  0.5052886E+02  0.7816164E-02  0.1300439E+00
        -11   -1    0    0    0    0  0.00000000000E+00  0.00000000000E+00  0.45593999997E+02  0.45594000000E+02  0.51100000000E-03 0. -1.
         11   -1    0    0    0    0 -0.00000000000E+00 -0.00000000000E+00 -0.45593999997E+02  0.45594000000E+02  0.51100000000E-03 0.  1.
    9900012    2    1    2    0    0  0.76792840607E+01  0.29760641248E+02  0.26617629415E+02  0.50528863673E+02  0.30000011621E+02 0.  0.
        -12    1    1    2    0    0 -0.76792840607E+01 -0.29760641248E+02 -0.26617629415E+02  0.40659136327E+02  0.00000000000E+00 0.  1.
         11    1    3    3    0    0  0.58260516315E+01  0.18935129675E+02  0.13733333429E+02  0.24105735018E+02  0.51100000000E-03 0. -1.
        -11    1    3    3    0    0  0.44009160392E+01  0.16322257169E+02  0.10570373069E+02  0.19937826565E+02  0.51100000000E-03 0.  1.
        -12    1    3    3    0    0 -0.25476836100E+01 -0.54967455963E+01  0.23139229168E+01  0.64853020895E+01  0.00000000000E+00 0.  1.
</event>
<event>
 7    1  0.4374874E-012  0.5052886E+02  0.7816164E-02  0.1300439E+00
        -11   -1    0    0    0    0  0.00000000000E+00  0.00000000000E+00  0.45593999997E+02  0.45594000000E+02  0.51100000000E-03 0. -1.
         11   -1    0    0    0    0 -0.00000000000E+00 -0.00000000000E+00 -0.45593999997E+02  0.45594000000E+02  0.51100000000E-03 0.  1.
    9900012    2    1    2    0    0 -0.29336057031E+02  0.80506726680E+01 -0.26976807851E+02  0.50528859153E+02  0.29999997882E+02 0.  0.
         12    1    1    2    0    0  0.29336057031E+02 -0.80506726680E+01  0.26976807851E+02  0.40659140847E+02  0.00000000000E+00 0. -1.
         11    1    3    3    0    0 -0.72836203641E+01 -0.10308596442E+02 -0.10495603362E+02  0.16415723451E+02  0.51100000000E-03 0. -1.
        -11    1    3    3    0    0 -0.56006933756E+01  0.83419318237E+01 -0.88687377457E+01  0.13401869358E+02  0.51100000000E-03 0.  1.
        -12    1    3    3    0    0 -0.16451743292E+02  0.10017337287E+02 -0.76124667435E+01  0.20711266344E+02  0.00000000000E+00 0.  1.
</event>
<event>
 7    1  0.4374874E-012  0.5052886E+02  0.7816164E-02  0.1300439E+00
        -11   -1    0    0    0    0  0.00000000000E+00  0.00000000000E+00  0.45593999997E+02  0.45594000000E+02  0.51100000000E-03 0. -1.
         11   -1    0    0    0    0 -0.00000000000E+00 -0.00000000000E+00 -0.45593999997E+02  0.45594000000E+02  0.51100000000E-03 0.  1.
    9900012    2    1    2    0    0 -0.40114049426E+02 -0.57785586362E+01  0.32613896323E+01  0.50528863713E+02  0.30000011743E+02 0.  0.
        -12    1    1    2    0    0  0.40114049426E+02  0.57785586362E+01 -0.32613896323E+01  0.40659136287E+02  0.00000000000E+00 0.  1.
         11    1    3    3    0    0 -0.12710498336E+02  0.10434449608E+01  0.37922282706E+01  0.13305132125E+02  0.51100000000E-03 0. -1.
        -11    1    3    3    0    0 -0.58734487250E+01  0.88229137501E+01 -0.47148442185E+00  0.10609594940E+02  0.51100000000E-03 0.  1.
         12    1    3    3    0    0 -0.21530102365E+02 -0.15644917347E+02 -0.59354216544E-01  0.26614136649E+02  0.00000000000E+00 0. -1.
</event>
<event>
 7    1  0.4374874E-012  0.5052886E+02  0.7816164E-02  0.1300439E+00
        -11   -1    0    0    0    0  0.00000000000E+00  0.00000000000E+00  0.45593999997E+02  0.45594000000E+02  0.51100000000E-03 0. -1.
         11   -1    0    0    0    0 -0.00000000000E+00 -0.00000000000E+00 -0.45593999997E+02  0.45594000000E+02  0.51100000000E-03 0.  1.
    9900012    2    1    2    0    0  0.28751898768E+02 -0.13703858669E+02 -0.25272480949E+02  0.50528859349E+02  0.29999998477E+02 0.  0.
         12    1    1    2    0    0 -0.28751898768E+02  0.13703858669E+02  0.25272480949E+02  0.40659140651E+02  0.00000000000E+00 0. -1.
         11    1    3    3    0    0  0.85214899561E+00  0.37740954051E+01 -0.10264106510E+00  0.38704637302E+01  0.51100000000E-03 0. -1.
        -11    1    3    3    0    0  0.91499322997E+01 -0.15148944848E+02 -0.37396077278E+01  0.18088572562E+02  0.51100000000E-03 0.  1.
        -12    1    3    3    0    0  0.18749817472E+02 -0.23290092256E+01 -0.21430232156E+02  0.28569823057E+02  0.00000000000E+00 0.  1.
</event>
<event>
 7    1  0.4374874E-012  0.5052886E+02  0.7816164E-02  0.1300439E+00
        -11   -1    0    0    0    0  0.00000000000E+00  0.00000000000E+00  0.45593999997E+02  0.45594000000E+02  0.51100000000E-03 0. -1.
         11   -1    0    0    0    0 -0.00000000000E+00 -0.00000000000E+00 -0.45593999997E+02  0.45594000000E+02  0.51100000000E-03 0.  1.
    9900012    2    1    2    0    0  0.17108953535E+02  0.13858025692E+02  0.34181934937E+02  0.50528857815E+02  0.29999993816E+02 0.  0.
        -12    1    1    2    0    0 -0.17108953535E+02 -0.13858025692E+02 -0.34181934937E+02  0.40659142185E+02  0.00000000000E+00 0.  1.
         11    1    3    3    0    0  0.44381805714E+01  0.48266618247E+01  0.83572570410E+01  0.10622516494E+02  0.51100000000E-03 0. -1.
        -11    1    3    3    0    0  0.16637006161E+02  0.19942722480E+01  0.48713316015E+01  0.17449841479E+02  0.51100000000E-03 0.  1.
         12    1    3    3    0    0 -0.39662331975E+01  0.70370916196E+01  0.20953346294E+02  0.22456499842E+02  0.00000000000E+00 0. -1.
</event>
<event>
 7    1  0.4374874E-012  0.5052887E+02  0.7816164E-02  0.1300439E+00
        -11   -1    0    0    0    0  0.00000000000E+00  0.00000000000E+00  0.45593999997E+02  0.45594000000E+02  0.51100000000E-03 0. -1.
         11   -1    0    0    0    0 -0.00000000000E+00 -0.00000000000E+00 -0.45593999997E+02  0.45594000000E+02  0.51100000000E-03 0.  1.
    9900012    2    1    2    0    0  0.23084471288E+02 -0.25662835734E+02 -0.21486994846E+02  0.50528869413E+02  0.30000029069E+02 0.  0.
         12    1    1    2    0    0 -0.23084471288E+02  0.25662835734E+02  0.21486994846E+02  0.40659130587E+02  0.00000000000E+00 0. -1.
         11    1    3    3    0    0  0.51446755905E+01 -0.13042768755E+02 -0.62674704437E+00  0.14034753858E+02  0.51100000000E-03 0. -1.
        -11    1    3    3    0    0  0.81095797579E+01 -0.20442167618E+01  0.27628381487E+01  0.88078022751E+01  0.51100000000E-03 0.  1.
        -12    1    3    3    0    0  0.98302159396E+01 -0.10575850217E+02 -0.23623085951E+02  0.27686313280E+02  0.00000000000E+00 0.  1.
</event>
<event>
 7    1  0.4374874E-012  0.5052888E+02  0.7816164E-02  0.1300439E+00
        -11   -1    0    0    0    0  0.00000000000E+00  0.00000000000E+00  0.45593999997E+02  0.45594000000E+02  0.51100000000E-03 0. -1.
         11   -1    0    0    0    0 -0.00000000000E+00 -0.00000000000E+00 -0.45593999997E+02  0.45594000000E+02  0.51100000000E-03 0.  1.
    9900012    2    1    2    0    0  0.51347819974E+00  0.16047883680E+02 -0.37354595034E+02  0.50528880474E+02  0.30000062690E+02 0.  0.
         12    1    1    2    0    0 -0.51347819974E+00 -0.16047883680E+02  0.37354595034E+02  0.40659119526E+02  0.00000000000E+00 0. -1.
         11    1    3    3    0    0 -0.23594200430E+01 -0.33485190675E+01 -0.35772112038E+01  0.54383713686E+01  0.51100000000E-03 0. -1.
        -11    1    3    3    0    0 -0.99121094356E+01  0.90251375384E+01 -0.14874825473E+02  0.20024071868E+02  0.51100000000E-03 0.  1.
         12    1    3    3    0    0  0.12785007678E+02  0.10371265209E+02 -0.18902558357E+02  0.25066437238E+02  0.00000000000E+00 0. -1.
</event>
<event>
 7    1  0.4374874E-012  0.5052886E+02  0.7816164E-02  0.1300439E+00
        -11   -1    0    0    0    0  0.00000000000E+00  0.00000000000E+00  0.45593999997E+02  0.45594000000E+02  0.51100000000E-03 0. -1.
         11   -1    0    0    0    0 -0.00000000000E+00 -0.00000000000E+00 -0.45593999997E+02  0.45594000000E+02  0.51100000000E-03 0.  1.
    9900012    2    1    2    0    0  0.13883369232E+02  0.25297743845E+02  0.28643351772E+02  0.50528863443E+02  0.30000010921E+02 0.  0.
        -12    1    1    2    0    0 -0.13883369232E+02 -0.25297743845E+02 -0.28643351772E+02  0.40659136557E+02  0.00000000000E+00 0.  1.
         11    1    3    3    0    0 -0.31257137430E+01 -0.48475267163E+01  0.13194066624E+01  0.59168772060E+01  0.51100000000E-03 0.  1.
        -11    1    3    3    0    0  0.59556256510E+01  0.54202594570E+01  0.79211494498E+01  0.11295720355E+02  0.51100000000E-03 0. -1.
        -12    1    3    3    0    0  0.11053457324E+02  0.24725011104E+02  0.19402795659E+02  0.33316265882E+02  0.00000000000E+00 0.  1.
</event>
<event>
 7    1  0.4374874E-012  0.5052884E+02  0.7816164E-02  0.1300439E+00
        -11   -1    0    0    0    0  0.00000000000E+00  0.00000000000E+00  0.45593999997E+02  0.45594000000E+02  0.51100000000E-03 0. -1.
         11   -1    0    0    0    0 -0.00000000000E+00 -0.00000000000E+00 -0.45593999997E+02  0.45594000000E+02  0.51100000000E-03 0.  1.
    9900012    2    1    2    0    0 -0.37107949929E+02 -0.16236994789E+02  0.35393494328E+01  0.50528844301E+02  0.29999952738E+02 0.  0.
         12    1    1    2    0    0  0.37107949929E+02  0.16236994789E+02 -0.35393494328E+01  0.40659155699E+02  0.00000000000E+00 0. -1.
         11    1    3    3    0    0 -0.18084390164E+02  0.21892922672E+01  0.48565535236E+01  0.18852699558E+02  0.51100000000E-03 0. -1.
        -11    1    3    3    0    0 -0.43382784865E+01 -0.37297517402E+01 -0.80147252500E+01  0.98472092171E+01  0.51100000000E-03 0.  1.
        -12    1    3    3    0    0 -0.14685281278E+02 -0.14696535316E+02  0.66975211592E+01  0.21828935526E+02  0.00000000000E+00 0.  1.
</event>
<event>
 7    1  0.4374874E-012  0.5052888E+02  0.7816164E-02  0.1300439E+00
        -11   -1    0    0    0    0  0.00000000000E+00  0.00000000000E+00  0.45593999997E+02  0.45594000000E+02  0.51100000000E-03 0. -1.
         11   -1    0    0    0    0 -0.00000000000E+00 -0.00000000000E+00 -0.45593999997E+02  0.45594000000E+02  0.51100000000E-03 0.  1.
    9900012    2    1    2    0    0 -0.21542752805E+02  0.15599230704E+02 -0.30752846857E+02  0.50528883104E+02  0.30000070682E+02 0.  0.
         12    1    1    2    0    0  0.21542752805E+02 -0.15599230704E+02  0.30752846857E+02  0.40659116896E+02  0.00000000000E+00 0. -1.
         11    1    3    3    0    0 -0.32399141559E+01 -0.48457899463E+01 -0.32250527484E+01  0.66618082705E+01  0.51100000000E-03 0. -1.
        -11    1    3    3    0    0 -0.15395462731E+02  0.51155657050E+01 -0.60377692897E+01  0.17310226557E+02  0.51100000000E-03 0.  1.
         12    1    3    3    0    0 -0.29073759177E+01  0.15329454946E+02 -0.21490024819E+02  0.26556848277E+02  0.00000000000E+00 0. -1.
</event>
<event>
 7    1  0.4374874E-012  0.5052884E+02  0.7816164E-02  0.1300439E+00
        -11   -1    0    0    0    0  0.00000000000E+00  0.00000000000E+00  0.45593999997E+02  0.45594000000E+02  0.51100000000E-03 0. -1.
         11   -1    0    0    0    0 -0.00000000000E+00 -0.00000000000E+00 -0.45593999997E+02  0.45594000000E+02  0.51100000000E-03 0.  1.
    9900012    2    1    2    0    0  0.12894486350E+02  0.26089352413E+02 -0.28394456439E+02  0.50528840589E+02  0.29999941455E+02 0.  0.
         12    1    1    2    0    0 -0.12894486350E+02 -0.26089352413E+02  0.28394456439E+02  0.40659159411E+02  0.00000000000E+00 0. -1.
         11    1    3    3    0    0  0.49593913664E+00  0.21628040148E+02 -0.15068932602E+02  0.26364574836E+02  0.51100000000E-03 0. -1.
        -11    1    3    3    0    0  0.94898331169E+01  0.98784098234E+01 -0.11080280831E+02  0.17618528224E+02  0.51100000000E-03 0.  1.
         12    1    3    3    0    0  0.29087140964E+01 -0.54170975581E+01 -0.22452430061E+01  0.65457375295E+01  0.00000000000E+00 0. -1.
</event>
<event>
 7    1  0.4374874E-012  0.5052886E+02  0.7816164E-02  0.1300439E+00
        -11   -1    0    0    0    0  0.00000000000E+00  0.00000000000E+00  0.45593999997E+02  0.45594000000E+02  0.51100000000E-03 0. -1.
         11   -1    0    0    0    0 -0.00000000000E+00 -0.00000000000E+00 -0.45593999997E+02  0.45594000000E+02  0.51100000000E-03 0.  1.
    9900012    2    1    2    0    0  0.48852301272E+01 -0.33130867768E+02  0.23057444254E+02  0.50528860708E+02  0.30000002608E+02 0.  0.
        -12    1    1    2    0    0 -0.48852301272E+01  0.33130867768E+02 -0.23057444254E+02  0.40659139292E+02  0.00000000000E+00 0.  1.
         11    1    3    3    0    0 -0.34269908335E+01 -0.13386170525E+01  0.80268739162E+00  0.37656963627E+01  0.51100000000E-03 0. -1.
        -11    1    3    3    0    0  0.14742642060E+02 -0.13606170890E+02  0.45301093301E+01  0.20566848859E+02  0.51100000000E-03 0.  1.
         12    1    3    3    0    0 -0.64304210990E+01 -0.18186079825E+02  0.17724647532E+02  0.26196315486E+02  0.00000000000E+00 0. -1.
</event>
<event>
 7    1  0.4374874E-012  0.5052883E+02  0.7816164E-02  0.1300439E+00
        -11   -1    0    0    0    0  0.00000000000E+00  0.00000000000E+00  0.45593999997E+02  0.45594000000E+02  0.51100000000E-03 0. -1.
         11   -1    0    0    0    0 -0.00000000000E+00 -0.00000000000E+00 -0.45593999997E+02  0.45594000000E+02  0.51100000000E-03 0.  1.
    9900012    2    1    2    0    0  0.70464789412E+01 -0.14086737576E+02 -0.37484380933E+02  0.50528833076E+02  0.29999918617E+02 0.  0.
         12    1    1    2    0    0 -0.70464789412E+01  0.14086737576E+02  0.37484380933E+02  0.40659166924E+02  0.00000000000E+00 0. -1.
         11    1    3    3    0    0  0.57153555299E+01 -0.28744331115E+01 -0.89452279103E+01  0.10997488676E+02  0.51100000000E-03 0. -1.
        -11    1    3    3    0    0  0.12457276719E+02 -0.87493358734E+01 -0.11703904727E+02  0.19201979263E+02  0.51100000000E-03 0.  1.
         12    1    3    3    0    0 -0.11126153307E+02 -0.24629685915E+01 -0.16835248296E+02  0.20329365137E+02  0.00000000000E+00 0. -1.
</event>
<event>
 7    1  0.4374874E-012  0.5052886E+02  0.7816164E-02  0.1300439E+00
        -11   -1    0    0    0    0  0.00000000000E+00  0.00000000000E+00  0.45593999997E+02  0.45594000000E+02  0.51100000000E-03 0. -1.
         11   -1    0    0    0    0 -0.00000000000E+00 -0.00000000000E+00 -0.45593999997E+02  0.45594000000E+02  0.51100000000E-03 0.  1.
    9900012    2    1    2    0    0 -0.26091098157E+02  0.25087837698E+02 -0.18520817135E+02  0.50528859936E+02  0.30000000261E+02 0.  0.
         12    1    1    2    0    0  0.26091098157E+02 -0.25087837698E+02  0.18520817135E+02  0.40659140064E+02  0.00000000000E+00 0. -1.
         11    1    3    3    0    0  0.47572852734E+01  0.79481138813E+01 -0.32246254018E+01  0.98082866335E+01  0.51100000000E-03 0. -1.
        -11    1    3    3    0    0 -0.41046587016E+01  0.25979462491E+01 -0.80920438593E+01  0.94381524596E+01  0.51100000000E-03 0.  1.
        -12    1    3    3    0    0 -0.26743724728E+02  0.14541777568E+02 -0.72041478740E+01  0.31282420843E+02  0.00000000000E+00 0.  1.
</event>
<event>
 7    1  0.4374874E-012  0.5052882E+02  0.7816164E-02  0.1300439E+00
        -11   -1    0    0    0    0  0.00000000000E+00  0.00000000000E+00  0.45593999997E+02  0.45594000000E+02  0.51100000000E-03 0. -1.
         11   -1    0    0    0    0 -0.00000000000E+00 -0.00000000000E+00 -0.45593999997E+02  0.45594000000E+02  0.51100000000E-03 0.  1.
    9900012    2    1    2    0    0 -0.29933348028E+02 -0.23298021001E+02  0.14641231819E+02  0.50528821751E+02  0.29999884193E+02 0.  0.
        -12    1    1    2    0    0  0.29933348028E+02  0.23298021001E+02 -0.14641231819E+02  0.40659178249E+02  0.00000000000E+00 0.  1.
         11    1    3    3    0    0 -0.68967003681E+01 -0.49622830965E+00  0.76679384743E+01  0.10325114973E+02  0.51100000000E-03 0. -1.
        -11    1    3    3    0    0 -0.25303541170E+02 -0.17341209437E+02  0.11496958009E+02  0.32759224414E+02  0.51100000000E-03 0.  1.
        -12    1    3    3    0    0  0.22668935098E+01 -0.54605832547E+01 -0.45236646648E+01  0.74444823639E+01  0.00000000000E+00 0.  1.
</event>
<event>
 7    1  0.4374874E-012  0.5052886E+02  0.7816164E-02  0.1300439E+00
        -11   -1    0    0    0    0  0.00000000000E+00  0.00000000000E+00  0.45593999997E+02  0.45594000000E+02  0.51100000000E-03 0. -1.
         11   -1    0    0    0    0 -0.00000000000E+00 -0.00000000000E+00 -0.45593999997E+02  0.45594000000E+02  0.51100000000E-03 0.  1.
    9900012    2    1    2    0    0 -0.28966552427E+02  0.15734709548E+02 -0.23801755784E+02  0.50528858070E+02  0.29999994591E+02 0.  0.
         12    1    1    2    0    0  0.28966552427E+02 -0.15734709548E+02  0.23801755784E+02  0.40659141930E+02  0.00000000000E+00 0. -1.
         11    1    3    3    0    0 -0.49091622452E+01  0.26640388993E+01  0.59972712402E+00  0.56175306043E+01  0.51100000000E-03 0. -1.
        -11    1    3    3    0    0 -0.26342364309E+02  0.10144854852E+02 -0.98558462210E+01  0.29899430469E+02  0.51100000000E-03 0.  1.
         12    1    3    3    0    0  0.22849741273E+01  0.29258157965E+01 -0.14545636687E+02  0.15011896998E+02  0.00000000000E+00 0. -1.
</event>
<event>
 7    1  0.4374874E-012  0.5052886E+02  0.7816164E-02  0.1300439E+00
        -11   -1    0    0    0    0  0.00000000000E+00  0.00000000000E+00  0.45593999997E+02  0.45594000000E+02  0.51100000000E-03 0. -1.
         11   -1    0    0    0    0 -0.00000000000E+00 -0.00000000000E+00 -0.45593999997E+02  0.45594000000E+02  0.51100000000E-03 0.  1.
    9900012    2    1    2    0    0 -0.20048272970E+02  0.32221618328E+02 -0.14594506315E+02  0.50528861404E+02  0.30000004725E+02 0.  0.
         12    1    1    2    0    0  0.20048272970E+02 -0.32221618328E+02  0.14594506315E+02  0.40659138596E+02  0.00000000000E+00 0. -1.
         11    1    3    3    0    0 -0.37227373304E+01  0.79578919781E+00 -0.11533242923E+02  0.12145276706E+02  0.51100000000E-03 0. -1.
        -11    1    3    3    0    0 -0.16398547306E+01  0.16672514475E+00 -0.34728701027E+01  0.38441836354E+01  0.51100000000E-03 0.  1.
        -12    1    3    3    0    0 -0.14685680909E+02  0.31259103985E+02  0.41160671074E+00  0.34539401063E+02  0.00000000000E+00 0.  1.
</event>
<event>
 7    1  0.4374874E-012  0.5052886E+02  0.7816164E-02  0.1300439E+00
        -11   -1    0    0    0    0  0.00000000000E+00  0.00000000000E+00  0.45593999997E+02  0.45594000000E+02  0.51100000000E-03 0. -1.
         11   -1    0    0    0    0 -0.00000000000E+00 -0.00000000000E+00 -0.45593999997E+02  0.45594000000E+02  0.51100000000E-03 0.  1.
    9900012    2    1    2    0    0 -0.11472400235E+02 -0.13442244915E+02  0.36617697224E+02  0.50528860001E+02  0.30000000458E+02 0.  0.
        -12    1    1    2    0    0  0.11472400235E+02  0.13442244915E+02 -0.36617697224E+02  0.40659139999E+02  0.00000000000E+00 0.  1.
         11    1    3    3    0    0 -0.14398248152E+02 -0.17641187120E+02  0.26329796537E+02  0.34810619339E+02  0.51100000000E-03 0. -1.
        -11    1    3    3    0    0 -0.39818715803E+01  0.12287801043E+01  0.23487329182E+01  0.47834870554E+01  0.51100000000E-03 0.  1.
        -12    1    3    3    0    0  0.69077194971E+01  0.29701621012E+01  0.79391677691E+01  0.10934753606E+02  0.00000000000E+00 0.  1.
</event>
<event>
 7    1  0.4374874E-012  0.5052886E+02  0.7816164E-02  0.1300439E+00
        -11   -1    0    0    0    0  0.00000000000E+00  0.00000000000E+00  0.45593999997E+02  0.45594000000E+02  0.51100000000E-03 0. -1.
         11   -1    0    0    0    0 -0.00000000000E+00 -0.00000000000E+00 -0.45593999997E+02  0.45594000000E+02  0.51100000000E-03 0.  1.
    9900012    2    1    2    0    0 -0.23071365570E+02 -0.25325699042E+02 -0.21897177279E+02  0.50528864323E+02  0.30000013597E+02 0.  0.
         12    1    1    2    0    0  0.23071365570E+02  0.25325699042E+02  0.21897177279E+02  0.40659135677E+02  0.00000000000E+00 0. -1.
         11    1    3    3    0    0 -0.57924872441E+01 -0.16839173172E+02 -0.12013459944E+02  0.21481012119E+02  0.51100000000E-03 0. -1.
        -11    1    3    3    0    0  0.30316914189E+01 -0.67781903114E+00  0.25207333750E+01  0.40005860205E+01  0.51100000000E-03 0.  1.
        -12    1    3    3    0    0 -0.20310569745E+02 -0.78087068389E+01 -0.12404450710E+02  0.25047266183E+02  0.00000000000E+00 0.  1.
</event>
<event>
 7    1  0.4374874E-012  0.5052886E+02  0.7816164E-02  0.1300439E+00
        -11   -1    0    0    0    0  0.00000000000E+00  0.00000000000E+00  0.45593999997E+02  0.45594000000E+02  0.51100000000E-03 0. -1.
         11   -1    0    0    0    0 -0.00000000000E+00 -0.00000000000E+00 -0.45593999997E+02  0.45594000000E+02  0.51100000000E-03 0.  1.
    9900012    2    1    2    0    0  0.32134015297E+02  0.11722618090E+02  0.21980697524E+02  0.50528858622E+02  0.29999996267E+02 0.  0.
        -12    1    1    2    0    0 -0.32134015297E+02 -0.11722618090E+02 -0.21980697524E+02  0.40659141378E+02  0.00000000000E+00 0.  1.
         11    1    3    3    0    0  0.26588817221E+01 -0.51846355541E+01  0.35865248323E+01  0.68420215197E+01  0.51100000000E-03 0. -1.
        -11    1    3    3    0    0  0.26693640090E+02  0.88321148954E+01  0.61886190201E+01  0.28789853775E+02  0.51100000000E-03 0.  1.
        -12    1    3    3    0    0  0.27814934849E+01  0.80751387491E+01  0.12205553671E+02  0.14896983327E+02  0.00000000000E+00 0.  1.
</event>
<event>
 7    1  0.4374874E-012  0.5052886E+02  0.7816164E-02  0.1300439E+00
        -11   -1    0    0    0    0  0.00000000000E+00  0.00000000000E+00  0.45593999997E+02  0.45594000000E+02  0.51100000000E-03 0.  1.
         11   -1    0    0    0    0 -0.00000000000E+00 -0.00000000000E+00 -0.45593999997E+02  0.45594000000E+02  0.51100000000E-03 0. -1.
    9900012    2    1    2    0    0 -0.26033314438E+02  0.29628634783E+02 -0.98780804861E+01  0.50528856701E+02  0.29999990428E+02 0.  0.
         12    1    1    2    0    0  0.26033314438E+02 -0.29628634783E+02  0.98780804861E+01  0.40659143299E+02  0.00000000000E+00 0. -1.
         11    1    3    3    0    0 -0.30000699366E+01  0.10507904884E+02  0.50238095015E+01  0.12027266807E+02  0.51100000000E-03 0. -1.
        -11    1    3    3    0    0 -0.15002023296E+02  0.18535600917E+02 -0.28620428794E+01  0.24017087543E+02  0.51100000000E-03 0.  1.
         12    1    3    3    0    0 -0.80312212050E+01  0.58512898230E+00 -0.12039847108E+02  0.14484502351E+02  0.00000000000E+00 0. -1.
</event>
<event>
 7    1  0.4374874E-012  0.5052886E+02  0.7816164E-02  0.1300439E+00
        -11   -1    0    0    0    0  0.00000000000E+00  0.00000000000E+00  0.45593999997E+02  0.45594000000E+02  0.51100000000E-03 0. -1.
         11   -1    0    0    0    0 -0.00000000000E+00 -0.00000000000E+00 -0.45593999997E+02  0.45594000000E+02  0.51100000000E-03 0.  1.
    9900012    2    1    2    0    0  0.23841706929E+02  0.13736799249E+02  0.29933910318E+02  0.50528860439E+02  0.30000001790E+02 0.  0.
        -12    1    1    2    0    0 -0.23841706929E+02 -0.13736799249E+02 -0.29933910318E+02  0.40659139561E+02  0.00000000000E+00 0.  1.
         11    1    3    3    0    0  0.14610661557E+01 -0.47400810530E+01  0.10220779643E+01  0.50643584319E+01  0.51100000000E-03 0. -1.
        -11    1    3    3    0    0  0.20435147009E+01  0.85794731416E+01  0.80021525199E-01  0.88198478119E+01  0.51100000000E-03 0.  1.
         12    1    3    3    0    0  0.20337126073E+02  0.98974071606E+01  0.28831810829E+02  0.36644654195E+02  0.00000000000E+00 0. -1.
</event>
<event>
 7    1  0.4374874E-012  0.5052886E+02  0.7816164E-02  0.1300439E+00
        -11   -1    0    0    0    0  0.00000000000E+00  0.00000000000E+00  0.45593999997E+02  0.45594000000E+02  0.51100000000E-03 0. -1.
         11   -1    0    0    0    0 -0.00000000000E+00 -0.00000000000E+00 -0.45593999997E+02  0.45594000000E+02  0.51100000000E-03 0.  1.
    9900012    2    1    2    0    0 -0.15166851160E+02 -0.22654149133E+01  0.37656341013E+02  0.50528862069E+02  0.30000006745E+02 0.  0.
        -12    1    1    2    0    0  0.15166851160E+02  0.22654149133E+01 -0.37656341013E+02  0.40659137931E+02  0.00000000000E+00 0.  1.
         11    1    3    3    0    0 -0.32827277319E+01  0.22913541356E+00  0.29540065562E+02  0.29722790549E+02  0.51100000000E-03 0. -1.
        -11    1    3    3    0    0 -0.15063019641E+02 -0.36084305162E+00  0.77943270020E+01  0.16963970705E+02  0.51100000000E-03 0.  1.
        -12    1    3    3    0    0  0.31788962123E+01 -0.21337072752E+01  0.32194844891E+00  0.38421008145E+01  0.00000000000E+00 0.  1.
</event>
<event>
 7    1  0.4374874E-012  0.5052891E+02  0.7816164E-02  0.1300439E+00
        -11   -1    0    0    0    0  0.00000000000E+00  0.00000000000E+00  0.45593999997E+02  0.45594000000E+02  0.51100000000E-03 0. -1.
         11   -1    0    0    0    0 -0.00000000000E+00 -0.00000000000E+00 -0.45593999997E+02  0.45594000000E+02  0.51100000000E-03 0.  1.
    9900012    2    1    2    0    0  0.15016476288E+02 -0.37497977835E+02  0.46441698071E+01  0.50528914730E+02  0.30000166812E+02 0.  0.
         12    1    1    2    0    0 -0.15016476288E+02  0.37497977835E+02 -0.46441698071E+01  0.40659085270E+02  0.00000000000E+00 0. -1.
         11    1    3    3    0    0  0.16826064234E+02 -0.18083268311E+02  0.51245669839E+01  0.25226617241E+02  0.51100000000E-03 0. -1.
        -11    1    3    3    0    0  0.37357720394E+01 -0.16005258438E+02  0.45748338977E+01  0.17060287097E+02  0.51100000000E-03 0.  1.
         12    1    3    3    0    0 -0.55453599846E+01 -0.34094510860E+01 -0.50552310746E+01  0.82420103909E+01  0.00000000000E+00 0. -1.
</event>
<event>
 7    1  0.4374874E-012  0.5052886E+02  0.7816164E-02  0.1300439E+00
        -11   -1    0    0    0    0  0.00000000000E+00  0.00000000000E+00  0.45593999997E+02  0.45594000000E+02  0.51100000000E-03 0. -1.
         11   -1    0    0    0    0 -0.00000000000E+00 -0.00000000000E+00 -0.45593999997E+02  0.45594000000E+02  0.51100000000E-03 0.  1.
    9900012    2    1    2    0    0  0.21447298625E+02 -0.49414229922E+01  0.34187158136E+02  0.50528855138E+02  0.29999985677E+02 0.  0.
        -12    1    1    2    0    0 -0.21447298625E+02  0.49414229922E+01 -0.34187158136E+02  0.40659144862E+02  0.00000000000E+00 0.  1.
         11    1    3    3    0    0  0.14485608451E+02  0.26022985678E+00  0.19965528015E+02  0.24668256545E+02  0.51100000000E-03 0. -1.
        -11    1    3    3    0    0  0.74351055383E+01 -0.10515904440E+02  0.15717028376E+02  0.20319695416E+02  0.51100000000E-03 0.  1.
         12    1    3    3    0    0 -0.47341536462E+00  0.53142515908E+01 -0.14953982551E+01  0.55409031772E+01  0.00000000000E+00 0. -1.
</event>
<event>
 7    1  0.8972726E-012  0.5052884E+02  0.7816164E-02  0.1300439E+00
        -11   -1    0    0    0    0  0.00000000000E+00  0.00000000000E+00  0.45593999997E+02  0.45594000000E+02  0.51100000000E-03 0. -1.
         11   -1    0    0    0    0 -0.00000000000E+00 -0.00000000000E+00 -0.45593999997E+02  0.45594000000E+02  0.51100000000E-03 0.  1.
    9900012    2    1    2    0    0 -0.91418027774E+01  0.15502203787E+02 -0.36459246665E+02  0.50528836855E+02  0.29999930104E+02 0.  0.
         12    1    1    2    0    0  0.91418027774E+01 -0.15502203787E+02  0.36459246665E+02  0.40659163145E+02  0.00000000000E+00 0. -1.
         11    1    3    3    0    0 -0.20781047963E+00 -0.31987394484E+01 -0.18571239041E+02  0.18845849385E+02  0.51100000000E-03 0. -1.
        -11    1    3    3    0    0 -0.78335821341E+01  0.51015772472E+01 -0.15096456795E+02  0.17756522956E+02  0.51100000000E-03 0.  1.
         12    1    3    3    0    0 -0.11004101637E+01  0.13599365989E+02 -0.27915508284E+01  0.13926464514E+02  0.00000000000E+00 0. -1.
</event>
<event>
 7    1  0.4374874E-012  0.5052886E+02  0.7816164E-02  0.1300439E+00
        -11   -1    0    0    0    0  0.00000000000E+00  0.00000000000E+00  0.45593999997E+02  0.45594000000E+02  0.51100000000E-03 0. -1.
         11   -1    0    0    0    0 -0.00000000000E+00 -0.00000000000E+00 -0.45593999997E+02  0.45594000000E+02  0.51100000000E-03 0.  1.
    9900012    2    1    2    0    0 -0.28226148115E+02 -0.25620802779E+02 -0.14142997755E+02  0.50528863783E+02  0.30000011953E+02 0.  0.
         12    1    1    2    0    0  0.28226148115E+02  0.25620802779E+02  0.14142997755E+02  0.40659136217E+02  0.00000000000E+00 0. -1.
         11    1    3    3    0    0  0.20619463380E+01 -0.12962610229E+01 -0.15768591958E+01  0.29014480048E+01  0.51100000000E-03 0. -1.
        -11    1    3    3    0    0 -0.14333194140E+02 -0.49206525322E+01 -0.16270439827E+02  0.22234668607E+02  0.51100000000E-03 0.  1.
         12    1    3    3    0    0 -0.15954900313E+02 -0.19403889224E+02  0.37043012685E+01  0.25392747171E+02  0.00000000000E+00 0. -1.
</event>
<event>
 7    1  0.4374874E-012  0.5052886E+02  0.7816164E-02  0.1300439E+00
        -11   -1    0    0    0    0  0.00000000000E+00  0.00000000000E+00  0.45593999997E+02  0.45594000000E+02  0.51100000000E-03 0. -1.
         11   -1    0    0    0    0 -0.00000000000E+00 -0.00000000000E+00 -0.45593999997E+02  0.45594000000E+02  0.51100000000E-03 0.  1.
    9900012    2    1    2    0    0 -0.21986191175E+02  0.20822240981E+02 -0.27133147086E+02  0.50528855977E+02  0.29999988229E+02 0.  0.
         12    1    1    2    0    0  0.21986191175E+02 -0.20822240981E+02  0.27133147086E+02  0.40659144023E+02  0.00000000000E+00 0. -1.
         11    1    3    3    0    0  0.30224483015E+00 -0.30820666644E+01 -0.40183349748E+01  0.50732142762E+01  0.51100000000E-03 0. -1.
        -11    1    3    3    0    0  0.28065684698E+01  0.10078884303E+02 -0.69238737171E+01  0.12545946074E+02  0.51100000000E-03 0.  1.
        -12    1    3    3    0    0 -0.25095004475E+02  0.13825423342E+02 -0.16190938394E+02  0.32909695627E+02  0.00000000000E+00 0.  1.
</event>
<event>
 7    1  0.4374874E-012  0.5052886E+02  0.7816164E-02  0.1300439E+00
        -11   -1    0    0    0    0  0.00000000000E+00  0.00000000000E+00  0.45593999997E+02  0.45594000000E+02  0.51100000000E-03 0. -1.
         11   -1    0    0    0    0 -0.00000000000E+00 -0.00000000000E+00 -0.45593999997E+02  0.45594000000E+02  0.51100000000E-03 0.  1.
    9900012    2    1    2    0    0  0.72457018815E+01  0.33712953047E+02 -0.21543032960E+02  0.50528859969E+02  0.30000000363E+02 0.  0.
         12    1    1    2    0    0 -0.72457018815E+01 -0.33712953047E+02  0.21543032960E+02  0.40659140031E+02  0.00000000000E+00 0. -1.
         11    1    3    3    0    0  0.19778008181E+00  0.11274032887E+02 -0.14702155668E+02  0.18528257232E+02  0.51100000000E-03 0. -1.
        -11    1    3    3    0    0  0.16678711953E+01  0.18696910020E+02 -0.13137998138E+02  0.22912076160E+02  0.51100000000E-03 0.  1.
         12    1    3    3    0    0  0.53800506044E+01  0.37420101401E+01  0.62971208464E+01  0.90885265774E+01  0.00000000000E+00 0. -1.
</event>
<event>
 7    1  0.4374874E-012  0.5052886E+02  0.7816164E-02  0.1300439E+00
        -11   -1    0    0    0    0  0.00000000000E+00  0.00000000000E+00  0.45593999997E+02  0.45594000000E+02  0.51100000000E-03 0. -1.
         11   -1    0    0    0    0 -0.00000000000E+00 -0.00000000000E+00 -0.45593999997E+02  0.45594000000E+02  0.51100000000E-03 0.  1.
    9900012    2    1    2    0    0  0.81493971390E+01  0.27196701652E+02  0.29104858665E+02  0.50528855243E+02  0.29999985996E+02 0.  0.
        -12    1    1    2    0    0 -0.81493971390E+01 -0.27196701652E+02 -0.29104858665E+02  0.40659144757E+02  0.00000000000E+00 0.  1.
         11    1    3    3    0    0  0.14153339918E+00  0.40907414658E+01  0.16261624696E+02  0.16768859098E+02  0.51100000000E-03 0. -1.
        -11    1    3    3    0    0  0.10054111709E+02  0.56009871854E+01  0.11200402387E+02  0.16059428184E+02  0.51100000000E-03 0.  1.
        -12    1    3    3    0    0 -0.20462479688E+01  0.17504973001E+02  0.16428315818E+01  0.17700567961E+02  0.00000000000E+00 0.  1.
</event>
<event>
 7    1  0.4374874E-012  0.5052879E+02  0.7816164E-02  0.1300439E+00
        -11   -1    0    0    0    0  0.00000000000E+00  0.00000000000E+00  0.45593999997E+02  0.45594000000E+02  0.51100000000E-03 0.  1.
         11   -1    0    0    0    0 -0.00000000000E+00 -0.00000000000E+00 -0.45593999997E+02  0.45594000000E+02  0.51100000000E-03 0. -1.
    9900012    2    1    2    0    0 -0.27067170747E+02  0.15575672454E+02 -0.26037238413E+02  0.50528793308E+02  0.29999797738E+02 0.  0.
         12    1    1    2    0    0  0.27067170747E+02 -0.15575672454E+02  0.26037238413E+02  0.40659206692E+02  0.00000000000E+00 0. -1.
         11    1    3    3    0    0 -0.77318989471E+01  0.58999852189E+01 -0.10969327418E+02  0.14660089740E+02  0.51100000000E-03 0.  1.
        -11    1    3    3    0    0 -0.52214402727E+01 -0.43582702517E+01 -0.14432741373E+02  0.15954998650E+02  0.51100000000E-03 0. -1.
        -12    1    3    3    0    0 -0.14113831527E+02  0.14033957487E+02 -0.63516962154E+00  0.19913704918E+02  0.00000000000E+00 0.  1.
</event>
<event>
 7    1  0.4374874E-012  0.5052886E+02  0.7816164E-02  0.1300439E+00
        -11   -1    0    0    0    0  0.00000000000E+00  0.00000000000E+00  0.45593999997E+02  0.45594000000E+02  0.51100000000E-03 0. -1.
         11   -1    0    0    0    0 -0.00000000000E+00 -0.00000000000E+00 -0.45593999997E+02  0.45594000000E+02  0.51100000000E-03 0.  1.
    9900012    2    1    2    0    0 -0.31512287105E+01 -0.95245136626E+01 -0.39402020199E+02  0.50528858363E+02  0.29999995479E+02 0.  0.
         12    1    1    2    0    0  0.31512287105E+01  0.95245136626E+01  0.39402020199E+02  0.40659141637E+02  0.00000000000E+00 0. -1.
         11    1    3    3    0    0 -0.77596652508E+01 -0.28064910129E+00 -0.55850424392E+01  0.95647199661E+01  0.51100000000E-03 0.  1.
        -11    1    3    3    0    0  0.13902338515E+01 -0.14395578234E+02 -0.13593556484E+02  0.19848178783E+02  0.51100000000E-03 0. -1.
        -12    1    3    3    0    0  0.32182026888E+01  0.51517136722E+01 -0.20223421276E+02  0.21115959614E+02  0.00000000000E+00 0.  1.
</event>
<event>
 7    1  0.4374874E-012  0.5052885E+02  0.7816164E-02  0.1300439E+00
        -11   -1    0    0    0    0  0.00000000000E+00  0.00000000000E+00  0.45593999997E+02  0.45594000000E+02  0.51100000000E-03 0. -1.
         11   -1    0    0    0    0 -0.00000000000E+00 -0.00000000000E+00 -0.45593999997E+02  0.45594000000E+02  0.51100000000E-03 0.  1.
    9900012    2    1    2    0    0  0.59304014534E+01 -0.29836423515E+02 -0.26977481781E+02  0.50528851548E+02  0.29999974766E+02 0.  0.
         12    1    1    2    0    0 -0.59304014534E+01  0.29836423515E+02  0.26977481781E+02  0.40659148452E+02  0.00000000000E+00 0. -1.
         11    1    3    3    0    0  0.10790642722E+02 -0.83197483064E+01 -0.17716412472E+02  0.22350110813E+02  0.51100000000E-03 0. -1.
        -11    1    3    3    0    0 -0.36300706933E+01 -0.23767959138E+02 -0.85179641573E+01  0.25507822496E+02  0.51100000000E-03 0.  1.
         12    1    3    3    0    0 -0.12301705754E+01  0.22512839293E+01 -0.74310515204E+00  0.26709182394E+01  0.00000000000E+00 0. -1.
</event>
<event>
 7    1  0.4374874E-012  0.5052886E+02  0.7816164E-02  0.1300439E+00
        -11   -1    0    0    0    0  0.00000000000E+00  0.00000000000E+00  0.45593999997E+02  0.45594000000E+02  0.51100000000E-03 0. -1.
         11   -1    0    0    0    0 -0.00000000000E+00 -0.00000000000E+00 -0.45593999997E+02  0.45594000000E+02  0.51100000000E-03 0.  1.
    9900012    2    1    2    0    0  0.11035228235E+02  0.23229354617E+02  0.31492640214E+02  0.50528861227E+02  0.30000004185E+02 0.  0.
        -12    1    1    2    0    0 -0.11035228235E+02 -0.23229354617E+02 -0.31492640214E+02  0.40659138773E+02  0.00000000000E+00 0.  1.
         11    1    3    3    0    0 -0.55643817735E+00  0.21431141675E+00  0.16290311486E+01  0.17347321329E+01  0.51100000000E-03 0. -1.
        -11    1    3    3    0    0  0.58254853783E+01 -0.62790639144E+01  0.86171071988E+01  0.12149792602E+02  0.51100000000E-03 0.  1.
         12    1    3    3    0    0  0.57661810338E+01  0.29294107115E+02  0.21246501867E+02  0.36644336492E+02  0.00000000000E+00 0. -1.
</event>
<event>
 7    1  0.4374874E-012  0.5052886E+02  0.7816164E-02  0.1300439E+00
        -11   -1    0    0    0    0  0.00000000000E+00  0.00000000000E+00  0.45593999997E+02  0.45594000000E+02  0.51100000000E-03 0. -1.
         11   -1    0    0    0    0 -0.00000000000E+00 -0.00000000000E+00 -0.45593999997E+02  0.45594000000E+02  0.51100000000E-03 0.  1.
    9900012    2    1    2    0    0 -0.19123726537E+02 -0.57414367504E+01  0.35418700968E+02  0.50528863378E+02  0.30000010723E+02 0.  0.
        -12    1    1    2    0    0  0.19123726537E+02  0.57414367504E+01 -0.35418700968E+02  0.40659136622E+02  0.00000000000E+00 0.  1.
         11    1    3    3    0    0 -0.10680314764E+02 -0.61329903485E+01  0.76003216195E+01  0.14472303999E+02  0.51100000000E-03 0. -1.
        -11    1    3    3    0    0  0.29320702030E+01 -0.81567329678E+01  0.94819757235E+01  0.12846680204E+02  0.51100000000E-03 0.  1.
         12    1    3    3    0    0 -0.11375481976E+02  0.85482865658E+01  0.18336403625E+02  0.23209879174E+02  0.00000000000E+00 0. -1.
</event>
<event>
 7    1  0.4374874E-012  0.5052887E+02  0.7816164E-02  0.1300439E+00
        -11   -1    0    0    0    0  0.00000000000E+00  0.00000000000E+00  0.45593999997E+02  0.45594000000E+02  0.51100000000E-03 0. -1.
         11   -1    0    0    0    0 -0.00000000000E+00 -0.00000000000E+00 -0.45593999997E+02  0.45594000000E+02  0.51100000000E-03 0.  1.
    9900012    2    1    2    0    0 -0.31729109745E+02  0.13622057338E+02 -0.21467841915E+02  0.50528867105E+02  0.30000022052E+02 0.  0.
         12    1    1    2    0    0  0.31729109745E+02 -0.13622057338E+02  0.21467841915E+02  0.40659132895E+02  0.00000000000E+00 0. -1.
         11    1    3    3    0    0 -0.11001919180E+02 -0.34186205955E+01  0.22908772509E+01  0.11746374388E+02  0.51100000000E-03 0. -1.
        -11    1    3    3    0    0 -0.12637621121E+02  0.15714028101E+02 -0.94002916355E+01  0.22248721982E+02  0.51100000000E-03 0.  1.
         12    1    3    3    0    0 -0.80895694438E+01  0.13266498326E+01 -0.14358427530E+02  0.16533770734E+02  0.00000000000E+00 0. -1.
</event>
<event>
 7    1  0.4374874E-012  0.5052883E+02  0.7816164E-02  0.1300439E+00
        -11   -1    0    0    0    0  0.00000000000E+00  0.00000000000E+00  0.45593999997E+02  0.45594000000E+02  0.51100000000E-03 0. -1.
         11   -1    0    0    0    0 -0.00000000000E+00 -0.00000000000E+00 -0.45593999997E+02  0.45594000000E+02  0.51100000000E-03 0.  1.
    9900012    2    1    2    0    0  0.19036290939E+02 -0.22080692462E+02 -0.28341318953E+02  0.50528834830E+02  0.29999923950E+02 0.  0.
         12    1    1    2    0    0 -0.19036290939E+02  0.22080692462E+02  0.28341318953E+02  0.40659165170E+02  0.00000000000E+00 0. -1.
         11    1    3    3    0    0  0.15503475465E+02 -0.13634878056E+02 -0.29935072766E+01  0.20862136448E+02  0.51100000000E-03 0. -1.
        -11    1    3    3    0    0 -0.21465622406E+01 -0.77418331287E+00  0.29884202920E+00  0.23013900309E+01  0.51100000000E-03 0.  1.
        -12    1    3    3    0    0  0.56793777143E+01 -0.76716310924E+01 -0.25646653706E+02  0.27365308351E+02  0.00000000000E+00 0.  1.
</event>
<event>
 7    1  0.4374874E-012  0.5052894E+02  0.7816164E-02  0.1300439E+00
        -11   -1    0    0    0    0  0.00000000000E+00  0.00000000000E+00  0.45593999997E+02  0.45594000000E+02  0.51100000000E-03 0. -1.
         11   -1    0    0    0    0 -0.00000000000E+00 -0.00000000000E+00 -0.45593999997E+02  0.45594000000E+02  0.51100000000E-03 0.  1.
    9900012    2    1    2    0    0  0.33887434201E+02 -0.44901885936E+01 -0.22014530557E+02  0.50528935254E+02  0.30000229198E+02 0.  0.
         12    1    1    2    0    0 -0.33887434201E+02  0.44901885936E+01  0.22014530557E+02  0.40659064746E+02  0.00000000000E+00 0. -1.
         11    1    3    3    0    0  0.29582653009E+01  0.56957455565E+01 -0.33299075751E+01  0.72305695318E+01  0.51100000000E-03 0. -1.
        -11    1    3    3    0    0  0.14386864285E+02 -0.15972755192E+02 -0.11232603872E+02  0.24254528698E+02  0.51100000000E-03 0.  1.
         12    1    3    3    0    0  0.16542304615E+02  0.57868210423E+01 -0.74520191108E+01  0.19043837024E+02  0.00000000000E+00 0. -1.
</event>
<event>
 7    1  0.4374874E-012  0.5052886E+02  0.7816164E-02  0.1300439E+00
        -11   -1    0    0    0    0  0.00000000000E+00  0.00000000000E+00  0.45593999997E+02  0.45594000000E+02  0.51100000000E-03 0. -1.
         11   -1    0    0    0    0 -0.00000000000E+00 -0.00000000000E+00 -0.45593999997E+02  0.45594000000E+02  0.51100000000E-03 0.  1.
    9900012    2    1    2    0    0  0.12183919632E+01  0.26591976316E+02 -0.30733500451E+02  0.50528859166E+02  0.29999997921E+02 0.  0.
         12    1    1    2    0    0 -0.12183919632E+01 -0.26591976316E+02  0.30733500451E+02  0.40659140834E+02  0.00000000000E+00 0. -1.
         11    1    3    3    0    0 -0.13979215875E+01  0.10721816289E+02 -0.87186453095E+01  0.13889791417E+02  0.51100000000E-03 0. -1.
        -11    1    3    3    0    0  0.64712663670E+01  0.20528876098E+02 -0.11238223899E+02  0.24281880465E+02  0.51100000000E-03 0.  1.
        -12    1    3    3    0    0 -0.38549528163E+01 -0.46587160714E+01 -0.10776631242E+02  0.12357187284E+02  0.00000000000E+00 0.  1.
</event>
<event>
 7    1  0.4374874E-012  0.5052887E+02  0.7816164E-02  0.1300439E+00
        -11   -1    0    0    0    0  0.00000000000E+00  0.00000000000E+00  0.45593999997E+02  0.45594000000E+02  0.51100000000E-03 0. -1.
         11   -1    0    0    0    0 -0.00000000000E+00 -0.00000000000E+00 -0.45593999997E+02  0.45594000000E+02  0.51100000000E-03 0.  1.
    9900012    2    1    2    0    0  0.29222931311E+02 -0.13673137483E+01 -0.28236774434E+02  0.50528871975E+02  0.30000036856E+02 0.  0.
         12    1    1    2    0    0 -0.29222931311E+02  0.13673137483E+01  0.28236774434E+02  0.40659128025E+02  0.00000000000E+00 0. -1.
         11    1    3    3    0    0  0.11226279082E+02 -0.22886764651E+01 -0.52479026913E+01  0.12601899258E+02  0.51100000000E-03 0.  1.
        -11    1    3    3    0    0 -0.54477330883E+01 -0.24717343219E+01 -0.20889408824E+01  0.63364769889E+01  0.51100000000E-03 0. -1.
         12    1    3    3    0    0  0.23444385317E+02  0.33930970387E+01 -0.20899930860E+02  0.31590495729E+02  0.00000000000E+00 0. -1.
</event>
<event>
 7    1  0.4378768E-012  0.5052886E+02  0.7816164E-02  0.1300439E+00
        -11   -1    0    0    0    0  0.00000000000E+00  0.00000000000E+00  0.45593999997E+02  0.45594000000E+02  0.51100000000E-03 0. -1.
         11   -1    0    0    0    0 -0.00000000000E+00 -0.00000000000E+00 -0.45593999997E+02  0.45594000000E+02  0.51100000000E-03 0.  1.
    9900012    2    1    2    0    0  0.58752242562E+01  0.47938632757E+01 -0.39945791481E+02  0.50528860287E+02  0.30000001327E+02 0.  0.
         12    1    1    2    0    0 -0.58752242562E+01 -0.47938632757E+01  0.39945791481E+02  0.40659139713E+02  0.00000000000E+00 0. -1.
         11    1    3    3    0    0 -0.37483122307E+01  0.57614050509E+01 -0.29196922928E+01  0.74678133403E+01  0.51100000000E-03 0. -1.
        -11    1    3    3    0    0  0.64872388350E+01 -0.67316867691E+01 -0.34949345254E+02  0.36178123340E+02  0.51100000000E-03 0.  1.
         12    1    3    3    0    0  0.31362976519E+01  0.57641449938E+01 -0.20767539350E+01  0.68829236068E+01  0.00000000000E+00 0. -1.
</event>
<event>
 7    1  0.4374874E-012  0.5052886E+02  0.7816164E-02  0.1300439E+00
        -11   -1    0    0    0    0  0.00000000000E+00  0.00000000000E+00  0.45593999997E+02  0.45594000000E+02  0.51100000000E-03 0. -1.
         11   -1    0    0    0    0 -0.00000000000E+00 -0.00000000000E+00 -0.45593999997E+02  0.45594000000E+02  0.51100000000E-03 0.  1.
    9900012    2    1    2    0    0 -0.92081102049E+01 -0.64523337586E+00  0.39597473904E+02  0.50528861307E+02  0.30000004430E+02 0.  0.
        -12    1    1    2    0    0  0.92081102049E+01  0.64523337586E+00 -0.39597473904E+02  0.40659138693E+02  0.00000000000E+00 0.  1.
         11    1    3    3    0    0 -0.18032058770E+01  0.32369462420E+01 -0.14874821038E+01  0.39927403721E+01  0.51100000000E-03 0.  1.
        -11    1    3    3    0    0 -0.14121921279E+02 -0.15284424445E+01  0.22209739994E+02  0.26363560984E+02  0.51100000000E-03 0. -1.
        -12    1    3    3    0    0  0.67170169511E+01 -0.23537371734E+01  0.18875216014E+02  0.20172559951E+02  0.00000000000E+00 0.  1.
</event>
<event>
 7    1  0.4374874E-012  0.5052894E+02  0.7816164E-02  0.1300439E+00
        -11   -1    0    0    0    0  0.00000000000E+00  0.00000000000E+00  0.45593999997E+02  0.45594000000E+02  0.51100000000E-03 0. -1.
         11   -1    0    0    0    0 -0.00000000000E+00 -0.00000000000E+00 -0.45593999997E+02  0.45594000000E+02  0.51100000000E-03 0.  1.
    9900012    2    1    2    0    0 -0.34405311914E+02  0.49849229907E+01 -0.21085173507E+02  0.50528935981E+02  0.30000231406E+02 0.  0.
         12    1    1    2    0    0  0.34405311914E+02 -0.49849229907E+01  0.21085173507E+02  0.40659064019E+02  0.00000000000E+00 0. -1.
         11    1    3    3    0    0 -0.51353679012E+01 -0.37451463216E+01 -0.17320312022E+01  0.65877201517E+01  0.51100000000E-03 0. -1.
        -11    1    3    3    0    0 -0.55083470265E+01 -0.72552692897E+01 -0.10640210941E+02  0.14006959290E+02  0.51100000000E-03 0.  1.
         12    1    3    3    0    0 -0.23761596986E+02  0.15985338602E+02 -0.87129313633E+01  0.29934256538E+02  0.00000000000E+00 0. -1.
</event>
<event>
 7    1  0.4374874E-012  0.5052886E+02  0.7816164E-02  0.1300439E+00
        -11   -1    0    0    0    0  0.00000000000E+00  0.00000000000E+00  0.45593999997E+02  0.45594000000E+02  0.51100000000E-03 0. -1.
         11   -1    0    0    0    0 -0.00000000000E+00 -0.00000000000E+00 -0.45593999997E+02  0.45594000000E+02  0.51100000000E-03 0.  1.
    9900012    2    1    2    0    0  0.29872098609E+02  0.45938857406E+01  0.27197788998E+02  0.50528858496E+02  0.29999995884E+02 0.  0.
        -12    1    1    2    0    0 -0.29872098609E+02 -0.45938857406E+01 -0.27197788998E+02  0.40659141504E+02  0.00000000000E+00 0.  1.
         11    1    3    3    0    0  0.15702455594E+02 -0.30896556605E+01  0.77665591951E+01  0.17788550412E+02  0.51100000000E-03 0. -1.
        -11    1    3    3    0    0  0.16492064559E+02  0.19355322467E+01  0.20571232499E+02  0.26436907635E+02  0.51100000000E-03 0.  1.
        -12    1    3    3    0    0 -0.23224215443E+01  0.57480091544E+01 -0.11400026963E+01  0.63034004487E+01  0.00000000000E+00 0.  1.
</event>
<event>
 7    1  0.4374874E-012  0.5052887E+02  0.7816164E-02  0.1300439E+00
        -11   -1    0    0    0    0  0.00000000000E+00  0.00000000000E+00  0.45593999997E+02  0.45594000000E+02  0.51100000000E-03 0. -1.
         11   -1    0    0    0    0 -0.00000000000E+00 -0.00000000000E+00 -0.45593999997E+02  0.45594000000E+02  0.51100000000E-03 0.  1.
    9900012    2    1    2    0    0 -0.97506500848E+01  0.24376109824E+02 -0.31046663088E+02  0.50528865772E+02  0.30000018002E+02 0.  0.
         12    1    1    2    0    0  0.97506500848E+01 -0.24376109824E+02  0.31046663088E+02  0.40659134228E+02  0.00000000000E+00 0. -1.
         11    1    3    3    0    0 -0.33887410453E+01  0.26809024102E+01  0.12126691841E+01  0.44879138156E+01  0.51100000000E-03 0. -1.
        -11    1    3    3    0    0  0.64701342126E+01  0.10725548387E+02 -0.40471339996E+01  0.13163560263E+02  0.51100000000E-03 0.  1.
        -12    1    3    3    0    0 -0.12832043252E+02  0.10969659026E+02 -0.28212198273E+02  0.32877391693E+02  0.00000000000E+00 0.  1.
</event>
<event>
 7    1  0.4374874E-012  0.5052886E+02  0.7816164E-02  0.1300439E+00
        -11   -1    0    0    0    0  0.00000000000E+00  0.00000000000E+00  0.45593999997E+02  0.45594000000E+02  0.51100000000E-03 0. -1.
         11   -1    0    0    0    0 -0.00000000000E+00 -0.00000000000E+00 -0.45593999997E+02  0.45594000000E+02  0.51100000000E-03 0.  1.
    9900012    2    1    2    0    0 -0.83318977219E+01 -0.39795304123E+02 -0.28086504930E+00  0.50528860375E+02  0.30000001596E+02 0.  0.
        -12    1    1    2    0    0  0.83318977219E+01  0.39795304123E+02  0.28086504930E+00  0.40659139625E+02  0.00000000000E+00 0.  1.
         11    1    3    3    0    0 -0.55912866535E+01 -0.19047209947E+01  0.69891688477E+01  0.91508977676E+01  0.51100000000E-03 0. -1.
        -11    1    3    3    0    0  0.38040927122E+01 -0.49855183167E+01  0.19805176689E+01  0.65763945097E+01  0.51100000000E-03 0.  1.
        -12    1    3    3    0    0 -0.65447037806E+01 -0.32905064811E+02 -0.92505515659E+01  0.34801568098E+02  0.00000000000E+00 0.  1.
</event>
<event>
 7    1  0.4374874E-012  0.5052887E+02  0.7816164E-02  0.1300439E+00
        -11   -1    0    0    0    0  0.00000000000E+00  0.00000000000E+00  0.45593999997E+02  0.45594000000E+02  0.51100000000E-03 0. -1.
         11   -1    0    0    0    0 -0.00000000000E+00 -0.00000000000E+00 -0.45593999997E+02  0.45594000000E+02  0.51100000000E-03 0.  1.
    9900012    2    1    2    0    0  0.27695875194E+02 -0.33546100678E+00  0.29765601577E+02  0.50528867273E+02  0.30000022563E+02 0.  0.
        -12    1    1    2    0    0 -0.27695875194E+02  0.33546100678E+00 -0.29765601577E+02  0.40659132727E+02  0.00000000000E+00 0.  1.
         11    1    3    3    0    0  0.14531855838E+02 -0.81701707899E+01  0.21025472674E+02  0.26832760318E+02  0.51100000000E-03 0. -1.
        -11    1    3    3    0    0  0.12808698023E+00 -0.41087944949E+01  0.30647762117E+01  0.51275190848E+01  0.51100000000E-03 0.  1.
         12    1    3    3    0    0  0.13035932375E+02  0.11943504278E+02  0.56753526918E+01  0.18568587871E+02  0.00000000000E+00 0. -1.
</event>
<event>
 7    1  0.4374874E-012  0.5052884E+02  0.7816164E-02  0.1300439E+00
        -11   -1    0    0    0    0  0.00000000000E+00  0.00000000000E+00  0.45593999997E+02  0.45594000000E+02  0.51100000000E-03 0.  1.
         11   -1    0    0    0    0 -0.00000000000E+00 -0.00000000000E+00 -0.45593999997E+02  0.45594000000E+02  0.51100000000E-03 0. -1.
    9900012    2    1    2    0    0  0.40251835350E+02 -0.16209197559E+01  0.55072618566E+01  0.50528836666E+02  0.29999929530E+02 0.  0.
        -12    1    1    2    0    0 -0.40251835350E+02  0.16209197559E+01 -0.55072618566E+01  0.40659163334E+02  0.00000000000E+00 0.  1.
         11    1    3    3    0    0  0.56363152706E+01 -0.84061141268E+01  0.61911452308E+01  0.11864277646E+02  0.51100000000E-03 0. -1.
        -11    1    3    3    0    0  0.47334673072E+01  0.57047485052E-01 -0.59307045973E+01  0.75882952266E+01  0.51100000000E-03 0.  1.
         12    1    3    3    0    0  0.29882052772E+02  0.67281468859E+01  0.52468212232E+01  0.31076263793E+02  0.00000000000E+00 0. -1.
</event>
<event>
 7    1  0.4374874E-012  0.5052886E+02  0.7816164E-02  0.1300439E+00
        -11   -1    0    0    0    0  0.00000000000E+00  0.00000000000E+00  0.45593999997E+02  0.45594000000E+02  0.51100000000E-03 0. -1.
         11   -1    0    0    0    0 -0.00000000000E+00 -0.00000000000E+00 -0.45593999997E+02  0.45594000000E+02  0.51100000000E-03 0.  1.
    9900012    2    1    2    0    0  0.59374837135E+01  0.38566354056E+02  0.11425762880E+02  0.50528862830E+02  0.30000009058E+02 0.  0.
        -12    1    1    2    0    0 -0.59374837135E+01 -0.38566354056E+02 -0.11425762880E+02  0.40659137170E+02  0.00000000000E+00 0.  1.
         11    1    3    3    0    0  0.88478616538E+01  0.11506563967E+02  0.21866950677E+01  0.14678804643E+02  0.51100000000E-03 0. -1.
        -11    1    3    3    0    0  0.52620174451E+01  0.17288499748E+02  0.13346600824E+02  0.22465814140E+02  0.51100000000E-03 0.  1.
        -12    1    3    3    0    0 -0.81723953854E+01  0.97712903408E+01 -0.41075330121E+01  0.13384244047E+02  0.00000000000E+00 0.  1.
</event>
<event>
 7    1  0.4374874E-012  0.5052886E+02  0.7816164E-02  0.1300439E+00
        -11   -1    0    0    0    0  0.00000000000E+00  0.00000000000E+00  0.45593999997E+02  0.45594000000E+02  0.51100000000E-03 0.  1.
         11   -1    0    0    0    0 -0.00000000000E+00 -0.00000000000E+00 -0.45593999997E+02  0.45594000000E+02  0.51100000000E-03 0. -1.
    9900012    2    1    2    0    0  0.30671178951E+02  0.13874838335E+02 -0.22802039437E+02  0.50528863762E+02  0.30000011892E+02 0.  0.
         12    1    1    2    0    0 -0.30671178951E+02 -0.13874838335E+02  0.22802039437E+02  0.40659136238E+02  0.00000000000E+00 0. -1.
         11    1    3    3    0    0  0.30789315337E+02  0.12671020765E+02 -0.23622776721E+02  0.40823673113E+02  0.51100000000E-03 0. -1.
        -11    1    3    3    0    0  0.44095598245E+01 -0.52762006098E+00  0.17429287883E+01  0.47707862871E+01  0.51100000000E-03 0.  1.
        -12    1    3    3    0    0 -0.45276962100E+01  0.17314376317E+01 -0.92219150440E+00  0.49344043626E+01  0.00000000000E+00 0.  1.
</event>
<event>
 7    1  0.4374874E-012  0.5052886E+02  0.7816164E-02  0.1300439E+00
        -11   -1    0    0    0    0  0.00000000000E+00  0.00000000000E+00  0.45593999997E+02  0.45594000000E+02  0.51100000000E-03 0. -1.
         11   -1    0    0    0    0 -0.00000000000E+00 -0.00000000000E+00 -0.45593999997E+02  0.45594000000E+02  0.51100000000E-03 0.  1.
    9900012    2    1    2    0    0  0.12095643526E+02  0.11267272738E+01  0.38801954855E+02  0.50528858257E+02  0.29999995159E+02 0.  0.
        -12    1    1    2    0    0 -0.12095643526E+02 -0.11267272738E+01 -0.38801954855E+02  0.40659141743E+02  0.00000000000E+00 0.  1.
         11    1    3    3    0    0  0.30645243745E+01 -0.15108783676E+01  0.31412139977E+01  0.46412593899E+01  0.51100000000E-03 0. -1.
        -11    1    3    3    0    0  0.26237308392E+01  0.14232731846E+02  0.12128630781E+02  0.18882751500E+02  0.51100000000E-03 0.  1.
         12    1    3    3    0    0  0.64073883122E+01 -0.11595126205E+02  0.23532110077E+02  0.27004847368E+02  0.00000000000E+00 0. -1.
</event>
<event>
 7    1  0.4374874E-012  0.5052886E+02  0.7816164E-02  0.1300439E+00
        -11   -1    0    0    0    0  0.00000000000E+00  0.00000000000E+00  0.45593999997E+02  0.45594000000E+02  0.51100000000E-03 0. -1.
         11   -1    0    0    0    0 -0.00000000000E+00 -0.00000000000E+00 -0.45593999997E+02  0.45594000000E+02  0.51100000000E-03 0.  1.
    9900012    2    1    2    0    0  0.10793594917E+02  0.38732995984E+01  0.39008485254E+02  0.50528855114E+02  0.29999985606E+02 0.  0.
        -12    1    1    2    0    0 -0.10793594917E+02 -0.38732995984E+01 -0.39008485254E+02  0.40659144886E+02  0.00000000000E+00 0.  1.
         11    1    3    3    0    0  0.12364576410E+02 -0.81018412325E+01  0.24196126218E+02  0.28354454771E+02  0.51100000000E-03 0. -1.
        -11    1    3    3    0    0  0.37017343825E+01  0.42792006518E+01  0.10433347617E+02  0.11868830541E+02  0.51100000000E-03 0.  1.
        -12    1    3    3    0    0 -0.52727158751E+01  0.76959401791E+01  0.43790114194E+01  0.10305569802E+02  0.00000000000E+00 0.  1.
</event>
<event>
 7    1  0.4374874E-012  0.5052887E+02  0.7816164E-02  0.1300439E+00
        -11   -1    0    0    0    0  0.00000000000E+00  0.00000000000E+00  0.45593999997E+02  0.45594000000E+02  0.51100000000E-03 0. -1.
         11   -1    0    0    0    0 -0.00000000000E+00 -0.00000000000E+00 -0.45593999997E+02  0.45594000000E+02  0.51100000000E-03 0.  1.
    9900012    2    1    2    0    0  0.30856841449E+02  0.27139334142E+01  0.26337331502E+02  0.50528866593E+02  0.30000020497E+02 0.  0.
        -12    1    1    2    0    0 -0.30856841449E+02 -0.27139334142E+01 -0.26337331502E+02  0.40659133407E+02  0.00000000000E+00 0.  1.
         11    1    3    3    0    0  0.58792877133E+01 -0.44384025991E+01  0.90578593270E+01  0.11675198392E+02  0.51100000000E-03 0. -1.
        -11    1    3    3    0    0  0.13408286102E+01 -0.41759244415E-01 -0.52488320821E+01  0.54175459097E+01  0.51100000000E-03 0.  1.
         12    1    3    3    0    0  0.23636725125E+02  0.71940952577E+01  0.22528304257E+02  0.33436122292E+02  0.00000000000E+00 0. -1.
</event>
<event>
 7    1  0.4374874E-012  0.5052883E+02  0.7816164E-02  0.1300439E+00
        -11   -1    0    0    0    0  0.00000000000E+00  0.00000000000E+00  0.45593999997E+02  0.45594000000E+02  0.51100000000E-03 0. -1.
         11   -1    0    0    0    0 -0.00000000000E+00 -0.00000000000E+00 -0.45593999997E+02  0.45594000000E+02  0.51100000000E-03 0.  1.
    9900012    2    1    2    0    0 -0.22137970618E+02  0.31226821680E+02 -0.13710007157E+02  0.50528825985E+02  0.29999897065E+02 0.  0.
         12    1    1    2    0    0  0.22137970618E+02 -0.31226821680E+02  0.13710007157E+02  0.40659174015E+02  0.00000000000E+00 0. -1.
         11    1    3    3    0    0  0.70407046253E+00 -0.60619303308E+00  0.21433012150E+01  0.23360063290E+01  0.51100000000E-03 0. -1.
        -11    1    3    3    0    0 -0.16432293982E+02  0.43213395119E+01 -0.34326947078E+01  0.17334291273E+02  0.51100000000E-03 0.  1.
        -12    1    3    3    0    0 -0.64097470979E+01  0.27511675201E+02 -0.12420613664E+02  0.30858528384E+02  0.00000000000E+00 0.  1.
</event>
<event>
 7    1  0.4374874E-012  0.5052886E+02  0.7816164E-02  0.1300439E+00
        -11   -1    0    0    0    0  0.00000000000E+00  0.00000000000E+00  0.45593999997E+02  0.45594000000E+02  0.51100000000E-03 0. -1.
         11   -1    0    0    0    0 -0.00000000000E+00 -0.00000000000E+00 -0.45593999997E+02  0.45594000000E+02  0.51100000000E-03 0.  1.
    9900012    2    1    2    0    0  0.20174180788E+02 -0.18988445266E+02  0.29759145747E+02  0.50528863516E+02  0.30000011142E+02 0.  0.
        -12    1    1    2    0    0 -0.20174180788E+02  0.18988445266E+02 -0.29759145747E+02  0.40659136484E+02  0.00000000000E+00 0.  1.
         11    1    3    3    0    0  0.15059336399E+02 -0.77939075422E+01  0.11588162410E+02  0.20538113736E+02  0.51100000000E-03 0. -1.
        -11    1    3    3    0    0  0.47766185167E+01 -0.62918145287E+01 -0.28538141073E+01  0.83992422121E+01  0.51100000000E-03 0.  1.
         12    1    3    3    0    0  0.33822587265E+00 -0.49027231949E+01  0.21024797444E+02  0.21591507568E+02  0.00000000000E+00 0. -1.
</event>
<event>
 7    1  0.4374874E-012  0.5052884E+02  0.7816164E-02  0.1300439E+00
        -11   -1    0    0    0    0  0.00000000000E+00  0.00000000000E+00  0.45593999997E+02  0.45594000000E+02  0.51100000000E-03 0. -1.
         11   -1    0    0    0    0 -0.00000000000E+00 -0.00000000000E+00 -0.45593999997E+02  0.45594000000E+02  0.51100000000E-03 0.  1.
    9900012    2    1    2    0    0  0.17430509353E+02  0.18280458309E+02  0.31861721235E+02  0.50528842454E+02  0.29999947123E+02 0.  0.
        -12    1    1    2    0    0 -0.17430509353E+02 -0.18280458309E+02 -0.31861721235E+02  0.40659157546E+02  0.00000000000E+00 0.  1.
         11    1    3    3    0    0  0.52334446156E+01  0.11267551230E+02  0.21994926484E+02  0.25261105371E+02  0.51100000000E-03 0. -1.
        -11    1    3    3    0    0  0.94167762051E+01 -0.16768289795E+01  0.12529809331E+02  0.15763361052E+02  0.51100000000E-03 0.  1.
        -12    1    3    3    0    0  0.27802885319E+01  0.86897360588E+01 -0.26630145794E+01  0.95043760312E+01  0.00000000000E+00 0.  1.
</event>
<event>
 7    1  0.4374874E-012  0.5052886E+02  0.7816164E-02  0.1300439E+00
        -11   -1    0    0    0    0  0.00000000000E+00  0.00000000000E+00  0.45593999997E+02  0.45594000000E+02  0.51100000000E-03 0. -1.
         11   -1    0    0    0    0 -0.00000000000E+00 -0.00000000000E+00 -0.45593999997E+02  0.45594000000E+02  0.51100000000E-03 0.  1.
    9900012    2    1    2    0    0  0.52903450387E+01  0.13881021430E+02  0.37848322654E+02  0.50528855465E+02  0.29999986672E+02 0.  0.
        -12    1    1    2    0    0 -0.52903450387E+01 -0.13881021430E+02 -0.37848322654E+02  0.40659144535E+02  0.00000000000E+00 0.  1.
         11    1    3    3    0    0  0.98369781521E+00 -0.26849791875E+01  0.74056352499E+01  0.79385268372E+01  0.51100000000E-03 0. -1.
        -11    1    3    3    0    0  0.92237295161E+01  0.13518792164E+01  0.13856304436E+01  0.94246875592E+01  0.51100000000E-03 0.  1.
         12    1    3    3    0    0 -0.49170822926E+01  0.15214121401E+02  0.29057056961E+02  0.33165641069E+02  0.00000000000E+00 0. -1.
</event>
<event>
 7    1  0.4374874E-012  0.5052886E+02  0.7816164E-02  0.1300439E+00
        -11   -1    0    0    0    0  0.00000000000E+00  0.00000000000E+00  0.45593999997E+02  0.45594000000E+02  0.51100000000E-03 0. -1.
         11   -1    0    0    0    0 -0.00000000000E+00 -0.00000000000E+00 -0.45593999997E+02  0.45594000000E+02  0.51100000000E-03 0.  1.
    9900012    2    1    2    0    0  0.51374081743E+01 -0.20610111228E+02 -0.34669810774E+02  0.50528862938E+02  0.30000009385E+02 0.  0.
         12    1    1    2    0    0 -0.51374081743E+01  0.20610111228E+02  0.34669810774E+02  0.40659137062E+02  0.00000000000E+00 0. -1.
         11    1    3    3    0    0 -0.91796628913E+01 -0.12087279340E+02 -0.10281262993E+02  0.18332291226E+02  0.51100000000E-03 0. -1.
        -11    1    3    3    0    0  0.49855241235E+01 -0.70151032008E+01 -0.35411336286E+01  0.93062748369E+01  0.51100000000E-03 0.  1.
        -12    1    3    3    0    0  0.93315469420E+01 -0.15077286873E+01 -0.20847414153E+02  0.22890296874E+02  0.00000000000E+00 0.  1.
</event>
<event>
 7    1  0.4374874E-012  0.5052884E+02  0.7816164E-02  0.1300439E+00
        -11   -1    0    0    0    0  0.00000000000E+00  0.00000000000E+00  0.45593999997E+02  0.45594000000E+02  0.51100000000E-03 0. -1.
         11   -1    0    0    0    0 -0.00000000000E+00 -0.00000000000E+00 -0.45593999997E+02  0.45594000000E+02  0.51100000000E-03 0.  1.
    9900012    2    1    2    0    0  0.26087988480E+02  0.15361098727E+02 -0.27140759204E+02  0.50528839812E+02  0.29999939092E+02 0.  0.
         12    1    1    2    0    0 -0.26087988480E+02 -0.15361098727E+02  0.27140759204E+02  0.40659160188E+02  0.00000000000E+00 0. -1.
         11    1    3    3    0    0  0.68859081701E+01  0.10419530900E+02 -0.12911746308E+02  0.17963728691E+02  0.51100000000E-03 0.  1.
        -11    1    3    3    0    0  0.74399370479E+01 -0.74014148286E+01 -0.21769848237E+00  0.10496713659E+02  0.51100000000E-03 0. -1.
         12    1    3    3    0    0  0.11762143262E+02  0.12342982656E+02 -0.14011314414E+02  0.22068397463E+02  0.00000000000E+00 0. -1.
</event>
<event>
 7    1  0.4374874E-012  0.5052886E+02  0.7816164E-02  0.1300439E+00
        -11   -1    0    0    0    0  0.00000000000E+00  0.00000000000E+00  0.45593999997E+02  0.45594000000E+02  0.51100000000E-03 0. -1.
         11   -1    0    0    0    0 -0.00000000000E+00 -0.00000000000E+00 -0.45593999997E+02  0.45594000000E+02  0.51100000000E-03 0.  1.
    9900012    2    1    2    0    0 -0.18828433727E+01 -0.30414177897E+02 -0.26918368342E+02  0.50528857479E+02  0.29999992793E+02 0.  0.
         12    1    1    2    0    0  0.18828433727E+01  0.30414177897E+02  0.26918368342E+02  0.40659142521E+02  0.00000000000E+00 0. -1.
         11    1    3    3    0    0  0.52799736619E+01 -0.45476474849E+01  0.21655915372E+01  0.72971916848E+01  0.51100000000E-03 0. -1.
        -11    1    3    3    0    0  0.30390410961E+01 -0.80147416957E+01 -0.13038923466E+01  0.86701782419E+01  0.51100000000E-03 0.  1.
         12    1    3    3    0    0 -0.10201858131E+02 -0.17851788716E+02 -0.27780067533E+02  0.34561487552E+02  0.00000000000E+00 0. -1.
</event>
<event>
 7    1  0.4374874E-012  0.5052885E+02  0.7816164E-02  0.1300439E+00
        -11   -1    0    0    0    0  0.00000000000E+00  0.00000000000E+00  0.45593999997E+02  0.45594000000E+02  0.51100000000E-03 0. -1.
         11   -1    0    0    0    0 -0.00000000000E+00 -0.00000000000E+00 -0.45593999997E+02  0.45594000000E+02  0.51100000000E-03 0.  1.
    9900012    2    1    2    0    0 -0.14467612141E+02 -0.28238667902E+02 -0.25425039320E+02  0.50528846168E+02  0.29999958411E+02 0.  0.
         12    1    1    2    0    0  0.14467612141E+02  0.28238667902E+02  0.25425039320E+02  0.40659153832E+02  0.00000000000E+00 0. -1.
         11    1    3    3    0    0  0.16773946784E+01 -0.26233008683E+01  0.14656016795E+01  0.34414166991E+01  0.51100000000E-03 0. -1.
        -11    1    3    3    0    0 -0.60548939803E+01  0.40552002422E+01 -0.43948513550E+01  0.85100592718E+01  0.51100000000E-03 0.  1.
        -12    1    3    3    0    0 -0.10090112839E+02 -0.29670567276E+02 -0.22495789644E+02  0.38577370197E+02  0.00000000000E+00 0.  1.
</event>
<event>
 7    1  0.4374874E-012  0.5052887E+02  0.7816164E-02  0.1300439E+00
        -11   -1    0    0    0    0  0.00000000000E+00  0.00000000000E+00  0.45593999997E+02  0.45594000000E+02  0.51100000000E-03 0. -1.
         11   -1    0    0    0    0 -0.00000000000E+00 -0.00000000000E+00 -0.45593999997E+02  0.45594000000E+02  0.51100000000E-03 0.  1.
    9900012    2    1    2    0    0  0.18905827286E+02 -0.27122028017E+02  0.23667066285E+02  0.50528871435E+02  0.30000035213E+02 0.  0.
        -12    1    1    2    0    0 -0.18905827286E+02  0.27122028017E+02 -0.23667066285E+02  0.40659128565E+02  0.00000000000E+00 0.  1.
         11    1    3    3    0    0  0.25387465220E+01  0.11483730941E+01  0.14371209829E+02  0.14638841036E+02  0.51100000000E-03 0.  1.
        -11    1    3    3    0    0  0.10560972361E+02 -0.12315871887E+02  0.97084724002E+01  0.18906857860E+02  0.51100000000E-03 0. -1.
        -12    1    3    3    0    0  0.58061084034E+01 -0.15954529224E+02 -0.41261594430E+00  0.16983172539E+02  0.00000000000E+00 0.  1.
</event>
<event>
 7    1  0.4374874E-012  0.5052893E+02  0.7816164E-02  0.1300439E+00
        -11   -1    0    0    0    0  0.00000000000E+00  0.00000000000E+00  0.45593999997E+02  0.45594000000E+02  0.51100000000E-03 0. -1.
         11   -1    0    0    0    0 -0.00000000000E+00 -0.00000000000E+00 -0.45593999997E+02  0.45594000000E+02  0.51100000000E-03 0.  1.
    9900012    2    1    2    0    0 -0.88654139953E+01 -0.23429357998E+02 -0.32025446437E+02  0.50528934577E+02  0.30000227141E+02 0.  0.
         12    1    1    2    0    0  0.88654139953E+01  0.23429357998E+02  0.32025446437E+02  0.40659065423E+02  0.00000000000E+00 0. -1.
         11    1    3    3    0    0  0.89095453876E+01 -0.33320255521E+01 -0.36640890647E+01  0.10193524524E+02  0.51100000000E-03 0. -1.
        -11    1    3    3    0    0 -0.77771240839E+01 -0.12243448829E+02 -0.86761659884E+01  0.16901525220E+02  0.51100000000E-03 0.  1.
        -12    1    3    3    0    0 -0.99978352989E+01 -0.78538836175E+01 -0.19685191384E+02  0.23433884833E+02  0.00000000000E+00 0.  1.
</event>
<event>
 7    1  0.5763291E-012  0.5052885E+02  0.7816164E-02  0.1300439E+00
        -11   -1    0    0    0    0  0.00000000000E+00  0.00000000000E+00  0.45593999997E+02  0.45594000000E+02  0.51100000000E-03 0.  1.
         11   -1    0    0    0    0 -0.00000000000E+00 -0.00000000000E+00 -0.45593999997E+02  0.45594000000E+02  0.51100000000E-03 0. -1.
    9900012    2    1    2    0    0  0.16462332802E+02  0.35053129422E+02 -0.12386923986E+02  0.50528853804E+02  0.29999981621E+02 0.  0.
         12    1    1    2    0    0 -0.16462332802E+02 -0.35053129422E+02  0.12386923986E+02  0.40659146196E+02  0.00000000000E+00 0. -1.
         11    1    3    3    0    0  0.14077474895E+02  0.10726585889E+02 -0.95783639798E+01  0.20124114913E+02  0.51100000000E-03 0. -1.
        -11    1    3    3    0    0  0.10417148214E+01  0.22972564748E+02 -0.84113749523E+01  0.24486223264E+02  0.51100000000E-03 0.  1.
         12    1    3    3    0    0  0.13431430860E+01  0.13539787856E+01  0.56028149464E+01  0.59185156269E+01  0.00000000000E+00 0. -1.
</event>
<event>
 7    1  0.4374874E-012  0.5052884E+02  0.7816164E-02  0.1300439E+00
        -11   -1    0    0    0    0  0.00000000000E+00  0.00000000000E+00  0.45593999997E+02  0.45594000000E+02  0.51100000000E-03 0. -1.
         11   -1    0    0    0    0 -0.00000000000E+00 -0.00000000000E+00 -0.45593999997E+02  0.45594000000E+02  0.51100000000E-03 0.  1.
    9900012    2    1    2    0    0 -0.14879341516E+02  0.21139071343E+02 -0.31383307410E+02  0.50528842051E+02  0.29999945897E+02 0.  0.
         12    1    1    2    0    0  0.14879341516E+02 -0.21139071343E+02  0.31383307410E+02  0.40659157949E+02  0.00000000000E+00 0. -1.
         11    1    3    3    0    0  0.16496813014E+01  0.14802620606E+01 -0.58649807712E+01  0.62698184879E+01  0.51100000000E-03 0. -1.
        -11    1    3    3    0    0 -0.20059790937E+02  0.19252499637E+02 -0.28354617454E+02  0.39711941352E+02  0.51100000000E-03 0.  1.
         12    1    3    3    0    0  0.35307681196E+01  0.40630964495E+00  0.28362908153E+01  0.45470822107E+01  0.00000000000E+00 0. -1.
</event>
<event>
 7    1  0.4374874E-012  0.5052885E+02  0.7816164E-02  0.1300439E+00
        -11   -1    0    0    0    0  0.00000000000E+00  0.00000000000E+00  0.45593999997E+02  0.45594000000E+02  0.51100000000E-03 0. -1.
         11   -1    0    0    0    0 -0.00000000000E+00 -0.00000000000E+00 -0.45593999997E+02  0.45594000000E+02  0.51100000000E-03 0.  1.
    9900012    2    1    2    0    0 -0.18334412110E+02 -0.53870113163E+01  0.35888657616E+02  0.50528852151E+02  0.29999976600E+02 0.  0.
        -12    1    1    2    0    0  0.18334412110E+02  0.53870113163E+01 -0.35888657616E+02  0.40659147849E+02  0.00000000000E+00 0.  1.
         11    1    3    3    0    0 -0.14528026128E+01 -0.46204065479E+01 -0.13197414473E+01  0.50200109410E+01  0.51100000000E-03 0. -1.
        -11    1    3    3    0    0  0.15806675717E+01  0.19616676866E+01 -0.12119251874E+01  0.27956060177E+01  0.51100000000E-03 0.  1.
         12    1    3    3    0    0 -0.18462277068E+02 -0.27282724551E+01  0.38420324250E+02  0.42713235193E+02  0.00000000000E+00 0. -1.
</event>
<event>
 7    1  0.4374874E-012  0.5052888E+02  0.7816164E-02  0.1300439E+00
        -11   -1    0    0    0    0  0.00000000000E+00  0.00000000000E+00  0.45593999997E+02  0.45594000000E+02  0.51100000000E-03 0. -1.
         11   -1    0    0    0    0 -0.00000000000E+00 -0.00000000000E+00 -0.45593999997E+02  0.45594000000E+02  0.51100000000E-03 0.  1.
    9900012    2    1    2    0    0  0.14563737130E+02  0.15045974009E+01  0.37931488977E+02  0.50528879147E+02  0.30000058656E+02 0.  0.
        -12    1    1    2    0    0 -0.14563737130E+02 -0.15045974009E+01 -0.37931488977E+02  0.40659120853E+02  0.00000000000E+00 0.  1.
         11    1    3    3    0    0  0.95741426913E+00 -0.23874064002E+01  0.32265920251E+02  0.32368286351E+02  0.51100000000E-03 0. -1.
        -11    1    3    3    0    0  0.27771655385E+01  0.55956807817E+01  0.14306535413E+01  0.64086708182E+01  0.51100000000E-03 0.  1.
        -12    1    3    3    0    0  0.10829157322E+02 -0.17036769806E+01  0.42349151844E+01  0.11751921978E+02  0.00000000000E+00 0.  1.
</event>
<event>
 7    1  0.4374874E-012  0.5052886E+02  0.7816164E-02  0.1300439E+00
        -11   -1    0    0    0    0  0.00000000000E+00  0.00000000000E+00  0.45593999997E+02  0.45594000000E+02  0.51100000000E-03 0. -1.
         11   -1    0    0    0    0 -0.00000000000E+00 -0.00000000000E+00 -0.45593999997E+02  0.45594000000E+02  0.51100000000E-03 0.  1.
    9900012    2    1    2    0    0 -0.31964042814E+02 -0.21225678327E+02 -0.13451262017E+02  0.50528857077E+02  0.29999991570E+02 0.  0.
         12    1    1    2    0    0  0.31964042814E+02  0.21225678327E+02  0.13451262017E+02  0.40659142923E+02  0.00000000000E+00 0. -1.
         11    1    3    3    0    0  0.22954859407E+00 -0.10756172298E+02 -0.56844007422E+01  0.12168005059E+02  0.51100000000E-03 0. -1.
        -11    1    3    3    0    0 -0.12142482695E+02 -0.19693517160E+01 -0.10803509217E+02  0.16371745290E+02  0.51100000000E-03 0.  1.
         12    1    3    3    0    0 -0.20051108712E+02 -0.85001543128E+01  0.30366479422E+01  0.21989106727E+02  0.00000000000E+00 0. -1.
</event>
<event>
 7    1  0.4374874E-012  0.5052885E+02  0.7816164E-02  0.1300439E+00
        -11   -1    0    0    0    0  0.00000000000E+00  0.00000000000E+00  0.45593999997E+02  0.45594000000E+02  0.51100000000E-03 0. -1.
         11   -1    0    0    0    0 -0.00000000000E+00 -0.00000000000E+00 -0.45593999997E+02  0.45594000000E+02  0.51100000000E-03 0.  1.
    9900012    2    1    2    0    0 -0.26373958259E+02  0.10125260458E+02 -0.29241406576E+02  0.50528850573E+02  0.29999971802E+02 0.  0.
         12    1    1    2    0    0  0.26373958259E+02 -0.10125260458E+02  0.29241406576E+02  0.40659149427E+02  0.00000000000E+00 0. -1.
         11    1    3    3    0    0 -0.55572843171E+01 -0.29639507989E+01 -0.12581069351E+01  0.64227133394E+01  0.51100000000E-03 0. -1.
        -11    1    3    3    0    0 -0.18347342630E+02 -0.18474320596E+00 -0.23635879003E+02  0.29921796206E+02  0.51100000000E-03 0.  1.
         12    1    3    3    0    0 -0.24693313112E+01  0.13273954462E+02 -0.43474206382E+01  0.14184341028E+02  0.00000000000E+00 0. -1.
</event>
<event>
 7    1  0.4375401E-012  0.5052886E+02  0.7816164E-02  0.1300439E+00
        -11   -1    0    0    0    0  0.00000000000E+00  0.00000000000E+00  0.45593999997E+02  0.45594000000E+02  0.51100000000E-03 0. -1.
         11   -1    0    0    0    0 -0.00000000000E+00 -0.00000000000E+00 -0.45593999997E+02  0.45594000000E+02  0.51100000000E-03 0.  1.
    9900012    2    1    2    0    0  0.83904609849E+01  0.87951753662E+01 -0.38799625336E+02  0.50528857468E+02  0.29999992760E+02 0.  0.
         12    1    1    2    0    0 -0.83904609849E+01 -0.87951753662E+01  0.38799625336E+02  0.40659142532E+02  0.00000000000E+00 0. -1.
         11    1    3    3    0    0  0.13679848136E+01  0.74721919920E+01 -0.78918516899E+01  0.10953828508E+02  0.51100000000E-03 0.  1.
        -11    1    3    3    0    0  0.12040579019E+02  0.58183271273E+01 -0.29911346187E+02  0.32764570876E+02  0.51100000000E-03 0. -1.
         12    1    3    3    0    0 -0.50181028472E+01 -0.44953437531E+01 -0.99642745822E+00  0.68104580847E+01  0.00000000000E+00 0. -1.
</event>
<event>
 7    1  0.4374874E-012  0.5052886E+02  0.7816164E-02  0.1300439E+00
        -11   -1    0    0    0    0  0.00000000000E+00  0.00000000000E+00  0.45593999997E+02  0.45594000000E+02  0.51100000000E-03 0. -1.
         11   -1    0    0    0    0 -0.00000000000E+00 -0.00000000000E+00 -0.45593999997E+02  0.45594000000E+02  0.51100000000E-03 0.  1.
    9900012    2    1    2    0    0  0.24433279489E+02 -0.16115127492E+02  0.28222034201E+02  0.50528859637E+02  0.29999999351E+02 0.  0.
        -12    1    1    2    0    0 -0.24433279489E+02  0.16115127492E+02 -0.28222034201E+02  0.40659140363E+02  0.00000000000E+00 0.  1.
         11    1    3    3    0    0 -0.13702625802E+01 -0.70995487982E+01  0.21560183522E+01  0.75451725012E+01  0.51100000000E-03 0.  1.
        -11    1    3    3    0    0  0.15819154519E+02  0.16561249758E+01  0.38052237386E+01  0.16354452837E+02  0.51100000000E-03 0. -1.
         12    1    3    3    0    0  0.99843875502E+01 -0.10671703670E+02  0.22260792110E+02  0.26629234298E+02  0.00000000000E+00 0. -1.
</event>
<event>
 7    1  0.5316615E-012  0.5052885E+02  0.7816164E-02  0.1300439E+00
        -11   -1    0    0    0    0  0.00000000000E+00  0.00000000000E+00  0.45593999997E+02  0.45594000000E+02  0.51100000000E-03 0. -1.
         11   -1    0    0    0    0 -0.00000000000E+00 -0.00000000000E+00 -0.45593999997E+02  0.45594000000E+02  0.51100000000E-03 0.  1.
    9900012    2    1    2    0    0 -0.10332339296E+02  0.25102821760E+02 -0.30269741319E+02  0.50528854225E+02  0.29999982902E+02 0.  0.
         12    1    1    2    0    0  0.10332339296E+02 -0.25102821760E+02  0.30269741319E+02  0.40659145775E+02  0.00000000000E+00 0. -1.
         11    1    3    3    0    0 -0.68612401170E+01 -0.35618127858E+01 -0.84573903660E+01  0.11458210084E+02  0.51100000000E-03 0. -1.
        -11    1    3    3    0    0 -0.76292765892E+01  0.70695549788E+01 -0.63352397976E+01  0.12178658893E+02  0.51100000000E-03 0.  1.
         12    1    3    3    0    0  0.41581774102E+01  0.21595079567E+02 -0.15477111155E+02  0.26891985248E+02  0.00000000000E+00 0. -1.
</event>
<event>
 7    1  0.4374874E-012  0.5052877E+02  0.7816164E-02  0.1300439E+00
        -11   -1    0    0    0    0  0.00000000000E+00  0.00000000000E+00  0.45593999997E+02  0.45594000000E+02  0.51100000000E-03 0. -1.
         11   -1    0    0    0    0 -0.00000000000E+00 -0.00000000000E+00 -0.45593999997E+02  0.45594000000E+02  0.51100000000E-03 0.  1.
    9900012    2    1    2    0    0  0.11536501676E+02 -0.92436555160E+00 -0.38977265948E+02  0.50528774929E+02  0.29999741872E+02 0.  0.
         12    1    1    2    0    0 -0.11536501676E+02  0.92436555160E+00  0.38977265948E+02  0.40659225071E+02  0.00000000000E+00 0. -1.
         11    1    3    3    0    0 -0.11941985522E+01 -0.12412110282E+01 -0.18596966868E+02  0.18676559960E+02  0.51100000000E-03 0. -1.
        -11    1    3    3    0    0  0.52984374595E+00 -0.40819213167E+01 -0.18250509135E+02  0.18708925677E+02  0.51100000000E-03 0.  1.
        -12    1    3    3    0    0  0.12200856482E+02  0.43987667934E+01 -0.21297899462E+01  0.13143289292E+02  0.00000000000E+00 0.  1.
</event>
<event>
 7    1  0.4374874E-012  0.5052886E+02  0.7816164E-02  0.1300439E+00
        -11   -1    0    0    0    0  0.00000000000E+00  0.00000000000E+00  0.45593999997E+02  0.45594000000E+02  0.51100000000E-03 0. -1.
         11   -1    0    0    0    0 -0.00000000000E+00 -0.00000000000E+00 -0.45593999997E+02  0.45594000000E+02  0.51100000000E-03 0.  1.
    9900012    2    1    2    0    0 -0.29160284870E+02 -0.14409189872E+01 -0.28297834365E+02  0.50528857227E+02  0.29999992028E+02 0.  0.
         12    1    1    2    0    0  0.29160284870E+02  0.14409189872E+01  0.28297834365E+02  0.40659142773E+02  0.00000000000E+00 0. -1.
         11    1    3    3    0    0 -0.10273360524E+02  0.49013932835E+01 -0.61300645625E+01  0.12928390634E+02  0.51100000000E-03 0. -1.
        -11    1    3    3    0    0 -0.32269601407E+01 -0.31590800007E+01  0.45868263059E+01  0.64367720188E+01  0.51100000000E-03 0.  1.
        -12    1    3    3    0    0 -0.15659964205E+02 -0.31832322700E+01 -0.26754596109E+02  0.31163694575E+02  0.00000000000E+00 0.  1.
</event>
<event>
 7    1  0.4374874E-012  0.5052886E+02  0.7816164E-02  0.1300439E+00
        -11   -1    0    0    0    0  0.00000000000E+00  0.00000000000E+00  0.45593999997E+02  0.45594000000E+02  0.51100000000E-03 0. -1.
         11   -1    0    0    0    0 -0.00000000000E+00 -0.00000000000E+00 -0.45593999997E+02  0.45594000000E+02  0.51100000000E-03 0.  1.
    9900012    2    1    2    0    0  0.15278760512E+02  0.29441478749E+02 -0.23514341244E+02  0.50528862800E+02  0.30000008967E+02 0.  0.
         12    1    1    2    0    0 -0.15278760512E+02 -0.29441478749E+02  0.23514341244E+02  0.40659137200E+02  0.00000000000E+00 0. -1.
         11    1    3    3    0    0  0.13260343301E+02  0.32958752849E+02 -0.18427601378E+02  0.40021151741E+02  0.51100000000E-03 0. -1.
        -11    1    3    3    0    0 -0.10935190277E+01  0.16578533159E+01  0.73695692845E+00  0.21183406847E+01  0.51100000000E-03 0.  1.
         12    1    3    3    0    0  0.31119362386E+01 -0.51751274165E+01 -0.58236967947E+01  0.83893703748E+01  0.00000000000E+00 0. -1.
</event>
<event>
 7    1  0.4374874E-012  0.5052885E+02  0.7816164E-02  0.1300439E+00
        -11   -1    0    0    0    0  0.00000000000E+00  0.00000000000E+00  0.45593999997E+02  0.45594000000E+02  0.51100000000E-03 0. -1.
         11   -1    0    0    0    0 -0.00000000000E+00 -0.00000000000E+00 -0.45593999997E+02  0.45594000000E+02  0.51100000000E-03 0.  1.
    9900012    2    1    2    0    0  0.12676301720E+02 -0.19079905829E+02  0.33592182893E+02  0.50528853633E+02  0.29999981103E+02 0.  0.
        -12    1    1    2    0    0 -0.12676301720E+02  0.19079905829E+02 -0.33592182893E+02  0.40659146367E+02  0.00000000000E+00 0.  1.
         11    1    3    3    0    0  0.13048679458E+02 -0.54651254603E+01  0.48286239677E+01  0.14948285573E+02  0.51100000000E-03 0. -1.
        -11    1    3    3    0    0 -0.40319326196E+01 -0.74655012902E+01  0.32555418484E+01  0.90878348990E+01  0.51100000000E-03 0.  1.
         12    1    3    3    0    0  0.36595548821E+01 -0.61492790789E+01  0.25508017077E+02  0.26492733161E+02  0.00000000000E+00 0. -1.
</event>
<event>
 7    1  0.4374874E-012  0.5052886E+02  0.7816164E-02  0.1300439E+00
        -11   -1    0    0    0    0  0.00000000000E+00  0.00000000000E+00  0.45593999997E+02  0.45594000000E+02  0.51100000000E-03 0. -1.
         11   -1    0    0    0    0 -0.00000000000E+00 -0.00000000000E+00 -0.45593999997E+02  0.45594000000E+02  0.51100000000E-03 0.  1.
    9900012    2    1    2    0    0  0.31943504564E+02 -0.16667920060E+02 -0.18840346445E+02  0.50528859612E+02  0.29999999276E+02 0.  0.
         12    1    1    2    0    0 -0.31943504564E+02  0.16667920060E+02  0.18840346445E+02  0.40659140388E+02  0.00000000000E+00 0. -1.
         11    1    3    3    0    0  0.20623270740E+01  0.32577165951E+01 -0.97730292241E+00  0.39775660443E+01  0.51100000000E-03 0. -1.
        -11    1    3    3    0    0  0.21152802247E+02 -0.32034834512E+01 -0.17573036770E+02  0.27686006767E+02  0.51100000000E-03 0.  1.
         12    1    3    3    0    0  0.87283752430E+01 -0.16722153203E+02 -0.29000675219E+00  0.18865286800E+02  0.00000000000E+00 0. -1.
</event>
<event>
 7    1  0.4374874E-012  0.5052885E+02  0.7816164E-02  0.1300439E+00
        -11   -1    0    0    0    0  0.00000000000E+00  0.00000000000E+00  0.45593999997E+02  0.45594000000E+02  0.51100000000E-03 0. -1.
         11   -1    0    0    0    0 -0.00000000000E+00 -0.00000000000E+00 -0.45593999997E+02  0.45594000000E+02  0.51100000000E-03 0.  1.
    9900012    2    1    2    0    0  0.21471195548E+02  0.18292668994E+02 -0.29283659089E+02  0.50528847687E+02  0.29999963029E+02 0.  0.
         12    1    1    2    0    0 -0.21471195548E+02 -0.18292668994E+02  0.29283659089E+02  0.40659152313E+02  0.00000000000E+00 0. -1.
         11    1    3    3    0    0 -0.42114122341E+00  0.12396917124E+02  0.92323284622E+00  0.12438379045E+02  0.51100000000E-03 0.  1.
        -11    1    3    3    0    0  0.90700998081E+01  0.35470717437E+01 -0.16607648334E+02  0.19252594940E+02  0.51100000000E-03 0. -1.
        -12    1    3    3    0    0  0.12822236964E+02  0.23486801264E+01 -0.13599243601E+02  0.18837873702E+02  0.00000000000E+00 0.  1.
</event>
<event>
 7    1  0.5399980E-012  0.5052881E+02  0.7816164E-02  0.1300439E+00
        -11   -1    0    0    0    0  0.00000000000E+00  0.00000000000E+00  0.45593999997E+02  0.45594000000E+02  0.51100000000E-03 0. -1.
         11   -1    0    0    0    0 -0.00000000000E+00 -0.00000000000E+00 -0.45593999997E+02  0.45594000000E+02  0.51100000000E-03 0.  1.
    9900012    2    1    2    0    0 -0.12413768134E+01 -0.33509470022E+02 -0.22994444501E+02  0.50528805770E+02  0.29999835617E+02 0.  0.
         12    1    1    2    0    0  0.12413768134E+01  0.33509470022E+02  0.22994444501E+02  0.40659194230E+02  0.00000000000E+00 0. -1.
         11    1    3    3    0    0 -0.82109157626E+01 -0.20567299229E+02 -0.14871863852E+02  0.26675930535E+02  0.51100000000E-03 0. -1.
        -11    1    3    3    0    0  0.50811782672E+01 -0.11409455007E+02 -0.13231104044E+02  0.18194948492E+02  0.51100000000E-03 0.  1.
         12    1    3    3    0    0  0.18883606820E+01 -0.15327157862E+01  0.51085233951E+01  0.56579267426E+01  0.00000000000E+00 0. -1.
</event>
<event>
 7    1  0.4374874E-012  0.5052886E+02  0.7816164E-02  0.1300439E+00
        -11   -1    0    0    0    0  0.00000000000E+00  0.00000000000E+00  0.45593999997E+02  0.45594000000E+02  0.51100000000E-03 0.  1.
         11   -1    0    0    0    0 -0.00000000000E+00 -0.00000000000E+00 -0.45593999997E+02  0.45594000000E+02  0.51100000000E-03 0. -1.
    9900012    2    1    2    0    0 -0.31533738158E+01 -0.39190763184E+02 -0.10358863152E+02  0.50528859193E+02  0.29999998004E+02 0.  0.
         12    1    1    2    0    0  0.31533738158E+01  0.39190763184E+02  0.10358863152E+02  0.40659140807E+02  0.00000000000E+00 0. -1.
         11    1    3    3    0    0  0.25823545169E+01 -0.60048739089E+01  0.78326106205E+01  0.10201806453E+02  0.51100000000E-03 0. -1.
        -11    1    3    3    0    0 -0.26765290968E+01 -0.28652954336E+02 -0.99757595566E+01  0.30457698192E+02  0.51100000000E-03 0.  1.
        -12    1    3    3    0    0 -0.30591992358E+01 -0.45329349389E+01 -0.82157142156E+01  0.98693545482E+01  0.00000000000E+00 0.  1.
</event>
<event>
 7    1  0.4374874E-012  0.5052886E+02  0.7816164E-02  0.1300439E+00
        -11   -1    0    0    0    0  0.00000000000E+00  0.00000000000E+00  0.45593999997E+02  0.45594000000E+02  0.51100000000E-03 0.  1.
         11   -1    0    0    0    0 -0.00000000000E+00 -0.00000000000E+00 -0.45593999997E+02  0.45594000000E+02  0.51100000000E-03 0. -1.
    9900012    2    1    2    0    0 -0.38691643073E+02  0.11818095640E+02  0.40565052498E+01  0.50528857570E+02  0.29999993071E+02 0.  0.
         12    1    1    2    0    0  0.38691643073E+02 -0.11818095640E+02 -0.40565052498E+01  0.40659142430E+02  0.00000000000E+00 0. -1.
         11    1    3    3    0    0 -0.15606777576E+02  0.56750976724E+01  0.11995734090E+02  0.20485992203E+02  0.51100000000E-03 0. -1.
        -11    1    3    3    0    0 -0.23811188163E+02  0.75740963086E+01 -0.33861026816E+01  0.25215180116E+02  0.51100000000E-03 0.  1.
         12    1    3    3    0    0  0.72632266624E+00 -0.14310983408E+01 -0.45531261587E+01  0.48276852521E+01  0.00000000000E+00 0. -1.
</event>
<event>
 7    1  0.4374874E-012  0.5052886E+02  0.7816164E-02  0.1300439E+00
        -11   -1    0    0    0    0  0.00000000000E+00  0.00000000000E+00  0.45593999997E+02  0.45594000000E+02  0.51100000000E-03 0. -1.
         11   -1    0    0    0    0 -0.00000000000E+00 -0.00000000000E+00 -0.45593999997E+02  0.45594000000E+02  0.51100000000E-03 0.  1.
    9900012    2    1    2    0    0  0.11900128932E+02 -0.26710770647E+02  0.28250443340E+02  0.50528857288E+02  0.29999992212E+02 0.  0.
        -12    1    1    2    0    0 -0.11900128932E+02  0.26710770647E+02 -0.28250443340E+02  0.40659142712E+02  0.00000000000E+00 0.  1.
         11    1    3    3    0    0 -0.10299126816E+01  0.49118670704E+00  0.16331999698E+02  0.16371811107E+02  0.51100000000E-03 0. -1.
        -11    1    3    3    0    0 -0.10948589092E+01 -0.43808009501E+01 -0.66167254277E+00  0.45637642150E+01  0.51100000000E-03 0.  1.
         12    1    3    3    0    0  0.14024900523E+02 -0.22821156404E+02  0.12580116185E+02  0.29593281966E+02  0.00000000000E+00 0. -1.
</event>
<event>
 7    1  0.4374874E-012  0.5052886E+02  0.7816164E-02  0.1300439E+00
        -11   -1    0    0    0    0  0.00000000000E+00  0.00000000000E+00  0.45593999997E+02  0.45594000000E+02  0.51100000000E-03 0. -1.
         11   -1    0    0    0    0 -0.00000000000E+00 -0.00000000000E+00 -0.45593999997E+02  0.45594000000E+02  0.51100000000E-03 0.  1.
    9900012    2    1    2    0    0 -0.18640574335E+02 -0.98677790084E+01 -0.34760919329E+02  0.50528860969E+02  0.30000003402E+02 0.  0.
         12    1    1    2    0    0  0.18640574335E+02  0.98677790084E+01  0.34760919329E+02  0.40659139031E+02  0.00000000000E+00 0. -1.
         11    1    3    3    0    0 -0.35244777226E+01 -0.13852971992E+01  0.15103336557E+01  0.40770209173E+01  0.51100000000E-03 0. -1.
        -11    1    3    3    0    0  0.46157217879E+01  0.31657595456E+01 -0.10981782502E+02  0.12325845541E+02  0.51100000000E-03 0.  1.
        -12    1    3    3    0    0 -0.19731818400E+02 -0.11648241355E+02 -0.25289470483E+02  0.34125994511E+02  0.00000000000E+00 0.  1.
</event>
<event>
 7    1  0.4374874E-012  0.5052885E+02  0.7816164E-02  0.1300439E+00
        -11   -1    0    0    0    0  0.00000000000E+00  0.00000000000E+00  0.45593999997E+02  0.45594000000E+02  0.51100000000E-03 0. -1.
         11   -1    0    0    0    0 -0.00000000000E+00 -0.00000000000E+00 -0.45593999997E+02  0.45594000000E+02  0.51100000000E-03 0.  1.
    9900012    2    1    2    0    0 -0.14678754203E+01  0.37406163583E+02  0.15867924640E+02  0.50528846485E+02  0.29999959374E+02 0.  0.
        -12    1    1    2    0    0  0.14678754203E+01 -0.37406163583E+02 -0.15867924640E+02  0.40659153515E+02  0.00000000000E+00 0.  1.
         11    1    3    3    0    0  0.29548699069E+01  0.10236343358E+02 -0.35275859808E+01  0.11223094253E+02  0.51100000000E-03 0. -1.
        -11    1    3    3    0    0 -0.28563730378E+00 -0.25932018874E+01 -0.12044179230E+01  0.28734835118E+01  0.51100000000E-03 0.  1.
         12    1    3    3    0    0 -0.41371080233E+01  0.29763022112E+02  0.20599928544E+02  0.36432268719E+02  0.00000000000E+00 0. -1.
</event>
<event>
 7    1  0.4374874E-012  0.5052886E+02  0.7816164E-02  0.1300439E+00
        -11   -1    0    0    0    0  0.00000000000E+00  0.00000000000E+00  0.45593999997E+02  0.45594000000E+02  0.51100000000E-03 0. -1.
         11   -1    0    0    0    0 -0.00000000000E+00 -0.00000000000E+00 -0.45593999997E+02  0.45594000000E+02  0.51100000000E-03 0.  1.
    9900012    2    1    2    0    0  0.15631878942E+02 -0.25992515520E+02  0.27077644323E+02  0.50528864195E+02  0.30000013208E+02 0.  0.
        -12    1    1    2    0    0 -0.15631878942E+02  0.25992515520E+02 -0.27077644323E+02  0.40659135805E+02  0.00000000000E+00 0.  1.
         11    1    3    3    0    0  0.39169486053E+01 -0.75461520301E+01  0.13212264066E+02  0.15711486844E+02  0.51100000000E-03 0. -1.
        -11    1    3    3    0    0 -0.45285223694E+01 -0.14542233852E+02  0.66978404379E+01  0.16638664220E+02  0.51100000000E-03 0.  1.
        -12    1    3    3    0    0  0.16243452706E+02 -0.39041296383E+01  0.71675398189E+01  0.18178713131E+02  0.00000000000E+00 0.  1.
</event>
<event>
 7    1  0.4374874E-012  0.5052884E+02  0.7816164E-02  0.1300439E+00
        -11   -1    0    0    0    0  0.00000000000E+00  0.00000000000E+00  0.45593999997E+02  0.45594000000E+02  0.51100000000E-03 0. -1.
         11   -1    0    0    0    0 -0.00000000000E+00 -0.00000000000E+00 -0.45593999997E+02  0.45594000000E+02  0.51100000000E-03 0.  1.
    9900012    2    1    2    0    0 -0.14576410671E+01  0.20196620715E+02  0.35258183343E+02  0.50528835001E+02  0.29999924467E+02 0.  0.
        -12    1    1    2    0    0  0.14576410671E+01 -0.20196620715E+02 -0.35258183343E+02  0.40659164999E+02  0.00000000000E+00 0.  1.
         11    1    3    3    0    0 -0.24392658452E+01  0.19353765817E+02  0.18767078924E+02  0.27068829320E+02  0.51100000000E-03 0. -1.
        -11    1    3    3    0    0 -0.53231135853E+01 -0.12330716626E+00 -0.46412925677E+00  0.53447319042E+01  0.51100000000E-03 0.  1.
        -12    1    3    3    0    0  0.63047383634E+01  0.96616206399E+00  0.16955233676E+02  0.18115273776E+02  0.00000000000E+00 0.  1.
</event>
<event>
 7    1  0.5508119E-012  0.5052886E+02  0.7816164E-02  0.1300439E+00
        -11   -1    0    0    0    0  0.00000000000E+00  0.00000000000E+00  0.45593999997E+02  0.45594000000E+02  0.51100000000E-03 0. -1.
         11   -1    0    0    0    0 -0.00000000000E+00 -0.00000000000E+00 -0.45593999997E+02  0.45594000000E+02  0.51100000000E-03 0.  1.
    9900012    2    1    2    0    0 -0.19694003952E+02 -0.80907763337E+01 -0.34638868260E+02  0.50528860219E+02  0.30000001122E+02 0.  0.
         12    1    1    2    0    0  0.19694003952E+02  0.80907763337E+01  0.34638868260E+02  0.40659139781E+02  0.00000000000E+00 0. -1.
         11    1    3    3    0    0  0.11707588667E+01 -0.50656406140E+01 -0.24653961175E+01  0.57540915384E+01  0.51100000000E-03 0. -1.
        -11    1    3    3    0    0 -0.98687075027E+01  0.21780145771E+01  0.28639299820E+00  0.10110250070E+02  0.51100000000E-03 0.  1.
        -12    1    3    3    0    0 -0.10996055316E+02 -0.52031502967E+01 -0.32459865141E+02  0.34664518611E+02  0.00000000000E+00 0.  1.
</event>
<event>
 7    1  0.4374874E-012  0.5052886E+02  0.7816164E-02  0.1300439E+00
        -11   -1    0    0    0    0  0.00000000000E+00  0.00000000000E+00  0.45593999997E+02  0.45594000000E+02  0.51100000000E-03 0. -1.
         11   -1    0    0    0    0 -0.00000000000E+00 -0.00000000000E+00 -0.45593999997E+02  0.45594000000E+02  0.51100000000E-03 0.  1.
    9900012    2    1    2    0    0 -0.33163385468E+02  0.10979195712E+02 -0.20804144268E+02  0.50528864583E+02  0.30000014387E+02 0.  0.
         12    1    1    2    0    0  0.33163385468E+02 -0.10979195712E+02  0.20804144268E+02  0.40659135417E+02  0.00000000000E+00 0. -1.
         11    1    3    3    0    0 -0.18157158970E+02  0.11391084962E+02  0.15075985586E+01  0.21487486873E+02  0.51100000000E-03 0. -1.
        -11    1    3    3    0    0 -0.10309554414E+02  0.35198664069E+01 -0.81290900386E+01  0.13592589042E+02  0.51100000000E-03 0.  1.
        -12    1    3    3    0    0 -0.46966720840E+01 -0.39317556574E+01 -0.14182652788E+02  0.15448788668E+02  0.00000000000E+00 0.  1.
</event>
<event>
 7    1  0.4374874E-012  0.5052893E+02  0.7816164E-02  0.1300439E+00
        -11   -1    0    0    0    0  0.00000000000E+00  0.00000000000E+00  0.45593999997E+02  0.45594000000E+02  0.51100000000E-03 0. -1.
         11   -1    0    0    0    0 -0.00000000000E+00 -0.00000000000E+00 -0.45593999997E+02  0.45594000000E+02  0.51100000000E-03 0.  1.
    9900012    2    1    2    0    0  0.89112170828E+01 -0.24238043348E+02 -0.31404891914E+02  0.50528932483E+02  0.30000220774E+02 0.  0.
         12    1    1    2    0    0 -0.89112170828E+01  0.24238043348E+02  0.31404891914E+02  0.40659067517E+02  0.00000000000E+00 0. -1.
         11    1    3    3    0    0 -0.29723035398E+01  0.19235864374E+01  0.62157719013E+00  0.35945975545E+01  0.51100000000E-03 0. -1.
        -11    1    3    3    0    0  0.64612298046E+01 -0.27870164985E+02 -0.26191616208E+02  0.38787811832E+02  0.51100000000E-03 0.  1.
         12    1    3    3    0    0  0.54222908179E+01  0.17085351993E+01 -0.58348528954E+01  0.81465230959E+01  0.00000000000E+00 0. -1.
</event>
<event>
 7    1  0.4374874E-012  0.5052885E+02  0.7816164E-02  0.1300439E+00
        -11   -1    0    0    0    0  0.00000000000E+00  0.00000000000E+00  0.45593999997E+02  0.45594000000E+02  0.51100000000E-03 0.  1.
         11   -1    0    0    0    0 -0.00000000000E+00 -0.00000000000E+00 -0.45593999997E+02  0.45594000000E+02  0.51100000000E-03 0. -1.
    9900012    2    1    2    0    0  0.27059655744E+02 -0.29577538847E+02  0.67904591293E+01  0.50528854553E+02  0.29999983901E+02 0.  0.
        -12    1    1    2    0    0 -0.27059655744E+02  0.29577538847E+02 -0.67904591293E+01  0.40659145447E+02  0.00000000000E+00 0.  1.
         11    1    3    3    0    0  0.90865154543E+01 -0.11292528417E+02 -0.73135713461E+01  0.16234971119E+02  0.51100000000E-03 0. -1.
        -11    1    3    3    0    0  0.17003115755E+02 -0.47166099557E+01  0.84174187480E+01  0.19550071445E+02  0.51100000000E-03 0.  1.
        -12    1    3    3    0    0  0.97002453479E+00 -0.13568400475E+02  0.56866117273E+01  0.14743811990E+02  0.00000000000E+00 0.  1.
</event>
<event>
 7    1  0.4374874E-012  0.5052899E+02  0.7816164E-02  0.1300438E+00
        -11   -1    0    0    0    0  0.00000000000E+00  0.00000000000E+00  0.45593999997E+02  0.45594000000E+02  0.51100000000E-03 0. -1.
         11   -1    0    0    0    0 -0.00000000000E+00 -0.00000000000E+00 -0.45593999997E+02  0.45594000000E+02  0.51100000000E-03 0.  1.
    9900012    2    1    2    0    0 -0.35288450560E+02  0.19221198534E+01 -0.20104377833E+02  0.50528987522E+02  0.30000388070E+02 0.  0.
         12    1    1    2    0    0  0.35288450560E+02 -0.19221198534E+01  0.20104377833E+02  0.40659012478E+02  0.00000000000E+00 0. -1.
         11    1    3    3    0    0 -0.63159930029E+01 -0.18087105497E+01  0.19343112083E+01  0.68487051022E+01  0.51100000000E-03 0. -1.
        -11    1    3    3    0    0 -0.22808128005E+02 -0.23578231285E+00 -0.26629199626E+01  0.22964264399E+02  0.51100000000E-03 0.  1.
        -12    1    3    3    0    0 -0.61643295516E+01  0.39666127159E+01 -0.19375769078E+02  0.20716018021E+02  0.00000000000E+00 0.  1.
</event>
<event>
 7    1  0.4374874E-012  0.5052886E+02  0.7816164E-02  0.1300439E+00
        -11   -1    0    0    0    0  0.00000000000E+00  0.00000000000E+00  0.45593999997E+02  0.45594000000E+02  0.51100000000E-03 0. -1.
         11   -1    0    0    0    0 -0.00000000000E+00 -0.00000000000E+00 -0.45593999997E+02  0.45594000000E+02  0.51100000000E-03 0.  1.
    9900012    2    1    2    0    0 -0.32786539090E+02 -0.94457095776E+01 -0.22113052595E+02  0.50528859945E+02  0.30000000290E+02 0.  0.
         12    1    1    2    0    0  0.32786539090E+02  0.94457095776E+01  0.22113052595E+02  0.40659140055E+02  0.00000000000E+00 0. -1.
         11    1    3    3    0    0 -0.10189334810E+02 -0.13392138185E+02 -0.99189409715E+01  0.19533491733E+02  0.51100000000E-03 0. -1.
        -11    1    3    3    0    0 -0.14793584886E+02 -0.18938433675E+01 -0.14689799043E+02  0.20933871898E+02  0.51100000000E-03 0.  1.
        -12    1    3    3    0    0 -0.78036193937E+01  0.58402719745E+01  0.24956874194E+01  0.10061496314E+02  0.00000000000E+00 0.  1.
</event>
<event>
 7    1  0.4374874E-012  0.5052889E+02  0.7816164E-02  0.1300439E+00
        -11   -1    0    0    0    0  0.00000000000E+00  0.00000000000E+00  0.45593999997E+02  0.45594000000E+02  0.51100000000E-03 0. -1.
         11   -1    0    0    0    0 -0.00000000000E+00 -0.00000000000E+00 -0.45593999997E+02  0.45594000000E+02  0.51100000000E-03 0.  1.
    9900012    2    1    2    0    0 -0.10687944777E+02 -0.29998885484E+02  0.25278413973E+02  0.50528886546E+02  0.30000081147E+02 0.  0.
        -12    1    1    2    0    0  0.10687944777E+02  0.29998885484E+02 -0.25278413973E+02  0.40659113454E+02  0.00000000000E+00 0.  1.
         11    1    3    3    0    0 -0.10119545427E+02 -0.27118076804E+02  0.16783844329E+02  0.33458821257E+02  0.51100000000E-03 0. -1.
        -11    1    3    3    0    0 -0.25160656057E+01 -0.47496078572E+01  0.11702386931E+02  0.12877702476E+02  0.51100000000E-03 0.  1.
        -12    1    3    3    0    0  0.19476662556E+01  0.18687991772E+01 -0.32078172871E+01  0.41923628129E+01  0.00000000000E+00 0.  1.
</event>
<event>
 7    1  0.4374874E-012  0.5052886E+02  0.7816164E-02  0.1300439E+00
        -11   -1    0    0    0    0  0.00000000000E+00  0.00000000000E+00  0.45593999997E+02  0.45594000000E+02  0.51100000000E-03 0. -1.
         11   -1    0    0    0    0 -0.00000000000E+00 -0.00000000000E+00 -0.45593999997E+02  0.45594000000E+02  0.51100000000E-03 0.  1.
    9900012    2    1    2    0    0 -0.11671110975E+02  0.11504047322E+02 -0.37210317602E+02  0.50528859918E+02  0.30000000207E+02 0.  0.
         12    1    1    2    0    0  0.11671110975E+02 -0.11504047322E+02  0.37210317602E+02  0.40659140082E+02  0.00000000000E+00 0. -1.
         11    1    3    3    0    0 -0.28267506462E+01  0.16508389257E+02 -0.18673221180E+02  0.25083991400E+02  0.51100000000E-03 0. -1.
        -11    1    3    3    0    0 -0.83717522355E+01  0.22493758493E+01 -0.15083502788E+02  0.17397068254E+02  0.51100000000E-03 0.  1.
        -12    1    3    3    0    0 -0.47260809344E+00 -0.72537177842E+01 -0.34535936338E+01  0.80478002640E+01  0.00000000000E+00 0.  1.
</event>
<event>
 7    1  0.4374874E-012  0.5052873E+02  0.7816164E-02  0.1300439E+00
        -11   -1    0    0    0    0  0.00000000000E+00  0.00000000000E+00  0.45593999997E+02  0.45594000000E+02  0.51100000000E-03 0. -1.
         11   -1    0    0    0    0 -0.00000000000E+00 -0.00000000000E+00 -0.45593999997E+02  0.45594000000E+02  0.51100000000E-03 0.  1.
    9900012    2    1    2    0    0 -0.21125818194E+02 -0.29804315565E+02  0.17848773878E+02  0.50528731074E+02  0.29999608571E+02 0.  0.
        -12    1    1    2    0    0  0.21125818194E+02  0.29804315565E+02 -0.17848773878E+02  0.40659268926E+02  0.00000000000E+00 0.  1.
         11    1    3    3    0    0 -0.23807463090E+02 -0.20898302198E+02  0.12585925923E+02  0.34087239036E+02  0.51100000000E-03 0. -1.
        -11    1    3    3    0    0 -0.33123274539E+01  0.11457412409E+01  0.27902360241E+01  0.44799166827E+01  0.51100000000E-03 0.  1.
         12    1    3    3    0    0  0.59939723500E+01 -0.10051754608E+02  0.24726119305E+01  0.11961575356E+02  0.00000000000E+00 0. -1.
</event>
<event>
 7    1  0.4374874E-012  0.5052888E+02  0.7816164E-02  0.1300439E+00
        -11   -1    0    0    0    0  0.00000000000E+00  0.00000000000E+00  0.45593999997E+02  0.45594000000E+02  0.51100000000E-03 0. -1.
         11   -1    0    0    0    0 -0.00000000000E+00 -0.00000000000E+00 -0.45593999997E+02  0.45594000000E+02  0.51100000000E-03 0.  1.
    9900012    2    1    2    0    0 -0.37940134618E+02  0.36479191975E+01 -0.14156375907E+02  0.50528879152E+02  0.30000058669E+02 0.  0.
         12    1    1    2    0    0  0.37940134618E+02 -0.36479191975E+01  0.14156375907E+02  0.40659120848E+02  0.00000000000E+00 0. -1.
         11    1    3    3    0    0 -0.22963815732E+02  0.78926353059E+01 -0.12321622150E+02  0.27229632714E+02  0.51100000000E-03 0. -1.
        -11    1    3    3    0    0 -0.14881335676E+01  0.12744543368E+01 -0.74333129708E+01  0.76871917730E+01  0.51100000000E-03 0.  1.
         12    1    3    3    0    0 -0.13488185319E+02 -0.55191704453E+01  0.55985592134E+01  0.15612054665E+02  0.00000000000E+00 0. -1.
</event>
<event>
 7    1  0.4374874E-012  0.5052885E+02  0.7816164E-02  0.1300439E+00
        -11   -1    0    0    0    0  0.00000000000E+00  0.00000000000E+00  0.45593999997E+02  0.45594000000E+02  0.51100000000E-03 0. -1.
         11   -1    0    0    0    0 -0.00000000000E+00 -0.00000000000E+00 -0.45593999997E+02  0.45594000000E+02  0.51100000000E-03 0.  1.
    9900012    2    1    2    0    0  0.20307335461E+02  0.23300042113E+02  0.26417539965E+02  0.50528852766E+02  0.29999978469E+02 0.  0.
        -12    1    1    2    0    0 -0.20307335461E+02 -0.23300042113E+02 -0.26417539965E+02  0.40659147234E+02  0.00000000000E+00 0.  1.
         11    1    3    3    0    0 -0.47253446958E+00  0.20300470830E+02  0.12798551506E+02  0.24002819119E+02  0.51100000000E-03 0. -1.
        -11    1    3    3    0    0  0.52831284150E+01  0.42348590374E+01  0.18248312945E+01  0.70125235422E+01  0.51100000000E-03 0.  1.
         12    1    3    3    0    0  0.15496741515E+02 -0.12352877542E+01  0.11794157164E+02  0.19513510105E+02  0.00000000000E+00 0. -1.
</event>
<event>
 7    1  0.4374874E-012  0.5052886E+02  0.7816164E-02  0.1300439E+00
        -11   -1    0    0    0    0  0.00000000000E+00  0.00000000000E+00  0.45593999997E+02  0.45594000000E+02  0.51100000000E-03 0. -1.
         11   -1    0    0    0    0 -0.00000000000E+00 -0.00000000000E+00 -0.45593999997E+02  0.45594000000E+02  0.51100000000E-03 0.  1.
    9900012    2    1    2    0    0  0.15839236684E+02  0.35856183007E+01 -0.37275028706E+02  0.50528857825E+02  0.29999993845E+02 0.  0.
         12    1    1    2    0    0 -0.15839236684E+02 -0.35856183007E+01  0.37275028706E+02  0.40659142175E+02  0.00000000000E+00 0. -1.
         11    1    3    3    0    0 -0.86510943682E+01  0.35516184665E+01 -0.92099964755E+01  0.13125527145E+02  0.51100000000E-03 0.  1.
        -11    1    3    3    0    0  0.16734570072E+02  0.16070940193E+01 -0.18970205860E+02  0.25347530399E+02  0.51100000000E-03 0. -1.
        -12    1    3    3    0    0  0.77557609803E+01 -0.15730941852E+01 -0.90948263712E+01  0.12055800281E+02  0.00000000000E+00 0.  1.
</event>
<event>
 7    1  0.4374874E-012  0.5052884E+02  0.7816164E-02  0.1300439E+00
        -11   -1    0    0    0    0  0.00000000000E+00  0.00000000000E+00  0.45593999997E+02  0.45594000000E+02  0.51100000000E-03 0. -1.
         11   -1    0    0    0    0 -0.00000000000E+00 -0.00000000000E+00 -0.45593999997E+02  0.45594000000E+02  0.51100000000E-03 0.  1.
    9900012    2    1    2    0    0  0.23988825673E+02  0.29526667272E+02 -0.14348502615E+02  0.50528839106E+02  0.29999936946E+02 0.  0.
         12    1    1    2    0    0 -0.23988825673E+02 -0.29526667272E+02  0.14348502615E+02  0.40659160894E+02  0.00000000000E+00 0. -1.
         11    1    3    3    0    0  0.36665956742E-01  0.79228681320E+01 -0.21243129806E+01  0.82027976770E+01  0.51100000000E-03 0. -1.
        -11    1    3    3    0    0  0.16152861509E+02  0.13085673349E+02  0.51935166974E+01  0.21427141617E+02  0.51100000000E-03 0.  1.
        -12    1    3    3    0    0  0.77992982072E+01  0.85181257909E+01 -0.17417706332E+02  0.20898899812E+02  0.00000000000E+00 0.  1.
</event>
<event>
 7    1  0.4374874E-012  0.5052886E+02  0.7816164E-02  0.1300439E+00
        -11   -1    0    0    0    0  0.00000000000E+00  0.00000000000E+00  0.45593999997E+02  0.45594000000E+02  0.51100000000E-03 0. -1.
         11   -1    0    0    0    0 -0.00000000000E+00 -0.00000000000E+00 -0.45593999997E+02  0.45594000000E+02  0.51100000000E-03 0.  1.
    9900012    2    1    2    0    0  0.24386883190E+02 -0.47243826761E+01  0.32188913175E+02  0.50528855951E+02  0.29999988149E+02 0.  0.
        -12    1    1    2    0    0 -0.24386883190E+02  0.47243826761E+01 -0.32188913175E+02  0.40659144049E+02  0.00000000000E+00 0.  1.
         11    1    3    3    0    0  0.89807483209E+01  0.37061499898E+01  0.34638180007E+00  0.97215929128E+01  0.51100000000E-03 0.  1.
        -11    1    3    3    0    0  0.19341091149E+02 -0.51393065999E+01  0.22225557642E+02  0.29907619296E+02  0.51100000000E-03 0. -1.
        -12    1    3    3    0    0 -0.39349562797E+01 -0.32912260660E+01  0.96169737325E+01  0.10899643742E+02  0.00000000000E+00 0.  1.
</event>
<event>
 7    1  0.4374874E-012  0.5052885E+02  0.7816164E-02  0.1300439E+00
        -11   -1    0    0    0    0  0.00000000000E+00  0.00000000000E+00  0.45593999997E+02  0.45594000000E+02  0.51100000000E-03 0. -1.
         11   -1    0    0    0    0 -0.00000000000E+00 -0.00000000000E+00 -0.45593999997E+02  0.45594000000E+02  0.51100000000E-03 0.  1.
    9900012    2    1    2    0    0  0.68220895277E+01  0.57062003021E+01 -0.39674482349E+02  0.50528853710E+02  0.29999981336E+02 0.  0.
         12    1    1    2    0    0 -0.68220895277E+01 -0.57062003021E+01  0.39674482349E+02  0.40659146290E+02  0.00000000000E+00 0. -1.
         11    1    3    3    0    0  0.76336882570E+01  0.10106307858E+02 -0.19939512696E+02  0.23621914015E+02  0.51100000000E-03 0.  1.
        -11    1    3    3    0    0 -0.23285769877E+01  0.46314143796E+01 -0.36810742380E-01  0.51839777425E+01  0.51100000000E-03 0. -1.
        -12    1    3    3    0    0  0.15169782584E+01 -0.90315219357E+01 -0.19698158911E+02  0.21722961952E+02  0.00000000000E+00 0.  1.
</event>
<event>
 7    1  0.4374874E-012  0.5052886E+02  0.7816164E-02  0.1300439E+00
        -11   -1    0    0    0    0  0.00000000000E+00  0.00000000000E+00  0.45593999997E+02  0.45594000000E+02  0.51100000000E-03 0. -1.
         11   -1    0    0    0    0 -0.00000000000E+00 -0.00000000000E+00 -0.45593999997E+02  0.45594000000E+02  0.51100000000E-03 0.  1.
    9900012    2    1    2    0    0  0.19965036187E+02  0.20847923296E+02  0.28634370121E+02  0.50528859233E+02  0.29999998125E+02 0.  0.
        -12    1    1    2    0    0 -0.19965036187E+02 -0.20847923296E+02 -0.28634370121E+02  0.40659140767E+02  0.00000000000E+00 0.  1.
         11    1    3    3    0    0  0.21764942470E+02  0.23883035846E+02  0.17664717209E+02  0.36826001090E+02  0.51100000000E-03 0. -1.
        -11    1    3    3    0    0  0.25636417568E+01 -0.17113531020E+01  0.21000957967E+01  0.37297977309E+01  0.51100000000E-03 0.  1.
        -12    1    3    3    0    0 -0.43635480399E+01 -0.13237594481E+01  0.88695571154E+01  0.99730604127E+01  0.00000000000E+00 0.  1.
</event>
<event>
 7    1  0.4374874E-012  0.5052886E+02  0.7816164E-02  0.1300439E+00
        -11   -1    0    0    0    0  0.00000000000E+00  0.00000000000E+00  0.45593999997E+02  0.45594000000E+02  0.51100000000E-03 0.  1.
         11   -1    0    0    0    0 -0.00000000000E+00 -0.00000000000E+00 -0.45593999997E+02  0.45594000000E+02  0.51100000000E-03 0. -1.
    9900012    2    1    2    0    0  0.13151127683E+02 -0.34219644642E+02  0.17584910474E+02  0.50528864309E+02  0.30000013554E+02 0.  0.
        -12    1    1    2    0    0 -0.13151127683E+02  0.34219644642E+02 -0.17584910474E+02  0.40659135691E+02  0.00000000000E+00 0.  1.
         11    1    3    3    0    0 -0.33704778357E+00 -0.35360259959E+01 -0.46693158800E+00  0.35826116760E+01  0.51100000000E-03 0. -1.
        -11    1    3    3    0    0  0.99561477200E+01  0.60433037339E+00  0.10669416843E+02  0.14605702608E+02  0.51100000000E-03 0.  1.
        -12    1    3    3    0    0  0.35320277463E+01 -0.31287949019E+02  0.73824252187E+01  0.32340550026E+02  0.00000000000E+00 0.  1.
</event>
<event>
 7    1  0.4374874E-012  0.5052885E+02  0.7816164E-02  0.1300439E+00
        -11   -1    0    0    0    0  0.00000000000E+00  0.00000000000E+00  0.45593999997E+02  0.45594000000E+02  0.51100000000E-03 0. -1.
         11   -1    0    0    0    0 -0.00000000000E+00 -0.00000000000E+00 -0.45593999997E+02  0.45594000000E+02  0.51100000000E-03 0.  1.
    9900012    2    1    2    0    0 -0.28409351441E+02  0.88098816240E+01 -0.27721129069E+02  0.50528852685E+02  0.29999978221E+02 0.  0.
         12    1    1    2    0    0  0.28409351441E+02 -0.88098816240E+01  0.27721129069E+02  0.40659147315E+02  0.00000000000E+00 0. -1.
         11    1    3    3    0    0 -0.57318379606E+01 -0.62875047167E+01 -0.31882927145E+01  0.90858072103E+01  0.51100000000E-03 0. -1.
        -11    1    3    3    0    0 -0.20166672539E+01  0.49448100120E+01  0.25336606392E+01  0.59107976927E+01  0.51100000000E-03 0.  1.
        -12    1    3    3    0    0 -0.20660846226E+02  0.10152576329E+02 -0.27066496994E+02  0.35532247782E+02  0.00000000000E+00 0.  1.
</event>
<event>
 7    1  0.4374874E-012  0.5052889E+02  0.7816164E-02  0.1300439E+00
        -11   -1    0    0    0    0  0.00000000000E+00  0.00000000000E+00  0.45593999997E+02  0.45594000000E+02  0.51100000000E-03 0. -1.
         11   -1    0    0    0    0 -0.00000000000E+00 -0.00000000000E+00 -0.45593999997E+02  0.45594000000E+02  0.51100000000E-03 0.  1.
    9900012    2    1    2    0    0 -0.17310340372E+02 -0.10458123147E+02 -0.35272415097E+02  0.50528886749E+02  0.30000081763E+02 0.  0.
         12    1    1    2    0    0  0.17310340372E+02  0.10458123147E+02  0.35272415097E+02  0.40659113251E+02  0.00000000000E+00 0. -1.
         11    1    3    3    0    0 -0.17358803389E+01 -0.16655606089E+02 -0.16616588468E+02  0.23590962407E+02  0.51100000000E-03 0. -1.
        -11    1    3    3    0    0  0.31917020463E+00  0.87020767727E+00 -0.56390888867E+01  0.57147576287E+01  0.51100000000E-03 0.  1.
         12    1    3    3    0    0 -0.15893630237E+02  0.53272752652E+01 -0.13016737743E+02  0.21223166713E+02  0.00000000000E+00 0. -1.
</event>
<event>
 7    1  0.4374874E-012  0.5052886E+02  0.7816164E-02  0.1300439E+00
        -11   -1    0    0    0    0  0.00000000000E+00  0.00000000000E+00  0.45593999997E+02  0.45594000000E+02  0.51100000000E-03 0. -1.
         11   -1    0    0    0    0 -0.00000000000E+00 -0.00000000000E+00 -0.45593999997E+02  0.45594000000E+02  0.51100000000E-03 0.  1.
    9900012    2    1    2    0    0  0.63988678723E+01  0.36965253309E+02 -0.15677689264E+02  0.50528863230E+02  0.30000010273E+02 0.  0.
         12    1    1    2    0    0 -0.63988678723E+01 -0.36965253309E+02  0.15677689264E+02  0.40659136770E+02  0.00000000000E+00 0. -1.
         11    1    3    3    0    0  0.15321737430E+01 -0.17259334283E+01  0.32696307844E+01  0.40021104814E+01  0.51100000000E-03 0. -1.
        -11    1    3    3    0    0  0.50002145957E+01  0.36975443295E+02 -0.11737858923E+02  0.39114740000E+02  0.51100000000E-03 0.  1.
         12    1    3    3    0    0 -0.13352046639E+00  0.17157434420E+01 -0.72094611252E+01  0.74120127489E+01  0.00000000000E+00 0. -1.
</event>
<event>
 7    1  0.4374874E-012  0.5052886E+02  0.7816164E-02  0.1300439E+00
        -11   -1    0    0    0    0  0.00000000000E+00  0.00000000000E+00  0.45593999997E+02  0.45594000000E+02  0.51100000000E-03 0. -1.
         11   -1    0    0    0    0 -0.00000000000E+00 -0.00000000000E+00 -0.45593999997E+02  0.45594000000E+02  0.51100000000E-03 0.  1.
    9900012    2    1    2    0    0  0.75723208452E+01 -0.34735204298E+02 -0.19730463900E+02  0.50528859991E+02  0.30000000427E+02 0.  0.
         12    1    1    2    0    0 -0.75723208452E+01  0.34735204298E+02  0.19730463900E+02  0.40659140009E+02  0.00000000000E+00 0. -1.
         11    1    3    3    0    0 -0.86186582069E+00 -0.13618322388E+01  0.40350395122E+01  0.43449906634E+01  0.51100000000E-03 0. -1.
        -11    1    3    3    0    0  0.10665660486E+02 -0.25254910054E+02 -0.84170411706E+01  0.28677750571E+02  0.51100000000E-03 0.  1.
        -12    1    3    3    0    0 -0.22314738205E+01 -0.81184620048E+01 -0.15348462242E+02  0.17506118757E+02  0.00000000000E+00 0.  1.
</event>
<event>
 7    1  0.4374874E-012  0.5052885E+02  0.7816164E-02  0.1300439E+00
        -11   -1    0    0    0    0  0.00000000000E+00  0.00000000000E+00  0.45593999997E+02  0.45594000000E+02  0.51100000000E-03 0. -1.
         11   -1    0    0    0    0 -0.00000000000E+00 -0.00000000000E+00 -0.45593999997E+02  0.45594000000E+02  0.51100000000E-03 0.  1.
    9900012    2    1    2    0    0 -0.23959671335E+02 -0.18795847522E+02 -0.26940980790E+02  0.50528853668E+02  0.29999981209E+02 0.  0.
         12    1    1    2    0    0  0.23959671335E+02  0.18795847522E+02  0.26940980790E+02  0.40659146332E+02  0.00000000000E+00 0. -1.
         11    1    3    3    0    0 -0.64049782105E+01 -0.11564710596E+02  0.57004362069E+00  0.13232204164E+02  0.51100000000E-03 0. -1.
        -11    1    3    3    0    0  0.89371383705E+00  0.36233669304E+01 -0.49250100245E+01  0.61792585589E+01  0.51100000000E-03 0.  1.
        -12    1    3    3    0    0 -0.18448406962E+02 -0.10854503856E+02 -0.22586014386E+02  0.31117390945E+02  0.00000000000E+00 0.  1.
</event>
<event>
 7    1  0.4374874E-012  0.5052886E+02  0.7816164E-02  0.1300439E+00
        -11   -1    0    0    0    0  0.00000000000E+00  0.00000000000E+00  0.45593999997E+02  0.45594000000E+02  0.51100000000E-03 0. -1.
         11   -1    0    0    0    0 -0.00000000000E+00 -0.00000000000E+00 -0.45593999997E+02  0.45594000000E+02  0.51100000000E-03 0.  1.
    9900012    2    1    2    0    0 -0.30650752058E+00  0.58173252771E+01  0.40239662549E+02  0.50528860040E+02  0.30000000578E+02 0.  0.
        -12    1    1    2    0    0  0.30650752058E+00 -0.58173252771E+01 -0.40239662549E+02  0.40659139960E+02  0.00000000000E+00 0.  1.
         11    1    3    3    0    0 -0.35114214349E+01  0.50170465404E+01  0.14847223893E+01  0.63012091948E+01  0.51100000000E-03 0. -1.
        -11    1    3    3    0    0 -0.85446342350E+01 -0.28109579581E+01  0.15358449156E+02  0.17798713987E+02  0.51100000000E-03 0.  1.
         12    1    3    3    0    0  0.11749548149E+02  0.36112366949E+01  0.23396491003E+02  0.26428936858E+02  0.00000000000E+00 0. -1.
</event>
<event>
 7    1  0.4374874E-012  0.5052887E+02  0.7816164E-02  0.1300439E+00
        -11   -1    0    0    0    0  0.00000000000E+00  0.00000000000E+00  0.45593999997E+02  0.45594000000E+02  0.51100000000E-03 0. -1.
         11   -1    0    0    0    0 -0.00000000000E+00 -0.00000000000E+00 -0.45593999997E+02  0.45594000000E+02  0.51100000000E-03 0.  1.
    9900012    2    1    2    0    0  0.13441271813E+01 -0.17073360133E+02  0.36876265214E+02  0.50528865230E+02  0.30000016354E+02 0.  0.
        -12    1    1    2    0    0 -0.13441271813E+01  0.17073360133E+02 -0.36876265214E+02  0.40659134770E+02  0.00000000000E+00 0.  1.
         11    1    3    3    0    0  0.94595918620E+01 -0.26515136284E+01  0.12345632667E+02  0.15777485507E+02  0.51100000000E-03 0. -1.
        -11    1    3    3    0    0 -0.31269619181E+01  0.41850020826E+01  0.67537017709E+01  0.85384202954E+01  0.51100000000E-03 0.  1.
        -12    1    3    3    0    0 -0.49885027626E+01 -0.18606848587E+02  0.17776930776E+02  0.26212959428E+02  0.00000000000E+00 0.  1.
</event>
<event>
 7    1  0.4374874E-012  0.5052886E+02  0.7816164E-02  0.1300439E+00
        -11   -1    0    0    0    0  0.00000000000E+00  0.00000000000E+00  0.45593999997E+02  0.45594000000E+02  0.51100000000E-03 0.  1.
         11   -1    0    0    0    0 -0.00000000000E+00 -0.00000000000E+00 -0.45593999997E+02  0.45594000000E+02  0.51100000000E-03 0. -1.
    9900012    2    1    2    0    0  0.32374060107E+02  0.40375392003E+01  0.24264870491E+02  0.50528862890E+02  0.30000009239E+02 0.  0.
        -12    1    1    2    0    0 -0.32374060107E+02 -0.40375392003E+01 -0.24264870491E+02  0.40659137110E+02  0.00000000000E+00 0.  1.
         11    1    3    3    0    0  0.19239124262E+02  0.54871002411E+01  0.89455316109E+01  0.21915170715E+02  0.51100000000E-03 0. -1.
        -11    1    3    3    0    0  0.12170049315E+02  0.20008765057E+00  0.20081555607E+02  0.23482312732E+02  0.51100000000E-03 0.  1.
         12    1    3    3    0    0  0.96488653049E+00 -0.16496486914E+01 -0.47622167270E+01  0.51313794419E+01  0.00000000000E+00 0. -1.
</event>
<event>
 7    1  0.4374874E-012  0.5052886E+02  0.7816164E-02  0.1300439E+00
        -11   -1    0    0    0    0  0.00000000000E+00  0.00000000000E+00  0.45593999997E+02  0.45594000000E+02  0.51100000000E-03 0. -1.
         11   -1    0    0    0    0 -0.00000000000E+00 -0.00000000000E+00 -0.45593999997E+02  0.45594000000E+02  0.51100000000E-03 0.  1.
    9900012    2    1    2    0    0  0.65815563048E+01 -0.33109129247E+02 -0.22663503241E+02  0.50528859551E+02  0.29999999091E+02 0.  0.
         12    1    1    2    0    0 -0.65815563048E+01  0.33109129247E+02  0.22663503241E+02  0.40659140449E+02  0.00000000000E+00 0. -1.
         11    1    3    3    0    0 -0.32712241088E+01 -0.31055475010E+01 -0.14452279632E+02  0.15139805788E+02  0.51100000000E-03 0. -1.
        -11    1    3    3    0    0  0.87965860444E+01 -0.19314184285E+02 -0.11521933078E+02  0.24148966495E+02  0.51100000000E-03 0.  1.
        -12    1    3    3    0    0  0.10561943692E+01 -0.10689397461E+02  0.33107094695E+01  0.11240087269E+02  0.00000000000E+00 0.  1.
</event>
<event>
 7    1  0.4374874E-012  0.5052886E+02  0.7816164E-02  0.1300439E+00
        -11   -1    0    0    0    0  0.00000000000E+00  0.00000000000E+00  0.45593999997E+02  0.45594000000E+02  0.51100000000E-03 0. -1.
         11   -1    0    0    0    0 -0.00000000000E+00 -0.00000000000E+00 -0.45593999997E+02  0.45594000000E+02  0.51100000000E-03 0.  1.
    9900012    2    1    2    0    0  0.14899553917E+02  0.31553017275E+02 -0.20870459330E+02  0.50528859838E+02  0.29999999964E+02 0.  0.
         12    1    1    2    0    0 -0.14899553917E+02 -0.31553017275E+02  0.20870459330E+02  0.40659140162E+02  0.00000000000E+00 0. -1.
         11    1    3    3    0    0  0.66598695493E+01  0.16443455896E+02 -0.59101196553E+01  0.18699481780E+02  0.51100000000E-03 0.  1.
        -11    1    3    3    0    0 -0.40662904521E+01  0.13938508666E+02 -0.34170675354E+01  0.14916202355E+02  0.51100000000E-03 0. -1.
         12    1    3    3    0    0  0.12305974820E+02  0.11710527123E+01 -0.11543272139E+02  0.16913175704E+02  0.00000000000E+00 0. -1.
</event>
<event>
 7    1  0.4374874E-012  0.5052888E+02  0.7816164E-02  0.1300439E+00
        -11   -1    0    0    0    0  0.00000000000E+00  0.00000000000E+00  0.45593999997E+02  0.45594000000E+02  0.51100000000E-03 0. -1.
         11   -1    0    0    0    0 -0.00000000000E+00 -0.00000000000E+00 -0.45593999997E+02  0.45594000000E+02  0.51100000000E-03 0.  1.
    9900012    2    1    2    0    0 -0.29312765392E+02  0.13722971075E+02 -0.24609058891E+02  0.50528881347E+02  0.30000065343E+02 0.  0.
         12    1    1    2    0    0  0.29312765392E+02 -0.13722971075E+02  0.24609058891E+02  0.40659118653E+02  0.00000000000E+00 0. -1.
         11    1    3    3    0    0 -0.62941846869E+01  0.62311173990E+00 -0.13619686159E+02  0.15016686734E+02  0.51100000000E-03 0.  1.
        -11    1    3    3    0    0 -0.36791382958E+01  0.11311719388E+02 -0.10834462983E+02  0.16089643952E+02  0.51100000000E-03 0. -1.
         12    1    3    3    0    0 -0.19339442410E+02  0.17881399474E+01 -0.15490974953E+00  0.19422550662E+02  0.00000000000E+00 0. -1.
</event>
<event>
 7    1  0.4374874E-012  0.5052886E+02  0.7816164E-02  0.1300439E+00
        -11   -1    0    0    0    0  0.00000000000E+00  0.00000000000E+00  0.45593999997E+02  0.45594000000E+02  0.51100000000E-03 0. -1.
         11   -1    0    0    0    0 -0.00000000000E+00 -0.00000000000E+00 -0.45593999997E+02  0.45594000000E+02  0.51100000000E-03 0.  1.
    9900012    2    1    2    0    0 -0.15840171753E+02  0.25071897968E+02  0.27814649033E+02  0.50528858227E+02  0.29999995067E+02 0.  0.
        -12    1    1    2    0    0  0.15840171753E+02 -0.25071897968E+02 -0.27814649033E+02  0.40659141773E+02  0.00000000000E+00 0.  1.
         11    1    3    3    0    0 -0.69649328322E+01  0.20575092425E+02  0.22412801035E+02  0.31211830580E+02  0.51100000000E-03 0. -1.
        -11    1    3    3    0    0 -0.26905138440E+01  0.98136271390E+01  0.44481912606E+01  0.11105518814E+02  0.51100000000E-03 0.  1.
         12    1    3    3    0    0 -0.61847250770E+01 -0.53168215952E+01  0.95365673681E+00  0.82115088336E+01  0.00000000000E+00 0. -1.
</event>
<event>
 7    1  0.4374874E-012  0.5052886E+02  0.7816164E-02  0.1300439E+00
        -11   -1    0    0    0    0  0.00000000000E+00  0.00000000000E+00  0.45593999997E+02  0.45594000000E+02  0.51100000000E-03 0.  1.
         11   -1    0    0    0    0 -0.00000000000E+00 -0.00000000000E+00 -0.45593999997E+02  0.45594000000E+02  0.51100000000E-03 0. -1.
    9900012    2    1    2    0    0  0.36724777722E+02  0.17002887637E+02 -0.39189192076E+01  0.50528863087E+02  0.30000009840E+02 0.  0.
         12    1    1    2    0    0 -0.36724777722E+02 -0.17002887637E+02  0.39189192076E+01  0.40659136913E+02  0.00000000000E+00 0. -1.
         11    1    3    3    0    0  0.17369877581E+02  0.95930356857E+01 -0.42600656382E+01  0.20295002842E+02  0.51100000000E-03 0. -1.
        -11    1    3    3    0    0  0.19580391682E+02  0.92125093250E+00  0.71127656384E+01  0.20852622784E+02  0.51100000000E-03 0.  1.
         12    1    3    3    0    0 -0.22549154021E+00  0.64886010184E+01 -0.67716192078E+01  0.93812374614E+01  0.00000000000E+00 0. -1.
</event>
<event>
 7    1  0.4374874E-012  0.5052886E+02  0.7816164E-02  0.1300439E+00
        -11   -1    0    0    0    0  0.00000000000E+00  0.00000000000E+00  0.45593999997E+02  0.45594000000E+02  0.51100000000E-03 0. -1.
         11   -1    0    0    0    0 -0.00000000000E+00 -0.00000000000E+00 -0.45593999997E+02  0.45594000000E+02  0.51100000000E-03 0.  1.
    9900012    2    1    2    0    0  0.10484478143E+02  0.18798425662E+00 -0.39283662152E+02  0.50528859182E+02  0.29999997969E+02 0.  0.
         12    1    1    2    0    0 -0.10484478143E+02 -0.18798425662E+00  0.39283662152E+02  0.40659140818E+02  0.00000000000E+00 0. -1.
         11    1    3    3    0    0 -0.17028812275E+01  0.51784766266E+01 -0.47954217064E+01  0.72603370618E+01  0.51100000000E-03 0. -1.
        -11    1    3    3    0    0 -0.63638824936E+01 -0.33461486895E+01 -0.12801006259E+02  0.14682011884E+02  0.51100000000E-03 0.  1.
        -12    1    3    3    0    0  0.18551241864E+02 -0.16443436805E+01 -0.21687234186E+02  0.28586510236E+02  0.00000000000E+00 0.  1.
</event>
<event>
 7    1  0.4374874E-012  0.5052876E+02  0.7816164E-02  0.1300439E+00
        -11   -1    0    0    0    0  0.00000000000E+00  0.00000000000E+00  0.45593999997E+02  0.45594000000E+02  0.51100000000E-03 0. -1.
         11   -1    0    0    0    0 -0.00000000000E+00 -0.00000000000E+00 -0.45593999997E+02  0.45594000000E+02  0.51100000000E-03 0.  1.
    9900012    2    1    2    0    0  0.40398701198E+02 -0.44588496417E+01 -0.11123181299E+01  0.50528761809E+02  0.29999701994E+02 0.  0.
         12    1    1    2    0    0 -0.40398701198E+02  0.44588496417E+01  0.11123181299E+01  0.40659238191E+02  0.00000000000E+00 0. -1.
         11    1    3    3    0    0  0.97536969673E+01 -0.10856861037E+02 -0.17030889182E+01  0.14693758819E+02  0.51100000000E-03 0.  1.
        -11    1    3    3    0    0 -0.10715575063E+01 -0.39835959730E+00  0.30974863892E+01  0.33017189539E+01  0.51100000000E-03 0. -1.
        -12    1    3    3    0    0  0.31716561737E+02  0.67963709922E+01 -0.25067156009E+01  0.32533284037E+02  0.00000000000E+00 0.  1.
</event>
<event>
 7    1  0.4374874E-012  0.5052886E+02  0.7816164E-02  0.1300439E+00
        -11   -1    0    0    0    0  0.00000000000E+00  0.00000000000E+00  0.45593999997E+02  0.45594000000E+02  0.51100000000E-03 0. -1.
         11   -1    0    0    0    0 -0.00000000000E+00 -0.00000000000E+00 -0.45593999997E+02  0.45594000000E+02  0.51100000000E-03 0.  1.
    9900012    2    1    2    0    0  0.31823796180E+02  0.69033120751E+01 -0.24346583315E+02  0.50528857854E+02  0.29999993934E+02 0.  0.
         12    1    1    2    0    0 -0.31823796180E+02 -0.69033120751E+01  0.24346583315E+02  0.40659142146E+02  0.00000000000E+00 0. -1.
         11    1    3    3    0    0 -0.48569336341E+00  0.56709350935E+00 -0.87083710995E+01  0.87403215364E+01  0.51100000000E-03 0. -1.
        -11    1    3    3    0    0  0.10988481668E+02  0.88314115131E+01 -0.14602375136E+02  0.20297042113E+02  0.51100000000E-03 0.  1.
         12    1    3    3    0    0  0.21321007876E+02 -0.24951929474E+01 -0.10358370795E+01  0.21491494205E+02  0.00000000000E+00 0. -1.
</event>
<event>
 7    1  0.4374874E-012  0.5052887E+02  0.7816164E-02  0.1300439E+00
        -11   -1    0    0    0    0  0.00000000000E+00  0.00000000000E+00  0.45593999997E+02  0.45594000000E+02  0.51100000000E-03 0. -1.
         11   -1    0    0    0    0 -0.00000000000E+00 -0.00000000000E+00 -0.45593999997E+02  0.45594000000E+02  0.51100000000E-03 0.  1.
    9900012    2    1    2    0    0  0.39795270414E+02  0.41997306596E+01 -0.72016373000E+01  0.50528869848E+02  0.30000030390E+02 0.  0.
         12    1    1    2    0    0 -0.39795270414E+02 -0.41997306596E+01  0.72016373000E+01  0.40659130152E+02  0.00000000000E+00 0. -1.
         11    1    3    3    0    0  0.70512888298E+00  0.51619192635E+01 -0.14227047193E+01  0.54006209091E+01  0.51100000000E-03 0. -1.
        -11    1    3    3    0    0 -0.26975792652E+01  0.10971462505E+01 -0.19266451568E+00  0.29185242270E+01  0.51100000000E-03 0.  1.
        -12    1    3    3    0    0  0.41787720796E+02 -0.20593348545E+01 -0.55862680650E+01  0.42209724712E+02  0.00000000000E+00 0.  1.
</event>
<event>
 7    1  0.4374874E-012  0.5052886E+02  0.7816164E-02  0.1300439E+00
        -11   -1    0    0    0    0  0.00000000000E+00  0.00000000000E+00  0.45593999997E+02  0.45594000000E+02  0.51100000000E-03 0.  1.
         11   -1    0    0    0    0 -0.00000000000E+00 -0.00000000000E+00 -0.45593999997E+02  0.45594000000E+02  0.51100000000E-03 0. -1.
    9900012    2    1    2    0    0 -0.20497383394E+02  0.34750850975E+02 -0.50399736131E+01  0.50528859533E+02  0.29999999036E+02 0.  0.
         12    1    1    2    0    0  0.20497383394E+02 -0.34750850975E+02  0.50399736131E+01  0.40659140467E+02  0.00000000000E+00 0. -1.
         11    1    3    3    0    0 -0.27768767026E+01  0.18907959271E+01  0.91271386830E+01  0.97257809075E+01  0.51100000000E-03 0. -1.
        -11    1    3    3    0    0 -0.53819752952E+01  0.54177267260E+01 -0.22140492257E+00  0.76397932798E+01  0.51100000000E-03 0.  1.
        -12    1    3    3    0    0 -0.12338531396E+02  0.27442328322E+02 -0.13945707374E+02  0.33163285345E+02  0.00000000000E+00 0.  1.
</event>
<event>
 7    1  0.4374874E-012  0.5052886E+02  0.7816164E-02  0.1300439E+00
        -11   -1    0    0    0    0  0.00000000000E+00  0.00000000000E+00  0.45593999997E+02  0.45594000000E+02  0.51100000000E-03 0. -1.
         11   -1    0    0    0    0 -0.00000000000E+00 -0.00000000000E+00 -0.45593999997E+02  0.45594000000E+02  0.51100000000E-03 0.  1.
    9900012    2    1    2    0    0 -0.14712307486E+02 -0.29451782595E+02 -0.23860133265E+02  0.50528862663E+02  0.30000008551E+02 0.  0.
         12    1    1    2    0    0  0.14712307486E+02  0.29451782595E+02  0.23860133265E+02  0.40659137337E+02  0.00000000000E+00 0. -1.
         11    1    3    3    0    0 -0.18981495985E+02 -0.25346082553E+02 -0.15997170048E+02  0.35477183378E+02  0.51100000000E-03 0. -1.
        -11    1    3    3    0    0  0.41009925465E+00 -0.73546293969E+01 -0.65057260368E+01  0.98276765562E+01  0.51100000000E-03 0.  1.
         12    1    3    3    0    0  0.38590892446E+01  0.32489293551E+01 -0.13572371800E+01  0.52240027292E+01  0.00000000000E+00 0. -1.
</event>
<event>
 7    1  0.4374874E-012  0.5052888E+02  0.7816164E-02  0.1300439E+00
        -11   -1    0    0    0    0  0.00000000000E+00  0.00000000000E+00  0.45593999997E+02  0.45594000000E+02  0.51100000000E-03 0. -1.
         11   -1    0    0    0    0 -0.00000000000E+00 -0.00000000000E+00 -0.45593999997E+02  0.45594000000E+02  0.51100000000E-03 0.  1.
    9900012    2    1    2    0    0  0.15781497882E+02  0.19528183003E+01  0.37420516888E+02  0.50528877298E+02  0.30000053035E+02 0.  0.
        -12    1    1    2    0    0 -0.15781497882E+02 -0.19528183003E+01 -0.37420516888E+02  0.40659122702E+02  0.00000000000E+00 0.  1.
         11    1    3    3    0    0  0.44789011501E+01 -0.44186396375E+01  0.22410610227E+02  0.23277035524E+02  0.51100000000E-03 0. -1.
        -11    1    3    3    0    0  0.49710639024E+01 -0.61072491930E+01  0.19531200756E+01  0.81132390152E+01  0.51100000000E-03 0.  1.
         12    1    3    3    0    0  0.63315328299E+01  0.12478707131E+02  0.13056786585E+02  0.19138602759E+02  0.00000000000E+00 0. -1.
</event>
<event>
 7    1  0.4374874E-012  0.5052887E+02  0.7816164E-02  0.1300439E+00
        -11   -1    0    0    0    0  0.00000000000E+00  0.00000000000E+00  0.45593999997E+02  0.45594000000E+02  0.51100000000E-03 0. -1.
         11   -1    0    0    0    0 -0.00000000000E+00 -0.00000000000E+00 -0.45593999997E+02  0.45594000000E+02  0.51100000000E-03 0.  1.
    9900012    2    1    2    0    0  0.14721355768E+01 -0.78173702018E+01  0.39873380385E+02  0.50528869126E+02  0.30000028197E+02 0.  0.
        -12    1    1    2    0    0 -0.14721355768E+01  0.78173702018E+01 -0.39873380385E+02  0.40659130874E+02  0.00000000000E+00 0.  1.
         11    1    3    3    0    0 -0.37971234203E+01 -0.11118462853E+01  0.17225134888E+01  0.43152521839E+01  0.51100000000E-03 0. -1.
        -11    1    3    3    0    0 -0.49501077120E+01 -0.33897751378E+01 -0.57313777507E+00  0.60268257827E+01  0.51100000000E-03 0.  1.
         12    1    3    3    0    0  0.10219366709E+02 -0.33157487788E+01  0.38724004672E+02  0.40186791160E+02  0.00000000000E+00 0. -1.
</event>
<event>
 7    1  0.4374874E-012  0.5052886E+02  0.7816164E-02  0.1300439E+00
        -11   -1    0    0    0    0  0.00000000000E+00  0.00000000000E+00  0.45593999997E+02  0.45594000000E+02  0.51100000000E-03 0. -1.
         11   -1    0    0    0    0 -0.00000000000E+00 -0.00000000000E+00 -0.45593999997E+02  0.45594000000E+02  0.51100000000E-03 0.  1.
    9900012    2    1    2    0    0  0.14016052733E+02  0.74619494855E+01  0.37430402502E+02  0.50528862579E+02  0.30000008296E+02 0.  0.
        -12    1    1    2    0    0 -0.14016052733E+02 -0.74619494855E+01 -0.37430402502E+02  0.40659137421E+02  0.00000000000E+00 0.  1.
         11    1    3    3    0    0 -0.19519785344E+01 -0.27934122180E+01 -0.20962771034E+01  0.40009686295E+01  0.51100000000E-03 0. -1.
        -11    1    3    3    0    0  0.14231312586E+02  0.10958195018E+02  0.19880803977E+02  0.26792884560E+02  0.51100000000E-03 0.  1.
         12    1    3    3    0    0  0.17367186816E+01 -0.70283331416E+00  0.19645875628E+02  0.19735009390E+02  0.00000000000E+00 0. -1.
</event>
<event>
 7    1  0.4374874E-012  0.5052886E+02  0.7816164E-02  0.1300439E+00
        -11   -1    0    0    0    0  0.00000000000E+00  0.00000000000E+00  0.45593999997E+02  0.45594000000E+02  0.51100000000E-03 0.  1.
         11   -1    0    0    0    0 -0.00000000000E+00 -0.00000000000E+00 -0.45593999997E+02  0.45594000000E+02  0.51100000000E-03 0. -1.
    9900012    2    1    2    0    0 -0.12188998454E+02  0.30773647146E+02  0.23613062191E+02  0.50528858985E+02  0.29999997371E+02 0.  0.
        -12    1    1    2    0    0  0.12188998454E+02 -0.30773647146E+02 -0.23613062191E+02  0.40659141015E+02  0.00000000000E+00 0.  1.
         11    1    3    3    0    0 -0.27547543973E+01 -0.26702747942E+00  0.10933858617E+02  0.11278707372E+02  0.51100000000E-03 0.  1.
        -11    1    3    3    0    0  0.29929564847E+01  0.96334120861E+01  0.10245115107E+02  0.14377858003E+02  0.51100000000E-03 0. -1.
         12    1    3    3    0    0 -0.12427200542E+02  0.21407262540E+02  0.24340884672E+01  0.24872293610E+02  0.00000000000E+00 0. -1.
</event>
<event>
 7    1  0.4374874E-012  0.5052889E+02  0.7816164E-02  0.1300439E+00
        -11   -1    0    0    0    0  0.00000000000E+00  0.00000000000E+00  0.45593999997E+02  0.45594000000E+02  0.51100000000E-03 0. -1.
         11   -1    0    0    0    0 -0.00000000000E+00 -0.00000000000E+00 -0.45593999997E+02  0.45594000000E+02  0.51100000000E-03 0.  1.
    9900012    2    1    2    0    0  0.16464801821E+02 -0.17212762585E+02 -0.32951395802E+02  0.50528888105E+02  0.30000085883E+02 0.  0.
         12    1    1    2    0    0 -0.16464801821E+02  0.17212762585E+02  0.32951395802E+02  0.40659111895E+02  0.00000000000E+00 0. -1.
         11    1    3    3    0    0  0.77520465293E+01 -0.19220096908E+02 -0.62167004586E+01  0.21636860110E+02  0.51100000000E-03 0. -1.
        -11    1    3    3    0    0 -0.68763553559E-01  0.20745374570E+01 -0.67755730295E+01  0.70863830143E+01  0.51100000000E-03 0.  1.
        -12    1    3    3    0    0  0.87815188450E+01 -0.67203134043E-01 -0.19959122314E+02  0.21805644981E+02  0.00000000000E+00 0.  1.
</event>
<event>
 7    1  0.4374874E-012  0.5052884E+02  0.7816164E-02  0.1300439E+00
        -11   -1    0    0    0    0  0.00000000000E+00  0.00000000000E+00  0.45593999997E+02  0.45594000000E+02  0.51100000000E-03 0. -1.
         11   -1    0    0    0    0 -0.00000000000E+00 -0.00000000000E+00 -0.45593999997E+02  0.45594000000E+02  0.51100000000E-03 0.  1.
    9900012    2    1    2    0    0  0.61959789087E+01 -0.35828007818E+02 -0.18197001818E+02  0.50528841450E+02  0.29999944071E+02 0.  0.
         12    1    1    2    0    0 -0.61959789087E+01  0.35828007818E+02  0.18197001818E+02  0.40659158550E+02  0.00000000000E+00 0. -1.
         11    1    3    3    0    0  0.19935202824E+01 -0.16144888515E+02 -0.15783040254E+02  0.22665743054E+02  0.51100000000E-03 0.  1.
        -11    1    3    3    0    0  0.74349828685E+01 -0.36866688888E+01  0.52638636980E+01  0.98274492643E+01  0.51100000000E-03 0. -1.
         12    1    3    3    0    0 -0.32325242422E+01 -0.15996450414E+02 -0.76778252624E+01  0.18035649132E+02  0.00000000000E+00 0. -1.
</event>
<event>
 7    1  0.4374874E-012  0.5052886E+02  0.7816164E-02  0.1300439E+00
        -11   -1    0    0    0    0  0.00000000000E+00  0.00000000000E+00  0.45593999997E+02  0.45594000000E+02  0.51100000000E-03 0.  1.
         11   -1    0    0    0    0 -0.00000000000E+00 -0.00000000000E+00 -0.45593999997E+02  0.45594000000E+02  0.51100000000E-03 0. -1.
    9900012    2    1    2    0    0 -0.22063839011E+02  0.34092805635E+02 -0.20082676004E+01  0.50528861707E+02  0.30000005645E+02 0.  0.
         12    1    1    2    0    0  0.22063839011E+02 -0.34092805635E+02  0.20082676004E+01  0.40659138293E+02  0.00000000000E+00 0. -1.
         11    1    3    3    0    0 -0.21091977585E+01  0.21791448208E+01  0.42348791640E+01  0.52087992022E+01  0.51100000000E-03 0. -1.
        -11    1    3    3    0    0 -0.14138931013E+02  0.29942679617E+02  0.40240732650E+01  0.33356657487E+02  0.51100000000E-03 0.  1.
         12    1    3    3    0    0 -0.58157102401E+01  0.19709811972E+01 -0.10267220029E+02  0.11963405017E+02  0.00000000000E+00 0. -1.
</event>
<event>
 7    1  0.4374874E-012  0.5052886E+02  0.7816164E-02  0.1300439E+00
        -11   -1    0    0    0    0  0.00000000000E+00  0.00000000000E+00  0.45593999997E+02  0.45594000000E+02  0.51100000000E-03 0. -1.
         11   -1    0    0    0    0 -0.00000000000E+00 -0.00000000000E+00 -0.45593999997E+02  0.45594000000E+02  0.51100000000E-03 0.  1.
    9900012    2    1    2    0    0  0.94493625209E+01  0.65844930097E+01  0.38993841799E+02  0.50528859595E+02  0.29999999224E+02 0.  0.
        -12    1    1    2    0    0 -0.94493625209E+01 -0.65844930097E+01 -0.38993841799E+02  0.40659140405E+02  0.00000000000E+00 0.  1.
         11    1    3    3    0    0 -0.76453283357E+01 -0.22741394795E+00  0.10106738478E+02  0.12674735713E+02  0.51100000000E-03 0. -1.
        -11    1    3    3    0    0  0.52173086743E+01 -0.53423134331E+01  0.85800900015E+01  0.11374469980E+02  0.51100000000E-03 0.  1.
        -12    1    3    3    0    0  0.11877382182E+02  0.12154220391E+02  0.20307013320E+02  0.26479653902E+02  0.00000000000E+00 0.  1.
</event>
<event>
 7    1  0.4374874E-012  0.5052886E+02  0.7816164E-02  0.1300439E+00
        -11   -1    0    0    0    0  0.00000000000E+00  0.00000000000E+00  0.45593999997E+02  0.45594000000E+02  0.51100000000E-03 0. -1.
         11   -1    0    0    0    0 -0.00000000000E+00 -0.00000000000E+00 -0.45593999997E+02  0.45594000000E+02  0.51100000000E-03 0.  1.
    9900012    2    1    2    0    0 -0.27996113697E+02 -0.27479700419E+02 -0.10688756586E+02  0.50528857921E+02  0.29999994138E+02 0.  0.
         12    1    1    2    0    0  0.27996113697E+02  0.27479700419E+02  0.10688756586E+02  0.40659142079E+02  0.00000000000E+00 0. -1.
         11    1    3    3    0    0  0.16770444705E+01  0.22591429709E+01  0.24424711095E+01  0.37258382280E+01  0.51100000000E-03 0. -1.
        -11    1    3    3    0    0 -0.66956558420E+01  0.27718879601E-01 -0.49321124244E+01  0.83161474685E+01  0.51100000000E-03 0.  1.
        -12    1    3    3    0    0 -0.22977502325E+02 -0.29766562269E+02 -0.81991152713E+01  0.38486872225E+02  0.00000000000E+00 0.  1.
</event>
<event>
 7    1  0.4374874E-012  0.5052888E+02  0.7816164E-02  0.1300439E+00
        -11   -1    0    0    0    0  0.00000000000E+00  0.00000000000E+00  0.45593999997E+02  0.45594000000E+02  0.51100000000E-03 0. -1.
         11   -1    0    0    0    0 -0.00000000000E+00 -0.00000000000E+00 -0.45593999997E+02  0.45594000000E+02  0.51100000000E-03 0.  1.
    9900012    2    1    2    0    0 -0.22544592474E+01 -0.29555852445E+02 -0.27830438518E+02  0.50528876690E+02  0.30000051187E+02 0.  0.
         12    1    1    2    0    0  0.22544592474E+01  0.29555852445E+02  0.27830438518E+02  0.40659123310E+02  0.00000000000E+00 0. -1.
         11    1    3    3    0    0  0.10736748535E+02 -0.84594012304E+01 -0.51934430602E+01  0.14622280580E+02  0.51100000000E-03 0. -1.
        -11    1    3    3    0    0 -0.33943075743E+01 -0.65372857389E+01 -0.42953620065E-01  0.73660894656E+01  0.51100000000E-03 0.  1.
        -12    1    3    3    0    0 -0.95969002081E+01 -0.14559165476E+02 -0.22594041838E+02  0.28540506644E+02  0.00000000000E+00 0.  1.
</event>
<event>
 7    1  0.4374874E-012  0.5052886E+02  0.7816164E-02  0.1300439E+00
        -11   -1    0    0    0    0  0.00000000000E+00  0.00000000000E+00  0.45593999997E+02  0.45594000000E+02  0.51100000000E-03 0. -1.
         11   -1    0    0    0    0 -0.00000000000E+00 -0.00000000000E+00 -0.45593999997E+02  0.45594000000E+02  0.51100000000E-03 0.  1.
    9900012    2    1    2    0    0 -0.81228813698E+01 -0.37952191563E+02  0.12116750243E+02  0.50528859790E+02  0.29999999817E+02 0.  0.
        -12    1    1    2    0    0  0.81228813698E+01  0.37952191563E+02 -0.12116750243E+02  0.40659140210E+02  0.00000000000E+00 0.  1.
         11    1    3    3    0    0 -0.38717655588E+01 -0.41379564607E+01 -0.78007701035E+01  0.96418497542E+01  0.51100000000E-03 0. -1.
        -11    1    3    3    0    0 -0.35830061562E+01 -0.11322004772E+02  0.18280584867E+01  0.12015303711E+02  0.51100000000E-03 0.  1.
        -12    1    3    3    0    0 -0.66810965476E+00 -0.22492230331E+02  0.18089461860E+02  0.28871706325E+02  0.00000000000E+00 0.  1.
</event>
<event>
 7    1  0.4374874E-012  0.5052886E+02  0.7816164E-02  0.1300439E+00
        -11   -1    0    0    0    0  0.00000000000E+00  0.00000000000E+00  0.45593999997E+02  0.45594000000E+02  0.51100000000E-03 0. -1.
         11   -1    0    0    0    0 -0.00000000000E+00 -0.00000000000E+00 -0.45593999997E+02  0.45594000000E+02  0.51100000000E-03 0.  1.
    9900012    2    1    2    0    0 -0.15068777323E+02 -0.32453758034E+02  0.19309359925E+02  0.50528857839E+02  0.29999993888E+02 0.  0.
        -12    1    1    2    0    0  0.15068777323E+02  0.32453758034E+02 -0.19309359925E+02  0.40659142161E+02  0.00000000000E+00 0.  1.
         11    1    3    3    0    0  0.21695735005E+01 -0.19806035675E+02  0.82122948107E+01  0.21550588963E+02  0.51100000000E-03 0. -1.
        -11    1    3    3    0    0 -0.17600920497E+00 -0.10020674755E+01 -0.35251946821E+01  0.36690756701E+01  0.51100000000E-03 0.  1.
        -12    1    3    3    0    0 -0.17062341619E+02 -0.11645654883E+02  0.14622259797E+02  0.25309193206E+02  0.00000000000E+00 0.  1.
</event>
<event>
 7    1  0.4374874E-012  0.5052884E+02  0.7816164E-02  0.1300439E+00
        -11   -1    0    0    0    0  0.00000000000E+00  0.00000000000E+00  0.45593999997E+02  0.45594000000E+02  0.51100000000E-03 0.  1.
         11   -1    0    0    0    0 -0.00000000000E+00 -0.00000000000E+00 -0.45593999997E+02  0.45594000000E+02  0.51100000000E-03 0. -1.
    9900012    2    1    2    0    0  0.18364190303E+01  0.38111254257E+02  0.14047320805E+02  0.50528839191E+02  0.29999937206E+02 0.  0.
         12    1    1    2    0    0 -0.18364190303E+01 -0.38111254257E+02 -0.14047320805E+02  0.40659160809E+02  0.00000000000E+00 0. -1.
         11    1    3    3    0    0 -0.64752108657E+01  0.11401698766E+02  0.39100033633E+01  0.13682661183E+02  0.51100000000E-03 0. -1.
        -11    1    3    3    0    0  0.44297452773E+01  0.18965255743E+02  0.16955303669E+02  0.25822197648E+02  0.51100000000E-03 0.  1.
        -12    1    3    3    0    0  0.38818846188E+01  0.77442997482E+01 -0.68179862273E+01  0.11023980360E+02  0.00000000000E+00 0.  1.
</event>
<event>
 7    1  0.4374874E-012  0.5052886E+02  0.7816164E-02  0.1300439E+00
        -11   -1    0    0    0    0  0.00000000000E+00  0.00000000000E+00  0.45593999997E+02  0.45594000000E+02  0.51100000000E-03 0. -1.
         11   -1    0    0    0    0 -0.00000000000E+00 -0.00000000000E+00 -0.45593999997E+02  0.45594000000E+02  0.51100000000E-03 0.  1.
    9900012    2    1    2    0    0 -0.15914436441E+02  0.21538088391E+02  0.30594234714E+02  0.50528859127E+02  0.29999997803E+02 0.  0.
        -12    1    1    2    0    0  0.15914436441E+02 -0.21538088391E+02 -0.30594234714E+02  0.40659140873E+02  0.00000000000E+00 0.  1.
         11    1    3    3    0    0  0.54437149996E+01  0.20145752782E+01  0.13269155654E+02  0.14483198493E+02  0.51100000000E-03 0.  1.
        -11    1    3    3    0    0 -0.39759576528E+01 -0.13503230033E+01  0.87449892523E+00  0.42890978190E+01  0.51100000000E-03 0. -1.
        -12    1    3    3    0    0 -0.17382193788E+02  0.20873836116E+02  0.16450580134E+02  0.31756562815E+02  0.00000000000E+00 0.  1.
</event>
<event>
 7    1  0.4374874E-012  0.5052887E+02  0.7816164E-02  0.1300439E+00
        -11   -1    0    0    0    0  0.00000000000E+00  0.00000000000E+00  0.45593999997E+02  0.45594000000E+02  0.51100000000E-03 0.  1.
         11   -1    0    0    0    0 -0.00000000000E+00 -0.00000000000E+00 -0.45593999997E+02  0.45594000000E+02  0.51100000000E-03 0. -1.
    9900012    2    1    2    0    0  0.20461463639E+02 -0.22560874571E+02  0.26935119276E+02  0.50528865650E+02  0.30000017631E+02 0.  0.
        -12    1    1    2    0    0 -0.20461463639E+02  0.22560874571E+02 -0.26935119276E+02  0.40659134350E+02  0.00000000000E+00 0.  1.
         11    1    3    3    0    0  0.34539188647E+01 -0.16994690915E+02  0.56713338298E+01  0.18245906459E+02  0.51100000000E-03 0. -1.
        -11    1    3    3    0    0  0.63318059547E+01 -0.97195028830E+01  0.15774411626E+02  0.19580412798E+02  0.51100000000E-03 0.  1.
        -12    1    3    3    0    0  0.10675738819E+02  0.41533192274E+01  0.54893738210E+01  0.12702546394E+02  0.00000000000E+00 0.  1.
</event>
<event>
 7    1  0.4374874E-012  0.5052886E+02  0.7816164E-02  0.1300439E+00
        -11   -1    0    0    0    0  0.00000000000E+00  0.00000000000E+00  0.45593999997E+02  0.45594000000E+02  0.51100000000E-03 0. -1.
         11   -1    0    0    0    0 -0.00000000000E+00 -0.00000000000E+00 -0.45593999997E+02  0.45594000000E+02  0.51100000000E-03 0.  1.
    9900012    2    1    2    0    0 -0.35934414005E+02 -0.16962993305E+02 -0.86104826088E+01  0.50528860037E+02  0.30000000570E+02 0.  0.
         12    1    1    2    0    0  0.35934414005E+02  0.16962993305E+02  0.86104826088E+01  0.40659139963E+02  0.00000000000E+00 0. -1.
         11    1    3    3    0    0 -0.22967835772E+02 -0.33297782586E+01 -0.47346345168E+00  0.23212778188E+02  0.51100000000E-03 0. -1.
        -11    1    3    3    0    0 -0.12996158454E+02 -0.89540832820E+01 -0.13088603737E+02  0.20503348264E+02  0.51100000000E-03 0.  1.
         12    1    3    3    0    0  0.29580221010E-01 -0.46791317642E+01  0.49515845799E+01  0.68127335856E+01  0.00000000000E+00 0. -1.
</event>
<event>
 7    1  0.4374874E-012  0.5052886E+02  0.7816164E-02  0.1300439E+00
        -11   -1    0    0    0    0  0.00000000000E+00  0.00000000000E+00  0.45593999997E+02  0.45594000000E+02  0.51100000000E-03 0. -1.
         11   -1    0    0    0    0 -0.00000000000E+00 -0.00000000000E+00 -0.45593999997E+02  0.45594000000E+02  0.51100000000E-03 0.  1.
    9900012    2    1    2    0    0  0.13938604994E+02 -0.37795863587E+01  0.38007837375E+02  0.50528859771E+02  0.29999999760E+02 0.  0.
        -12    1    1    2    0    0 -0.13938604994E+02  0.37795863587E+01 -0.38007837375E+02  0.40659140229E+02  0.00000000000E+00 0.  1.
         11    1    3    3    0    0  0.34872152281E+01  0.50663646016E+00 -0.77139924947E+00  0.36072714915E+01  0.51100000000E-03 0. -1.
        -11    1    3    3    0    0  0.65050844316E+00  0.89472933407E+01  0.20153556070E+02  0.22059987350E+02  0.51100000000E-03 0.  1.
         12    1    3    3    0    0  0.98008813231E+01 -0.13233516160E+02  0.18625680554E+02  0.24861600929E+02  0.00000000000E+00 0. -1.
</event>
<event>
 7    1  0.4374874E-012  0.5052884E+02  0.7816164E-02  0.1300439E+00
        -11   -1    0    0    0    0  0.00000000000E+00  0.00000000000E+00  0.45593999997E+02  0.45594000000E+02  0.51100000000E-03 0. -1.
         11   -1    0    0    0    0 -0.00000000000E+00 -0.00000000000E+00 -0.45593999997E+02  0.45594000000E+02  0.51100000000E-03 0.  1.
    9900012    2    1    2    0    0 -0.21589285740E+02 -0.49346337181E+01  0.34098668924E+02  0.50528842469E+02  0.29999947170E+02 0.  0.
        -12    1    1    2    0    0  0.21589285740E+02  0.49346337181E+01 -0.34098668924E+02  0.40659157531E+02  0.00000000000E+00 0.  1.
         11    1    3    3    0    0 -0.15634916943E+02 -0.42800697873E+01  0.17971520383E+02  0.24202172844E+02  0.51100000000E-03 0. -1.
        -11    1    3    3    0    0 -0.10300415038E+02  0.20357568484E+01  0.18036752047E+02  0.20870248695E+02  0.51100000000E-03 0.  1.
        -12    1    3    3    0    0  0.43460462409E+01 -0.26903207793E+01 -0.19096035065E+01  0.54564209309E+01  0.00000000000E+00 0.  1.
</event>
<event>
 7    1  0.4374874E-012  0.5052885E+02  0.7816164E-02  0.1300439E+00
        -11   -1    0    0    0    0  0.00000000000E+00  0.00000000000E+00  0.45593999997E+02  0.45594000000E+02  0.51100000000E-03 0. -1.
         11   -1    0    0    0    0 -0.00000000000E+00 -0.00000000000E+00 -0.45593999997E+02  0.45594000000E+02  0.51100000000E-03 0.  1.
    9900012    2    1    2    0    0  0.22020383342E+02 -0.19271824116E+02 -0.28228810725E+02  0.50528852909E+02  0.29999978901E+02 0.  0.
         12    1    1    2    0    0 -0.22020383342E+02  0.19271824116E+02  0.28228810725E+02  0.40659147091E+02  0.00000000000E+00 0. -1.
         11    1    3    3    0    0  0.75965549411E+01 -0.14386508135E+02 -0.29968766974E+01  0.16542688218E+02  0.51100000000E-03 0. -1.
        -11    1    3    3    0    0 -0.14772204908E+01  0.62977388684E+00  0.16293948038E+01  0.22877332044E+01  0.51100000000E-03 0.  1.
        -12    1    3    3    0    0  0.15901048891E+02 -0.55150898677E+01 -0.26861328831E+02  0.31698431486E+02  0.00000000000E+00 0.  1.
</event>
<event>
 7    1  0.4374874E-012  0.5052886E+02  0.7816164E-02  0.1300439E+00
        -11   -1    0    0    0    0  0.00000000000E+00  0.00000000000E+00  0.45593999997E+02  0.45594000000E+02  0.51100000000E-03 0. -1.
         11   -1    0    0    0    0 -0.00000000000E+00 -0.00000000000E+00 -0.45593999997E+02  0.45594000000E+02  0.51100000000E-03 0.  1.
    9900012    2    1    2    0    0  0.67454701327E+01  0.16007134079E+02  0.36761885099E+02  0.50528857058E+02  0.29999991515E+02 0.  0.
        -12    1    1    2    0    0 -0.67454701327E+01 -0.16007134079E+02 -0.36761885099E+02  0.40659142942E+02  0.00000000000E+00 0.  1.
         11    1    3    3    0    0  0.76872189014E+01 -0.26265822780E-01 -0.44103653593E+00  0.76999050526E+01  0.51100000000E-03 0.  1.
        -11    1    3    3    0    0 -0.42870857997E+01  0.26021862604E+01  0.20655947454E+02  0.21256026051E+02  0.51100000000E-03 0. -1.
        -12    1    3    3    0    0  0.33453370310E+01  0.13431213641E+02  0.16546974181E+02  0.21572925955E+02  0.00000000000E+00 0.  1.
</event>
<event>
 7    1  0.4374874E-012  0.5052888E+02  0.7816164E-02  0.1300439E+00
        -11   -1    0    0    0    0  0.00000000000E+00  0.00000000000E+00  0.45593999997E+02  0.45594000000E+02  0.51100000000E-03 0. -1.
         11   -1    0    0    0    0 -0.00000000000E+00 -0.00000000000E+00 -0.45593999997E+02  0.45594000000E+02  0.51100000000E-03 0.  1.
    9900012    2    1    2    0    0 -0.17727300512E+02 -0.22138620550E+02 -0.29133972744E+02  0.50528879607E+02  0.30000060053E+02 0.  0.
         12    1    1    2    0    0  0.17727300512E+02  0.22138620550E+02  0.29133972744E+02  0.40659120393E+02  0.00000000000E+00 0. -1.
         11    1    3    3    0    0 -0.94752261591E+00  0.14122527701E+01  0.96597917984E+00  0.19558560866E+01  0.51100000000E-03 0. -1.
        -11    1    3    3    0    0 -0.67890349864E+01 -0.20235033717E+01 -0.22598683284E+02  0.23683032922E+02  0.51100000000E-03 0.  1.
        -12    1    3    3    0    0 -0.99907429096E+01 -0.21527369949E+02 -0.75012686398E+01  0.24889990599E+02  0.00000000000E+00 0.  1.
</event>
<event>
 7    1  0.4374874E-012  0.5052886E+02  0.7816164E-02  0.1300439E+00
        -11   -1    0    0    0    0  0.00000000000E+00  0.00000000000E+00  0.45593999997E+02  0.45594000000E+02  0.51100000000E-03 0.  1.
         11   -1    0    0    0    0 -0.00000000000E+00 -0.00000000000E+00 -0.45593999997E+02  0.45594000000E+02  0.51100000000E-03 0. -1.
    9900012    2    1    2    0    0 -0.23674482676E+02 -0.28642546521E+02  0.16501178350E+02  0.50528862182E+02  0.30000007088E+02 0.  0.
         12    1    1    2    0    0  0.23674482676E+02  0.28642546521E+02 -0.16501178350E+02  0.40659137818E+02  0.00000000000E+00 0. -1.
         11    1    3    3    0    0 -0.14542659801E+02 -0.29987490425E+01 -0.12325393506E+01  0.14899684675E+02  0.51100000000E-03 0. -1.
        -11    1    3    3    0    0 -0.12732740263E+02 -0.17502764066E+02  0.10023405208E+02  0.23852422870E+02  0.51100000000E-03 0.  1.
        -12    1    3    3    0    0  0.36009173873E+01 -0.81410334120E+01  0.77103124922E+01  0.11776754637E+02  0.00000000000E+00 0.  1.
</event>
<event>
 7    1  0.4374874E-012  0.5052885E+02  0.7816164E-02  0.1300439E+00
        -11   -1    0    0    0    0  0.00000000000E+00  0.00000000000E+00  0.45593999997E+02  0.45594000000E+02  0.51100000000E-03 0. -1.
         11   -1    0    0    0    0 -0.00000000000E+00 -0.00000000000E+00 -0.45593999997E+02  0.45594000000E+02  0.51100000000E-03 0.  1.
    9900012    2    1    2    0    0  0.21118848838E+02  0.19864071975E+01 -0.34687392334E+02  0.50528846335E+02  0.29999958920E+02 0.  0.
         12    1    1    2    0    0 -0.21118848838E+02 -0.19864071975E+01  0.34687392334E+02  0.40659153665E+02  0.00000000000E+00 0. -1.
         11    1    3    3    0    0  0.18042820119E+02  0.95301683582E+01 -0.15594553986E+02  0.25681853147E+02  0.51100000000E-03 0. -1.
        -11    1    3    3    0    0  0.16438595600E+01  0.37859807807E+01 -0.29507161897E+01  0.50737216142E+01  0.51100000000E-03 0.  1.
         12    1    3    3    0    0  0.14321691590E+01 -0.11329741941E+02 -0.16142122158E+02  0.19773271574E+02  0.00000000000E+00 0. -1.
</event>
<event>
 7    1  0.4374874E-012  0.5052886E+02  0.7816164E-02  0.1300439E+00
        -11   -1    0    0    0    0  0.00000000000E+00  0.00000000000E+00  0.45593999997E+02  0.45594000000E+02  0.51100000000E-03 0. -1.
         11   -1    0    0    0    0 -0.00000000000E+00 -0.00000000000E+00 -0.45593999997E+02  0.45594000000E+02  0.51100000000E-03 0.  1.
    9900012    2    1    2    0    0 -0.60682826442E+01  0.40082490331E+02 -0.31201994874E+01  0.50528859205E+02  0.29999998039E+02 0.  0.
         12    1    1    2    0    0  0.60682826442E+01 -0.40082490331E+02  0.31201994874E+01  0.40659140795E+02  0.00000000000E+00 0. -1.
         11    1    3    3    0    0 -0.28599586642E+01  0.76413436947E+01 -0.11467668534E+02  0.14073980208E+02  0.51100000000E-03 0. -1.
        -11    1    3    3    0    0 -0.88553531189E+00  0.29538052604E+01 -0.34347565922E+01  0.46159171801E+01  0.51100000000E-03 0.  1.
         12    1    3    3    0    0 -0.23227886681E+01  0.29487341375E+02  0.11782225639E+02  0.31838961817E+02  0.00000000000E+00 0. -1.
</event>
<event>
 7    1  0.4374874E-012  0.5052881E+02  0.7816164E-02  0.1300439E+00
        -11   -1    0    0    0    0  0.00000000000E+00  0.00000000000E+00  0.45593999997E+02  0.45594000000E+02  0.51100000000E-03 0. -1.
         11   -1    0    0    0    0 -0.00000000000E+00 -0.00000000000E+00 -0.45593999997E+02  0.45594000000E+02  0.51100000000E-03 0.  1.
    9900012    2    1    2    0    0 -0.31182752295E+02 -0.25623921799E+02  0.49213801894E+01  0.50528814174E+02  0.29999861164E+02 0.  0.
        -12    1    1    2    0    0  0.31182752295E+02  0.25623921799E+02 -0.49213801894E+01  0.40659185826E+02  0.00000000000E+00 0.  1.
         11    1    3    3    0    0 -0.51899938947E+01  0.68594991236E+00  0.15925630954E+01  0.54720034159E+01  0.51100000000E-03 0. -1.
        -11    1    3    3    0    0  0.47836383712E+01 -0.24802955101E+01 -0.20464704593E+01  0.57639486019E+01  0.51100000000E-03 0.  1.
        -12    1    3    3    0    0 -0.30776396771E+02 -0.23829576201E+02  0.53752875533E+01  0.39292862156E+02  0.00000000000E+00 0.  1.
</event>
<event>
 7    1  0.4374874E-012  0.5052888E+02  0.7816164E-02  0.1300439E+00
        -11   -1    0    0    0    0  0.00000000000E+00  0.00000000000E+00  0.45593999997E+02  0.45594000000E+02  0.51100000000E-03 0. -1.
         11   -1    0    0    0    0 -0.00000000000E+00 -0.00000000000E+00 -0.45593999997E+02  0.45594000000E+02  0.51100000000E-03 0.  1.
    9900012    2    1    2    0    0  0.10978588460E+02  0.71216108655E+01 -0.38495683433E+02  0.50528875700E+02  0.30000048178E+02 0.  0.
         12    1    1    2    0    0 -0.10978588460E+02 -0.71216108655E+01  0.38495683433E+02  0.40659124300E+02  0.00000000000E+00 0. -1.
         11    1    3    3    0    0  0.10700339616E+02  0.10003033555E+02 -0.12713909477E+02  0.19395913040E+02  0.51100000000E-03 0. -1.
        -11    1    3    3    0    0 -0.24444621311E+00 -0.49205644993E+01  0.32887254806E+00  0.49375972251E+01  0.51100000000E-03 0.  1.
        -12    1    3    3    0    0  0.52269505631E+00  0.20391418102E+01 -0.26110646504E+02  0.26195365436E+02  0.00000000000E+00 0.  1.
</event>
<event>
 7    1  0.4374874E-012  0.5052888E+02  0.7816164E-02  0.1300439E+00
        -11   -1    0    0    0    0  0.00000000000E+00  0.00000000000E+00  0.45593999997E+02  0.45594000000E+02  0.51100000000E-03 0. -1.
         11   -1    0    0    0    0 -0.00000000000E+00 -0.00000000000E+00 -0.45593999997E+02  0.45594000000E+02  0.51100000000E-03 0.  1.
    9900012    2    1    2    0    0 -0.13213357507E+02  0.69222232000E+01  0.37823988479E+02  0.50528879313E+02  0.30000059159E+02 0.  0.
        -12    1    1    2    0    0  0.13213357507E+02 -0.69222232000E+01 -0.37823988479E+02  0.40659120687E+02  0.00000000000E+00 0.  1.
         11    1    3    3    0    0 -0.91293132255E+01  0.19367260772E+01  0.12200154787E+01  0.94118917279E+01  0.51100000000E-03 0. -1.
        -11    1    3    3    0    0 -0.83415063901E+01 -0.69295413313E+00  0.77643840672E+01  0.11416942432E+02  0.51100000000E-03 0.  1.
         12    1    3    3    0    0  0.42574621089E+01  0.56784512559E+01  0.28839588933E+02  0.29700045153E+02  0.00000000000E+00 0. -1.
</event>
<event>
 7    1  0.4374874E-012  0.5052886E+02  0.7816164E-02  0.1300439E+00
        -11   -1    0    0    0    0  0.00000000000E+00  0.00000000000E+00  0.45593999997E+02  0.45594000000E+02  0.51100000000E-03 0. -1.
         11   -1    0    0    0    0 -0.00000000000E+00 -0.00000000000E+00 -0.45593999997E+02  0.45594000000E+02  0.51100000000E-03 0.  1.
    9900012    2    1    2    0    0  0.15408008525E+02 -0.34309518835E+02  0.15447198406E+02  0.50528858986E+02  0.29999997374E+02 0.  0.
        -12    1    1    2    0    0 -0.15408008525E+02  0.34309518835E+02 -0.15447198406E+02  0.40659141014E+02  0.00000000000E+00 0.  1.
         11    1    3    3    0    0  0.12293089819E+02 -0.12504026208E+02  0.16605939681E+02  0.24150113078E+02  0.51100000000E-03 0. -1.
        -11    1    3    3    0    0  0.47101878580E+01 -0.72830252796E+00  0.16755293297E+01  0.50520978836E+01  0.51100000000E-03 0.  1.
        -12    1    3    3    0    0 -0.15952691520E+01 -0.21077190099E+02 -0.28342706046E+01  0.21326648025E+02  0.00000000000E+00 0.  1.
</event>
<event>
 7    1  0.4374874E-012  0.5052887E+02  0.7816164E-02  0.1300439E+00
        -11   -1    0    0    0    0  0.00000000000E+00  0.00000000000E+00  0.45593999997E+02  0.45594000000E+02  0.51100000000E-03 0. -1.
         11   -1    0    0    0    0 -0.00000000000E+00 -0.00000000000E+00 -0.45593999997E+02  0.45594000000E+02  0.51100000000E-03 0.  1.
    9900012    2    1    2    0    0  0.22316606905E+02  0.27239916869E+02 -0.20325383972E+02  0.50528865130E+02  0.30000016049E+02 0.  0.
         12    1    1    2    0    0 -0.22316606905E+02 -0.27239916869E+02  0.20325383972E+02  0.40659134870E+02  0.00000000000E+00 0. -1.
         11    1    3    3    0    0  0.10420566383E+02  0.60574974575E+00 -0.13194407241E+02  0.16824016144E+02  0.51100000000E-03 0. -1.
        -11    1    3    3    0    0 -0.31652260945E+01  0.20862502431E+01 -0.24841658116E+01  0.45323477742E+01  0.51100000000E-03 0.  1.
         12    1    3    3    0    0  0.15061266617E+02  0.24547916880E+02 -0.46468109190E+01  0.29172501212E+02  0.00000000000E+00 0. -1.
</event>
<event>
 7    1  0.4374874E-012  0.5052885E+02  0.7816164E-02  0.1300439E+00
        -11   -1    0    0    0    0  0.00000000000E+00  0.00000000000E+00  0.45593999997E+02  0.45594000000E+02  0.51100000000E-03 0. -1.
         11   -1    0    0    0    0 -0.00000000000E+00 -0.00000000000E+00 -0.45593999997E+02  0.45594000000E+02  0.51100000000E-03 0.  1.
    9900012    2    1    2    0    0 -0.67265778811E+01  0.11581468960E+02  0.38389958962E+02  0.50528853153E+02  0.29999979643E+02 0.  0.
        -12    1    1    2    0    0  0.67265778811E+01 -0.11581468960E+02 -0.38389958962E+02  0.40659146847E+02  0.00000000000E+00 0.  1.
         11    1    3    3    0    0  0.46376281859E+01  0.11118442560E+02  0.23342291956E+02  0.26267659854E+02  0.51100000000E-03 0. -1.
        -11    1    3    3    0    0 -0.22142833016E+01 -0.67004470807E+01  0.34938299881E+01  0.78743818721E+01  0.51100000000E-03 0.  1.
        -12    1    3    3    0    0 -0.91499227655E+01  0.71634734800E+01  0.11553837017E+02  0.16386811427E+02  0.00000000000E+00 0.  1.
</event>
<event>
 7    1  0.4374874E-012  0.5052886E+02  0.7816164E-02  0.1300439E+00
        -11   -1    0    0    0    0  0.00000000000E+00  0.00000000000E+00  0.45593999997E+02  0.45594000000E+02  0.51100000000E-03 0. -1.
         11   -1    0    0    0    0 -0.00000000000E+00 -0.00000000000E+00 -0.45593999997E+02  0.45594000000E+02  0.51100000000E-03 0.  1.
    9900012    2    1    2    0    0  0.86607778007E+01 -0.33700819410E+02 -0.21033574926E+02  0.50528861112E+02  0.30000003835E+02 0.  0.
         12    1    1    2    0    0 -0.86607778007E+01  0.33700819410E+02  0.21033574926E+02  0.40659138888E+02  0.00000000000E+00 0. -1.
         11    1    3    3    0    0 -0.13455620265E+00 -0.20309356474E+02  0.29770422098E-01  0.20309824034E+02  0.51100000000E-03 0. -1.
        -11    1    3    3    0    0  0.59267717836E+01 -0.13439400889E+02 -0.77643986365E+01  0.16614150790E+02  0.51100000000E-03 0.  1.
         12    1    3    3    0    0  0.28685622197E+01  0.47937953741E-01 -0.13298946711E+02  0.13604886287E+02  0.00000000000E+00 0. -1.
</event>
<event>
 7    1  0.4374874E-012  0.5052884E+02  0.7816164E-02  0.1300439E+00
        -11   -1    0    0    0    0  0.00000000000E+00  0.00000000000E+00  0.45593999997E+02  0.45594000000E+02  0.51100000000E-03 0. -1.
         11   -1    0    0    0    0 -0.00000000000E+00 -0.00000000000E+00 -0.45593999997E+02  0.45594000000E+02  0.51100000000E-03 0.  1.
    9900012    2    1    2    0    0  0.80938441541E+01  0.17838283543E+01  0.39805464093E+02  0.50528839550E+02  0.29999938297E+02 0.  0.
        -12    1    1    2    0    0 -0.80938441541E+01 -0.17838283543E+01 -0.39805464093E+02  0.40659160450E+02  0.00000000000E+00 0.  1.
         11    1    3    3    0    0  0.85317012079E+00 -0.21537685080E+01  0.20179980020E+02  0.20312513678E+02  0.51100000000E-03 0. -1.
        -11    1    3    3    0    0  0.13704899341E+02 -0.19056193410E+01  0.14779497842E+02  0.20245720727E+02  0.51100000000E-03 0.  1.
        -12    1    3    3    0    0 -0.64642253076E+01  0.58432162033E+01  0.48459862313E+01  0.99706051461E+01  0.00000000000E+00 0.  1.
</event>
<event>
 7    1  0.4374874E-012  0.5052886E+02  0.7816164E-02  0.1300439E+00
        -11   -1    0    0    0    0  0.00000000000E+00  0.00000000000E+00  0.45593999997E+02  0.45594000000E+02  0.51100000000E-03 0. -1.
         11   -1    0    0    0    0 -0.00000000000E+00 -0.00000000000E+00 -0.45593999997E+02  0.45594000000E+02  0.51100000000E-03 0.  1.
    9900012    2    1    2    0    0  0.10030483919E+02 -0.23051041556E+02  0.31956289916E+02  0.50528860933E+02  0.30000003292E+02 0.  0.
        -12    1    1    2    0    0 -0.10030483919E+02  0.23051041556E+02 -0.31956289916E+02  0.40659139067E+02  0.00000000000E+00 0.  1.
         11    1    3    3    0    0  0.11100334551E+02 -0.11544337745E+02  0.19471277495E+02  0.25211501515E+02  0.51100000000E-03 0. -1.
        -11    1    3    3    0    0  0.63017879077E+01  0.11503776621E+01  0.56145235143E+00  0.64304843210E+01  0.51100000000E-03 0.  1.
        -12    1    3    3    0    0 -0.73716385396E+01 -0.12657081473E+02  0.11923560070E+02  0.18886875097E+02  0.00000000000E+00 0.  1.
</event>
<event>
 7    1  0.4374874E-012  0.5052888E+02  0.7816164E-02  0.1300439E+00
        -11   -1    0    0    0    0  0.00000000000E+00  0.00000000000E+00  0.45593999997E+02  0.45594000000E+02  0.51100000000E-03 0. -1.
         11   -1    0    0    0    0 -0.00000000000E+00 -0.00000000000E+00 -0.45593999997E+02  0.45594000000E+02  0.51100000000E-03 0.  1.
    9900012    2    1    2    0    0  0.18862521171E+02  0.71809048616E+01 -0.35295949804E+02  0.50528878365E+02  0.30000056279E+02 0.  0.
         12    1    1    2    0    0 -0.18862521171E+02 -0.71809048616E+01  0.35295949804E+02  0.40659121635E+02  0.00000000000E+00 0. -1.
         11    1    3    3    0    0  0.10918729580E+01 -0.24025919022E+01 -0.59626809486E+01  0.65205980371E+01  0.51100000000E-03 0.  1.
        -11    1    3    3    0    0  0.81150365323E+01  0.14085354972E+00 -0.29403135400E+02  0.30502754454E+02  0.51100000000E-03 0. -1.
        -12    1    3    3    0    0  0.96556116809E+01  0.94426432141E+01  0.69866545374E-01  0.13505525874E+02  0.00000000000E+00 0.  1.
</event>
<event>
 7    1  0.4374874E-012  0.5052884E+02  0.7816164E-02  0.1300439E+00
        -11   -1    0    0    0    0  0.00000000000E+00  0.00000000000E+00  0.45593999997E+02  0.45594000000E+02  0.51100000000E-03 0. -1.
         11   -1    0    0    0    0 -0.00000000000E+00 -0.00000000000E+00 -0.45593999997E+02  0.45594000000E+02  0.51100000000E-03 0.  1.
    9900012    2    1    2    0    0 -0.29370967148E+02  0.57295734486E+01  0.27526087545E+02  0.50528840901E+02  0.29999942402E+02 0.  0.
        -12    1    1    2    0    0  0.29370967148E+02 -0.57295734486E+01 -0.27526087545E+02  0.40659159099E+02  0.00000000000E+00 0.  1.
         11    1    3    3    0    0 -0.14793202208E+02  0.42157056088E+00  0.36971634902E+01  0.15254034596E+02  0.51100000000E-03 0. -1.
        -11    1    3    3    0    0 -0.18226309151E+01 -0.54691347502E+01 -0.47807504392E+00  0.57846326053E+01  0.51100000000E-03 0.  1.
        -12    1    3    3    0    0 -0.12755134024E+02  0.10777137638E+02  0.24306999099E+02  0.29490173700E+02  0.00000000000E+00 0.  1.
</event>
<event>
 7    1  0.4374874E-012  0.5052881E+02  0.7816164E-02  0.1300439E+00
        -11   -1    0    0    0    0  0.00000000000E+00  0.00000000000E+00  0.45593999997E+02  0.45594000000E+02  0.51100000000E-03 0. -1.
         11   -1    0    0    0    0 -0.00000000000E+00 -0.00000000000E+00 -0.45593999997E+02  0.45594000000E+02  0.51100000000E-03 0.  1.
    9900012    2    1    2    0    0  0.84337941789E+01 -0.18041203001E+02 -0.35447932926E+02  0.50528808681E+02  0.29999844468E+02 0.  0.
         12    1    1    2    0    0 -0.84337941789E+01  0.18041203001E+02  0.35447932926E+02  0.40659191319E+02  0.00000000000E+00 0. -1.
         11    1    3    3    0    0 -0.43936062732E+01 -0.78809086818E+01 -0.13068048191E+02  0.15880377248E+02  0.51100000000E-03 0. -1.
        -11    1    3    3    0    0  0.75552675851E+01 -0.15307715861E+02 -0.21147759651E+02  0.27177858115E+02  0.51100000000E-03 0.  1.
        -12    1    3    3    0    0  0.52721328670E+01  0.51474215419E+01 -0.12321250828E+01  0.74705733191E+01  0.00000000000E+00 0.  1.
</event>
<event>
 7    1  0.4374874E-012  0.5052886E+02  0.7816164E-02  0.1300439E+00
        -11   -1    0    0    0    0  0.00000000000E+00  0.00000000000E+00  0.45593999997E+02  0.45594000000E+02  0.51100000000E-03 0. -1.
         11   -1    0    0    0    0 -0.00000000000E+00 -0.00000000000E+00 -0.45593999997E+02  0.45594000000E+02  0.51100000000E-03 0.  1.
    9900012    2    1    2    0    0  0.25113680408E+02  0.15818556259E+02 -0.27789243917E+02  0.50528859044E+02  0.29999997550E+02 0.  0.
         12    1    1    2    0    0 -0.25113680408E+02 -0.15818556259E+02  0.27789243917E+02  0.40659140956E+02  0.00000000000E+00 0. -1.
         11    1    3    3    0    0  0.50990641251E+01  0.73129095276E+01 -0.10368867301E+01  0.89752011155E+01  0.51100000000E-03 0. -1.
        -11    1    3    3    0    0  0.39494339022E+01  0.11889211101E+02 -0.20420717325E+02  0.23957401050E+02  0.51100000000E-03 0.  1.
        -12    1    3    3    0    0  0.16065182381E+02 -0.33835643693E+01 -0.63316398623E+01  0.17596256878E+02  0.00000000000E+00 0.  1.
</event>
<event>
 7    1  0.4374874E-012  0.5052890E+02  0.7816164E-02  0.1300439E+00
        -11   -1    0    0    0    0  0.00000000000E+00  0.00000000000E+00  0.45593999997E+02  0.45594000000E+02  0.51100000000E-03 0. -1.
         11   -1    0    0    0    0 -0.00000000000E+00 -0.00000000000E+00 -0.45593999997E+02  0.45594000000E+02  0.51100000000E-03 0.  1.
    9900012    2    1    2    0    0 -0.88747799720E+01 -0.35296972681E+02 -0.18125241066E+02  0.50528900604E+02  0.30000123875E+02 0.  0.
         12    1    1    2    0    0  0.88747799720E+01  0.35296972681E+02  0.18125241066E+02  0.40659099396E+02  0.00000000000E+00 0. -1.
         11    1    3    3    0    0  0.44686398938E+01 -0.16566871207E+00  0.29368843541E+01  0.53499045405E+01  0.51100000000E-03 0. -1.
        -11    1    3    3    0    0 -0.25661955611E+01 -0.92528474953E+01 -0.12707994222E+02  0.15927763931E+02  0.51100000000E-03 0.  1.
        -12    1    3    3    0    0 -0.10777224305E+02 -0.25878456474E+02 -0.83541311980E+01  0.29251232132E+02  0.00000000000E+00 0.  1.
</event>
<event>
 7    1  0.4374874E-012  0.5052884E+02  0.7816164E-02  0.1300439E+00
        -11   -1    0    0    0    0  0.00000000000E+00  0.00000000000E+00  0.45593999997E+02  0.45594000000E+02  0.51100000000E-03 0. -1.
         11   -1    0    0    0    0 -0.00000000000E+00 -0.00000000000E+00 -0.45593999997E+02  0.45594000000E+02  0.51100000000E-03 0.  1.
    9900012    2    1    2    0    0 -0.28564647933E+02  0.16164813389E+02 -0.23998481616E+02  0.50528838385E+02  0.29999934754E+02 0.  0.
         12    1    1    2    0    0  0.28564647933E+02 -0.16164813389E+02  0.23998481616E+02  0.40659161615E+02  0.00000000000E+00 0. -1.
         11    1    3    3    0    0  0.31851345287E+01 -0.23612134726E+01 -0.18322021391E+01  0.43677655579E+01  0.51100000000E-03 0. -1.
        -11    1    3    3    0    0 -0.15193582011E+02  0.20067814878E+01 -0.15600879035E+02  0.21869145690E+02  0.51100000000E-03 0.  1.
        -12    1    3    3    0    0 -0.16556200450E+02  0.16519245374E+02 -0.65654004414E+01  0.24291927137E+02  0.00000000000E+00 0.  1.
</event>
<event>
 7    1  0.4374874E-012  0.5052886E+02  0.7816164E-02  0.1300439E+00
        -11   -1    0    0    0    0  0.00000000000E+00  0.00000000000E+00  0.45593999997E+02  0.45594000000E+02  0.51100000000E-03 0. -1.
         11   -1    0    0    0    0 -0.00000000000E+00 -0.00000000000E+00 -0.45593999997E+02  0.45594000000E+02  0.51100000000E-03 0.  1.
    9900012    2    1    2    0    0 -0.20101419634E+02  0.32809906175E+02  0.13138074137E+02  0.50528855807E+02  0.29999987710E+02 0.  0.
        -12    1    1    2    0    0  0.20101419634E+02 -0.32809906175E+02 -0.13138074137E+02  0.40659144193E+02  0.00000000000E+00 0.  1.
         11    1    3    3    0    0 -0.18281902433E+02  0.11847650754E+02  0.58442926131E+01  0.22555499138E+02  0.51100000000E-03 0. -1.
        -11    1    3    3    0    0 -0.27632736973E+01  0.24079858182E+01 -0.46244716502E+01  0.59008317661E+01  0.51100000000E-03 0.  1.
         12    1    3    3    0    0  0.94375649698E+00  0.18554269603E+02  0.11918253174E+02  0.22072524902E+02  0.00000000000E+00 0. -1.
</event>
<event>
 7    1  0.4374874E-012  0.5052887E+02  0.7816164E-02  0.1300439E+00
        -11   -1    0    0    0    0  0.00000000000E+00  0.00000000000E+00  0.45593999997E+02  0.45594000000E+02  0.51100000000E-03 0. -1.
         11   -1    0    0    0    0 -0.00000000000E+00 -0.00000000000E+00 -0.45593999997E+02  0.45594000000E+02  0.51100000000E-03 0.  1.
    9900012    2    1    2    0    0 -0.13414976895E+02 -0.14082490061E+02  0.35705557623E+02  0.50528868472E+02  0.30000026209E+02 0.  0.
        -12    1    1    2    0    0  0.13414976895E+02  0.14082490061E+02 -0.35705557623E+02  0.40659131528E+02  0.00000000000E+00 0.  1.
         11    1    3    3    0    0 -0.84098537443E+01 -0.73763874756E+01  0.35060580472E+00  0.11191946072E+02  0.51100000000E-03 0. -1.
        -11    1    3    3    0    0 -0.44389578922E+01  0.38121965642E+01  0.72108324687E+01  0.92861883981E+01  0.51100000000E-03 0.  1.
         12    1    3    3    0    0 -0.56616525851E+00 -0.10518299149E+02  0.28144119350E+02  0.30050734002E+02  0.00000000000E+00 0. -1.
</event>
<event>
 7    1  0.4374874E-012  0.5052885E+02  0.7816164E-02  0.1300439E+00
        -11   -1    0    0    0    0  0.00000000000E+00  0.00000000000E+00  0.45593999997E+02  0.45594000000E+02  0.51100000000E-03 0. -1.
         11   -1    0    0    0    0 -0.00000000000E+00 -0.00000000000E+00 -0.45593999997E+02  0.45594000000E+02  0.51100000000E-03 0.  1.
    9900012    2    1    2    0    0 -0.16201892059E+02  0.11764406905E+02  0.35387340535E+02  0.50528850399E+02  0.29999971272E+02 0.  0.
        -12    1    1    2    0    0  0.16201892059E+02 -0.11764406905E+02 -0.35387340535E+02  0.40659149601E+02  0.00000000000E+00 0.  1.
         11    1    3    3    0    0  0.75819474202E+00  0.30694706360E+00  0.13093909960E+02  0.13119434213E+02  0.51100000000E-03 0. -1.
        -11    1    3    3    0    0  0.18575974748E+01 -0.19555272017E+01 -0.23851087285E+01  0.36004859287E+01  0.51100000000E-03 0.  1.
         12    1    3    3    0    0 -0.18817684276E+02  0.13412987044E+02  0.24678539304E+02  0.33808930257E+02  0.00000000000E+00 0. -1.
</event>
<event>
 7    1  0.4374874E-012  0.5052878E+02  0.7816164E-02  0.1300439E+00
        -11   -1    0    0    0    0  0.00000000000E+00  0.00000000000E+00  0.45593999997E+02  0.45594000000E+02  0.51100000000E-03 0. -1.
         11   -1    0    0    0    0 -0.00000000000E+00 -0.00000000000E+00 -0.45593999997E+02  0.45594000000E+02  0.51100000000E-03 0.  1.
    9900012    2    1    2    0    0  0.18907837603E+01  0.39131637132E+02  0.10877134826E+02  0.50528780260E+02  0.29999758078E+02 0.  0.
        -12    1    1    2    0    0 -0.18907837603E+01 -0.39131637132E+02 -0.10877134826E+02  0.40659219740E+02  0.00000000000E+00 0.  1.
         11    1    3    3    0    0  0.37758735295E+01 -0.35042036555E+01  0.62902003874E+00  0.51896368505E+01  0.51100000000E-03 0.  1.
        -11    1    3    3    0    0 -0.30548352026E+01  0.12730853906E+02  0.79640540042E+01  0.15324255797E+02  0.51100000000E-03 0. -1.
        -12    1    3    3    0    0  0.11697454334E+01  0.29904986881E+02  0.22840607830E+01  0.30014887612E+02  0.00000000000E+00 0.  1.
</event>
<event>
 7    1  0.4374874E-012  0.5052885E+02  0.7816164E-02  0.1300439E+00
        -11   -1    0    0    0    0  0.00000000000E+00  0.00000000000E+00  0.45593999997E+02  0.45594000000E+02  0.51100000000E-03 0. -1.
         11   -1    0    0    0    0 -0.00000000000E+00 -0.00000000000E+00 -0.45593999997E+02  0.45594000000E+02  0.51100000000E-03 0.  1.
    9900012    2    1    2    0    0  0.45746010757E+01 -0.21686843854E+02  0.34086958076E+02  0.50528845038E+02  0.29999954978E+02 0.  0.
        -12    1    1    2    0    0 -0.45746010757E+01  0.21686843854E+02 -0.34086958076E+02  0.40659154962E+02  0.00000000000E+00 0.  1.
         11    1    3    3    0    0  0.91119667326E+01 -0.19423469339E+02  0.32329230770E+02  0.38800493056E+02  0.51100000000E-03 0. -1.
        -11    1    3    3    0    0 -0.19613921944E+00 -0.59166450273E+01  0.78492021899E+00  0.59717048640E+01  0.51100000000E-03 0.  1.
        -12    1    3    3    0    0 -0.43412264375E+01  0.36532705122E+01  0.97280708665E+00  0.57566471183E+01  0.00000000000E+00 0.  1.
</event>
<event>
 7    1  0.4374874E-012  0.5052884E+02  0.7816164E-02  0.1300439E+00
        -11   -1    0    0    0    0  0.00000000000E+00  0.00000000000E+00  0.45593999997E+02  0.45594000000E+02  0.51100000000E-03 0. -1.
         11   -1    0    0    0    0 -0.00000000000E+00 -0.00000000000E+00 -0.45593999997E+02  0.45594000000E+02  0.51100000000E-03 0.  1.
    9900012    2    1    2    0    0 -0.78906452003E+01 -0.98780994031E+01  0.38643605836E+02  0.50528838652E+02  0.29999935568E+02 0.  0.
        -12    1    1    2    0    0  0.78906452003E+01  0.98780994031E+01 -0.38643605836E+02  0.40659161348E+02  0.00000000000E+00 0.  1.
         11    1    3    3    0    0  0.22516514442E+01  0.30151607517E+00 -0.36521476159E+01  0.43010497136E+01  0.51100000000E-03 0.  1.
        -11    1    3    3    0    0 -0.87068118469E+01 -0.13499241254E+01  0.13908854555E+02  0.16464722985E+02  0.51100000000E-03 0. -1.
        -12    1    3    3    0    0 -0.14354847976E+01 -0.88296913529E+01  0.28386898897E+02  0.29763065954E+02  0.00000000000E+00 0.  1.
</event>
<event>
 7    1  0.4374874E-012  0.5052886E+02  0.7816164E-02  0.1300439E+00
        -11   -1    0    0    0    0  0.00000000000E+00  0.00000000000E+00  0.45593999997E+02  0.45594000000E+02  0.51100000000E-03 0. -1.
         11   -1    0    0    0    0 -0.00000000000E+00 -0.00000000000E+00 -0.45593999997E+02  0.45594000000E+02  0.51100000000E-03 0.  1.
    9900012    2    1    2    0    0 -0.80597233651E+01 -0.25074115577E+02  0.30975718820E+02  0.50528861186E+02  0.30000004060E+02 0.  0.
        -12    1    1    2    0    0  0.80597233651E+01  0.25074115577E+02 -0.30975718820E+02  0.40659138814E+02  0.00000000000E+00 0.  1.
         11    1    3    3    0    0 -0.22072071936E+01 -0.17882259264E+02  0.16625269207E+02  0.24516250457E+02  0.51100000000E-03 0. -1.
        -11    1    3    3    0    0 -0.75953750881E+00 -0.63597776395E+01 -0.35915492846E+01  0.73432210491E+01  0.51100000000E-03 0.  1.
         12    1    3    3    0    0 -0.50929786626E+01 -0.83207867353E+00  0.17941998897E+02  0.18669389680E+02  0.00000000000E+00 0. -1.
</event>
<event>
 7    1  0.4374874E-012  0.5052886E+02  0.7816164E-02  0.1300439E+00
        -11   -1    0    0    0    0  0.00000000000E+00  0.00000000000E+00  0.45593999997E+02  0.45594000000E+02  0.51100000000E-03 0. -1.
         11   -1    0    0    0    0 -0.00000000000E+00 -0.00000000000E+00 -0.45593999997E+02  0.45594000000E+02  0.51100000000E-03 0.  1.
    9900012    2    1    2    0    0 -0.52830121637E+01 -0.10565105429E+02 -0.38905450440E+02  0.50528859033E+02  0.29999997516E+02 0.  0.
         12    1    1    2    0    0  0.52830121637E+01  0.10565105429E+02  0.38905450440E+02  0.40659140967E+02  0.00000000000E+00 0. -1.
         11    1    3    3    0    0 -0.80308288669E+01 -0.62639344267E+01 -0.19290361853E+02  0.21813966798E+02  0.51100000000E-03 0. -1.
        -11    1    3    3    0    0 -0.11153915757E+01 -0.11795178375E+02 -0.77429702747E+01  0.14153583299E+02  0.51100000000E-03 0.  1.
         12    1    3    3    0    0  0.38632082790E+01  0.74940073724E+01 -0.11872118312E+02  0.14561308936E+02  0.00000000000E+00 0. -1.
</event>
<event>
 7    1  0.4374874E-012  0.5052886E+02  0.7816164E-02  0.1300439E+00
        -11   -1    0    0    0    0  0.00000000000E+00  0.00000000000E+00  0.45593999997E+02  0.45594000000E+02  0.51100000000E-03 0. -1.
         11   -1    0    0    0    0 -0.00000000000E+00 -0.00000000000E+00 -0.45593999997E+02  0.45594000000E+02  0.51100000000E-03 0.  1.
    9900012    2    1    2    0    0  0.30557045014E+02 -0.39319786927E+01  0.26532477420E+02  0.50528858168E+02  0.29999994888E+02 0.  0.
        -12    1    1    2    0    0 -0.30557045014E+02  0.39319786927E+01 -0.26532477420E+02  0.40659141832E+02  0.00000000000E+00 0.  1.
         11    1    3    3    0    0  0.19698851114E+02  0.32147340118E+01  0.12408845427E+02  0.23502312548E+02  0.51100000000E-03 0.  1.
        -11    1    3    3    0    0 -0.13835491384E+01 -0.68525626693E+01  0.12961069698E+02  0.14726206278E+02  0.51100000000E-03 0. -1.
         12    1    3    3    0    0  0.12241743038E+02 -0.29415003522E+00  0.11625622946E+01  0.12300339343E+02  0.00000000000E+00 0. -1.
</event>
<event>
 7    1  0.4756090E-012  0.5052886E+02  0.7816164E-02  0.1300439E+00
        -11   -1    0    0    0    0  0.00000000000E+00  0.00000000000E+00  0.45593999997E+02  0.45594000000E+02  0.51100000000E-03 0. -1.
         11   -1    0    0    0    0 -0.00000000000E+00 -0.00000000000E+00 -0.45593999997E+02  0.45594000000E+02  0.51100000000E-03 0.  1.
    9900012    2    1    2    0    0  0.19373860717E+02  0.21382194297E+01 -0.35682593052E+02  0.50528857014E+02  0.29999991380E+02 0.  0.
         12    1    1    2    0    0 -0.19373860717E+02 -0.21382194297E+01  0.35682593052E+02  0.40659142986E+02  0.00000000000E+00 0. -1.
         11    1    3    3    0    0  0.34406573098E+01 -0.82025215661E+01 -0.62870248892E+01  0.10892482040E+02  0.51100000000E-03 0. -1.
        -11    1    3    3    0    0  0.94323688709E+01  0.14618454397E+01 -0.26631297195E+02  0.28290149613E+02  0.51100000000E-03 0.  1.
         12    1    3    3    0    0  0.65008345358E+01  0.88788955561E+01 -0.27642709685E+01  0.11346225361E+02  0.00000000000E+00 0. -1.
</event>
<event>
 7    1  0.5280320E-012  0.5052886E+02  0.7816164E-02  0.1300439E+00
        -11   -1    0    0    0    0  0.00000000000E+00  0.00000000000E+00  0.45593999997E+02  0.45594000000E+02  0.51100000000E-03 0. -1.
         11   -1    0    0    0    0 -0.00000000000E+00 -0.00000000000E+00 -0.45593999997E+02  0.45594000000E+02  0.51100000000E-03 0.  1.
    9900012    2    1    2    0    0 -0.99037250694E+01 -0.38495723586E+01 -0.39246182900E+02  0.50528857734E+02  0.29999993567E+02 0.  0.
         12    1    1    2    0    0  0.99037250694E+01  0.38495723586E+01  0.39246182900E+02  0.40659142266E+02  0.00000000000E+00 0. -1.
         11    1    3    3    0    0  0.69687254473E+00 -0.94069272390E+01 -0.87633353965E+01  0.12875245977E+02  0.51100000000E-03 0. -1.
        -11    1    3    3    0    0  0.24840142403E+01  0.60886261788E+01 -0.19445396992E+02  0.20527181003E+02  0.51100000000E-03 0.  1.
         12    1    3    3    0    0 -0.13084611854E+02 -0.53127129842E+00 -0.11037450512E+02  0.17126430754E+02  0.00000000000E+00 0. -1.
</event>
<event>
 7    1  0.4374874E-012  0.5052886E+02  0.7816164E-02  0.1300439E+00
        -11   -1    0    0    0    0  0.00000000000E+00  0.00000000000E+00  0.45593999997E+02  0.45594000000E+02  0.51100000000E-03 0. -1.
         11   -1    0    0    0    0 -0.00000000000E+00 -0.00000000000E+00 -0.45593999997E+02  0.45594000000E+02  0.51100000000E-03 0.  1.
    9900012    2    1    2    0    0  0.37798893997E+01  0.26825055169E+02 -0.30319868721E+02  0.50528860954E+02  0.30000003356E+02 0.  0.
         12    1    1    2    0    0 -0.37798893997E+01 -0.26825055169E+02  0.30319868721E+02  0.40659139046E+02  0.00000000000E+00 0. -1.
         11    1    3    3    0    0 -0.14294552452E+01 -0.99461232236E-02 -0.13335476231E+01  0.19549400880E+01  0.51100000000E-03 0. -1.
        -11    1    3    3    0    0  0.15207119587E+02  0.17301328017E+02 -0.25424545775E+02  0.34307433093E+02  0.51100000000E-03 0.  1.
        -12    1    3    3    0    0 -0.99977749425E+01  0.95336732758E+01 -0.35617753227E+01  0.14266487773E+02  0.00000000000E+00 0.  1.
</event>
<event>
 7    1  0.4374874E-012  0.5052886E+02  0.7816164E-02  0.1300439E+00
        -11   -1    0    0    0    0  0.00000000000E+00  0.00000000000E+00  0.45593999997E+02  0.45594000000E+02  0.51100000000E-03 0. -1.
         11   -1    0    0    0    0 -0.00000000000E+00 -0.00000000000E+00 -0.45593999997E+02  0.45594000000E+02  0.51100000000E-03 0.  1.
    9900012    2    1    2    0    0 -0.39795599665E+02  0.21310381516E+00  0.83325055428E+01  0.50528858168E+02  0.29999994886E+02 0.  0.
        -12    1    1    2    0    0  0.39795599665E+02 -0.21310381516E+00 -0.83325055428E+01  0.40659141832E+02  0.00000000000E+00 0.  1.
         11    1    3    3    0    0 -0.19246806917E+02 -0.89930497217E+01  0.43988994073E+01  0.21694811271E+02  0.51100000000E-03 0. -1.
        -11    1    3    3    0    0  0.21268933898E+00  0.40707736246E+00 -0.46750240347E+01  0.46975311302E+01  0.51100000000E-03 0.  1.
         12    1    3    3    0    0 -0.20761482087E+02  0.87990761744E+01  0.86086301701E+01  0.24136515767E+02  0.00000000000E+00 0. -1.
</event>
<event>
 7    1  0.4374874E-012  0.5052886E+02  0.7816164E-02  0.1300439E+00
        -11   -1    0    0    0    0  0.00000000000E+00  0.00000000000E+00  0.45593999997E+02  0.45594000000E+02  0.51100000000E-03 0. -1.
         11   -1    0    0    0    0 -0.00000000000E+00 -0.00000000000E+00 -0.45593999997E+02  0.45594000000E+02  0.51100000000E-03 0.  1.
    9900012    2    1    2    0    0  0.10386162799E+02 -0.64254045756E-01  0.39310165961E+02  0.50528860140E+02  0.30000000882E+02 0.  0.
        -12    1    1    2    0    0 -0.10386162799E+02  0.64254045756E-01 -0.39310165961E+02  0.40659139860E+02  0.00000000000E+00 0.  1.
         11    1    3    3    0    0  0.15592650130E+01  0.19183461254E+01  0.16593121801E+02  0.16776264501E+02  0.51100000000E-03 0. -1.
        -11    1    3    3    0    0 -0.57729193113E+01 -0.73529080683E+01  0.96628165754E+01  0.13444771432E+02  0.51100000000E-03 0.  1.
        -12    1    3    3    0    0  0.14599817098E+02  0.53703078971E+01  0.13054227584E+02  0.20307824207E+02  0.00000000000E+00 0.  1.
</event>
<event>
 7    1  0.4374874E-012  0.5052886E+02  0.7816164E-02  0.1300439E+00
        -11   -1    0    0    0    0  0.00000000000E+00  0.00000000000E+00  0.45593999997E+02  0.45594000000E+02  0.51100000000E-03 0. -1.
         11   -1    0    0    0    0 -0.00000000000E+00 -0.00000000000E+00 -0.45593999997E+02  0.45594000000E+02  0.51100000000E-03 0.  1.
    9900012    2    1    2    0    0  0.25581359994E+02  0.28983291224E+01  0.31469974381E+02  0.50528861072E+02  0.30000003714E+02 0.  0.
        -12    1    1    2    0    0 -0.25581359994E+02 -0.28983291224E+01 -0.31469974381E+02  0.40659138928E+02  0.00000000000E+00 0.  1.
         11    1    3    3    0    0  0.14074269825E+02 -0.39257154670E+01  0.16992669068E+02  0.22410870473E+02  0.51100000000E-03 0. -1.
        -11    1    3    3    0    0  0.14963272096E+02  0.99777065241E+01  0.14988039943E+02  0.23411439103E+02  0.51100000000E-03 0.  1.
        -12    1    3    3    0    0 -0.34561819280E+01 -0.31536619346E+01 -0.51073462986E+00  0.47065514954E+01  0.00000000000E+00 0.  1.
</event>
<event>
 7    1  0.4374874E-012  0.5052886E+02  0.7816164E-02  0.1300439E+00
        -11   -1    0    0    0    0  0.00000000000E+00  0.00000000000E+00  0.45593999997E+02  0.45594000000E+02  0.51100000000E-03 0. -1.
         11   -1    0    0    0    0 -0.00000000000E+00 -0.00000000000E+00 -0.45593999997E+02  0.45594000000E+02  0.51100000000E-03 0.  1.
    9900012    2    1    2    0    0  0.13489243085E+02  0.25302968751E+01  0.38272751764E+02  0.50528860697E+02  0.30000002575E+02 0.  0.
        -12    1    1    2    0    0 -0.13489243085E+02 -0.25302968751E+01 -0.38272751764E+02  0.40659139303E+02  0.00000000000E+00 0.  1.
         11    1    3    3    0    0  0.64365346140E+01  0.31778095349E+01  0.27296623997E+01  0.76797466335E+01  0.51100000000E-03 0. -1.
        -11    1    3    3    0    0 -0.52197244423E+01 -0.17263502922E+01  0.29010640710E+00  0.55054491709E+01  0.51100000000E-03 0.  1.
         12    1    3    3    0    0  0.12272432913E+02  0.10788376324E+01  0.35252982957E+02  0.37343664893E+02  0.00000000000E+00 0. -1.
</event>
<event>
 7    1  0.4374874E-012  0.5052886E+02  0.7816164E-02  0.1300439E+00
        -11   -1    0    0    0    0  0.00000000000E+00  0.00000000000E+00  0.45593999997E+02  0.45594000000E+02  0.51100000000E-03 0. -1.
         11   -1    0    0    0    0 -0.00000000000E+00 -0.00000000000E+00 -0.45593999997E+02  0.45594000000E+02  0.51100000000E-03 0.  1.
    9900012    2    1    2    0    0 -0.15839749555E+02 -0.23708827433E+02  0.28985500479E+02  0.50528863238E+02  0.30000010298E+02 0.  0.
        -12    1    1    2    0    0  0.15839749555E+02  0.23708827433E+02 -0.28985500479E+02  0.40659136762E+02  0.00000000000E+00 0.  1.
         11    1    3    3    0    0 -0.57058429618E+01 -0.96955390476E+01 -0.10138870759E+01  0.11295489746E+02  0.51100000000E-03 0. -1.
        -11    1    3    3    0    0  0.13538641262E+01  0.37689889130E+01  0.61980751137E+01  0.73793198111E+01  0.51100000000E-03 0.  1.
         12    1    3    3    0    0 -0.11487770720E+02 -0.17782277299E+02  0.23801312441E+02  0.31854053681E+02  0.00000000000E+00 0. -1.
</event>
<event>
 7    1  0.4374874E-012  0.5052886E+02  0.7816164E-02  0.1300439E+00
        -11   -1    0    0    0    0  0.00000000000E+00  0.00000000000E+00  0.45593999997E+02  0.45594000000E+02  0.51100000000E-03 0. -1.
         11   -1    0    0    0    0 -0.00000000000E+00 -0.00000000000E+00 -0.45593999997E+02  0.45594000000E+02  0.51100000000E-03 0.  1.
    9900012    2    1    2    0    0 -0.39062853825E+01 -0.20727261639E+01 -0.40417945951E+02  0.50528860632E+02  0.30000002378E+02 0.  0.
         12    1    1    2    0    0  0.39062853825E+01  0.20727261639E+01  0.40417945951E+02  0.40659139368E+02  0.00000000000E+00 0. -1.
         11    1    3    3    0    0 -0.24230357709E+01  0.11049612376E+02 -0.16986854425E+02  0.20408778982E+02  0.51100000000E-03 0.  1.
        -11    1    3    3    0    0  0.20466587451E+01  0.44299703392E+00  0.70452523231E+00  0.22093923271E+01  0.51100000000E-03 0. -1.
        -12    1    3    3    0    0 -0.35299083568E+01 -0.13565335574E+02 -0.24135616758E+02  0.27910689324E+02  0.00000000000E+00 0.  1.
</event>
<event>
 7    1  0.4374874E-012  0.5052884E+02  0.7816164E-02  0.1300439E+00
        -11   -1    0    0    0    0  0.00000000000E+00  0.00000000000E+00  0.45593999997E+02  0.45594000000E+02  0.51100000000E-03 0. -1.
         11   -1    0    0    0    0 -0.00000000000E+00 -0.00000000000E+00 -0.45593999997E+02  0.45594000000E+02  0.51100000000E-03 0.  1.
    9900012    2    1    2    0    0  0.10438773450E+02 -0.35277948228E+02  0.17310848091E+02  0.50528842558E+02  0.29999947439E+02 0.  0.
        -12    1    1    2    0    0 -0.10438773450E+02  0.35277948228E+02 -0.17310848091E+02  0.40659157442E+02  0.00000000000E+00 0.  1.
         11    1    3    3    0    0 -0.21357449708E+01 -0.13177574660E+02 -0.63808487577E+01  0.14796118127E+02  0.51100000000E-03 0.  1.
        -11    1    3    3    0    0  0.15454681605E+01 -0.96887335713E+01  0.61517890687E+01  0.11580351422E+02  0.51100000000E-03 0. -1.
        -12    1    3    3    0    0  0.11029050260E+02 -0.12411639996E+02  0.17539907780E+02  0.24152373009E+02  0.00000000000E+00 0.  1.
</event>
<event>
 7    1  0.4374874E-012  0.5052886E+02  0.7816164E-02  0.1300439E+00
        -11   -1    0    0    0    0  0.00000000000E+00  0.00000000000E+00  0.45593999997E+02  0.45594000000E+02  0.51100000000E-03 0. -1.
         11   -1    0    0    0    0 -0.00000000000E+00 -0.00000000000E+00 -0.45593999997E+02  0.45594000000E+02  0.51100000000E-03 0.  1.
    9900012    2    1    2    0    0 -0.43490096911E+00  0.38500993987E+02  0.13063293718E+02  0.50528864254E+02  0.30000013387E+02 0.  0.
        -12    1    1    2    0    0  0.43490096911E+00 -0.38500993987E+02 -0.13063293718E+02  0.40659135746E+02  0.00000000000E+00 0.  1.
         11    1    3    3    0    0 -0.41166451587E+01  0.12156152940E+02  0.49022408231E+01  0.13738660306E+02  0.51100000000E-03 0. -1.
        -11    1    3    3    0    0  0.20637287503E+00  0.45929406471E+01  0.13384030943E+02  0.14151677572E+02  0.51100000000E-03 0.  1.
        -12    1    3    3    0    0  0.34753713145E+01  0.21751900400E+02 -0.52229780478E+01  0.22638526376E+02  0.00000000000E+00 0.  1.
</event>
<event>
 7    1  0.4374874E-012  0.5052886E+02  0.7816164E-02  0.1300439E+00
        -11   -1    0    0    0    0  0.00000000000E+00  0.00000000000E+00  0.45593999997E+02  0.45594000000E+02  0.51100000000E-03 0. -1.
         11   -1    0    0    0    0 -0.00000000000E+00 -0.00000000000E+00 -0.45593999997E+02  0.45594000000E+02  0.51100000000E-03 0.  1.
    9900012    2    1    2    0    0  0.24030290019E+01 -0.22401593787E+02  0.33846121741E+02  0.50528857000E+02  0.29999991338E+02 0.  0.
        -12    1    1    2    0    0 -0.24030290019E+01  0.22401593787E+02 -0.33846121741E+02  0.40659143000E+02  0.00000000000E+00 0.  1.
         11    1    3    3    0    0  0.54031798940E+00 -0.94760654608E+01  0.11603430821E+02  0.14990909487E+02  0.51100000000E-03 0. -1.
        -11    1    3    3    0    0 -0.10096640483E+02 -0.23059468849E+01  0.14365580525E+02  0.17709586222E+02  0.51100000000E-03 0.  1.
         12    1    3    3    0    0  0.11959351495E+02 -0.10619581441E+02  0.78771103940E+01  0.17828361291E+02  0.00000000000E+00 0. -1.
</event>
<event>
 7    1  0.4374874E-012  0.5052886E+02  0.7816164E-02  0.1300439E+00
        -11   -1    0    0    0    0  0.00000000000E+00  0.00000000000E+00  0.45593999997E+02  0.45594000000E+02  0.51100000000E-03 0. -1.
         11   -1    0    0    0    0 -0.00000000000E+00 -0.00000000000E+00 -0.45593999997E+02  0.45594000000E+02  0.51100000000E-03 0.  1.
    9900012    2    1    2    0    0 -0.27647660215E+02  0.14441612447E+02  0.26080882055E+02  0.50528859647E+02  0.29999999383E+02 0.  0.
        -12    1    1    2    0    0  0.27647660215E+02 -0.14441612447E+02 -0.26080882055E+02  0.40659140353E+02  0.00000000000E+00 0.  1.
         11    1    3    3    0    0 -0.24558773450E+00 -0.29105600795E+01 -0.17680593589E+01  0.34143385113E+01  0.51100000000E-03 0. -1.
        -11    1    3    3    0    0 -0.69405276094E+01 -0.34864710038E+01  0.10782548284E+02  0.13288707661E+02  0.51100000000E-03 0.  1.
         12    1    3    3    0    0 -0.20461544871E+02  0.20838643531E+02  0.17066393131E+02  0.33825813475E+02  0.00000000000E+00 0. -1.
</event>
<event>
 7    1  0.4374874E-012  0.5052886E+02  0.7816164E-02  0.1300439E+00
        -11   -1    0    0    0    0  0.00000000000E+00  0.00000000000E+00  0.45593999997E+02  0.45594000000E+02  0.51100000000E-03 0. -1.
         11   -1    0    0    0    0 -0.00000000000E+00 -0.00000000000E+00 -0.45593999997E+02  0.45594000000E+02  0.51100000000E-03 0.  1.
    9900012    2    1    2    0    0  0.11514996004E+02 -0.35135703731E+02  0.16913096179E+02  0.50528860412E+02  0.30000001708E+02 0.  0.
        -12    1    1    2    0    0 -0.11514996004E+02  0.35135703731E+02 -0.16913096179E+02  0.40659139588E+02  0.00000000000E+00 0.  1.
         11    1    3    3    0    0  0.15022051479E+02 -0.19212370435E+02  0.10105409512E+02  0.26398797511E+02  0.51100000000E-03 0. -1.
        -11    1    3    3    0    0  0.61996150733E+00  0.12045711853E+01  0.63637682005E+01  0.65063730282E+01  0.51100000000E-03 0.  1.
        -12    1    3    3    0    0 -0.41270169828E+01 -0.17127904482E+02  0.44391846713E+00  0.17623689873E+02  0.00000000000E+00 0.  1.
</event>
<event>
 7    1  0.4374874E-012  0.5052887E+02  0.7816164E-02  0.1300439E+00
        -11   -1    0    0    0    0  0.00000000000E+00  0.00000000000E+00  0.45593999997E+02  0.45594000000E+02  0.51100000000E-03 0. -1.
         11   -1    0    0    0    0 -0.00000000000E+00 -0.00000000000E+00 -0.45593999997E+02  0.45594000000E+02  0.51100000000E-03 0.  1.
    9900012    2    1    2    0    0 -0.19418164015E+02  0.21002835601E+02  0.28896034821E+02  0.50528867872E+02  0.30000024384E+02 0.  0.
        -12    1    1    2    0    0  0.19418164015E+02 -0.21002835601E+02 -0.28896034821E+02  0.40659132128E+02  0.00000000000E+00 0.  1.
         11    1    3    3    0    0 -0.24832128438E+02  0.12723251596E+02  0.17440829522E+02  0.32904380690E+02  0.51100000000E-03 0. -1.
        -11    1    3    3    0    0  0.40894273035E+01  0.50187984465E-01  0.71646158712E+01  0.82497063795E+01  0.51100000000E-03 0.  1.
        -12    1    3    3    0    0  0.13245371197E+01  0.82293960212E+01  0.42905894275E+01  0.93747808023E+01  0.00000000000E+00 0.  1.
</event>
<event>
 7    1  0.4374874E-012  0.5052886E+02  0.7816164E-02  0.1300439E+00
        -11   -1    0    0    0    0  0.00000000000E+00  0.00000000000E+00  0.45593999997E+02  0.45594000000E+02  0.51100000000E-03 0. -1.
         11   -1    0    0    0    0 -0.00000000000E+00 -0.00000000000E+00 -0.45593999997E+02  0.45594000000E+02  0.51100000000E-03 0.  1.
    9900012    2    1    2    0    0 -0.39483273227E+01 -0.55839370871E+01 -0.40079869747E+02  0.50528860794E+02  0.30000002869E+02 0.  0.
         12    1    1    2    0    0  0.39483273227E+01  0.55839370871E+01  0.40079869747E+02  0.40659139206E+02  0.00000000000E+00 0. -1.
         11    1    3    3    0    0 -0.66020970654E+00 -0.52296324133E+01 -0.90002315142E+01  0.10430201321E+02  0.51100000000E-03 0. -1.
        -11    1    3    3    0    0  0.76270852888E+01 -0.87186649677E+01 -0.14424247648E+02  0.18499904575E+02  0.51100000000E-03 0.  1.
         12    1    3    3    0    0 -0.10915202905E+02  0.83643602939E+01 -0.16655390585E+02  0.21598754898E+02  0.00000000000E+00 0. -1.
</event>
<event>
 7    1  0.4374874E-012  0.5052886E+02  0.7816164E-02  0.1300439E+00
        -11   -1    0    0    0    0  0.00000000000E+00  0.00000000000E+00  0.45593999997E+02  0.45594000000E+02  0.51100000000E-03 0. -1.
         11   -1    0    0    0    0 -0.00000000000E+00 -0.00000000000E+00 -0.45593999997E+02  0.45594000000E+02  0.51100000000E-03 0.  1.
    9900012    2    1    2    0    0 -0.27298620844E+02 -0.18362679705E+02  0.23890650480E+02  0.50528857286E+02  0.29999992205E+02 0.  0.
        -12    1    1    2    0    0  0.27298620844E+02  0.18362679705E+02 -0.23890650480E+02  0.40659142714E+02  0.00000000000E+00 0.  1.
         11    1    3    3    0    0 -0.10310632921E+02  0.63286079018E+01  0.14478395089E+02  0.18867547637E+02  0.51100000000E-03 0. -1.
        -11    1    3    3    0    0 -0.91315394968E+00 -0.31736673396E+01  0.37991833477E+00  0.33242070814E+01  0.51100000000E-03 0.  1.
         12    1    3    3    0    0 -0.16074833973E+02 -0.21517620267E+02  0.90323370559E+01  0.28337102567E+02  0.00000000000E+00 0. -1.
</event>
<event>
 7    1  0.4374874E-012  0.5052886E+02  0.7816164E-02  0.1300439E+00
        -11   -1    0    0    0    0  0.00000000000E+00  0.00000000000E+00  0.45593999997E+02  0.45594000000E+02  0.51100000000E-03 0. -1.
         11   -1    0    0    0    0 -0.00000000000E+00 -0.00000000000E+00 -0.45593999997E+02  0.45594000000E+02  0.51100000000E-03 0.  1.
    9900012    2    1    2    0    0  0.13513155272E+02  0.10204512044E+02  0.36965228022E+02  0.50528861862E+02  0.30000006114E+02 0.  0.
        -12    1    1    2    0    0 -0.13513155272E+02 -0.10204512044E+02 -0.36965228022E+02  0.40659138138E+02  0.00000000000E+00 0.  1.
         11    1    3    3    0    0  0.20238353224E+00  0.12356403071E+02  0.29303479480E+02  0.31802760349E+02  0.51100000000E-03 0. -1.
        -11    1    3    3    0    0 -0.11460111710E+01 -0.22793282948E+01  0.18164372912E+01  0.31317924219E+01  0.51100000000E-03 0.  1.
        -12    1    3    3    0    0  0.14456782911E+02  0.12743726863E+00  0.58453112502E+01  0.15594309090E+02  0.00000000000E+00 0.  1.
</event>
<event>
 7    1  0.4374874E-012  0.5052892E+02  0.7816164E-02  0.1300439E+00
        -11   -1    0    0    0    0  0.00000000000E+00  0.00000000000E+00  0.45593999997E+02  0.45594000000E+02  0.51100000000E-03 0. -1.
         11   -1    0    0    0    0 -0.00000000000E+00 -0.00000000000E+00 -0.45593999997E+02  0.45594000000E+02  0.51100000000E-03 0.  1.
    9900012    2    1    2    0    0  0.25705082349E+02  0.24729979582E+02  0.19515058722E+02  0.50528921486E+02  0.30000187349E+02 0.  0.
        -12    1    1    2    0    0 -0.25705082349E+02 -0.24729979582E+02 -0.19515058722E+02  0.40659078514E+02  0.00000000000E+00 0.  1.
         11    1    3    3    0    0 -0.19423996215E+01  0.38198441484E+01  0.65933465720E+01  0.78636088972E+01  0.51100000000E-03 0. -1.
        -11    1    3    3    0    0  0.10214895349E+02  0.15728674252E+02 -0.23708826711E+01  0.18903871710E+02  0.51100000000E-03 0.  1.
         12    1    3    3    0    0  0.17432586621E+02  0.51814611807E+01  0.15292594821E+02  0.23761440879E+02  0.00000000000E+00 0. -1.
</event>
<event>
 7    1  0.4374874E-012  0.5052885E+02  0.7816164E-02  0.1300439E+00
        -11   -1    0    0    0    0  0.00000000000E+00  0.00000000000E+00  0.45593999997E+02  0.45594000000E+02  0.51100000000E-03 0.  1.
         11   -1    0    0    0    0 -0.00000000000E+00 -0.00000000000E+00 -0.45593999997E+02  0.45594000000E+02  0.51100000000E-03 0. -1.
    9900012    2    1    2    0    0 -0.31443891518E+02 -0.92950296768E+01 -0.24042674281E+02  0.50528854939E+02  0.29999985073E+02 0.  0.
         12    1    1    2    0    0  0.31443891518E+02  0.92950296768E+01  0.24042674281E+02  0.40659145061E+02  0.00000000000E+00 0. -1.
         11    1    3    3    0    0 -0.15819042220E+02 -0.72714102655E+01 -0.17472307078E+02  0.24665705319E+02  0.51100000000E-03 0. -1.
        -11    1    3    3    0    0 -0.61300947566E+01  0.46442510964E+01 -0.11018877712E+02  0.13437365674E+02  0.51100000000E-03 0.  1.
        -12    1    3    3    0    0 -0.94947545415E+01 -0.66678705078E+01  0.44485105091E+01  0.12425783946E+02  0.00000000000E+00 0.  1.
</event>
<event>
 7    1  0.4374874E-012  0.5052886E+02  0.7816164E-02  0.1300439E+00
        -11   -1    0    0    0    0  0.00000000000E+00  0.00000000000E+00  0.45593999997E+02  0.45594000000E+02  0.51100000000E-03 0. -1.
         11   -1    0    0    0    0 -0.00000000000E+00 -0.00000000000E+00 -0.45593999997E+02  0.45594000000E+02  0.51100000000E-03 0.  1.
    9900012    2    1    2    0    0  0.25487495267E+02  0.10171063735E+01  0.31662575610E+02  0.50528860626E+02  0.30000002358E+02 0.  0.
        -12    1    1    2    0    0 -0.25487495267E+02 -0.10171063735E+01 -0.31662575610E+02  0.40659139374E+02  0.00000000000E+00 0.  1.
         11    1    3    3    0    0  0.69782938113E+00  0.50709418718E+01  0.95753313134E+01  0.10857641886E+02  0.51100000000E-03 0. -1.
        -11    1    3    3    0    0  0.18502629341E+02  0.69904945386E+01  0.10131929529E+02  0.22223192900E+02  0.51100000000E-03 0.  1.
        -12    1    3    3    0    0  0.62870365446E+01 -0.11044330037E+02  0.11955314768E+02  0.17448025839E+02  0.00000000000E+00 0.  1.
</event>
<event>
 7    1  0.4374874E-012  0.5052886E+02  0.7816164E-02  0.1300439E+00
        -11   -1    0    0    0    0  0.00000000000E+00  0.00000000000E+00  0.45593999997E+02  0.45594000000E+02  0.51100000000E-03 0. -1.
         11   -1    0    0    0    0 -0.00000000000E+00 -0.00000000000E+00 -0.45593999997E+02  0.45594000000E+02  0.51100000000E-03 0.  1.
    9900012    2    1    2    0    0 -0.68726028575E+01 -0.61852188788E+01  0.39593886646E+02  0.50528862498E+02  0.30000008050E+02 0.  0.
        -12    1    1    2    0    0  0.68726028575E+01  0.61852188788E+01 -0.39593886646E+02  0.40659137502E+02  0.00000000000E+00 0.  1.
         11    1    3    3    0    0  0.69070132766E+01 -0.40838214678E+00  0.14785172051E+02  0.16324059581E+02  0.51100000000E-03 0. -1.
        -11    1    3    3    0    0 -0.21279383559E+01 -0.19679356061E+01 -0.27794795716E+01  0.40157688113E+01  0.51100000000E-03 0.  1.
         12    1    3    3    0    0 -0.11651677778E+02 -0.38089011259E+01  0.27588194167E+02  0.30189034106E+02  0.00000000000E+00 0. -1.
</event>
<event>
 7    1  0.4374874E-012  0.5052887E+02  0.7816164E-02  0.1300439E+00
        -11   -1    0    0    0    0  0.00000000000E+00  0.00000000000E+00  0.45593999997E+02  0.45594000000E+02  0.51100000000E-03 0. -1.
         11   -1    0    0    0    0 -0.00000000000E+00 -0.00000000000E+00 -0.45593999997E+02  0.45594000000E+02  0.51100000000E-03 0.  1.
    9900012    2    1    2    0    0  0.37093703516E+02 -0.75661289990E+01 -0.14831590257E+02  0.50528865503E+02  0.30000017182E+02 0.  0.
         12    1    1    2    0    0 -0.37093703516E+02  0.75661289990E+01  0.14831590257E+02  0.40659134497E+02  0.00000000000E+00 0. -1.
         11    1    3    3    0    0  0.38276803041E+01  0.14117669647E+01  0.43434693809E+01  0.59590224867E+01  0.51100000000E-03 0. -1.
        -11    1    3    3    0    0  0.42327840116E+01  0.56584830170E+01 -0.67213187620E+01  0.97524877187E+01  0.51100000000E-03 0.  1.
         12    1    3    3    0    0  0.29033239200E+02 -0.14636378981E+02 -0.12453740875E+02  0.34817355297E+02  0.00000000000E+00 0. -1.
</event>
<event>
 7    1  0.4374874E-012  0.5052889E+02  0.7816164E-02  0.1300439E+00
        -11   -1    0    0    0    0  0.00000000000E+00  0.00000000000E+00  0.45593999997E+02  0.45594000000E+02  0.51100000000E-03 0.  1.
         11   -1    0    0    0    0 -0.00000000000E+00 -0.00000000000E+00 -0.45593999997E+02  0.45594000000E+02  0.51100000000E-03 0. -1.
    9900012    2    1    2    0    0 -0.16901547022E+02  0.36362539448E+02 -0.67280726044E+01  0.50528886288E+02  0.30000080361E+02 0.  0.
         12    1    1    2    0    0  0.16901547022E+02 -0.36362539448E+02  0.67280726044E+01  0.40659113712E+02  0.00000000000E+00 0. -1.
         11    1    3    3    0    0 -0.11768337231E+02  0.13944467320E+02  0.87561825151E+00  0.18267693823E+02  0.51100000000E-03 0. -1.
        -11    1    3    3    0    0 -0.13309916122E+02  0.16733731214E+02 -0.47652658495E+01  0.21906149511E+02  0.51100000000E-03 0.  1.
         12    1    3    3    0    0  0.81767063317E+01  0.56843409144E+01 -0.28384250063E+01  0.10355042954E+02  0.00000000000E+00 0. -1.
</event>
<event>
 7    1  0.4374874E-012  0.5052887E+02  0.7816164E-02  0.1300439E+00
        -11   -1    0    0    0    0  0.00000000000E+00  0.00000000000E+00  0.45593999997E+02  0.45594000000E+02  0.51100000000E-03 0. -1.
         11   -1    0    0    0    0 -0.00000000000E+00 -0.00000000000E+00 -0.45593999997E+02  0.45594000000E+02  0.51100000000E-03 0.  1.
    9900012    2    1    2    0    0  0.29648056920E+02  0.15996907432E+02  0.22765241976E+02  0.50528873487E+02  0.30000041452E+02 0.  0.
        -12    1    1    2    0    0 -0.29648056920E+02 -0.15996907432E+02 -0.22765241976E+02  0.40659126513E+02  0.00000000000E+00 0.  1.
         11    1    3    3    0    0  0.20579248177E+02  0.49015998769E+01  0.13109749074E+02  0.24887680846E+02  0.51100000000E-03 0. -1.
        -11    1    3    3    0    0  0.12655878685E+02  0.14184545001E+02  0.74304761416E+01  0.20410403184E+02  0.51100000000E-03 0.  1.
        -12    1    3    3    0    0 -0.35870699410E+01 -0.30892374459E+01  0.22250167604E+01  0.52307894569E+01  0.00000000000E+00 0.  1.
</event>
<event>
 7    1  0.4374874E-012  0.5052885E+02  0.7816164E-02  0.1300439E+00
        -11   -1    0    0    0    0  0.00000000000E+00  0.00000000000E+00  0.45593999997E+02  0.45594000000E+02  0.51100000000E-03 0. -1.
         11   -1    0    0    0    0 -0.00000000000E+00 -0.00000000000E+00 -0.45593999997E+02  0.45594000000E+02  0.51100000000E-03 0.  1.
    9900012    2    1    2    0    0  0.89272649399E+01 -0.17455917706E+02 -0.35619677745E+02  0.50528848940E+02  0.29999966838E+02 0.  0.
         12    1    1    2    0    0 -0.89272649399E+01  0.17455917706E+02  0.35619677745E+02  0.40659151060E+02  0.00000000000E+00 0. -1.
         11    1    3    3    0    0  0.24913489411E+01 -0.26593370664E+01  0.21511753915E+01  0.42316012342E+01  0.51100000000E-03 0. -1.
        -11    1    3    3    0    0  0.36833776630E+01  0.46616892175E+01 -0.38028929259E+01  0.70541202312E+01  0.51100000000E-03 0.  1.
        -12    1    3    3    0    0  0.27525383357E+01 -0.19458269857E+02 -0.33967960211E+02  0.39243127475E+02  0.00000000000E+00 0.  1.
</event>
<event>
 7    1  0.4374874E-012  0.5052886E+02  0.7816164E-02  0.1300439E+00
        -11   -1    0    0    0    0  0.00000000000E+00  0.00000000000E+00  0.45593999997E+02  0.45594000000E+02  0.51100000000E-03 0. -1.
         11   -1    0    0    0    0 -0.00000000000E+00 -0.00000000000E+00 -0.45593999997E+02  0.45594000000E+02  0.51100000000E-03 0.  1.
    9900012    2    1    2    0    0 -0.15744086915E+02  0.17745968849E+02  0.33020744834E+02  0.50528864833E+02  0.30000015145E+02 0.  0.
        -12    1    1    2    0    0  0.15744086915E+02 -0.17745968849E+02 -0.33020744834E+02  0.40659135167E+02  0.00000000000E+00 0.  1.
         11    1    3    3    0    0 -0.49256318268E+00  0.42231867483E+01  0.23437517043E+01  0.48550074266E+01  0.51100000000E-03 0. -1.
        -11    1    3    3    0    0 -0.12343742658E+02 -0.62181149656E+01  0.11195965388E+02  0.17787146420E+02  0.51100000000E-03 0.  1.
        -12    1    3    3    0    0 -0.29077810746E+01  0.19740897066E+02  0.19481027741E+02  0.27886710986E+02  0.00000000000E+00 0.  1.
</event>
<event>
 7    1  0.4374874E-012  0.5052887E+02  0.7816164E-02  0.1300439E+00
        -11   -1    0    0    0    0  0.00000000000E+00  0.00000000000E+00  0.45593999997E+02  0.45594000000E+02  0.51100000000E-03 0. -1.
         11   -1    0    0    0    0 -0.00000000000E+00 -0.00000000000E+00 -0.45593999997E+02  0.45594000000E+02  0.51100000000E-03 0.  1.
    9900012    2    1    2    0    0  0.16809311131E+02 -0.32089386288E+02 -0.18463018999E+02  0.50528871583E+02  0.30000035665E+02 0.  0.
         12    1    1    2    0    0 -0.16809311131E+02  0.32089386288E+02  0.18463018999E+02  0.40659128417E+02  0.00000000000E+00 0. -1.
         11    1    3    3    0    0 -0.44043736816E+01 -0.84437152658E+01  0.30920842999E+01  0.10012782860E+02  0.51100000000E-03 0. -1.
        -11    1    3    3    0    0  0.98954327546E+01 -0.19831338877E+02 -0.16052674174E+02  0.27365853530E+02  0.51100000000E-03 0.  1.
        -12    1    3    3    0    0  0.11318252058E+02 -0.38143321456E+01 -0.55024291244E+01  0.13150235193E+02  0.00000000000E+00 0.  1.
</event>
<event>
 7    1  0.4374874E-012  0.5052885E+02  0.7816164E-02  0.1300439E+00
        -11   -1    0    0    0    0  0.00000000000E+00  0.00000000000E+00  0.45593999997E+02  0.45594000000E+02  0.51100000000E-03 0. -1.
         11   -1    0    0    0    0 -0.00000000000E+00 -0.00000000000E+00 -0.45593999997E+02  0.45594000000E+02  0.51100000000E-03 0.  1.
    9900012    2    1    2    0    0  0.10347031942E+02 -0.97471372992E+01  0.38093291867E+02  0.50528848007E+02  0.29999964003E+02 0.  0.
        -12    1    1    2    0    0 -0.10347031942E+02  0.97471372992E+01 -0.38093291867E+02  0.40659151993E+02  0.00000000000E+00 0.  1.
         11    1    3    3    0    0  0.32357246314E+01  0.57680425589E+00  0.30368685228E+02  0.30546025270E+02  0.51100000000E-03 0. -1.
        -11    1    3    3    0    0 -0.32664066309E+01 -0.58402045714E+01  0.50025691844E+01  0.83548249784E+01  0.51100000000E-03 0.  1.
         12    1    3    3    0    0  0.10377713941E+02 -0.44837369836E+01  0.27220374541E+01  0.11627997759E+02  0.00000000000E+00 0. -1.
</event>
<event>
 7    1  0.4374874E-012  0.5052885E+02  0.7816164E-02  0.1300439E+00
        -11   -1    0    0    0    0  0.00000000000E+00  0.00000000000E+00  0.45593999997E+02  0.45594000000E+02  0.51100000000E-03 0.  1.
         11   -1    0    0    0    0 -0.00000000000E+00 -0.00000000000E+00 -0.45593999997E+02  0.45594000000E+02  0.51100000000E-03 0. -1.
    9900012    2    1    2    0    0  0.19417625051E+02  0.33203125718E+02 -0.13178560615E+02  0.50528853674E+02  0.29999981228E+02 0.  0.
         12    1    1    2    0    0 -0.19417625051E+02 -0.33203125718E+02  0.13178560615E+02  0.40659146326E+02  0.00000000000E+00 0. -1.
         11    1    3    3    0    0 -0.41405293044E+00  0.24348069385E+01  0.50708067376E+01  0.56402842028E+01  0.51100000000E-03 0. -1.
        -11    1    3    3    0    0  0.12906035292E+02  0.91329888918E+01 -0.98486667250E-01  0.15810975079E+02  0.51100000000E-03 0.  1.
         12    1    3    3    0    0  0.69256426893E+01  0.21635329888E+02 -0.18150880685E+02  0.29077594393E+02  0.00000000000E+00 0. -1.
</event>
<event>
 7    1  0.4374874E-012  0.5052887E+02  0.7816164E-02  0.1300439E+00
        -11   -1    0    0    0    0  0.00000000000E+00  0.00000000000E+00  0.45593999997E+02  0.45594000000E+02  0.51100000000E-03 0. -1.
         11   -1    0    0    0    0 -0.00000000000E+00 -0.00000000000E+00 -0.45593999997E+02  0.45594000000E+02  0.51100000000E-03 0.  1.
    9900012    2    1    2    0    0 -0.12929827751E+02 -0.15465216998E+02 -0.35310222065E+02  0.50528866158E+02  0.30000019175E+02 0.  0.
         12    1    1    2    0    0  0.12929827751E+02  0.15465216998E+02  0.35310222065E+02  0.40659133842E+02  0.00000000000E+00 0. -1.
         11    1    3    3    0    0 -0.85634896090E+01 -0.36721189251E+01 -0.18390765017E+02  0.20616450952E+02  0.51100000000E-03 0. -1.
        -11    1    3    3    0    0 -0.91093674231E-01 -0.16646881606E+02 -0.16487290191E+02  0.23429846422E+02  0.51100000000E-03 0.  1.
         12    1    3    3    0    0 -0.42752444679E+01  0.48537835334E+01 -0.43216685724E+00  0.64825687842E+01  0.00000000000E+00 0. -1.
</event>
<event>
 7    1  0.4374874E-012  0.5052886E+02  0.7816164E-02  0.1300439E+00
        -11   -1    0    0    0    0  0.00000000000E+00  0.00000000000E+00  0.45593999997E+02  0.45594000000E+02  0.51100000000E-03 0. -1.
         11   -1    0    0    0    0 -0.00000000000E+00 -0.00000000000E+00 -0.45593999997E+02  0.45594000000E+02  0.51100000000E-03 0.  1.
    9900012    2    1    2    0    0  0.36065049345E+02  0.16047877070E+02  0.97438956148E+01  0.50528860259E+02  0.30000001244E+02 0.  0.
        -12    1    1    2    0    0 -0.36065049345E+02 -0.16047877070E+02 -0.97438956148E+01  0.40659139741E+02  0.00000000000E+00 0.  1.
         11    1    3    3    0    0  0.11156125477E+02  0.45261660236E+01  0.92482769743E+01  0.15181434115E+02  0.51100000000E-03 0. -1.
        -11    1    3    3    0    0  0.20468048962E+02 -0.13034100002E+01  0.48846851576E+01  0.21083169954E+02  0.51100000000E-03 0.  1.
        -12    1    3    3    0    0  0.44408749056E+01  0.12825121046E+02 -0.43890665170E+01  0.14264256191E+02  0.00000000000E+00 0.  1.
</event>
<event>
 7    1  0.4374874E-012  0.5052886E+02  0.7816164E-02  0.1300439E+00
        -11   -1    0    0    0    0  0.00000000000E+00  0.00000000000E+00  0.45593999997E+02  0.45594000000E+02  0.51100000000E-03 0. -1.
         11   -1    0    0    0    0 -0.00000000000E+00 -0.00000000000E+00 -0.45593999997E+02  0.45594000000E+02  0.51100000000E-03 0.  1.
    9900012    2    1    2    0    0 -0.31006748183E+02 -0.25362721478E+02 -0.69627032319E+01  0.50528864373E+02  0.30000013747E+02 0.  0.
         12    1    1    2    0    0  0.31006748183E+02  0.25362721478E+02  0.69627032319E+01  0.40659135627E+02  0.00000000000E+00 0. -1.
         11    1    3    3    0    0 -0.19423644528E+01 -0.50531643584E+01 -0.24189171960E-01  0.54136711275E+01  0.51100000000E-03 0. -1.
        -11    1    3    3    0    0 -0.27546051733E+02 -0.77488648462E+01  0.33462629534E+01  0.28810195218E+02  0.51100000000E-03 0.  1.
        -12    1    3    3    0    0 -0.15183319972E+01 -0.12560692273E+02 -0.10284777013E+02  0.16304998027E+02  0.00000000000E+00 0.  1.
</event>
<event>
 7    1  0.1068351E-011  0.5052887E+02  0.7816164E-02  0.1300439E+00
        -11   -1    0    0    0    0  0.00000000000E+00  0.00000000000E+00  0.45593999997E+02  0.45594000000E+02  0.51100000000E-03 0. -1.
         11   -1    0    0    0    0 -0.00000000000E+00 -0.00000000000E+00 -0.45593999997E+02  0.45594000000E+02  0.51100000000E-03 0.  1.
    9900012    2    1    2    0    0 -0.47002593496E+01 -0.32523248646E+02 -0.23943902264E+02  0.50528873151E+02  0.30000040431E+02 0.  0.
         12    1    1    2    0    0  0.47002593496E+01  0.32523248646E+02  0.23943902264E+02  0.40659126849E+02  0.00000000000E+00 0. -1.
         11    1    3    3    0    0  0.78341172856E+00 -0.17443116633E+01 -0.11735623133E+02  0.11890382992E+02  0.51100000000E-03 0. -1.
        -11    1    3    3    0    0 -0.63828491193E+00 -0.20377133143E+02 -0.16661733573E+02  0.26329609352E+02  0.51100000000E-03 0.  1.
         12    1    3    3    0    0 -0.48453861662E+01 -0.10401803841E+02  0.44534544425E+01  0.12308880807E+02  0.00000000000E+00 0. -1.
</event>
<event>
 7    1  0.4374874E-012  0.5052886E+02  0.7816164E-02  0.1300439E+00
        -11   -1    0    0    0    0  0.00000000000E+00  0.00000000000E+00  0.45593999997E+02  0.45594000000E+02  0.51100000000E-03 0.  1.
         11   -1    0    0    0    0 -0.00000000000E+00 -0.00000000000E+00 -0.45593999997E+02  0.45594000000E+02  0.51100000000E-03 0. -1.
    9900012    2    1    2    0    0  0.40454734749E+02 -0.23415760169E+01 -0.33312165403E+01  0.50528861476E+02  0.30000004944E+02 0.  0.
        -12    1    1    2    0    0 -0.40454734749E+02  0.23415760169E+01  0.33312165403E+01  0.40659138524E+02  0.00000000000E+00 0.  1.
         11    1    3    3    0    0  0.10344453803E+02 -0.71752410080E+01  0.32031551312E+01  0.12990458462E+02  0.51100000000E-03 0.  1.
        -11    1    3    3    0    0  0.31605061616E+02  0.80659450555E+01 -0.34008685725E+01  0.32794897419E+02  0.51100000000E-03 0. -1.
         12    1    3    3    0    0 -0.14947806698E+01 -0.32322800644E+01 -0.31335030990E+01  0.47435055958E+01  0.00000000000E+00 0. -1.
</event>
<event>
 7    1  0.4374874E-012  0.5052886E+02  0.7816164E-02  0.1300439E+00
        -11   -1    0    0    0    0  0.00000000000E+00  0.00000000000E+00  0.45593999997E+02  0.45594000000E+02  0.51100000000E-03 0. -1.
         11   -1    0    0    0    0 -0.00000000000E+00 -0.00000000000E+00 -0.45593999997E+02  0.45594000000E+02  0.51100000000E-03 0.  1.
    9900012    2    1    2    0    0  0.27672959503E+02  0.28897676489E+02  0.72316943531E+01  0.50528858379E+02  0.29999995529E+02 0.  0.
        -12    1    1    2    0    0 -0.27672959503E+02 -0.28897676489E+02 -0.72316943531E+01  0.40659141621E+02  0.00000000000E+00 0.  1.
         11    1    3    3    0    0  0.18628258617E+02  0.11947907807E+01  0.52087312224E+01  0.19379639452E+02  0.51100000000E-03 0. -1.
        -11    1    3    3    0    0 -0.33196393210E+00 -0.91242802192E+00  0.49718820008E-01  0.97221251256E+00  0.51100000000E-03 0.  1.
         12    1    3    3    0    0  0.93766648185E+01  0.28615313730E+02  0.19732443106E+01  0.30177006414E+02  0.00000000000E+00 0. -1.
</event>
<event>
 7    1  0.4374874E-012  0.5052883E+02  0.7816164E-02  0.1300439E+00
        -11   -1    0    0    0    0  0.00000000000E+00  0.00000000000E+00  0.45593999997E+02  0.45594000000E+02  0.51100000000E-03 0. -1.
         11   -1    0    0    0    0 -0.00000000000E+00 -0.00000000000E+00 -0.45593999997E+02  0.45594000000E+02  0.51100000000E-03 0.  1.
    9900012    2    1    2    0    0  0.43570598809E+01  0.65967836290E+01  0.39883156747E+02  0.50528834771E+02  0.29999923769E+02 0.  0.
        -12    1    1    2    0    0 -0.43570598809E+01 -0.65967836290E+01 -0.39883156747E+02  0.40659165229E+02  0.00000000000E+00 0.  1.
         11    1    3    3    0    0 -0.50207383850E+01  0.69949607378E+01  0.55232911809E+01  0.10229566725E+02  0.51100000000E-03 0. -1.
        -11    1    3    3    0    0 -0.51119961234E+01 -0.34082564408E+01  0.82429120376E+01  0.10280774069E+02  0.51100000000E-03 0.  1.
        -12    1    3    3    0    0  0.14489794389E+02  0.30100793320E+01  0.26116953528E+02  0.30018493977E+02  0.00000000000E+00 0.  1.
</event>
<event>
 7    1  0.4374874E-012  0.5052886E+02  0.7816164E-02  0.1300439E+00
        -11   -1    0    0    0    0  0.00000000000E+00  0.00000000000E+00  0.45593999997E+02  0.45594000000E+02  0.51100000000E-03 0. -1.
         11   -1    0    0    0    0 -0.00000000000E+00 -0.00000000000E+00 -0.45593999997E+02  0.45594000000E+02  0.51100000000E-03 0.  1.
    9900012    2    1    2    0    0  0.74962411345E+01  0.38094322123E+02 -0.12074529918E+02  0.50528864718E+02  0.30000014797E+02 0.  0.
         12    1    1    2    0    0 -0.74962411345E+01 -0.38094322123E+02  0.12074529918E+02  0.40659135282E+02  0.00000000000E+00 0. -1.
         11    1    3    3    0    0  0.30137668410E+01  0.13663465700E+02  0.18537251713E+01  0.14114155404E+02  0.51100000000E-03 0. -1.
        -11    1    3    3    0    0 -0.87695343259E+01  0.96944681662E+01 -0.18421563402E+01  0.13201552392E+02  0.51100000000E-03 0.  1.
         12    1    3    3    0    0  0.13252008619E+02  0.14736388257E+02 -0.12086098749E+02  0.23213156922E+02  0.00000000000E+00 0. -1.
</event>
<event>
 7    1  0.8215793E-012  0.5052886E+02  0.7816164E-02  0.1300439E+00
        -11   -1    0    0    0    0  0.00000000000E+00  0.00000000000E+00  0.45593999997E+02  0.45594000000E+02  0.51100000000E-03 0. -1.
         11   -1    0    0    0    0 -0.00000000000E+00 -0.00000000000E+00 -0.45593999997E+02  0.45594000000E+02  0.51100000000E-03 0.  1.
    9900012    2    1    2    0    0  0.22536199193E+01 -0.88412278308E+01 -0.39622206204E+02  0.50528864043E+02  0.30000012746E+02 0.  0.
         12    1    1    2    0    0 -0.22536199193E+01  0.88412278308E+01  0.39622206204E+02  0.40659135957E+02  0.00000000000E+00 0. -1.
         11    1    3    3    0    0 -0.37576280305E+01 -0.36975557264E+01 -0.19017378700E+02  0.19734547871E+02  0.51100000000E-03 0.  1.
        -11    1    3    3    0    0  0.51707232171E+01 -0.11460804827E+02 -0.20926706649E+02  0.24413387256E+02  0.51100000000E-03 0. -1.
         12    1    3    3    0    0  0.84052473271E+00  0.63171327224E+01  0.32187914544E+00  0.63809289169E+01  0.00000000000E+00 0. -1.
</event>
<event>
 7    1  0.4374874E-012  0.5052886E+02  0.7816164E-02  0.1300439E+00
        -11   -1    0    0    0    0  0.00000000000E+00  0.00000000000E+00  0.45593999997E+02  0.45594000000E+02  0.51100000000E-03 0. -1.
         11   -1    0    0    0    0 -0.00000000000E+00 -0.00000000000E+00 -0.45593999997E+02  0.45594000000E+02  0.51100000000E-03 0.  1.
    9900012    2    1    2    0    0  0.28477895076E+02  0.34486088484E+01  0.28814622025E+02  0.50528857690E+02  0.29999993435E+02 0.  0.
        -12    1    1    2    0    0 -0.28477895076E+02 -0.34486088484E+01 -0.28814622025E+02  0.40659142310E+02  0.00000000000E+00 0.  1.
         11    1    3    3    0    0 -0.21477621874E+01  0.39703074357E+01  0.41884875385E+01  0.61578934441E+01  0.51100000000E-03 0. -1.
        -11    1    3    3    0    0  0.38007843010E+01 -0.23623974110E+01 -0.33336658279E+01  0.55803414720E+01  0.51100000000E-03 0.  1.
         12    1    3    3    0    0  0.26824872962E+02  0.18406988237E+01  0.27959800314E+02  0.38790622774E+02  0.00000000000E+00 0. -1.
</event>
<event>
 7    1  0.4374874E-012  0.5052886E+02  0.7816164E-02  0.1300439E+00
        -11   -1    0    0    0    0  0.00000000000E+00  0.00000000000E+00  0.45593999997E+02  0.45594000000E+02  0.51100000000E-03 0. -1.
         11   -1    0    0    0    0 -0.00000000000E+00 -0.00000000000E+00 -0.45593999997E+02  0.45594000000E+02  0.51100000000E-03 0.  1.
    9900012    2    1    2    0    0  0.17605156704E+01 -0.31920573334E+02  0.25122559356E+02  0.50528863192E+02  0.30000010158E+02 0.  0.
        -12    1    1    2    0    0 -0.17605156704E+01  0.31920573334E+02 -0.25122559356E+02  0.40659136808E+02  0.00000000000E+00 0.  1.
         11    1    3    3    0    0  0.79304068769E+01 -0.13051457200E+02  0.95156009932E+00  0.15301547476E+02  0.51100000000E-03 0.  1.
        -11    1    3    3    0    0 -0.41248440038E+01 -0.16687018479E+02  0.83205156651E+01  0.19097170078E+02  0.51100000000E-03 0. -1.
        -12    1    3    3    0    0 -0.20450472027E+01 -0.21820976550E+01  0.15850483591E+02  0.16130145638E+02  0.00000000000E+00 0.  1.
</event>
<event>
 7    1  0.4374874E-012  0.5052886E+02  0.7816164E-02  0.1300439E+00
        -11   -1    0    0    0    0  0.00000000000E+00  0.00000000000E+00  0.45593999997E+02  0.45594000000E+02  0.51100000000E-03 0. -1.
         11   -1    0    0    0    0 -0.00000000000E+00 -0.00000000000E+00 -0.45593999997E+02  0.45594000000E+02  0.51100000000E-03 0.  1.
    9900012    2    1    2    0    0  0.26670404568E+02 -0.14497970092E+02 -0.27049291195E+02  0.50528858705E+02  0.29999996521E+02 0.  0.
         12    1    1    2    0    0 -0.26670404568E+02  0.14497970092E+02  0.27049291195E+02  0.40659141295E+02  0.00000000000E+00 0. -1.
         11    1    3    3    0    0  0.72891437001E+01 -0.72575095609E+01 -0.19700274399E+02  0.22223948177E+02  0.51100000000E-03 0. -1.
        -11    1    3    3    0    0  0.37629144176E+00  0.40292605179E+01 -0.44589970558E+01  0.60215604767E+01  0.51100000000E-03 0.  1.
         12    1    3    3    0    0  0.19004969426E+02 -0.11269721049E+02 -0.28900197404E+01  0.22283350052E+02  0.00000000000E+00 0. -1.
</event>
<event>
 7    1  0.4374874E-012  0.5052891E+02  0.7816164E-02  0.1300439E+00
        -11   -1    0    0    0    0  0.00000000000E+00  0.00000000000E+00  0.45593999997E+02  0.45594000000E+02  0.51100000000E-03 0. -1.
         11   -1    0    0    0    0 -0.00000000000E+00 -0.00000000000E+00 -0.45593999997E+02  0.45594000000E+02  0.51100000000E-03 0.  1.
    9900012    2    1    2    0    0  0.20280129177E+02 -0.41775308596E+01  0.34991805683E+02  0.50528906694E+02  0.30000142386E+02 0.  0.
        -12    1    1    2    0    0 -0.20280129177E+02  0.41775308596E+01 -0.34991805683E+02  0.40659093306E+02  0.00000000000E+00 0.  1.
         11    1    3    3    0    0  0.14964835669E+02 -0.64027572864E+01  0.30298581095E+02  0.34393976567E+02  0.51100000000E-03 0. -1.
        -11    1    3    3    0    0  0.94880204343E+01  0.16306606189E+01  0.64292214155E+01  0.11576548453E+02  0.51100000000E-03 0.  1.
         12    1    3    3    0    0 -0.41727269264E+01  0.59456580786E+00 -0.17359968269E+01  0.45583816739E+01  0.00000000000E+00 0. -1.
</event>
<event>
 7    1  0.4374874E-012  0.5052883E+02  0.7816164E-02  0.1300439E+00
        -11   -1    0    0    0    0  0.00000000000E+00  0.00000000000E+00  0.45593999997E+02  0.45594000000E+02  0.51100000000E-03 0. -1.
         11   -1    0    0    0    0 -0.00000000000E+00 -0.00000000000E+00 -0.45593999997E+02  0.45594000000E+02  0.51100000000E-03 0.  1.
    9900012    2    1    2    0    0  0.11518062938E+02 -0.38769523293E+02  0.41744576520E+01  0.50528833666E+02  0.29999920413E+02 0.  0.
        -12    1    1    2    0    0 -0.11518062938E+02  0.38769523293E+02 -0.41744576520E+01  0.40659166334E+02  0.00000000000E+00 0.  1.
         11    1    3    3    0    0  0.30601658994E+01 -0.95530546067E+01  0.91965311195E-01  0.10031646202E+02  0.51100000000E-03 0. -1.
        -11    1    3    3    0    0  0.31765231244E+01 -0.25855183360E+02 -0.76923360555E+01  0.27161605991E+02  0.51100000000E-03 0.  1.
        -12    1    3    3    0    0  0.52813739144E+01 -0.33612853266E+01  0.11774828396E+02  0.13335581473E+02  0.00000000000E+00 0.  1.
</event>
<event>
 7    1  0.4374874E-012  0.5052887E+02  0.7816164E-02  0.1300439E+00
        -11   -1    0    0    0    0  0.00000000000E+00  0.00000000000E+00  0.45593999997E+02  0.45594000000E+02  0.51100000000E-03 0.  1.
         11   -1    0    0    0    0 -0.00000000000E+00 -0.00000000000E+00 -0.45593999997E+02  0.45594000000E+02  0.51100000000E-03 0. -1.
    9900012    2    1    2    0    0  0.65918614583E+01 -0.39888869149E+02  0.43116891213E+01  0.50528865939E+02  0.30000018509E+02 0.  0.
        -12    1    1    2    0    0 -0.65918614583E+01  0.39888869149E+02 -0.43116891213E+01  0.40659134061E+02  0.00000000000E+00 0.  1.
         11    1    3    3    0    0  0.12565033008E+02 -0.22655142991E+02  0.49317528382E+01  0.26371532848E+02  0.51100000000E-03 0.  1.
        -11    1    3    3    0    0  0.39674488897E+00 -0.69385721892E+01  0.69905409421E+01  0.98574263100E+01  0.51100000000E-03 0. -1.
         12    1    3    3    0    0 -0.63699164385E+01 -0.10295153969E+02 -0.76106046590E+01  0.14299906781E+02  0.00000000000E+00 0. -1.
</event>
<event>
 7    1  0.4374874E-012  0.5052886E+02  0.7816164E-02  0.1300439E+00
        -11   -1    0    0    0    0  0.00000000000E+00  0.00000000000E+00  0.45593999997E+02  0.45594000000E+02  0.51100000000E-03 0. -1.
         11   -1    0    0    0    0 -0.00000000000E+00 -0.00000000000E+00 -0.45593999997E+02  0.45594000000E+02  0.51100000000E-03 0.  1.
    9900012    2    1    2    0    0  0.16439467141E+02 -0.61507637442E+01 -0.36675303140E+02  0.50528857917E+02  0.29999994124E+02 0.  0.
         12    1    1    2    0    0 -0.16439467141E+02  0.61507637442E+01  0.36675303140E+02  0.40659142083E+02  0.00000000000E+00 0. -1.
         11    1    3    3    0    0 -0.12299950836E+01  0.16966181975E+01 -0.81133265903E+00  0.22471453354E+01  0.51100000000E-03 0. -1.
        -11    1    3    3    0    0  0.12910020163E+01 -0.11492934813E+02 -0.26849239991E+02  0.29234156824E+02  0.51100000000E-03 0.  1.
        -12    1    3    3    0    0  0.16378460208E+02  0.36455528714E+01 -0.90147304901E+01  0.19047555758E+02  0.00000000000E+00 0.  1.
</event>
<event>
 7    1  0.4374874E-012  0.5052886E+02  0.7816164E-02  0.1300439E+00
        -11   -1    0    0    0    0  0.00000000000E+00  0.00000000000E+00  0.45593999997E+02  0.45594000000E+02  0.51100000000E-03 0. -1.
         11   -1    0    0    0    0 -0.00000000000E+00 -0.00000000000E+00 -0.45593999997E+02  0.45594000000E+02  0.51100000000E-03 0.  1.
    9900012    2    1    2    0    0  0.70374970283E+01 -0.20782950111E+02 -0.34230228033E+02  0.50528857228E+02  0.29999992031E+02 0.  0.
         12    1    1    2    0    0 -0.70374970283E+01  0.20782950111E+02  0.34230228033E+02  0.40659142772E+02  0.00000000000E+00 0. -1.
         11    1    3    3    0    0 -0.99524284026E+01 -0.14997950020E+02 -0.18913182466E+02  0.26109343293E+02  0.51100000000E-03 0.  1.
        -11    1    3    3    0    0  0.64952456642E+01 -0.52793672113E+01 -0.53278151943E+01  0.99219730596E+01  0.51100000000E-03 0. -1.
        -12    1    3    3    0    0  0.10494679767E+02 -0.50563287957E+00 -0.99892303726E+01  0.14497540876E+02  0.00000000000E+00 0.  1.
</event>
<event>
 7    1  0.4374874E-012  0.5052886E+02  0.7816164E-02  0.1300439E+00
        -11   -1    0    0    0    0  0.00000000000E+00  0.00000000000E+00  0.45593999997E+02  0.45594000000E+02  0.51100000000E-03 0. -1.
         11   -1    0    0    0    0 -0.00000000000E+00 -0.00000000000E+00 -0.45593999997E+02  0.45594000000E+02  0.51100000000E-03 0.  1.
    9900012    2    1    2    0    0  0.24115352958E+01  0.11310462234E+02 -0.38979783510E+02  0.50528861041E+02  0.30000003620E+02 0.  0.
         12    1    1    2    0    0 -0.24115352958E+01 -0.11310462234E+02  0.38979783510E+02  0.40659138959E+02  0.00000000000E+00 0. -1.
         11    1    3    3    0    0  0.57648481013E+01  0.13027610768E+02 -0.25913401770E+02  0.29571210789E+02  0.51100000000E-03 0. -1.
        -11    1    3    3    0    0  0.13554658717E+00 -0.44682966429E+01 -0.15331893465E+02  0.15970316379E+02  0.51100000000E-03 0.  1.
        -12    1    3    3    0    0 -0.34888593927E+01  0.27511481087E+01  0.22655117256E+01  0.49873338726E+01  0.00000000000E+00 0.  1.
</event>
<event>
 7    1  0.4374874E-012  0.5052887E+02  0.7816164E-02  0.1300439E+00
        -11   -1    0    0    0    0  0.00000000000E+00  0.00000000000E+00  0.45593999997E+02  0.45594000000E+02  0.51100000000E-03 0. -1.
         11   -1    0    0    0    0 -0.00000000000E+00 -0.00000000000E+00 -0.45593999997E+02  0.45594000000E+02  0.51100000000E-03 0.  1.
    9900012    2    1    2    0    0  0.30186335135E+02 -0.18204455274E+02 -0.20261977523E+02  0.50528871212E+02  0.30000034534E+02 0.  0.
         12    1    1    2    0    0 -0.30186335135E+02  0.18204455274E+02  0.20261977523E+02  0.40659128788E+02  0.00000000000E+00 0. -1.
         11    1    3    3    0    0  0.87178272923E+01 -0.50697616730E+01  0.18527055135E+01  0.10253561045E+02  0.51100000000E-03 0. -1.
        -11    1    3    3    0    0  0.22731430392E+02 -0.15995518440E+02 -0.13088361170E+02  0.30722625802E+02  0.51100000000E-03 0.  1.
         12    1    3    3    0    0 -0.12629225495E+01  0.28608248385E+01 -0.90263218666E+01  0.95526843642E+01  0.00000000000E+00 0. -1.
</event>
<event>
 7    1  0.4374874E-012  0.5052887E+02  0.7816164E-02  0.1300439E+00
        -11   -1    0    0    0    0  0.00000000000E+00  0.00000000000E+00  0.45593999997E+02  0.45594000000E+02  0.51100000000E-03 0. -1.
         11   -1    0    0    0    0 -0.00000000000E+00 -0.00000000000E+00 -0.45593999997E+02  0.45594000000E+02  0.51100000000E-03 0.  1.
    9900012    2    1    2    0    0 -0.11550651026E+02 -0.26298672125E+02 -0.28777196190E+02  0.50528871686E+02  0.30000035978E+02 0.  0.
         12    1    1    2    0    0  0.11550651026E+02  0.26298672125E+02  0.28777196190E+02  0.40659128314E+02  0.00000000000E+00 0. -1.
         11    1    3    3    0    0  0.26937298311E+01 -0.13383848175E+02 -0.17722767593E+02  0.22371411752E+02  0.51100000000E-03 0. -1.
        -11    1    3    3    0    0 -0.78356045793E+01 -0.10599039129E+02 -0.15248613249E+02  0.20155806505E+02  0.51100000000E-03 0.  1.
         12    1    3    3    0    0 -0.64087762775E+01 -0.23157848209E+01  0.41941846515E+01  0.80016534293E+01  0.00000000000E+00 0. -1.
</event>
<event>
 7    1  0.4374874E-012  0.5052886E+02  0.7816164E-02  0.1300439E+00
        -11   -1    0    0    0    0  0.00000000000E+00  0.00000000000E+00  0.45593999997E+02  0.45594000000E+02  0.51100000000E-03 0. -1.
         11   -1    0    0    0    0 -0.00000000000E+00 -0.00000000000E+00 -0.45593999997E+02  0.45594000000E+02  0.51100000000E-03 0.  1.
    9900012    2    1    2    0    0  0.25643396412E+02  0.29727844265E+02  0.10575327077E+02  0.50528855310E+02  0.29999986199E+02 0.  0.
        -12    1    1    2    0    0 -0.25643396412E+02 -0.29727844265E+02 -0.10575327077E+02  0.40659144690E+02  0.00000000000E+00 0.  1.
         11    1    3    3    0    0  0.39842232348E+01  0.12052317679E+02 -0.47494626200E+00  0.12702675719E+02  0.51100000000E-03 0. -1.
        -11    1    3    3    0    0  0.17297734526E+02 -0.10933533488E+00  0.20409726716E+01  0.17418069458E+02  0.51100000000E-03 0.  1.
         12    1    3    3    0    0  0.43614386514E+01  0.17784861921E+02  0.90093006670E+01  0.20408110132E+02  0.00000000000E+00 0. -1.
</event>
<event>
 7    1  0.4374874E-012  0.5052884E+02  0.7816164E-02  0.1300439E+00
        -11   -1    0    0    0    0  0.00000000000E+00  0.00000000000E+00  0.45593999997E+02  0.45594000000E+02  0.51100000000E-03 0. -1.
         11   -1    0    0    0    0 -0.00000000000E+00 -0.00000000000E+00 -0.45593999997E+02  0.45594000000E+02  0.51100000000E-03 0.  1.
    9900012    2    1    2    0    0 -0.16181913202E+02  0.89357319837E+01 -0.36214159027E+02  0.50528844390E+02  0.29999953006E+02 0.  0.
         12    1    1    2    0    0  0.16181913202E+02 -0.89357319837E+01  0.36214159027E+02  0.40659155610E+02  0.00000000000E+00 0. -1.
         11    1    3    3    0    0 -0.65428215328E+01 -0.68869735483E+01 -0.38820033031E+01  0.10262010922E+02  0.51100000000E-03 0. -1.
        -11    1    3    3    0    0 -0.60199042927E+01  0.36655391318E+01 -0.24185592710E+02  0.25191631940E+02  0.51100000000E-03 0.  1.
         12    1    3    3    0    0 -0.36191873763E+01  0.12157166400E+02 -0.81465630136E+01  0.15075201527E+02  0.00000000000E+00 0. -1.
</event>
<event>
 7    1  0.4374874E-012  0.5052890E+02  0.7816164E-02  0.1300439E+00
        -11   -1    0    0    0    0  0.00000000000E+00  0.00000000000E+00  0.45593999997E+02  0.45594000000E+02  0.51100000000E-03 0. -1.
         11   -1    0    0    0    0 -0.00000000000E+00 -0.00000000000E+00 -0.45593999997E+02  0.45594000000E+02  0.51100000000E-03 0.  1.
    9900012    2    1    2    0    0  0.19899908652E+02  0.23197429120E+02 -0.26814831415E+02  0.50528901805E+02  0.30000127528E+02 0.  0.
         12    1    1    2    0    0 -0.19899908652E+02 -0.23197429120E+02  0.26814831415E+02  0.40659098195E+02  0.00000000000E+00 0. -1.
         11    1    3    3    0    0  0.48278184998E+01  0.16407710329E+02 -0.15710833709E+02  0.23223933470E+02  0.51100000000E-03 0. -1.
        -11    1    3    3    0    0  0.14510066483E+02  0.12519912905E+02 -0.80424250183E+01  0.20783908413E+02  0.51100000000E-03 0.  1.
         12    1    3    3    0    0  0.56202366982E+00 -0.57301941141E+01 -0.30615726876E+01  0.65210599225E+01  0.00000000000E+00 0. -1.
</event>
<event>
 7    1  0.4374874E-012  0.5052886E+02  0.7816164E-02  0.1300439E+00
        -11   -1    0    0    0    0  0.00000000000E+00  0.00000000000E+00  0.45593999997E+02  0.45594000000E+02  0.51100000000E-03 0. -1.
         11   -1    0    0    0    0 -0.00000000000E+00 -0.00000000000E+00 -0.45593999997E+02  0.45594000000E+02  0.51100000000E-03 0.  1.
    9900012    2    1    2    0    0  0.27172682589E+02 -0.13059153945E+01  0.30217637314E+02  0.50528859589E+02  0.29999999206E+02 0.  0.
        -12    1    1    2    0    0 -0.27172682589E+02  0.13059153945E+01 -0.30217637314E+02  0.40659140411E+02  0.00000000000E+00 0.  1.
         11    1    3    3    0    0  0.16843859257E+02 -0.80402993030E+01  0.17075528389E+02  0.25296949966E+02  0.51100000000E-03 0. -1.
        -11    1    3    3    0    0  0.93868718373E+00 -0.18657581153E+01  0.12294261579E+02  0.12470407171E+02  0.51100000000E-03 0.  1.
        -12    1    3    3    0    0  0.93901361481E+01  0.86001420237E+01  0.84784734627E+00  0.12761502452E+02  0.00000000000E+00 0.  1.
</event>
<event>
 7    1  0.4374874E-012  0.5052886E+02  0.7816164E-02  0.1300439E+00
        -11   -1    0    0    0    0  0.00000000000E+00  0.00000000000E+00  0.45593999997E+02  0.45594000000E+02  0.51100000000E-03 0. -1.
         11   -1    0    0    0    0 -0.00000000000E+00 -0.00000000000E+00 -0.45593999997E+02  0.45594000000E+02  0.51100000000E-03 0.  1.
    9900012    2    1    2    0    0 -0.15653609746E+02 -0.70305088509E+01  0.36860575355E+02  0.50528861196E+02  0.30000004092E+02 0.  0.
        -12    1    1    2    0    0  0.15653609746E+02  0.70305088509E+01 -0.36860575355E+02  0.40659138804E+02  0.00000000000E+00 0.  1.
         11    1    3    3    0    0 -0.10449138862E+02 -0.33348953589E+01  0.97510809233E+01  0.14676157857E+02  0.51100000000E-03 0. -1.
        -11    1    3    3    0    0 -0.29258106702E+01 -0.94581817663E+01  0.27901154183E+02  0.29605607162E+02  0.51100000000E-03 0.  1.
        -12    1    3    3    0    0 -0.22786602132E+01  0.57625682743E+01 -0.79165975160E+00  0.62470961770E+01  0.00000000000E+00 0.  1.
</event>
<event>
 7    1  0.4374874E-012  0.5052886E+02  0.7816164E-02  0.1300439E+00
        -11   -1    0    0    0    0  0.00000000000E+00  0.00000000000E+00  0.45593999997E+02  0.45594000000E+02  0.51100000000E-03 0. -1.
         11   -1    0    0    0    0 -0.00000000000E+00 -0.00000000000E+00 -0.45593999997E+02  0.45594000000E+02  0.51100000000E-03 0.  1.
    9900012    2    1    2    0    0  0.26634007996E+01 -0.13873302221E+02 -0.38126152379E+02  0.50528859409E+02  0.29999998660E+02 0.  0.
         12    1    1    2    0    0 -0.26634007996E+01  0.13873302221E+02  0.38126152379E+02  0.40659140591E+02  0.00000000000E+00 0. -1.
         11    1    3    3    0    0 -0.35985138578E+00 -0.10545934897E+02 -0.51111440511E+01  0.11724761389E+02  0.51100000000E-03 0. -1.
        -11    1    3    3    0    0 -0.85409696336E+01 -0.13678676313E+01 -0.14660096054E+02  0.17021681489E+02  0.51100000000E-03 0.  1.
        -12    1    3    3    0    0  0.11564221819E+02 -0.19594996934E+01 -0.18354912275E+02  0.21782416531E+02  0.00000000000E+00 0.  1.
</event>
<event>
 7    1  0.4374874E-012  0.5052885E+02  0.7816164E-02  0.1300439E+00
        -11   -1    0    0    0    0  0.00000000000E+00  0.00000000000E+00  0.45593999997E+02  0.45594000000E+02  0.51100000000E-03 0. -1.
         11   -1    0    0    0    0 -0.00000000000E+00 -0.00000000000E+00 -0.45593999997E+02  0.45594000000E+02  0.51100000000E-03 0.  1.
    9900012    2    1    2    0    0 -0.38155126819E+02 -0.12494844117E+02 -0.64212075310E+01  0.50528846809E+02  0.29999960361E+02 0.  0.
         12    1    1    2    0    0  0.38155126819E+02  0.12494844117E+02  0.64212075310E+01  0.40659153191E+02  0.00000000000E+00 0. -1.
         11    1    3    3    0    0  0.25606978689E+01 -0.39877253306E+01 -0.47367682558E+01  0.67004552576E+01  0.51100000000E-03 0.  1.
        -11    1    3    3    0    0 -0.39678173012E+01 -0.14271665800E+01  0.41921832272E+01  0.59459884842E+01  0.51100000000E-03 0. -1.
        -12    1    3    3    0    0 -0.36748007386E+02 -0.70799522059E+01 -0.58766225023E+01  0.37882403067E+02  0.00000000000E+00 0.  1.
</event>
<event>
 7    1  0.4374874E-012  0.5052887E+02  0.7816164E-02  0.1300439E+00
        -11   -1    0    0    0    0  0.00000000000E+00  0.00000000000E+00  0.45593999997E+02  0.45594000000E+02  0.51100000000E-03 0. -1.
         11   -1    0    0    0    0 -0.00000000000E+00 -0.00000000000E+00 -0.45593999997E+02  0.45594000000E+02  0.51100000000E-03 0.  1.
    9900012    2    1    2    0    0 -0.47085864549E+01 -0.64582745800E+01 -0.39865838054E+02  0.50528866454E+02  0.30000020073E+02 0.  0.
         12    1    1    2    0    0  0.47085864549E+01  0.64582745800E+01  0.39865838054E+02  0.40659133546E+02  0.00000000000E+00 0. -1.
         11    1    3    3    0    0 -0.13525020469E+02  0.17847849265E+01 -0.15936472822E+02  0.20978150590E+02  0.51100000000E-03 0. -1.
        -11    1    3    3    0    0  0.27968779945E+01 -0.58997995854E+01 -0.22130220225E+01  0.68940284592E+01  0.51100000000E-03 0.  1.
        -12    1    3    3    0    0  0.60195560195E+01 -0.23432599211E+01 -0.21716343210E+02  0.22656687404E+02  0.00000000000E+00 0.  1.
</event>
<event>
 7    1  0.4374874E-012  0.5052887E+02  0.7816164E-02  0.1300439E+00
        -11   -1    0    0    0    0  0.00000000000E+00  0.00000000000E+00  0.45593999997E+02  0.45594000000E+02  0.51100000000E-03 0. -1.
         11   -1    0    0    0    0 -0.00000000000E+00 -0.00000000000E+00 -0.45593999997E+02  0.45594000000E+02  0.51100000000E-03 0.  1.
    9900012    2    1    2    0    0 -0.19102766485E+02  0.31080142604E+02  0.17951991976E+02  0.50528868583E+02  0.30000026546E+02 0.  0.
        -12    1    1    2    0    0  0.19102766485E+02 -0.31080142604E+02 -0.17951991976E+02  0.40659131417E+02  0.00000000000E+00 0.  1.
         11    1    3    3    0    0 -0.61703915220E+01 -0.11181505698E+01  0.79882740031E+01  0.10155614902E+02  0.51100000000E-03 0. -1.
        -11    1    3    3    0    0 -0.65192460969E+01  0.23969672378E+01 -0.25801923890E+01  0.74096838418E+01  0.51100000000E-03 0.  1.
        -12    1    3    3    0    0 -0.64131288657E+01  0.29801325936E+02  0.12543910361E+02  0.32963569839E+02  0.00000000000E+00 0.  1.
</event>
<event>
 7    1  0.4374874E-012  0.5052886E+02  0.7816164E-02  0.1300439E+00
        -11   -1    0    0    0    0  0.00000000000E+00  0.00000000000E+00  0.45593999997E+02  0.45594000000E+02  0.51100000000E-03 0. -1.
         11   -1    0    0    0    0 -0.00000000000E+00 -0.00000000000E+00 -0.45593999997E+02  0.45594000000E+02  0.51100000000E-03 0.  1.
    9900012    2    1    2    0    0 -0.20350567490E+02  0.30668867539E+01  0.35065854871E+02  0.50528861183E+02  0.30000004051E+02 0.  0.
        -12    1    1    2    0    0  0.20350567490E+02 -0.30668867539E+01 -0.35065854871E+02  0.40659138817E+02  0.00000000000E+00 0.  1.
         11    1    3    3    0    0 -0.16702236543E+02  0.64216263449E+01  0.21660543030E+02  0.28095927019E+02  0.51100000000E-03 0. -1.
        -11    1    3    3    0    0 -0.66106631530E+01  0.68604296875E+00 -0.14093557485E+01  0.67939536475E+01  0.51100000000E-03 0.  1.
         12    1    3    3    0    0  0.29623322058E+01 -0.40407825598E+01  0.14814667590E+02  0.15638980516E+02  0.00000000000E+00 0. -1.
</event>
<event>
 7    1  0.4374874E-012  0.5052886E+02  0.7816164E-02  0.1300439E+00
        -11   -1    0    0    0    0  0.00000000000E+00  0.00000000000E+00  0.45593999997E+02  0.45594000000E+02  0.51100000000E-03 0. -1.
         11   -1    0    0    0    0 -0.00000000000E+00 -0.00000000000E+00 -0.45593999997E+02  0.45594000000E+02  0.51100000000E-03 0.  1.
    9900012    2    1    2    0    0 -0.96413390077E+01  0.38495393511E+01 -0.39311469714E+02  0.50528855615E+02  0.29999987127E+02 0.  0.
         12    1    1    2    0    0  0.96413390077E+01 -0.38495393511E+01  0.39311469714E+02  0.40659144385E+02  0.00000000000E+00 0. -1.
         11    1    3    3    0    0 -0.13380476843E+02  0.97130048200E+01 -0.15182147303E+02  0.22447209630E+02  0.51100000000E-03 0. -1.
        -11    1    3    3    0    0  0.94214705618E+00  0.35453672551E+01 -0.11593780230E+02  0.12160304697E+02  0.51100000000E-03 0.  1.
         12    1    3    3    0    0  0.27969907787E+01 -0.94088327240E+01 -0.12535542180E+02  0.15921341288E+02  0.00000000000E+00 0. -1.
</event>
<event>
 7    1  0.4374874E-012  0.5052886E+02  0.7816164E-02  0.1300439E+00
        -11   -1    0    0    0    0  0.00000000000E+00  0.00000000000E+00  0.45593999997E+02  0.45594000000E+02  0.51100000000E-03 0. -1.
         11   -1    0    0    0    0 -0.00000000000E+00 -0.00000000000E+00 -0.45593999997E+02  0.45594000000E+02  0.51100000000E-03 0.  1.
    9900012    2    1    2    0    0  0.72533067725E+01  0.77461780178E+01 -0.39249864671E+02  0.50528860687E+02  0.30000002543E+02 0.  0.
         12    1    1    2    0    0 -0.72533067725E+01 -0.77461780178E+01  0.39249864671E+02  0.40659139313E+02  0.00000000000E+00 0. -1.
         11    1    3    3    0    0 -0.15661457753E+01 -0.70398993417E+01 -0.29218238216E+00  0.72179197929E+01  0.51100000000E-03 0. -1.
        -11    1    3    3    0    0  0.14729135983E+01  0.37336366995E+01 -0.30857099578E+01  0.50627190004E+01  0.51100000000E-03 0.  1.
        -12    1    3    3    0    0  0.73465389495E+01  0.11052440660E+02 -0.35871972331E+02  0.38248221893E+02  0.00000000000E+00 0.  1.
</event>
<event>
 7    1  0.4374874E-012  0.5052887E+02  0.7816164E-02  0.1300439E+00
        -11   -1    0    0    0    0  0.00000000000E+00  0.00000000000E+00  0.45593999997E+02  0.45594000000E+02  0.51100000000E-03 0. -1.
         11   -1    0    0    0    0 -0.00000000000E+00 -0.00000000000E+00 -0.45593999997E+02  0.45594000000E+02  0.51100000000E-03 0.  1.
    9900012    2    1    2    0    0 -0.21141319876E+02 -0.31005712007E+02  0.15647861300E+02  0.50528866383E+02  0.30000019859E+02 0.  0.
        -12    1    1    2    0    0  0.21141319876E+02  0.31005712007E+02 -0.15647861300E+02  0.40659133617E+02  0.00000000000E+00 0.  1.
         11    1    3    3    0    0 -0.38526474742E+01  0.11632546901E+01  0.28258745708E+01  0.49174812034E+01  0.51100000000E-03 0. -1.
        -11    1    3    3    0    0  0.34640226513E-01 -0.14959287919E+02  0.14888237383E+02  0.21105475773E+02  0.51100000000E-03 0.  1.
         12    1    3    3    0    0 -0.17323312629E+02 -0.17209678779E+02 -0.20662506535E+01  0.24505909407E+02  0.00000000000E+00 0. -1.
</event>
<event>
 7    1  0.4374874E-012  0.5052886E+02  0.7816164E-02  0.1300439E+00
        -11   -1    0    0    0    0  0.00000000000E+00  0.00000000000E+00  0.45593999997E+02  0.45594000000E+02  0.51100000000E-03 0. -1.
         11   -1    0    0    0    0 -0.00000000000E+00 -0.00000000000E+00 -0.45593999997E+02  0.45594000000E+02  0.51100000000E-03 0.  1.
    9900012    2    1    2    0    0 -0.47745157212E+01  0.35772177001E+02  0.18727539125E+02  0.50528863641E+02  0.30000011523E+02 0.  0.
        -12    1    1    2    0    0  0.47745157212E+01 -0.35772177001E+02 -0.18727539125E+02  0.40659136359E+02  0.00000000000E+00 0.  1.
         11    1    3    3    0    0  0.44962641946E+01 -0.19068333401E+01  0.59947475259E+01  0.77323607815E+01  0.51100000000E-03 0. -1.
        -11    1    3    3    0    0 -0.84631096144E+00  0.64487701206E+00  0.35719864762E+01  0.37270895149E+01  0.51100000000E-03 0.  1.
         12    1    3    3    0    0 -0.84244689544E+01  0.37034133329E+02  0.91608051232E+01  0.39069413345E+02  0.00000000000E+00 0. -1.
</event>
<event>
 7    1  0.4374874E-012  0.5052882E+02  0.7816164E-02  0.1300439E+00
        -11   -1    0    0    0    0  0.00000000000E+00  0.00000000000E+00  0.45593999997E+02  0.45594000000E+02  0.51100000000E-03 0. -1.
         11   -1    0    0    0    0 -0.00000000000E+00 -0.00000000000E+00 -0.45593999997E+02  0.45594000000E+02  0.51100000000E-03 0.  1.
    9900012    2    1    2    0    0 -0.23059491658E+02 -0.23579644319E+02  0.23778753914E+02  0.50528819985E+02  0.29999878827E+02 0.  0.
        -12    1    1    2    0    0  0.23059491658E+02  0.23579644319E+02 -0.23778753914E+02  0.40659180015E+02  0.00000000000E+00 0.  1.
         11    1    3    3    0    0 -0.61639399015E+01 -0.46951270047E+01  0.10103548453E+00  0.77491019563E+01  0.51100000000E-03 0. -1.
        -11    1    3    3    0    0 -0.78640103400E+01  0.43438206780E+01  0.12676618892E+02  0.15537313265E+02  0.51100000000E-03 0.  1.
         12    1    3    3    0    0 -0.90315414166E+01 -0.23228337993E+02  0.11001099538E+02  0.27242404764E+02  0.00000000000E+00 0. -1.
</event>
<event>
 7    1  0.4374874E-012  0.5052886E+02  0.7816164E-02  0.1300439E+00
        -11   -1    0    0    0    0  0.00000000000E+00  0.00000000000E+00  0.45593999997E+02  0.45594000000E+02  0.51100000000E-03 0.  1.
         11   -1    0    0    0    0 -0.00000000000E+00 -0.00000000000E+00 -0.45593999997E+02  0.45594000000E+02  0.51100000000E-03 0. -1.
    9900012    2    1    2    0    0  0.48224589773E+01 -0.35803695337E+02 -0.18654897718E+02  0.50528856880E+02  0.29999990973E+02 0.  0.
         12    1    1    2    0    0 -0.48224589773E+01  0.35803695337E+02  0.18654897718E+02  0.40659143120E+02  0.00000000000E+00 0. -1.
         11    1    3    3    0    0  0.32065441327E+01 -0.11858158412E+02 -0.13116715432E+02  0.17970700325E+02  0.51100000000E-03 0. -1.
        -11    1    3    3    0    0  0.10764738526E+02 -0.84736227225E+01  0.16469498376E+00  0.13700693496E+02  0.51100000000E-03 0.  1.
        -12    1    3    3    0    0 -0.91488236816E+01 -0.15471914203E+02 -0.57028772701E+01  0.18857463059E+02  0.00000000000E+00 0.  1.
</event>
<event>
 7    1  0.4374874E-012  0.5052885E+02  0.7816164E-02  0.1300439E+00
        -11   -1    0    0    0    0  0.00000000000E+00  0.00000000000E+00  0.45593999997E+02  0.45594000000E+02  0.51100000000E-03 0. -1.
         11   -1    0    0    0    0 -0.00000000000E+00 -0.00000000000E+00 -0.45593999997E+02  0.45594000000E+02  0.51100000000E-03 0.  1.
    9900012    2    1    2    0    0  0.22897327182E+02  0.30197881078E+02  0.14729793683E+02  0.50528850530E+02  0.29999971671E+02 0.  0.
        -12    1    1    2    0    0 -0.22897327182E+02 -0.30197881078E+02 -0.14729793683E+02  0.40659149470E+02  0.00000000000E+00 0.  1.
         11    1    3    3    0    0  0.71714252120E+01  0.17814164970E+01 -0.42205060867E+01  0.85097271517E+01  0.51100000000E-03 0. -1.
        -11    1    3    3    0    0 -0.19356780907E+01  0.87300108169E+01 -0.84758490907E+00  0.89821121666E+01  0.51100000000E-03 0.  1.
         12    1    3    3    0    0  0.17661580061E+02  0.19686453764E+02  0.19797884679E+02  0.33037011212E+02  0.00000000000E+00 0. -1.
</event>
<event>
 7    1  0.4374874E-012  0.5052886E+02  0.7816164E-02  0.1300439E+00
        -11   -1    0    0    0    0  0.00000000000E+00  0.00000000000E+00  0.45593999997E+02  0.45594000000E+02  0.51100000000E-03 0. -1.
         11   -1    0    0    0    0 -0.00000000000E+00 -0.00000000000E+00 -0.45593999997E+02  0.45594000000E+02  0.51100000000E-03 0.  1.
    9900012    2    1    2    0    0  0.58113596573E+01  0.42803617916E+00  0.40239416068E+02  0.50528859312E+02  0.29999998364E+02 0.  0.
        -12    1    1    2    0    0 -0.58113596573E+01 -0.42803617916E+00 -0.40239416068E+02  0.40659140688E+02  0.00000000000E+00 0.  1.
         11    1    3    3    0    0 -0.37349615782E+01  0.98632959785E+01  0.22776358459E+02  0.25099742040E+02  0.51100000000E-03 0. -1.
        -11    1    3    3    0    0 -0.54866738925E+00 -0.27418179747E+01  0.11674288271E+02  0.12004482854E+02  0.51100000000E-03 0.  1.
        -12    1    3    3    0    0  0.10094988625E+02 -0.66934418246E+01  0.57887693376E+01  0.13424634417E+02  0.00000000000E+00 0.  1.
</event>
<event>
 7    1  0.4374874E-012  0.5052886E+02  0.7816164E-02  0.1300439E+00
        -11   -1    0    0    0    0  0.00000000000E+00  0.00000000000E+00  0.45593999997E+02  0.45594000000E+02  0.51100000000E-03 0. -1.
         11   -1    0    0    0    0 -0.00000000000E+00 -0.00000000000E+00 -0.45593999997E+02  0.45594000000E+02  0.51100000000E-03 0.  1.
    9900012    2    1    2    0    0  0.49661566607E+01 -0.26678573647E+01  0.40266432852E+02  0.50528858476E+02  0.29999995823E+02 0.  0.
        -12    1    1    2    0    0 -0.49661566607E+01  0.26678573647E+01 -0.40266432852E+02  0.40659141524E+02  0.00000000000E+00 0.  1.
         11    1    3    3    0    0  0.45466453602E+01  0.54338502987E+01  0.15099330047E+02  0.16678983220E+02  0.51100000000E-03 0. -1.
        -11    1    3    3    0    0  0.81848260065E+01 -0.11536858244E+02  0.15825283913E+02  0.21225694007E+02  0.51100000000E-03 0.  1.
         12    1    3    3    0    0 -0.77653147060E+01  0.34351505810E+01  0.93418188917E+01  0.12624181249E+02  0.00000000000E+00 0. -1.
</event>
<event>
 7    1  0.4374874E-012  0.5052886E+02  0.7816164E-02  0.1300439E+00
        -11   -1    0    0    0    0  0.00000000000E+00  0.00000000000E+00  0.45593999997E+02  0.45594000000E+02  0.51100000000E-03 0. -1.
         11   -1    0    0    0    0 -0.00000000000E+00 -0.00000000000E+00 -0.45593999997E+02  0.45594000000E+02  0.51100000000E-03 0.  1.
    9900012    2    1    2    0    0  0.50530748587E+01  0.19542071318E+02  0.35295036935E+02  0.50528858972E+02  0.29999997331E+02 0.  0.
        -12    1    1    2    0    0 -0.50530748587E+01 -0.19542071318E+02 -0.35295036935E+02  0.40659141028E+02  0.00000000000E+00 0.  1.
         11    1    3    3    0    0 -0.47802761725E+01  0.33034028124E+01 -0.72519993528E-01  0.58110902452E+01  0.51100000000E-03 0. -1.
        -11    1    3    3    0    0  0.15688473526E+02  0.13430436934E+02  0.24345684134E+02  0.31925180877E+02  0.51100000000E-03 0.  1.
         12    1    3    3    0    0 -0.58551224951E+01  0.28082315720E+01  0.11021872795E+02  0.12792587850E+02  0.00000000000E+00 0. -1.
</event>
<event>
 7    1  0.4374874E-012  0.5052888E+02  0.7816164E-02  0.1300439E+00
        -11   -1    0    0    0    0  0.00000000000E+00  0.00000000000E+00  0.45593999997E+02  0.45594000000E+02  0.51100000000E-03 0.  1.
         11   -1    0    0    0    0 -0.00000000000E+00 -0.00000000000E+00 -0.45593999997E+02  0.45594000000E+02  0.51100000000E-03 0. -1.
    9900012    2    1    2    0    0  0.25299121557E+02 -0.15092281032E+01 -0.31793719280E+02  0.50528881629E+02  0.30000066200E+02 0.  0.
         12    1    1    2    0    0 -0.25299121557E+02  0.15092281032E+01  0.31793719280E+02  0.40659118371E+02  0.00000000000E+00 0. -1.
         11    1    3    3    0    0 -0.34495169975E+01  0.10296538483E+01  0.36035233078E+00  0.36179011356E+01  0.51100000000E-03 0. -1.
        -11    1    3    3    0    0  0.10362755784E+02 -0.97000675025E+01 -0.16183035647E+02  0.21525999628E+02  0.51100000000E-03 0.  1.
        -12    1    3    3    0    0  0.18385882771E+02  0.71611855509E+01 -0.15971035964E+02  0.25384980865E+02  0.00000000000E+00 0.  1.
</event>
<event>
 7    1  0.4374874E-012  0.5052886E+02  0.7816164E-02  0.1300439E+00
        -11   -1    0    0    0    0  0.00000000000E+00  0.00000000000E+00  0.45593999997E+02  0.45594000000E+02  0.51100000000E-03 0. -1.
         11   -1    0    0    0    0 -0.00000000000E+00 -0.00000000000E+00 -0.45593999997E+02  0.45594000000E+02  0.51100000000E-03 0.  1.
    9900012    2    1    2    0    0 -0.17268241849E+02  0.19462364770E+02 -0.31244040051E+02  0.50528857637E+02  0.29999993274E+02 0.  0.
         12    1    1    2    0    0  0.17268241849E+02 -0.19462364770E+02  0.31244040051E+02  0.40659142363E+02  0.00000000000E+00 0. -1.
         11    1    3    3    0    0  0.54107854178E+01  0.13440471094E+01 -0.70579264576E+01  0.89942975052E+01  0.51100000000E-03 0. -1.
        -11    1    3    3    0    0  0.12781837613E+01 -0.18958587648E+01 -0.47979996234E+00  0.23362881776E+01  0.51100000000E-03 0.  1.
        -12    1    3    3    0    0 -0.23957211028E+02  0.20014176425E+02 -0.23706313631E+02  0.39198271954E+02  0.00000000000E+00 0.  1.
</event>
<event>
 7    1  0.4374874E-012  0.5052886E+02  0.7816164E-02  0.1300439E+00
        -11   -1    0    0    0    0  0.00000000000E+00  0.00000000000E+00  0.45593999997E+02  0.45594000000E+02  0.51100000000E-03 0.  1.
         11   -1    0    0    0    0 -0.00000000000E+00 -0.00000000000E+00 -0.45593999997E+02  0.45594000000E+02  0.51100000000E-03 0. -1.
    9900012    2    1    2    0    0 -0.67760577208E+01  0.39178046437E+02  0.85048011925E+01  0.50528856820E+02  0.29999990790E+02 0.  0.
        -12    1    1    2    0    0  0.67760577208E+01 -0.39178046437E+02 -0.85048011925E+01  0.40659143180E+02  0.00000000000E+00 0.  1.
         11    1    3    3    0    0 -0.53931821770E+01  0.70081059735E+01 -0.59898759285E+01  0.10680757334E+02  0.51100000000E-03 0. -1.
        -11    1    3    3    0    0 -0.53841072814E+01  0.58262947166E+01  0.10098847146E+02  0.12842158514E+02  0.51100000000E-03 0.  1.
         12    1    3    3    0    0  0.40012317376E+01  0.26343645746E+02  0.43958299747E+01  0.27005940972E+02  0.00000000000E+00 0. -1.
</event>
<event>
 7    1  0.4374874E-012  0.5052886E+02  0.7816164E-02  0.1300439E+00
        -11   -1    0    0    0    0  0.00000000000E+00  0.00000000000E+00  0.45593999997E+02  0.45594000000E+02  0.51100000000E-03 0. -1.
         11   -1    0    0    0    0 -0.00000000000E+00 -0.00000000000E+00 -0.45593999997E+02  0.45594000000E+02  0.51100000000E-03 0.  1.
    9900012    2    1    2    0    0 -0.17783588795E+02 -0.23487828548E+02  0.28021984834E+02  0.50528858908E+02  0.29999997137E+02 0.  0.
        -12    1    1    2    0    0  0.17783588795E+02  0.23487828548E+02 -0.28021984834E+02  0.40659141092E+02  0.00000000000E+00 0.  1.
         11    1    3    3    0    0  0.11651595614E+01 -0.51806851940E+00  0.11757483464E+02  0.11826428432E+02  0.51100000000E-03 0. -1.
        -11    1    3    3    0    0 -0.53036367172E+01 -0.55289168920E+01 -0.40373961156E+01  0.86601415740E+01  0.51100000000E-03 0.  1.
         12    1    3    3    0    0 -0.13645111639E+02 -0.17440843136E+02  0.20301897486E+02  0.30042288902E+02  0.00000000000E+00 0. -1.
</event>
<event>
 7    1  0.4374874E-012  0.5052886E+02  0.7816164E-02  0.1300439E+00
        -11   -1    0    0    0    0  0.00000000000E+00  0.00000000000E+00  0.45593999997E+02  0.45594000000E+02  0.51100000000E-03 0. -1.
         11   -1    0    0    0    0 -0.00000000000E+00 -0.00000000000E+00 -0.45593999997E+02  0.45594000000E+02  0.51100000000E-03 0.  1.
    9900012    2    1    2    0    0 -0.32029610027E+02  0.21484952119E+02  0.12871167574E+02  0.50528855386E+02  0.29999986431E+02 0.  0.
        -12    1    1    2    0    0  0.32029610027E+02 -0.21484952119E+02 -0.12871167574E+02  0.40659144614E+02  0.00000000000E+00 0.  1.
         11    1    3    3    0    0  0.86635198057E+00 -0.37259642923E+00  0.33950128891E+01  0.35235644781E+01  0.51100000000E-03 0. -1.
        -11    1    3    3    0    0 -0.34017936366E+01  0.12634910071E+02  0.93852643927E+01  0.16102681156E+02  0.51100000000E-03 0.  1.
         12    1    3    3    0    0 -0.29494168371E+02  0.92226384772E+01  0.90890291781E-01  0.30902609751E+02  0.00000000000E+00 0. -1.
</event>
<event>
 7    1  0.4374874E-012  0.5052886E+02  0.7816164E-02  0.1300439E+00
        -11   -1    0    0    0    0  0.00000000000E+00  0.00000000000E+00  0.45593999997E+02  0.45594000000E+02  0.51100000000E-03 0. -1.
         11   -1    0    0    0    0 -0.00000000000E+00 -0.00000000000E+00 -0.45593999997E+02  0.45594000000E+02  0.51100000000E-03 0.  1.
    9900012    2    1    2    0    0 -0.77486420616E+01  0.27712145789E+02 -0.28725617735E+02  0.50528860901E+02  0.30000003196E+02 0.  0.
         12    1    1    2    0    0  0.77486420616E+01 -0.27712145789E+02  0.28725617735E+02  0.40659139099E+02  0.00000000000E+00 0. -1.
         11    1    3    3    0    0 -0.48238258330E+00 -0.37507496251E+00  0.26758851308E+01  0.27447651409E+01  0.51100000000E-03 0. -1.
        -11    1    3    3    0    0  0.73281008917E+01  0.13232770660E+02 -0.11784038273E+02  0.19174744856E+02  0.51100000000E-03 0.  1.
         12    1    3    3    0    0 -0.14594360370E+02  0.14854450091E+02 -0.19617464593E+02  0.28609350904E+02  0.00000000000E+00 0. -1.
</event>
<event>
 7    1  0.4374874E-012  0.5052887E+02  0.7816164E-02  0.1300439E+00
        -11   -1    0    0    0    0  0.00000000000E+00  0.00000000000E+00  0.45593999997E+02  0.45594000000E+02  0.51100000000E-03 0. -1.
         11   -1    0    0    0    0 -0.00000000000E+00 -0.00000000000E+00 -0.45593999997E+02  0.45594000000E+02  0.51100000000E-03 0.  1.
    9900012    2    1    2    0    0 -0.17077460965E+02  0.10562376322E+02 -0.35354797684E+02  0.50528865899E+02  0.30000018388E+02 0.  0.
         12    1    1    2    0    0  0.17077460965E+02 -0.10562376322E+02  0.35354797684E+02  0.40659134101E+02  0.00000000000E+00 0. -1.
         11    1    3    3    0    0 -0.92978233963E+01  0.13413736703E+02 -0.11434042177E+02  0.19927748819E+02  0.51100000000E-03 0. -1.
        -11    1    3    3    0    0  0.38327628677E+00  0.12678476924E+01 -0.20943353777E+02  0.20985194929E+02  0.51100000000E-03 0.  1.
        -12    1    3    3    0    0 -0.81629138550E+01 -0.41192080740E+01 -0.29774017297E+01  0.96159221514E+01  0.00000000000E+00 0.  1.
</event>
<event>
 7    1  0.4374874E-012  0.5052885E+02  0.7816164E-02  0.1300439E+00
        -11   -1    0    0    0    0  0.00000000000E+00  0.00000000000E+00  0.45593999997E+02  0.45594000000E+02  0.51100000000E-03 0. -1.
         11   -1    0    0    0    0 -0.00000000000E+00 -0.00000000000E+00 -0.45593999997E+02  0.45594000000E+02  0.51100000000E-03 0.  1.
    9900012    2    1    2    0    0  0.35494528076E+02  0.19829447137E+02 -0.31255285300E+00  0.50528853595E+02  0.29999980986E+02 0.  0.
        -12    1    1    2    0    0 -0.35494528076E+02 -0.19829447137E+02  0.31255285300E+00  0.40659146405E+02  0.00000000000E+00 0.  1.
         11    1    3    3    0    0  0.11759946024E+02  0.79103603662E+01  0.80319029975E+01  0.16290537058E+02  0.51100000000E-03 0. -1.
        -11    1    3    3    0    0  0.61552087452E+01  0.13883029762E+02 -0.14573113901E+01  0.15256109164E+02  0.51100000000E-03 0.  1.
        -12    1    3    3    0    0  0.17579373307E+02 -0.19639429908E+01 -0.68871444604E+01  0.18982207373E+02  0.00000000000E+00 0.  1.
</event>
<event>
 7    1  0.4374874E-012  0.5052886E+02  0.7816164E-02  0.1300439E+00
        -11   -1    0    0    0    0  0.00000000000E+00  0.00000000000E+00  0.45593999997E+02  0.45594000000E+02  0.51100000000E-03 0. -1.
         11   -1    0    0    0    0 -0.00000000000E+00 -0.00000000000E+00 -0.45593999997E+02  0.45594000000E+02  0.51100000000E-03 0.  1.
    9900012    2    1    2    0    0  0.10863010941E+02  0.16284025260E+02  0.35636931832E+02  0.50528863317E+02  0.30000010538E+02 0.  0.
        -12    1    1    2    0    0 -0.10863010941E+02 -0.16284025260E+02 -0.35636931832E+02  0.40659136683E+02  0.00000000000E+00 0.  1.
         11    1    3    3    0    0 -0.59096873370E+00 -0.42408405509E+00  0.10954465092E+02  0.10978588117E+02  0.51100000000E-03 0. -1.
        -11    1    3    3    0    0 -0.67388645150E+01  0.60362033219E+01  0.36251979612E+01  0.97462867808E+01  0.51100000000E-03 0.  1.
         12    1    3    3    0    0  0.18192844190E+02  0.10671905994E+02  0.21057268779E+02  0.29803988419E+02  0.00000000000E+00 0. -1.
</event>
<event>
 7    1  0.4374874E-012  0.5052886E+02  0.7816164E-02  0.1300439E+00
        -11   -1    0    0    0    0  0.00000000000E+00  0.00000000000E+00  0.45593999997E+02  0.45594000000E+02  0.51100000000E-03 0. -1.
         11   -1    0    0    0    0 -0.00000000000E+00 -0.00000000000E+00 -0.45593999997E+02  0.45594000000E+02  0.51100000000E-03 0.  1.
    9900012    2    1    2    0    0 -0.36740388035E+02 -0.17346722490E+02  0.15494188389E+01  0.50528860894E+02  0.30000003175E+02 0.  0.
        -12    1    1    2    0    0  0.36740388035E+02  0.17346722490E+02 -0.15494188389E+01  0.40659139106E+02  0.00000000000E+00 0.  1.
         11    1    3    3    0    0 -0.16365778354E+02 -0.87436819372E+01  0.52899406058E+01  0.19294407139E+02  0.51100000000E-03 0. -1.
        -11    1    3    3    0    0 -0.21994555132E+01  0.49441426679E+00  0.76225025048E+01  0.79488738019E+01  0.51100000000E-03 0.  1.
         12    1    3    3    0    0 -0.18175154167E+02 -0.90974548196E+01 -0.11363024272E+02  0.23285579954E+02  0.00000000000E+00 0. -1.
</event>
<event>
 7    1  0.4374874E-012  0.5052885E+02  0.7816164E-02  0.1300439E+00
        -11   -1    0    0    0    0  0.00000000000E+00  0.00000000000E+00  0.45593999997E+02  0.45594000000E+02  0.51100000000E-03 0.  1.
         11   -1    0    0    0    0 -0.00000000000E+00 -0.00000000000E+00 -0.45593999997E+02  0.45594000000E+02  0.51100000000E-03 0. -1.
    9900012    2    1    2    0    0  0.13145224005E+02  0.37337973896E+02  0.92868296286E+01  0.50528850804E+02  0.29999972504E+02 0.  0.
        -12    1    1    2    0    0 -0.13145224005E+02 -0.37337973896E+02 -0.92868296286E+01  0.40659149196E+02  0.00000000000E+00 0.  1.
         11    1    3    3    0    0  0.95869763253E+01  0.13076500740E+02 -0.60915802335E+01  0.17320864201E+02  0.51100000000E-03 0. -1.
        -11    1    3    3    0    0  0.82120205899E+01  0.50377339089E+01  0.44745495065E+01  0.10622506232E+02  0.51100000000E-03 0.  1.
        -12    1    3    3    0    0 -0.46537729098E+01  0.19223739247E+02  0.10903860356E+02  0.22585480371E+02  0.00000000000E+00 0.  1.
</event>
<event>
 7    1  0.4374874E-012  0.5052886E+02  0.7816164E-02  0.1300439E+00
        -11   -1    0    0    0    0  0.00000000000E+00  0.00000000000E+00  0.45593999997E+02  0.45594000000E+02  0.51100000000E-03 0. -1.
         11   -1    0    0    0    0 -0.00000000000E+00 -0.00000000000E+00 -0.45593999997E+02  0.45594000000E+02  0.51100000000E-03 0.  1.
    9900012    2    1    2    0    0 -0.33425134555E+02 -0.16477463372E+02  0.16260963374E+02  0.50528863892E+02  0.30000012285E+02 0.  0.
        -12    1    1    2    0    0  0.33425134555E+02  0.16477463372E+02 -0.16260963374E+02  0.40659136108E+02  0.00000000000E+00 0.  1.
         11    1    3    3    0    0 -0.41213132643E+00  0.26561646241E+01  0.39627827966E+01  0.47883933104E+01  0.51100000000E-03 0. -1.
        -11    1    3    3    0    0 -0.44590511287E+01 -0.10880824393E+02  0.10822328418E+02  0.15981184847E+02  0.51100000000E-03 0.  1.
         12    1    3    3    0    0 -0.28553952100E+02 -0.82528036025E+01  0.14758521594E+01  0.29759285735E+02  0.00000000000E+00 0. -1.
</event>
<event>
 7    1  0.4374874E-012  0.5052886E+02  0.7816164E-02  0.1300439E+00
        -11   -1    0    0    0    0  0.00000000000E+00  0.00000000000E+00  0.45593999997E+02  0.45594000000E+02  0.51100000000E-03 0. -1.
         11   -1    0    0    0    0 -0.00000000000E+00 -0.00000000000E+00 -0.45593999997E+02  0.45594000000E+02  0.51100000000E-03 0.  1.
    9900012    2    1    2    0    0  0.64448024969E+01  0.78548289603E+01  0.39369173932E+02  0.50528859904E+02  0.30000000165E+02 0.  0.
        -12    1    1    2    0    0 -0.64448024969E+01 -0.78548289603E+01 -0.39369173932E+02  0.40659140096E+02  0.00000000000E+00 0.  1.
         11    1    3    3    0    0 -0.25951713144E+01  0.17871457465E+01  0.22172563415E+02  0.22395342657E+02  0.51100000000E-03 0. -1.
        -11    1    3    3    0    0 -0.44386372230E+01 -0.12052350914E+01 -0.61762334756E+00  0.46406412147E+01  0.51100000000E-03 0.  1.
        -12    1    3    3    0    0  0.13478611034E+02  0.72729183053E+01  0.17814233865E+02  0.23492876033E+02  0.00000000000E+00 0.  1.
</event>
<event>
 7    1  0.4374874E-012  0.5052878E+02  0.7816164E-02  0.1300439E+00
        -11   -1    0    0    0    0  0.00000000000E+00  0.00000000000E+00  0.45593999997E+02  0.45594000000E+02  0.51100000000E-03 0. -1.
         11   -1    0    0    0    0 -0.00000000000E+00 -0.00000000000E+00 -0.45593999997E+02  0.45594000000E+02  0.51100000000E-03 0.  1.
    9900012    2    1    2    0    0  0.32420664119E+02  0.16179737597E+02 -0.18446925747E+02  0.50528776690E+02  0.29999747227E+02 0.  0.
         12    1    1    2    0    0 -0.32420664119E+02 -0.16179737597E+02  0.18446925747E+02  0.40659223310E+02  0.00000000000E+00 0. -1.
         11    1    3    3    0    0  0.98321145380E+00  0.29238356372E+01 -0.59171871344E+01  0.66729771048E+01  0.51100000000E-03 0. -1.
        -11    1    3    3    0    0  0.23176239427E+02  0.19735563020E+02 -0.13524021843E+02  0.33309603552E+02  0.51100000000E-03 0.  1.
         12    1    3    3    0    0  0.82612132382E+01 -0.64796610610E+01  0.99428323078E+00  0.10546196033E+02  0.00000000000E+00 0. -1.
</event>
<event>
 7    1  0.4374874E-012  0.5052885E+02  0.7816164E-02  0.1300439E+00
        -11   -1    0    0    0    0  0.00000000000E+00  0.00000000000E+00  0.45593999997E+02  0.45594000000E+02  0.51100000000E-03 0. -1.
         11   -1    0    0    0    0 -0.00000000000E+00 -0.00000000000E+00 -0.45593999997E+02  0.45594000000E+02  0.51100000000E-03 0.  1.
    9900012    2    1    2    0    0 -0.15760731152E+02 -0.37014315142E+02  0.58911937556E+01  0.50528851758E+02  0.29999975405E+02 0.  0.
        -12    1    1    2    0    0  0.15760731152E+02  0.37014315142E+02 -0.58911937556E+01  0.40659148242E+02  0.00000000000E+00 0.  1.
         11    1    3    3    0    0  0.35642258720E+01 -0.34410738427E+01  0.71476469603E+00  0.50055553228E+01  0.51100000000E-03 0.  1.
        -11    1    3    3    0    0 -0.14427820586E+02 -0.54846797563E+01  0.70094498731E+01  0.16952171149E+02  0.51100000000E-03 0. -1.
         12    1    3    3    0    0 -0.48971364388E+01 -0.28088561543E+02 -0.18330208136E+01  0.28571125287E+02  0.00000000000E+00 0. -1.
</event>
<event>
 7    1  0.4374874E-012  0.5052886E+02  0.7816164E-02  0.1300439E+00
        -11   -1    0    0    0    0  0.00000000000E+00  0.00000000000E+00  0.45593999997E+02  0.45594000000E+02  0.51100000000E-03 0. -1.
         11   -1    0    0    0    0 -0.00000000000E+00 -0.00000000000E+00 -0.45593999997E+02  0.45594000000E+02  0.51100000000E-03 0.  1.
    9900012    2    1    2    0    0 -0.44676038138E+00  0.31211739688E+02  0.26053667389E+02  0.50528857441E+02  0.29999992678E+02 0.  0.
        -12    1    1    2    0    0  0.44676038138E+00 -0.31211739688E+02 -0.26053667389E+02  0.40659142559E+02  0.00000000000E+00 0.  1.
         11    1    3    3    0    0 -0.10212389864E+01  0.78351898752E+01  0.17836742817E+02  0.19508524394E+02  0.51100000000E-03 0. -1.
        -11    1    3    3    0    0  0.66787004064E+01  0.20295958726E+02  0.10506020292E+02  0.23809818193E+02  0.51100000000E-03 0.  1.
        -12    1    3    3    0    0 -0.61042218013E+01  0.30805910867E+01 -0.22890957202E+01  0.72105148540E+01  0.00000000000E+00 0.  1.
</event>
<event>
 7    1  0.4374874E-012  0.5052886E+02  0.7816164E-02  0.1300439E+00
        -11   -1    0    0    0    0  0.00000000000E+00  0.00000000000E+00  0.45593999997E+02  0.45594000000E+02  0.51100000000E-03 0.  1.
         11   -1    0    0    0    0 -0.00000000000E+00 -0.00000000000E+00 -0.45593999997E+02  0.45594000000E+02  0.51100000000E-03 0. -1.
    9900012    2    1    2    0    0 -0.20730754424E+02 -0.30679541195E+01  0.34842347024E+02  0.50528859974E+02  0.30000000378E+02 0.  0.
        -12    1    1    2    0    0  0.20730754424E+02  0.30679541195E+01 -0.34842347024E+02  0.40659140026E+02  0.00000000000E+00 0.  1.
         11    1    3    3    0    0  0.39454725637E+01 -0.16573855207E+01  0.92694890136E+00  0.43786887355E+01  0.51100000000E-03 0. -1.
        -11    1    3    3    0    0 -0.21361226684E+02 -0.86517800440E+01  0.22320157684E+02  0.32083402916E+02  0.51100000000E-03 0.  1.
         12    1    3    3    0    0 -0.33150003039E+01  0.72412114452E+01  0.11595240439E+02  0.14066768323E+02  0.00000000000E+00 0. -1.
</event>
<event>
 7    1  0.4374874E-012  0.5052886E+02  0.7816164E-02  0.1300439E+00
        -11   -1    0    0    0    0  0.00000000000E+00  0.00000000000E+00  0.45593999997E+02  0.45594000000E+02  0.51100000000E-03 0. -1.
         11   -1    0    0    0    0 -0.00000000000E+00 -0.00000000000E+00 -0.45593999997E+02  0.45594000000E+02  0.51100000000E-03 0.  1.
    9900012    2    1    2    0    0 -0.30608896408E+02 -0.95329556660E+01 -0.25007680973E+02  0.50528857231E+02  0.29999992040E+02 0.  0.
         12    1    1    2    0    0  0.30608896408E+02  0.95329556660E+01  0.25007680973E+02  0.40659142769E+02  0.00000000000E+00 0. -1.
         11    1    3    3    0    0 -0.11581177382E+02 -0.57218029642E+01 -0.13566105842E+02  0.18732376429E+02  0.51100000000E-03 0. -1.
        -11    1    3    3    0    0  0.15173852319E+01 -0.20952382678E+01 -0.10868223798E+02  0.11171874065E+02  0.51100000000E-03 0.  1.
         12    1    3    3    0    0 -0.20545104257E+02 -0.17159144340E+01 -0.57335133359E+00  0.20624606737E+02  0.00000000000E+00 0. -1.
</event>
<event>
 7    1  0.4374874E-012  0.5052886E+02  0.7816164E-02  0.1300439E+00
        -11   -1    0    0    0    0  0.00000000000E+00  0.00000000000E+00  0.45593999997E+02  0.45594000000E+02  0.51100000000E-03 0. -1.
         11   -1    0    0    0    0 -0.00000000000E+00 -0.00000000000E+00 -0.45593999997E+02  0.45594000000E+02  0.51100000000E-03 0.  1.
    9900012    2    1    2    0    0  0.24212802401E+02  0.69806816678E+01 -0.31908870773E+02  0.50528858953E+02  0.29999997274E+02 0.  0.
         12    1    1    2    0    0 -0.24212802401E+02 -0.69806816678E+01  0.31908870773E+02  0.40659141047E+02  0.00000000000E+00 0. -1.
         11    1    3    3    0    0  0.26395997910E+01 -0.10060282415E+00  0.21388065555E+01  0.33988382909E+01  0.51100000000E-03 0. -1.
        -11    1    3    3    0    0  0.24383269805E+02  0.19086790874E+00 -0.21337342473E+02  0.32401581150E+02  0.51100000000E-03 0.  1.
        -12    1    3    3    0    0 -0.28100671950E+01  0.68904165832E+01 -0.12710334856E+02  0.14728439513E+02  0.00000000000E+00 0.  1.
</event>
<event>
 7    1  0.4374874E-012  0.5052886E+02  0.7816164E-02  0.1300439E+00
        -11   -1    0    0    0    0  0.00000000000E+00  0.00000000000E+00  0.45593999997E+02  0.45594000000E+02  0.51100000000E-03 0. -1.
         11   -1    0    0    0    0 -0.00000000000E+00 -0.00000000000E+00 -0.45593999997E+02  0.45594000000E+02  0.51100000000E-03 0.  1.
    9900012    2    1    2    0    0 -0.29205814104E+02 -0.61428929657E+01 -0.27612517210E+02  0.50528858123E+02  0.29999994751E+02 0.  0.
         12    1    1    2    0    0  0.29205814104E+02  0.61428929657E+01  0.27612517210E+02  0.40659141877E+02  0.00000000000E+00 0. -1.
         11    1    3    3    0    0 -0.48929074110E+00 -0.34451366676E+00  0.27574196188E+01  0.28216056264E+01  0.51100000000E-03 0. -1.
        -11    1    3    3    0    0  0.19504687939E+01  0.77639450634E-01 -0.10536831363E+02  0.10716117386E+02  0.51100000000E-03 0.  1.
         12    1    3    3    0    0 -0.30666992157E+02 -0.58760187496E+01 -0.19833105466E+02  0.36991135110E+02  0.00000000000E+00 0. -1.
</event>
<event>
 7    1  0.4374874E-012  0.5052877E+02  0.7816164E-02  0.1300439E+00
        -11   -1    0    0    0    0  0.00000000000E+00  0.00000000000E+00  0.45593999997E+02  0.45594000000E+02  0.51100000000E-03 0. -1.
         11   -1    0    0    0    0 -0.00000000000E+00 -0.00000000000E+00 -0.45593999997E+02  0.45594000000E+02  0.51100000000E-03 0.  1.
    9900012    2    1    2    0    0 -0.15755742760E+01  0.39653501040E+02 -0.88481812614E+01  0.50528771150E+02  0.29999730387E+02 0.  0.
        -12    1    1    2    0    0  0.15755742760E+01 -0.39653501040E+02  0.88481812614E+01  0.40659228850E+02  0.00000000000E+00 0.  1.
         11    1    3    3    0    0  0.49020590336E+01  0.73427367910E+01 -0.76892738327E-01  0.88290361367E+01  0.51100000000E-03 0. -1.
        -11    1    3    3    0    0 -0.36822667985E+01  0.19195408444E+02 -0.17052728943E+02  0.25938742428E+02  0.51100000000E-03 0.  1.
         12    1    3    3    0    0 -0.27953665111E+01  0.13115355805E+02  0.82814404201E+01  0.15760992585E+02  0.00000000000E+00 0. -1.
</event>
<event>
 7    1  0.4374874E-012  0.5052899E+02  0.7816164E-02  0.1300438E+00
        -11   -1    0    0    0    0  0.00000000000E+00  0.00000000000E+00  0.45593999997E+02  0.45594000000E+02  0.51100000000E-03 0. -1.
         11   -1    0    0    0    0 -0.00000000000E+00 -0.00000000000E+00 -0.45593999997E+02  0.45594000000E+02  0.51100000000E-03 0.  1.
    9900012    2    1    2    0    0  0.12439352400E+02 -0.38555063751E+02 -0.34532029219E+01  0.50528990674E+02  0.30000397649E+02 0.  0.
         12    1    1    2    0    0 -0.12439352400E+02  0.38555063751E+02  0.34532029219E+01  0.40659009326E+02  0.00000000000E+00 0. -1.
         11    1    3    3    0    0  0.37868411998E+01 -0.21887399183E+01  0.70946060085E+01  0.83345175853E+01  0.51100000000E-03 0. -1.
        -11    1    3    3    0    0  0.58770215125E+01 -0.58693850066E+01 -0.78905365978E+01  0.11456423101E+02  0.51100000000E-03 0.  1.
        -12    1    3    3    0    0  0.27754896875E+01 -0.30496938826E+02 -0.26572723326E+01  0.30738049987E+02  0.00000000000E+00 0.  1.
</event>
<event>
 7    1  0.4374874E-012  0.5052886E+02  0.7816164E-02  0.1300439E+00
        -11   -1    0    0    0    0  0.00000000000E+00  0.00000000000E+00  0.45593999997E+02  0.45594000000E+02  0.51100000000E-03 0. -1.
         11   -1    0    0    0    0 -0.00000000000E+00 -0.00000000000E+00 -0.45593999997E+02  0.45594000000E+02  0.51100000000E-03 0.  1.
    9900012    2    1    2    0    0  0.69994792146E+01  0.28096983371E+02 -0.28543521899E+02  0.50528858023E+02  0.29999994448E+02 0.  0.
         12    1    1    2    0    0 -0.69994792146E+01 -0.28096983371E+02  0.28543521899E+02  0.40659141977E+02  0.00000000000E+00 0. -1.
         11    1    3    3    0    0  0.15969999242E+01  0.10185982650E+02  0.23422427574E+01  0.10573114616E+02  0.51100000000E-03 0. -1.
        -11    1    3    3    0    0 -0.57346105974E+01  0.80708619224E+01 -0.83022718004E+01  0.12921001826E+02  0.51100000000E-03 0.  1.
        -12    1    3    3    0    0  0.11137089888E+02  0.98401387992E+01 -0.22583492856E+02  0.27034741581E+02  0.00000000000E+00 0.  1.
</event>
<event>
 7    1  0.4374874E-012  0.5052885E+02  0.7816164E-02  0.1300439E+00
        -11   -1    0    0    0    0  0.00000000000E+00  0.00000000000E+00  0.45593999997E+02  0.45594000000E+02  0.51100000000E-03 0. -1.
         11   -1    0    0    0    0 -0.00000000000E+00 -0.00000000000E+00 -0.45593999997E+02  0.45594000000E+02  0.51100000000E-03 0.  1.
    9900012    2    1    2    0    0  0.31959438335E+02 -0.12877827989E+02  0.21585232876E+02  0.50528850591E+02  0.29999971855E+02 0.  0.
        -12    1    1    2    0    0 -0.31959438335E+02  0.12877827989E+02 -0.21585232876E+02  0.40659149409E+02  0.00000000000E+00 0.  1.
         11    1    3    3    0    0  0.15061167330E+01 -0.43191782156E+01  0.38499513507E+01  0.59787802883E+01  0.51100000000E-03 0. -1.
        -11    1    3    3    0    0  0.15674521597E+02 -0.10878531681E+02  0.21876366906E+02  0.29027719650E+02  0.51100000000E-03 0.  1.
        -12    1    3    3    0    0  0.14778800005E+02  0.23198819072E+01 -0.41410853806E+01  0.15522350652E+02  0.00000000000E+00 0.  1.
</event>
<event>
 7    1  0.4374874E-012  0.5052877E+02  0.7816164E-02  0.1300439E+00
        -11   -1    0    0    0    0  0.00000000000E+00  0.00000000000E+00  0.45593999997E+02  0.45594000000E+02  0.51100000000E-03 0. -1.
         11   -1    0    0    0    0 -0.00000000000E+00 -0.00000000000E+00 -0.45593999997E+02  0.45594000000E+02  0.51100000000E-03 0.  1.
    9900012    2    1    2    0    0 -0.29040213744E+02 -0.21673960774E+02  0.18441210826E+02  0.50528771691E+02  0.29999732031E+02 0.  0.
        -12    1    1    2    0    0  0.29040213744E+02  0.21673960774E+02 -0.18441210826E+02  0.40659228309E+02  0.00000000000E+00 0.  1.
         11    1    3    3    0    0 -0.16776971265E+01  0.26356661585E+01  0.71694761501E+01  0.78206644396E+01  0.51100000000E-03 0. -1.
        -11    1    3    3    0    0 -0.12212693194E+02 -0.16509132204E+01 -0.18420804109E+01  0.12460684171E+02  0.51100000000E-03 0.  1.
        -12    1    3    3    0    0 -0.15149823424E+02 -0.22658713712E+02  0.13113815087E+02  0.30247423080E+02  0.00000000000E+00 0.  1.
</event>
<event>
 7    1  0.4374874E-012  0.5052888E+02  0.7816164E-02  0.1300439E+00
        -11   -1    0    0    0    0  0.00000000000E+00  0.00000000000E+00  0.45593999997E+02  0.45594000000E+02  0.51100000000E-03 0. -1.
         11   -1    0    0    0    0 -0.00000000000E+00 -0.00000000000E+00 -0.45593999997E+02  0.45594000000E+02  0.51100000000E-03 0.  1.
    9900012    2    1    2    0    0 -0.20099324364E+02 -0.29725476052E+02 -0.19120071768E+02  0.50528881578E+02  0.30000066046E+02 0.  0.
         12    1    1    2    0    0  0.20099324364E+02  0.29725476052E+02  0.19120071768E+02  0.40659118422E+02  0.00000000000E+00 0. -1.
         11    1    3    3    0    0 -0.26696512511E+01  0.47236663073E+00  0.22258338013E+01  0.35077777023E+01  0.51100000000E-03 0. -1.
        -11    1    3    3    0    0 -0.19525636901E+02 -0.19627901153E+02 -0.60972978050E+01  0.28349286425E+02  0.51100000000E-03 0.  1.
        -12    1    3    3    0    0  0.20959637881E+01 -0.10569941530E+02 -0.15248607765E+02  0.18671817451E+02  0.00000000000E+00 0.  1.
</event>
<event>
 7    1  0.4374874E-012  0.5052887E+02  0.7816164E-02  0.1300439E+00
        -11   -1    0    0    0    0  0.00000000000E+00  0.00000000000E+00  0.45593999997E+02  0.45594000000E+02  0.51100000000E-03 0. -1.
         11   -1    0    0    0    0 -0.00000000000E+00 -0.00000000000E+00 -0.45593999997E+02  0.45594000000E+02  0.51100000000E-03 0.  1.
    9900012    2    1    2    0    0 -0.25008222478E+02  0.16853303858E+02 -0.27271231084E+02  0.50528867111E+02  0.30000022071E+02 0.  0.
         12    1    1    2    0    0  0.25008222478E+02 -0.16853303858E+02  0.27271231084E+02  0.40659132889E+02  0.00000000000E+00 0. -1.
         11    1    3    3    0    0 -0.22265083074E+01  0.30650298407E+00  0.49618232824E+01  0.54471069265E+01  0.51100000000E-03 0. -1.
        -11    1    3    3    0    0 -0.20878861451E+02  0.11474684390E+02 -0.18021068093E+02  0.29872297080E+02  0.51100000000E-03 0.  1.
        -12    1    3    3    0    0 -0.19028527192E+01  0.50721164848E+01 -0.14211986273E+02  0.15209463105E+02  0.00000000000E+00 0.  1.
</event>
<event>
 7    1  0.4374874E-012  0.5052886E+02  0.7816164E-02  0.1300439E+00
        -11   -1    0    0    0    0  0.00000000000E+00  0.00000000000E+00  0.45593999997E+02  0.45594000000E+02  0.51100000000E-03 0.  1.
         11   -1    0    0    0    0 -0.00000000000E+00 -0.00000000000E+00 -0.45593999997E+02  0.45594000000E+02  0.51100000000E-03 0. -1.
    9900012    2    1    2    0    0  0.20130487751E+02 -0.31198085419E+02  0.16571317814E+02  0.50528860253E+02  0.30000001224E+02 0.  0.
         12    1    1    2    0    0 -0.20130487751E+02  0.31198085419E+02 -0.16571317814E+02  0.40659139747E+02  0.00000000000E+00 0. -1.
         11    1    3    3    0    0  0.11440477540E+02  0.30080348471E+00  0.10691889805E+01  0.11494267024E+02  0.51100000000E-03 0. -1.
        -11    1    3    3    0    0  0.97012126621E+01 -0.18720099597E+02  0.15578942826E+02  0.26215627322E+02  0.51100000000E-03 0.  1.
        -12    1    3    3    0    0 -0.10112024510E+01 -0.12778789306E+02 -0.76813992139E-01  0.12818965907E+02  0.00000000000E+00 0.  1.
</event>
<event>
 7    1  0.4374874E-012  0.5052886E+02  0.7816164E-02  0.1300439E+00
        -11   -1    0    0    0    0  0.00000000000E+00  0.00000000000E+00  0.45593999997E+02  0.45594000000E+02  0.51100000000E-03 0. -1.
         11   -1    0    0    0    0 -0.00000000000E+00 -0.00000000000E+00 -0.45593999997E+02  0.45594000000E+02  0.51100000000E-03 0.  1.
    9900012    2    1    2    0    0 -0.23277092584E+01 -0.15395031027E+02  0.37559827351E+02  0.50528857838E+02  0.29999993884E+02 0.  0.
        -12    1    1    2    0    0  0.23277092584E+01  0.15395031027E+02 -0.37559827351E+02  0.40659142162E+02  0.00000000000E+00 0.  1.
         11    1    3    3    0    0 -0.10712474014E+01 -0.62039807074E+01  0.69711171402E+01  0.93932647177E+01  0.51100000000E-03 0. -1.
        -11    1    3    3    0    0 -0.32254069967E+01 -0.13758069991E+02  0.48796001980E+01  0.14949857475E+02  0.51100000000E-03 0.  1.
        -12    1    3    3    0    0  0.19689451398E+01  0.45670196711E+01  0.25709110013E+02  0.26185735645E+02  0.00000000000E+00 0.  1.
</event>
<event>
 7    1  0.4374874E-012  0.5052886E+02  0.7816164E-02  0.1300439E+00
        -11   -1    0    0    0    0  0.00000000000E+00  0.00000000000E+00  0.45593999997E+02  0.45594000000E+02  0.51100000000E-03 0.  1.
         11   -1    0    0    0    0 -0.00000000000E+00 -0.00000000000E+00 -0.45593999997E+02  0.45594000000E+02  0.51100000000E-03 0. -1.
    9900012    2    1    2    0    0 -0.22230847648E+02  0.33900601728E+02 -0.31151703674E+01  0.50528859932E+02  0.30000000248E+02 0.  0.
         12    1    1    2    0    0  0.22230847648E+02 -0.33900601728E+02  0.31151703674E+01  0.40659140068E+02  0.00000000000E+00 0. -1.
         11    1    3    3    0    0 -0.58014795050E+01 -0.31301161860E+01 -0.36933550064E+01  0.75561672328E+01  0.51100000000E-03 0. -1.
        -11    1    3    3    0    0 -0.12084341837E+02  0.10290174265E+02  0.54830173525E+00  0.15881424341E+02  0.51100000000E-03 0.  1.
        -12    1    3    3    0    0 -0.43450263060E+01  0.26740543649E+02  0.29882903753E-01  0.27091268358E+02  0.00000000000E+00 0.  1.
</event>
<event>
 7    1  0.4374874E-012  0.5052887E+02  0.7816164E-02  0.1300439E+00
        -11   -1    0    0    0    0  0.00000000000E+00  0.00000000000E+00  0.45593999997E+02  0.45594000000E+02  0.51100000000E-03 0.  1.
         11   -1    0    0    0    0 -0.00000000000E+00 -0.00000000000E+00 -0.45593999997E+02  0.45594000000E+02  0.51100000000E-03 0. -1.
    9900012    2    1    2    0    0  0.33077605017E+02  0.21389144612E+01  0.23547020724E+02  0.50528867032E+02  0.30000021832E+02 0.  0.
        -12    1    1    2    0    0 -0.33077605017E+02 -0.21389144612E+01 -0.23547020724E+02  0.40659132968E+02  0.00000000000E+00 0.  1.
         11    1    3    3    0    0  0.25192228582E+02 -0.12492530672E+01  0.10725718187E+02  0.27408940969E+02  0.51100000000E-03 0. -1.
        -11    1    3    3    0    0  0.10168404643E+02  0.23179649912E+01  0.39111790570E+00  0.10436588914E+02  0.51100000000E-03 0.  1.
        -12    1    3    3    0    0 -0.22830282088E+01  0.10702025372E+01  0.12430184631E+02  0.12683337149E+02  0.00000000000E+00 0.  1.
</event>
<event>
 7    1  0.4374874E-012  0.5052883E+02  0.7816164E-02  0.1300439E+00
        -11   -1    0    0    0    0  0.00000000000E+00  0.00000000000E+00  0.45593999997E+02  0.45594000000E+02  0.51100000000E-03 0. -1.
         11   -1    0    0    0    0 -0.00000000000E+00 -0.00000000000E+00 -0.45593999997E+02  0.45594000000E+02  0.51100000000E-03 0.  1.
    9900012    2    1    2    0    0  0.73700604465E+01  0.21904583687E+01  0.39925580258E+02  0.50528833041E+02  0.29999918511E+02 0.  0.
        -12    1    1    2    0    0 -0.73700604465E+01 -0.21904583687E+01 -0.39925580258E+02  0.40659166959E+02  0.00000000000E+00 0.  1.
         11    1    3    3    0    0 -0.24100680322E+01 -0.31752787626E+01  0.29015591955E+01  0.49305039464E+01  0.51100000000E-03 0. -1.
        -11    1    3    3    0    0  0.81729620664E+01  0.47434413597E+01  0.96582119873E+00  0.94989660343E+01  0.51100000000E-03 0.  1.
         12    1    3    3    0    0  0.16071664123E+01  0.62229577166E+00  0.36058199864E+02  0.36099363060E+02  0.00000000000E+00 0. -1.
</event>
<event>
 7    1  0.4374874E-012  0.5052886E+02  0.7816164E-02  0.1300439E+00
        -11   -1    0    0    0    0  0.00000000000E+00  0.00000000000E+00  0.45593999997E+02  0.45594000000E+02  0.51100000000E-03 0.  1.
         11   -1    0    0    0    0 -0.00000000000E+00 -0.00000000000E+00 -0.45593999997E+02  0.45594000000E+02  0.51100000000E-03 0. -1.
    9900012    2    1    2    0    0 -0.55488423055E+01  0.34257535081E+02 -0.21184835822E+02  0.50528860442E+02  0.30000001800E+02 0.  0.
         12    1    1    2    0    0  0.55488423055E+01 -0.34257535081E+02  0.21184835822E+02  0.40659139558E+02  0.00000000000E+00 0. -1.
         11    1    3    3    0    0  0.23841981991E+01  0.33113091231E+01  0.53242999718E+01  0.67080056360E+01  0.51100000000E-03 0.  1.
        -11    1    3    3    0    0 -0.71157374296E+01  0.10665188581E+02 -0.17297237616E+02  0.21530777879E+02  0.51100000000E-03 0. -1.
        -12    1    3    3    0    0 -0.81730307499E+00  0.20281037377E+02 -0.92118981778E+01  0.22290076927E+02  0.00000000000E+00 0.  1.
</event>
<event>
 7    1  0.4374874E-012  0.5052885E+02  0.7816164E-02  0.1300439E+00
        -11   -1    0    0    0    0  0.00000000000E+00  0.00000000000E+00  0.45593999997E+02  0.45594000000E+02  0.51100000000E-03 0. -1.
         11   -1    0    0    0    0 -0.00000000000E+00 -0.00000000000E+00 -0.45593999997E+02  0.45594000000E+02  0.51100000000E-03 0.  1.
    9900012    2    1    2    0    0  0.31864928200E+02 -0.20122966785E+01 -0.25174262851E+02  0.50528849772E+02  0.29999969368E+02 0.  0.
         12    1    1    2    0    0 -0.31864928200E+02  0.20122966785E+01  0.25174262851E+02  0.40659150228E+02  0.00000000000E+00 0. -1.
         11    1    3    3    0    0  0.19403810059E+02 -0.76256896215E+01 -0.86097246595E+01  0.22556292824E+02  0.51100000000E-03 0. -1.
        -11    1    3    3    0    0  0.47292210181E+01 -0.50355811392E+01 -0.12356100950E+02  0.14156123756E+02  0.51100000000E-03 0.  1.
        -12    1    3    3    0    0  0.77318971237E+01  0.10648974082E+02 -0.42084372412E+01  0.13816433192E+02  0.00000000000E+00 0.  1.
</event>
<event>
 7    1  0.4374874E-012  0.5052886E+02  0.7816164E-02  0.1300439E+00
        -11   -1    0    0    0    0  0.00000000000E+00  0.00000000000E+00  0.45593999997E+02  0.45594000000E+02  0.51100000000E-03 0. -1.
         11   -1    0    0    0    0 -0.00000000000E+00 -0.00000000000E+00 -0.45593999997E+02  0.45594000000E+02  0.51100000000E-03 0.  1.
    9900012    2    1    2    0    0  0.14238433065E+01  0.18696831661E+02 -0.36077238573E+02  0.50528856047E+02  0.29999988441E+02 0.  0.
         12    1    1    2    0    0 -0.14238433065E+01 -0.18696831661E+02  0.36077238573E+02  0.40659143953E+02  0.00000000000E+00 0. -1.
         11    1    3    3    0    0  0.21395823552E+00 -0.60589199741E+00 -0.23598106561E+02  0.23606853173E+02  0.51100000000E-03 0.  1.
        -11    1    3    3    0    0  0.46820871896E+01  0.76466460724E+00 -0.41546289427E+01  0.63061552729E+01  0.51100000000E-03 0. -1.
        -12    1    3    3    0    0 -0.34722021187E+01  0.18538059051E+02 -0.83245030696E+01  0.20615847601E+02  0.00000000000E+00 0.  1.
</event>
<event>
 7    1  0.4374874E-012  0.5052886E+02  0.7816164E-02  0.1300439E+00
        -11   -1    0    0    0    0  0.00000000000E+00  0.00000000000E+00  0.45593999997E+02  0.45594000000E+02  0.51100000000E-03 0. -1.
         11   -1    0    0    0    0 -0.00000000000E+00 -0.00000000000E+00 -0.45593999997E+02  0.45594000000E+02  0.51100000000E-03 0.  1.
    9900012    2    1    2    0    0  0.16819933339E+02 -0.17200195427E+02 -0.32778174637E+02  0.50528860649E+02  0.30000002429E+02 0.  0.
         12    1    1    2    0    0 -0.16819933339E+02  0.17200195427E+02  0.32778174637E+02  0.40659139351E+02  0.00000000000E+00 0. -1.
         11    1    3    3    0    0  0.59411117459E+01 -0.67094198752E+01 -0.82202980103E+00  0.89993809284E+01  0.51100000000E-03 0. -1.
        -11    1    3    3    0    0  0.90570708369E+00  0.64354639066E+01 -0.51340725934E+01  0.82821617148E+01  0.51100000000E-03 0.  1.
        -12    1    3    3    0    0  0.99731145097E+01 -0.16926239458E+02 -0.26822072242E+02  0.33247318006E+02  0.00000000000E+00 0.  1.
</event>
<event>
 7    1  0.4374874E-012  0.5052886E+02  0.7816164E-02  0.1300439E+00
        -11   -1    0    0    0    0  0.00000000000E+00  0.00000000000E+00  0.45593999997E+02  0.45594000000E+02  0.51100000000E-03 0.  1.
         11   -1    0    0    0    0 -0.00000000000E+00 -0.00000000000E+00 -0.45593999997E+02  0.45594000000E+02  0.51100000000E-03 0. -1.
    9900012    2    1    2    0    0 -0.71319654633E+01  0.39157552577E+02  0.83058529734E+01  0.50528855287E+02  0.29999986130E+02 0.  0.
        -12    1    1    2    0    0  0.71319654633E+01 -0.39157552577E+02 -0.83058529734E+01  0.40659144713E+02  0.00000000000E+00 0.  1.
         11    1    3    3    0    0 -0.56509988220E+01  0.23364339402E+02 -0.23298255894E+01  0.24150656946E+02  0.51100000000E-03 0. -1.
        -11    1    3    3    0    0  0.76794256068E+01  0.41329064934E+01  0.12016579317E+01  0.88033218605E+01  0.51100000000E-03 0.  1.
        -12    1    3    3    0    0 -0.91603922481E+01  0.11660306681E+02  0.94340206311E+01  0.17574876481E+02  0.00000000000E+00 0.  1.
</event>
<event>
 7    1  0.4374874E-012  0.5052887E+02  0.7816164E-02  0.1300439E+00
        -11   -1    0    0    0    0  0.00000000000E+00  0.00000000000E+00  0.45593999997E+02  0.45594000000E+02  0.51100000000E-03 0.  1.
         11   -1    0    0    0    0 -0.00000000000E+00 -0.00000000000E+00 -0.45593999997E+02  0.45594000000E+02  0.51100000000E-03 0. -1.
    9900012    2    1    2    0    0  0.35891931051E+02 -0.18444826079E+02  0.49721440409E+01  0.50528873842E+02  0.30000042529E+02 0.  0.
        -12    1    1    2    0    0 -0.35891931051E+02  0.18444826079E+02 -0.49721440409E+01  0.40659126158E+02  0.00000000000E+00 0.  1.
         11    1    3    3    0    0  0.24613796897E+02 -0.24151219131E+02  0.39263782081E+00  0.34485860116E+02  0.51100000000E-03 0. -1.
        -11    1    3    3    0    0  0.51246487331E+01  0.29370748459E+01 -0.23626893160E+01  0.63616612887E+01  0.51100000000E-03 0.  1.
        -12    1    3    3    0    0  0.61534854205E+01  0.27693182066E+01  0.69421955360E+01  0.96813524370E+01  0.00000000000E+00 0.  1.
</event>
<event>
 7    1  0.4374874E-012  0.5052882E+02  0.7816164E-02  0.1300439E+00
        -11   -1    0    0    0    0  0.00000000000E+00  0.00000000000E+00  0.45593999997E+02  0.45594000000E+02  0.51100000000E-03 0. -1.
         11   -1    0    0    0    0 -0.00000000000E+00 -0.00000000000E+00 -0.45593999997E+02  0.45594000000E+02  0.51100000000E-03 0.  1.
    9900012    2    1    2    0    0  0.26001204015E+02 -0.16446731089E+02 -0.26582166095E+02  0.50528817421E+02  0.29999871032E+02 0.  0.
         12    1    1    2    0    0 -0.26001204015E+02  0.16446731089E+02  0.26582166095E+02  0.40659182579E+02  0.00000000000E+00 0. -1.
         11    1    3    3    0    0  0.13376632751E+02  0.17800122573E+00 -0.65492867818E+00  0.13393838883E+02  0.51100000000E-03 0. -1.
        -11    1    3    3    0    0  0.86634676634E+01 -0.12176680831E+02 -0.56095742789E+01  0.15962285296E+02  0.51100000000E-03 0.  1.
        -12    1    3    3    0    0  0.39611036006E+01 -0.44480514835E+01 -0.20317663138E+02  0.21172693242E+02  0.00000000000E+00 0.  1.
</event>
<event>
 7    1  0.4374874E-012  0.5052887E+02  0.7816164E-02  0.1300439E+00
        -11   -1    0    0    0    0  0.00000000000E+00  0.00000000000E+00  0.45593999997E+02  0.45594000000E+02  0.51100000000E-03 0. -1.
         11   -1    0    0    0    0 -0.00000000000E+00 -0.00000000000E+00 -0.45593999997E+02  0.45594000000E+02  0.51100000000E-03 0.  1.
    9900012    2    1    2    0    0  0.14648832364E+02 -0.17016502834E+02  0.33897127233E+02  0.50528869500E+02  0.30000029333E+02 0.  0.
        -12    1    1    2    0    0 -0.14648832364E+02  0.17016502834E+02 -0.33897127233E+02  0.40659130500E+02  0.00000000000E+00 0.  1.
         11    1    3    3    0    0  0.62231221635E+01 -0.20546954049E+01  0.10158238992E+01  0.66318113004E+01  0.51100000000E-03 0. -1.
        -11    1    3    3    0    0  0.47757197263E+01 -0.17249153881E+02  0.97764553932E+01  0.20394114073E+02  0.51100000000E-03 0.  1.
         12    1    3    3    0    0  0.36499904738E+01  0.22873464515E+01  0.23104847941E+02  0.23502944127E+02  0.00000000000E+00 0. -1.
</event>
<event>
 7    1  0.4374874E-012  0.5052890E+02  0.7816164E-02  0.1300439E+00
        -11   -1    0    0    0    0  0.00000000000E+00  0.00000000000E+00  0.45593999997E+02  0.45594000000E+02  0.51100000000E-03 0. -1.
         11   -1    0    0    0    0 -0.00000000000E+00 -0.00000000000E+00 -0.45593999997E+02  0.45594000000E+02  0.51100000000E-03 0.  1.
    9900012    2    1    2    0    0 -0.14258405047E+02 -0.37419634665E+02  0.70449611022E+01  0.50528897085E+02  0.30000113179E+02 0.  0.
        -12    1    1    2    0    0  0.14258405047E+02  0.37419634665E+02 -0.70449611022E+01  0.40659102915E+02  0.00000000000E+00 0.  1.
         11    1    3    3    0    0 -0.15014499938E+02 -0.28027194922E+02  0.80428646739E+01  0.32797050721E+02  0.51100000000E-03 0. -1.
        -11    1    3    3    0    0 -0.68499753881E+01 -0.22351030625E+01 -0.10895655222E+01  0.72873178746E+01  0.51100000000E-03 0.  1.
         12    1    3    3    0    0  0.76060702790E+01 -0.71573366807E+01  0.91661950548E-01  0.10444528489E+02  0.00000000000E+00 0. -1.
</event>
<event>
 7    1  0.8109861E-012  0.5052888E+02  0.7816164E-02  0.1300439E+00
        -11   -1    0    0    0    0  0.00000000000E+00  0.00000000000E+00  0.45593999997E+02  0.45594000000E+02  0.51100000000E-03 0. -1.
         11   -1    0    0    0    0 -0.00000000000E+00 -0.00000000000E+00 -0.45593999997E+02  0.45594000000E+02  0.51100000000E-03 0.  1.
    9900012    2    1    2    0    0 -0.24843168893E+01 -0.13059318889E+02 -0.38424555446E+02  0.50528879234E+02  0.30000058920E+02 0.  0.
         12    1    1    2    0    0  0.24843168893E+01  0.13059318889E+02  0.38424555446E+02  0.40659120766E+02  0.00000000000E+00 0. -1.
         11    1    3    3    0    0  0.39660920566E+00 -0.67357964990E-01 -0.21005440323E+02  0.21009292215E+02  0.51100000000E-03 0.  1.
        -11    1    3    3    0    0 -0.96862351898E+01 -0.54146790887E+01 -0.15645975588E+02  0.19181721877E+02  0.51100000000E-03 0. -1.
         12    1    3    3    0    0  0.68053090948E+01 -0.75772818354E+01 -0.17731395341E+01  0.10337865142E+02  0.00000000000E+00 0. -1.
</event>
<event>
 7    1  0.4374874E-012  0.5052886E+02  0.7816164E-02  0.1300439E+00
        -11   -1    0    0    0    0  0.00000000000E+00  0.00000000000E+00  0.45593999997E+02  0.45594000000E+02  0.51100000000E-03 0. -1.
         11   -1    0    0    0    0 -0.00000000000E+00 -0.00000000000E+00 -0.45593999997E+02  0.45594000000E+02  0.51100000000E-03 0.  1.
    9900012    2    1    2    0    0 -0.24293133597E+02  0.67028849046E+01  0.31907382085E+02  0.50528855426E+02  0.29999986552E+02 0.  0.
        -12    1    1    2    0    0  0.24293133597E+02 -0.67028849046E+01 -0.31907382085E+02  0.40659144574E+02  0.00000000000E+00 0.  1.
         11    1    3    3    0    0  0.57867527441E+01 -0.27212683141E+01  0.95525745289E+01  0.11495368152E+02  0.51100000000E-03 0. -1.
        -11    1    3    3    0    0 -0.58787964892E+01 -0.81567400443E-01  0.28740635189E+01  0.65442450117E+01  0.51100000000E-03 0.  1.
        -12    1    3    3    0    0 -0.24201089852E+02  0.95057206192E+01  0.19480744037E+02  0.32489242262E+02  0.00000000000E+00 0.  1.
</event>
<event>
 7    1  0.4374874E-012  0.5052886E+02  0.7816164E-02  0.1300439E+00
        -11   -1    0    0    0    0  0.00000000000E+00  0.00000000000E+00  0.45593999997E+02  0.45594000000E+02  0.51100000000E-03 0. -1.
         11   -1    0    0    0    0 -0.00000000000E+00 -0.00000000000E+00 -0.45593999997E+02  0.45594000000E+02  0.51100000000E-03 0.  1.
    9900012    2    1    2    0    0  0.31577801842E+02  0.14235974609E+02  0.21291904524E+02  0.50528859078E+02  0.29999997654E+02 0.  0.
        -12    1    1    2    0    0 -0.31577801842E+02 -0.14235974609E+02 -0.21291904524E+02  0.40659140922E+02  0.00000000000E+00 0.  1.
         11    1    3    3    0    0  0.11085897257E+02  0.33306523245E+01  0.13470623455E+02  0.17760857508E+02  0.51100000000E-03 0. -1.
        -11    1    3    3    0    0 -0.44697093963E+00  0.84411888959E+01  0.80650022116E+01  0.11683223610E+02  0.51100000000E-03 0.  1.
         12    1    3    3    0    0  0.20938875525E+02  0.24641333884E+01 -0.24372114319E+00  0.21084777960E+02  0.00000000000E+00 0. -1.
</event>
<event>
 7    1  0.4374874E-012  0.5052886E+02  0.7816164E-02  0.1300439E+00
        -11   -1    0    0    0    0  0.00000000000E+00  0.00000000000E+00  0.45593999997E+02  0.45594000000E+02  0.51100000000E-03 0. -1.
         11   -1    0    0    0    0 -0.00000000000E+00 -0.00000000000E+00 -0.45593999997E+02  0.45594000000E+02  0.51100000000E-03 0.  1.
    9900012    2    1    2    0    0 -0.64509386835E+01 -0.19168697101E+02  0.35271969791E+02  0.50528863125E+02  0.30000009955E+02 0.  0.
        -12    1    1    2    0    0  0.64509386835E+01  0.19168697101E+02 -0.35271969791E+02  0.40659136875E+02  0.00000000000E+00 0.  1.
         11    1    3    3    0    0 -0.10281360447E+02 -0.85582109898E+01  0.26817826473E+02  0.29969070139E+02  0.51100000000E-03 0. -1.
        -11    1    3    3    0    0  0.25123269112E+01 -0.13448575845E+02  0.10117568558E+02  0.17015909396E+02  0.51100000000E-03 0.  1.
        -12    1    3    3    0    0  0.13180948523E+01  0.28380897337E+01 -0.16634252399E+01  0.35438835908E+01  0.00000000000E+00 0.  1.
</event>
<event>
 7    1  0.4374874E-012  0.5052897E+02  0.7816164E-02  0.1300438E+00
        -11   -1    0    0    0    0  0.00000000000E+00  0.00000000000E+00  0.45593999997E+02  0.45594000000E+02  0.51100000000E-03 0.  1.
         11   -1    0    0    0    0 -0.00000000000E+00 -0.00000000000E+00 -0.45593999997E+02  0.45594000000E+02  0.51100000000E-03 0. -1.
    9900012    2    1    2    0    0 -0.34453503634E+02 -0.49859588628E+01  0.21006018546E+02  0.50528972545E+02  0.30000342546E+02 0.  0.
        -12    1    1    2    0    0  0.34453503634E+02  0.49859588628E+01 -0.21006018546E+02  0.40659027455E+02  0.00000000000E+00 0.  1.
         11    1    3    3    0    0 -0.71028379849E+01  0.34116517040E+01 -0.46032888682E+01  0.91257845391E+01  0.51100000000E-03 0. -1.
        -11    1    3    3    0    0 -0.18633994814E+02 -0.11775784153E+02  0.12621192968E+02  0.25400578091E+02  0.51100000000E-03 0.  1.
        -12    1    3    3    0    0 -0.87166708346E+01  0.33781735861E+01  0.12988114447E+02  0.16002609915E+02  0.00000000000E+00 0.  1.
</event>
<event>
 7    1  0.4374874E-012  0.5052886E+02  0.7816164E-02  0.1300439E+00
        -11   -1    0    0    0    0  0.00000000000E+00  0.00000000000E+00  0.45593999997E+02  0.45594000000E+02  0.51100000000E-03 0. -1.
         11   -1    0    0    0    0 -0.00000000000E+00 -0.00000000000E+00 -0.45593999997E+02  0.45594000000E+02  0.51100000000E-03 0.  1.
    9900012    2    1    2    0    0  0.37178121884E+02  0.97200760530E+01  0.13284329024E+02  0.50528855605E+02  0.29999987096E+02 0.  0.
        -12    1    1    2    0    0 -0.37178121884E+02 -0.97200760530E+01 -0.13284329024E+02  0.40659144395E+02  0.00000000000E+00 0.  1.
         11    1    3    3    0    0  0.99078854107E-01  0.26011476000E+01  0.62320536474E+01  0.67538343467E+01  0.51100000000E-03 0.  1.
        -11    1    3    3    0    0  0.39275156080E+02  0.65953169857E+01  0.40670377995E+01  0.40032198140E+02  0.51100000000E-03 0. -1.
         12    1    3    3    0    0 -0.21961130495E+01  0.52361146721E+00  0.29852375775E+01  0.37428231175E+01  0.00000000000E+00 0. -1.
</event>
<event>
 7    1  0.4374874E-012  0.5052887E+02  0.7816164E-02  0.1300439E+00
        -11   -1    0    0    0    0  0.00000000000E+00  0.00000000000E+00  0.45593999997E+02  0.45594000000E+02  0.51100000000E-03 0. -1.
         11   -1    0    0    0    0 -0.00000000000E+00 -0.00000000000E+00 -0.45593999997E+02  0.45594000000E+02  0.51100000000E-03 0.  1.
    9900012    2    1    2    0    0  0.17864590181E+02 -0.30398727537E+02  0.20246937844E+02  0.50528871747E+02  0.30000036162E+02 0.  0.
        -12    1    1    2    0    0 -0.17864590181E+02  0.30398727537E+02 -0.20246937844E+02  0.40659128253E+02  0.00000000000E+00 0.  1.
         11    1    3    3    0    0  0.23973075662E+00 -0.14561144712E+02  0.66350485453E+01  0.16003383256E+02  0.51100000000E-03 0. -1.
        -11    1    3    3    0    0  0.14698561275E+02 -0.18455752205E+02  0.17206935467E+02  0.29201731480E+02  0.51100000000E-03 0.  1.
        -12    1    3    3    0    0  0.29262981499E+01  0.26181693801E+01 -0.35950461678E+01  0.53237570112E+01  0.00000000000E+00 0.  1.
</event>
<event>
 7    1  0.4374874E-012  0.5052884E+02  0.7816164E-02  0.1300439E+00
        -11   -1    0    0    0    0  0.00000000000E+00  0.00000000000E+00  0.45593999997E+02  0.45594000000E+02  0.51100000000E-03 0. -1.
         11   -1    0    0    0    0 -0.00000000000E+00 -0.00000000000E+00 -0.45593999997E+02  0.45594000000E+02  0.51100000000E-03 0.  1.
    9900012    2    1    2    0    0  0.37433414563E+02  0.12305498228E+02  0.10024056103E+02  0.50528837279E+02  0.29999931392E+02 0.  0.
        -12    1    1    2    0    0 -0.37433414563E+02 -0.12305498228E+02 -0.10024056103E+02  0.40659162721E+02  0.00000000000E+00 0.  1.
         11    1    3    3    0    0  0.19760111828E+02  0.95009878051E+01  0.63539771617E+01  0.22827698411E+02  0.51100000000E-03 0. -1.
        -11    1    3    3    0    0  0.14259027297E+02  0.35987926061E+01 -0.71321398149E+01  0.16344374759E+02  0.51100000000E-03 0.  1.
         12    1    3    3    0    0  0.34142754378E+01 -0.79428218275E+00  0.10802218756E+02  0.11356764108E+02  0.00000000000E+00 0. -1.
</event>
<event>
 7    1  0.5282639E-012  0.5052887E+02  0.7816164E-02  0.1300439E+00
        -11   -1    0    0    0    0  0.00000000000E+00  0.00000000000E+00  0.45593999997E+02  0.45594000000E+02  0.51100000000E-03 0. -1.
         11   -1    0    0    0    0 -0.00000000000E+00 -0.00000000000E+00 -0.45593999997E+02  0.45594000000E+02  0.51100000000E-03 0.  1.
    9900012    2    1    2    0    0 -0.28801129829E+02  0.21193209635E+02 -0.19352191190E+02  0.50528874113E+02  0.30000043354E+02 0.  0.
         12    1    1    2    0    0  0.28801129829E+02 -0.21193209635E+02  0.19352191190E+02  0.40659125887E+02  0.00000000000E+00 0. -1.
         11    1    3    3    0    0 -0.13972688878E+02  0.14389051627E+02 -0.94772053435E+00  0.20079318108E+02  0.51100000000E-03 0. -1.
        -11    1    3    3    0    0 -0.10485140645E+02  0.12876356613E+02 -0.14390294275E+02  0.21973149604E+02  0.51100000000E-03 0.  1.
         12    1    3    3    0    0 -0.43433003061E+01 -0.60721986051E+01 -0.40141763804E+01  0.84764064002E+01  0.00000000000E+00 0. -1.
</event>
<event>
 7    1  0.4374874E-012  0.5052884E+02  0.7816164E-02  0.1300439E+00
        -11   -1    0    0    0    0  0.00000000000E+00  0.00000000000E+00  0.45593999997E+02  0.45594000000E+02  0.51100000000E-03 0. -1.
         11   -1    0    0    0    0 -0.00000000000E+00 -0.00000000000E+00 -0.45593999997E+02  0.45594000000E+02  0.51100000000E-03 0.  1.
    9900012    2    1    2    0    0  0.18988032346E+01  0.21881292215E+02  0.34216532899E+02  0.50528837117E+02  0.29999930901E+02 0.  0.
        -12    1    1    2    0    0 -0.18988032346E+01 -0.21881292215E+02 -0.34216532899E+02  0.40659162883E+02  0.00000000000E+00 0.  1.
         11    1    3    3    0    0 -0.17870050044E+01  0.15983406281E+02  0.71592681677E+01  0.17604481935E+02  0.51100000000E-03 0. -1.
        -11    1    3    3    0    0 -0.52465179214E+01  0.78903505995E+01  0.15710945096E+02  0.18347135443E+02  0.51100000000E-03 0.  1.
        -12    1    3    3    0    0  0.89323261604E+01 -0.19924646658E+01  0.11346319635E+02  0.14577219739E+02  0.00000000000E+00 0.  1.
</event>
<event>
 7    1  0.4374874E-012  0.5052887E+02  0.7816164E-02  0.1300439E+00
        -11   -1    0    0    0    0  0.00000000000E+00  0.00000000000E+00  0.45593999997E+02  0.45594000000E+02  0.51100000000E-03 0. -1.
         11   -1    0    0    0    0 -0.00000000000E+00 -0.00000000000E+00 -0.45593999997E+02  0.45594000000E+02  0.51100000000E-03 0.  1.
    9900012    2    1    2    0    0 -0.23582648699E+02  0.22259250936E+02  0.24526501306E+02  0.50528870174E+02  0.30000031380E+02 0.  0.
        -12    1    1    2    0    0  0.23582648699E+02 -0.22259250936E+02 -0.24526501306E+02  0.40659129826E+02  0.00000000000E+00 0.  1.
         11    1    3    3    0    0 -0.13563672962E+02  0.95690751027E+01  0.28257404647E+01  0.16838207505E+02  0.51100000000E-03 0. -1.
        -11    1    3    3    0    0 -0.37675414958E+01  0.73642045639E+01 -0.20818949250E+01  0.85299568886E+01  0.51100000000E-03 0.  1.
         12    1    3    3    0    0 -0.62514342416E+01  0.53259712691E+01  0.23782655767E+02  0.25160705780E+02  0.00000000000E+00 0. -1.
</event>
<event>
 7    1  0.4374874E-012  0.5052888E+02  0.7816164E-02  0.1300439E+00
        -11   -1    0    0    0    0  0.00000000000E+00  0.00000000000E+00  0.45593999997E+02  0.45594000000E+02  0.51100000000E-03 0. -1.
         11   -1    0    0    0    0 -0.00000000000E+00 -0.00000000000E+00 -0.45593999997E+02  0.45594000000E+02  0.51100000000E-03 0.  1.
    9900012    2    1    2    0    0 -0.15296229659E+02 -0.45859807554E+01 -0.37391950401E+02  0.50528882744E+02  0.30000069587E+02 0.  0.
         12    1    1    2    0    0  0.15296229659E+02  0.45859807554E+01  0.37391950401E+02  0.40659117256E+02  0.00000000000E+00 0. -1.
         11    1    3    3    0    0  0.19954013586E+01 -0.80785119827E+01 -0.10909796365E+02  0.13721065535E+02  0.51100000000E-03 0. -1.
        -11    1    3    3    0    0 -0.10139365806E+01  0.82938695749E+01 -0.11174983439E+02  0.13953372174E+02  0.51100000000E-03 0.  1.
         12    1    3    3    0    0 -0.16277694437E+02 -0.48013383475E+01 -0.15307170597E+02  0.22854445034E+02  0.00000000000E+00 0. -1.
</event>
<event>
 7    1  0.4374874E-012  0.5052890E+02  0.7816164E-02  0.1300439E+00
        -11   -1    0    0    0    0  0.00000000000E+00  0.00000000000E+00  0.45593999997E+02  0.45594000000E+02  0.51100000000E-03 0. -1.
         11   -1    0    0    0    0 -0.00000000000E+00 -0.00000000000E+00 -0.45593999997E+02  0.45594000000E+02  0.51100000000E-03 0.  1.
    9900012    2    1    2    0    0  0.20775999661E+02 -0.30697504165E+02  0.16708782754E+02  0.50528900834E+02  0.30000124574E+02 0.  0.
        -12    1    1    2    0    0 -0.20775999661E+02  0.30697504165E+02 -0.16708782754E+02  0.40659099166E+02  0.00000000000E+00 0.  1.
         11    1    3    3    0    0  0.37002120887E+01 -0.13593976790E+02 -0.13147046114E+01  0.14149778195E+02  0.51100000000E-03 0. -1.
        -11    1    3    3    0    0 -0.13115279660E+01  0.30754915533E+01 -0.51052517637E+00  0.33822167460E+01  0.51100000000E-03 0.  1.
         12    1    3    3    0    0  0.18387315539E+02 -0.20179018928E+02  0.18534012542E+02  0.32996905893E+02  0.00000000000E+00 0. -1.
</event>
<event>
 7    1  0.4374874E-012  0.5052888E+02  0.7816164E-02  0.1300439E+00
        -11   -1    0    0    0    0  0.00000000000E+00  0.00000000000E+00  0.45593999997E+02  0.45594000000E+02  0.51100000000E-03 0. -1.
         11   -1    0    0    0    0 -0.00000000000E+00 -0.00000000000E+00 -0.45593999997E+02  0.45594000000E+02  0.51100000000E-03 0.  1.
    9900012    2    1    2    0    0  0.54074873550E+01 -0.20205441082E+02  0.34866359835E+02  0.50528882733E+02  0.30000069555E+02 0.  0.
        -12    1    1    2    0    0 -0.54074873550E+01  0.20205441082E+02 -0.34866359835E+02  0.40659117267E+02  0.00000000000E+00 0.  1.
         11    1    3    3    0    0  0.36336480848E+01 -0.12957180206E+02  0.13732085926E+02  0.19226598800E+02  0.51100000000E-03 0. -1.
        -11    1    3    3    0    0 -0.95381907507E+01 -0.64965620975E+01  0.12780987959E+02  0.17220222279E+02  0.51100000000E-03 0.  1.
        -12    1    3    3    0    0  0.11312030021E+02 -0.75169877871E+00  0.83532859498E+01  0.14082061653E+02  0.00000000000E+00 0.  1.
</event>
<event>
 7    1  0.4374874E-012  0.5052886E+02  0.7816164E-02  0.1300439E+00
        -11   -1    0    0    0    0  0.00000000000E+00  0.00000000000E+00  0.45593999997E+02  0.45594000000E+02  0.51100000000E-03 0. -1.
         11   -1    0    0    0    0 -0.00000000000E+00 -0.00000000000E+00 -0.45593999997E+02  0.45594000000E+02  0.51100000000E-03 0.  1.
    9900012    2    1    2    0    0 -0.12691332080E+02  0.99428703757E+01 -0.37326065629E+02  0.50528858880E+02  0.29999997051E+02 0.  0.
         12    1    1    2    0    0  0.12691332080E+02 -0.99428703757E+01  0.37326065629E+02  0.40659141120E+02  0.00000000000E+00 0. -1.
         11    1    3    3    0    0 -0.78210995246E+01  0.78296140324E+01 -0.35640038962E+00  0.11072464729E+02  0.51100000000E-03 0. -1.
        -11    1    3    3    0    0 -0.18580576614E+01 -0.13294209121E+01 -0.81967749051E-01  0.22861446165E+01  0.51100000000E-03 0.  1.
        -12    1    3    3    0    0 -0.30121748938E+01  0.34426772553E+01 -0.36887697491E+02  0.37170249534E+02  0.00000000000E+00 0.  1.
</event>
<event>
 7    1  0.4374874E-012  0.5052886E+02  0.7816164E-02  0.1300439E+00
        -11   -1    0    0    0    0  0.00000000000E+00  0.00000000000E+00  0.45593999997E+02  0.45594000000E+02  0.51100000000E-03 0. -1.
         11   -1    0    0    0    0 -0.00000000000E+00 -0.00000000000E+00 -0.45593999997E+02  0.45594000000E+02  0.51100000000E-03 0.  1.
    9900012    2    1    2    0    0  0.67227999024E+01  0.25804697828E+02 -0.30693440961E+02  0.50528858512E+02  0.29999995934E+02 0.  0.
         12    1    1    2    0    0 -0.67227999024E+01 -0.25804697828E+02  0.30693440961E+02  0.40659141488E+02  0.00000000000E+00 0. -1.
         11    1    3    3    0    0 -0.31986513961E+01  0.15394544484E+02 -0.18730494302E+01  0.15834509309E+02  0.51100000000E-03 0. -1.
        -11    1    3    3    0    0  0.34147744284E+01  0.10182802663E+02 -0.96143177707E+01  0.14414758441E+02  0.51100000000E-03 0.  1.
        -12    1    3    3    0    0  0.65066768701E+01  0.22735068141E+00 -0.19206073760E+02  0.20279590762E+02  0.00000000000E+00 0.  1.
</event>
<event>
 7    1  0.4374874E-012  0.5052885E+02  0.7816164E-02  0.1300439E+00
        -11   -1    0    0    0    0  0.00000000000E+00  0.00000000000E+00  0.45593999997E+02  0.45594000000E+02  0.51100000000E-03 0. -1.
         11   -1    0    0    0    0 -0.00000000000E+00 -0.00000000000E+00 -0.45593999997E+02  0.45594000000E+02  0.51100000000E-03 0.  1.
    9900012    2    1    2    0    0  0.30362307236E+02 -0.22930941389E+02 -0.14334167513E+02  0.50528854264E+02  0.29999983021E+02 0.  0.
         12    1    1    2    0    0 -0.30362307236E+02  0.22930941389E+02  0.14334167513E+02  0.40659145736E+02  0.00000000000E+00 0. -1.
         11    1    3    3    0    0  0.10277507538E+02 -0.21881189745E+02 -0.46575874909E+01  0.24619235312E+02  0.51100000000E-03 0. -1.
        -11    1    3    3    0    0  0.21020106786E+02 -0.29221795232E+01 -0.66690295671E+01  0.22245448481E+02  0.51100000000E-03 0.  1.
        -12    1    3    3    0    0 -0.93530708842E+00  0.18724278784E+01 -0.30075504547E+01  0.36641704719E+01  0.00000000000E+00 0.  1.
</event>
<event>
 7    1  0.4374874E-012  0.5052882E+02  0.7816164E-02  0.1300439E+00
        -11   -1    0    0    0    0  0.00000000000E+00  0.00000000000E+00  0.45593999997E+02  0.45594000000E+02  0.51100000000E-03 0. -1.
         11   -1    0    0    0    0 -0.00000000000E+00 -0.00000000000E+00 -0.45593999997E+02  0.45594000000E+02  0.51100000000E-03 0.  1.
    9900012    2    1    2    0    0 -0.32505642024E+02  0.15269571744E+02  0.19062853503E+02  0.50528819384E+02  0.29999877001E+02 0.  0.
        -12    1    1    2    0    0  0.32505642024E+02 -0.15269571744E+02 -0.19062853503E+02  0.40659180616E+02  0.00000000000E+00 0.  1.
         11    1    3    3    0    0 -0.15726827364E+02  0.18333125061E+01  0.32205412446E+00  0.15836598523E+02  0.51100000000E-03 0. -1.
        -11    1    3    3    0    0  0.33158983879E+01  0.43486763578E+01 -0.40965611783E+00  0.54839754357E+01  0.51100000000E-03 0.  1.
         12    1    3    3    0    0 -0.20094713048E+02  0.90875828802E+01  0.19150455497E+02  0.29208245425E+02  0.00000000000E+00 0. -1.
</event>
<event>
 7    1  0.4374874E-012  0.5052887E+02  0.7816164E-02  0.1300439E+00
        -11   -1    0    0    0    0  0.00000000000E+00  0.00000000000E+00  0.45593999997E+02  0.45594000000E+02  0.51100000000E-03 0. -1.
         11   -1    0    0    0    0 -0.00000000000E+00 -0.00000000000E+00 -0.45593999997E+02  0.45594000000E+02  0.51100000000E-03 0.  1.
    9900012    2    1    2    0    0  0.17188561940E+02  0.21015674378E+02  0.30266477191E+02  0.50528869750E+02  0.30000030091E+02 0.  0.
        -12    1    1    2    0    0 -0.17188561940E+02 -0.21015674378E+02 -0.30266477191E+02  0.40659130250E+02  0.00000000000E+00 0.  1.
         11    1    3    3    0    0  0.17093493957E+01 -0.58896965081E+01  0.84824361293E+01  0.10467192712E+02  0.51100000000E-03 0. -1.
        -11    1    3    3    0    0  0.63692081693E+01  0.34225829849E+01  0.79356008241E+00  0.72739689894E+01  0.51100000000E-03 0.  1.
        -12    1    3    3    0    0  0.91100043749E+01  0.23482787901E+02  0.20990480980E+02  0.32787708049E+02  0.00000000000E+00 0.  1.
</event>
<event>
 7    1  0.4374874E-012  0.5052885E+02  0.7816164E-02  0.1300439E+00
        -11   -1    0    0    0    0  0.00000000000E+00  0.00000000000E+00  0.45593999997E+02  0.45594000000E+02  0.51100000000E-03 0. -1.
         11   -1    0    0    0    0 -0.00000000000E+00 -0.00000000000E+00 -0.45593999997E+02  0.45594000000E+02  0.51100000000E-03 0.  1.
    9900012    2    1    2    0    0 -0.62020254480E+01 -0.35505627584E+02 -0.18816257044E+02  0.50528852949E+02  0.29999979023E+02 0.  0.
         12    1    1    2    0    0  0.62020254480E+01  0.35505627584E+02  0.18816257044E+02  0.40659147051E+02  0.00000000000E+00 0. -1.
         11    1    3    3    0    0  0.16856994184E+01 -0.49400936887E+01  0.21429376930E+01  0.56425429019E+01  0.51100000000E-03 0. -1.
        -11    1    3    3    0    0 -0.84708573850E+01 -0.34535211192E+02 -0.19847082870E+02  0.40722756975E+02  0.51100000000E-03 0.  1.
         12    1    3    3    0    0  0.58313251863E+00  0.39696772972E+01 -0.11121118674E+01  0.41635530720E+01  0.00000000000E+00 0. -1.
</event>
<event>
 7    1  0.4374874E-012  0.5052886E+02  0.7816164E-02  0.1300439E+00
        -11   -1    0    0    0    0  0.00000000000E+00  0.00000000000E+00  0.45593999997E+02  0.45594000000E+02  0.51100000000E-03 0. -1.
         11   -1    0    0    0    0 -0.00000000000E+00 -0.00000000000E+00 -0.45593999997E+02  0.45594000000E+02  0.51100000000E-03 0.  1.
    9900012    2    1    2    0    0  0.96987166919E+01  0.30374287871E+02  0.25229020795E+02  0.50528856386E+02  0.29999989472E+02 0.  0.
        -12    1    1    2    0    0 -0.96987166919E+01 -0.30374287871E+02 -0.25229020795E+02  0.40659143614E+02  0.00000000000E+00 0.  1.
         11    1    3    3    0    0 -0.47717171855E+01  0.41827510964E+01  0.78686958618E+01  0.10108465089E+02  0.51100000000E-03 0. -1.
        -11    1    3    3    0    0  0.13705089871E+02  0.40178740694E+01  0.59550517602E+01  0.15473701630E+02  0.51100000000E-03 0.  1.
         12    1    3    3    0    0  0.76534400642E+00  0.22173662705E+02  0.11405273173E+02  0.24946689667E+02  0.00000000000E+00 0. -1.
</event>
<event>
 7    1  0.4374874E-012  0.5052885E+02  0.7816164E-02  0.1300439E+00
        -11   -1    0    0    0    0  0.00000000000E+00  0.00000000000E+00  0.45593999997E+02  0.45594000000E+02  0.51100000000E-03 0. -1.
         11   -1    0    0    0    0 -0.00000000000E+00 -0.00000000000E+00 -0.45593999997E+02  0.45594000000E+02  0.51100000000E-03 0.  1.
    9900012    2    1    2    0    0 -0.13459759364E+02  0.15633889295E+02 -0.35036873320E+02  0.50528854551E+02  0.29999983893E+02 0.  0.
         12    1    1    2    0    0  0.13459759364E+02 -0.15633889295E+02  0.35036873320E+02  0.40659145449E+02  0.00000000000E+00 0. -1.
         11    1    3    3    0    0  0.53490262075E+01  0.10288078940E+01 -0.86132723209E+01  0.10191122970E+02  0.51100000000E-03 0. -1.
        -11    1    3    3    0    0 -0.72686469122E+01 -0.38811140174E+01 -0.10501552138E+02  0.13348365874E+02  0.51100000000E-03 0.  1.
        -12    1    3    3    0    0 -0.11540138659E+02  0.18486195418E+02 -0.15922048861E+02  0.26989365707E+02  0.00000000000E+00 0.  1.
</event>
<event>
 7    1  0.4374874E-012  0.5052887E+02  0.7816164E-02  0.1300439E+00
        -11   -1    0    0    0    0  0.00000000000E+00  0.00000000000E+00  0.45593999997E+02  0.45594000000E+02  0.51100000000E-03 0. -1.
         11   -1    0    0    0    0 -0.00000000000E+00 -0.00000000000E+00 -0.45593999997E+02  0.45594000000E+02  0.51100000000E-03 0.  1.
    9900012    2    1    2    0    0  0.24183062039E+02  0.17070193427E+02 -0.27873873160E+02  0.50528870667E+02  0.30000032879E+02 0.  0.
         12    1    1    2    0    0 -0.24183062039E+02 -0.17070193427E+02  0.27873873160E+02  0.40659129333E+02  0.00000000000E+00 0. -1.
         11    1    3    3    0    0  0.32644552160E+01  0.39869393563E+00 -0.24522523957E+01  0.41023367469E+01  0.51100000000E-03 0. -1.
        -11    1    3    3    0    0  0.24963954903E+02  0.19824539143E+02 -0.15927583060E+02  0.35635646465E+02  0.51100000000E-03 0.  1.
         12    1    3    3    0    0 -0.40453480800E+01 -0.31530396516E+01 -0.94940377044E+01  0.10790887455E+02  0.00000000000E+00 0. -1.
</event>
<event>
 7    1  0.4374874E-012  0.5052887E+02  0.7816164E-02  0.1300439E+00
        -11   -1    0    0    0    0  0.00000000000E+00  0.00000000000E+00  0.45593999997E+02  0.45594000000E+02  0.51100000000E-03 0. -1.
         11   -1    0    0    0    0 -0.00000000000E+00 -0.00000000000E+00 -0.45593999997E+02  0.45594000000E+02  0.51100000000E-03 0.  1.
    9900012    2    1    2    0    0 -0.15037165023E+02  0.17714263530E+02 -0.33365448181E+02  0.50528873144E+02  0.30000040410E+02 0.  0.
         12    1    1    2    0    0  0.15037165023E+02 -0.17714263530E+02  0.33365448181E+02  0.40659126856E+02  0.00000000000E+00 0. -1.
         11    1    3    3    0    0 -0.72411325272E+01  0.31153117600E+01 -0.84693609820E+01  0.11570187697E+02  0.51100000000E-03 0. -1.
        -11    1    3    3    0    0 -0.14921222038E+01  0.10540970397E+02 -0.28657381262E+02  0.30570966400E+02  0.51100000000E-03 0.  1.
         12    1    3    3    0    0 -0.63039102920E+01  0.40579813722E+01  0.37612940628E+01  0.83877190472E+01  0.00000000000E+00 0. -1.
</event>
<event>
 7    1  0.4374874E-012  0.5052886E+02  0.7816164E-02  0.1300439E+00
        -11   -1    0    0    0    0  0.00000000000E+00  0.00000000000E+00  0.45593999997E+02  0.45594000000E+02  0.51100000000E-03 0. -1.
         11   -1    0    0    0    0 -0.00000000000E+00 -0.00000000000E+00 -0.45593999997E+02  0.45594000000E+02  0.51100000000E-03 0.  1.
    9900012    2    1    2    0    0  0.88773657269E+01 -0.24173351388E+02  0.31464374759E+02  0.50528863037E+02  0.30000009687E+02 0.  0.
        -12    1    1    2    0    0 -0.88773657269E+01  0.24173351388E+02 -0.31464374759E+02  0.40659136963E+02  0.00000000000E+00 0.  1.
         11    1    3    3    0    0  0.32421962207E+00 -0.43442499273E+01 -0.44494378223E+01  0.62269673991E+01  0.51100000000E-03 0. -1.
        -11    1    3    3    0    0  0.42809808417E+01 -0.13682546973E+02  0.10396945686E+02  0.17709753485E+02  0.51100000000E-03 0.  1.
         12    1    3    3    0    0  0.42721652632E+01 -0.61465544882E+01  0.25516866896E+02  0.26592142153E+02  0.00000000000E+00 0. -1.
</event>
<event>
 7    1  0.4374874E-012  0.5052887E+02  0.7816164E-02  0.1300439E+00
        -11   -1    0    0    0    0  0.00000000000E+00  0.00000000000E+00  0.45593999997E+02  0.45594000000E+02  0.51100000000E-03 0.  1.
         11   -1    0    0    0    0 -0.00000000000E+00 -0.00000000000E+00 -0.45593999997E+02  0.45594000000E+02  0.51100000000E-03 0. -1.
    9900012    2    1    2    0    0  0.30424318642E+02 -0.18367784749E+02  0.19752216458E+02  0.50528871426E+02  0.30000035186E+02 0.  0.
        -12    1    1    2    0    0 -0.30424318642E+02  0.18367784749E+02 -0.19752216458E+02  0.40659128574E+02  0.00000000000E+00 0.  1.
         11    1    3    3    0    0  0.18832053445E+02 -0.19397617771E+02  0.88279196633E+01  0.28440217615E+02  0.51100000000E-03 0. -1.
        -11    1    3    3    0    0 -0.31780855220E+01 -0.22806888038E+01  0.11770549187E+01  0.40850003119E+01  0.51100000000E-03 0.  1.
         12    1    3    3    0    0  0.14770350719E+02  0.33105218260E+01  0.97472418758E+01  0.18003653499E+02  0.00000000000E+00 0. -1.
</event>
<event>
 7    1  0.4374874E-012  0.5052885E+02  0.7816164E-02  0.1300439E+00
        -11   -1    0    0    0    0  0.00000000000E+00  0.00000000000E+00  0.45593999997E+02  0.45594000000E+02  0.51100000000E-03 0. -1.
         11   -1    0    0    0    0 -0.00000000000E+00 -0.00000000000E+00 -0.45593999997E+02  0.45594000000E+02  0.51100000000E-03 0.  1.
    9900012    2    1    2    0    0 -0.56213427195E+01 -0.33039409893E+02  0.23020949715E+02  0.50528853110E+02  0.29999979512E+02 0.  0.
        -12    1    1    2    0    0  0.56213427195E+01  0.33039409893E+02 -0.23020949715E+02  0.40659146890E+02  0.00000000000E+00 0.  1.
         11    1    3    3    0    0 -0.11904284959E+02 -0.12058392953E+02  0.20414015906E+02  0.26530150521E+02  0.51100000000E-03 0. -1.
        -11    1    3    3    0    0  0.22201449205E+01 -0.67869914488E+00  0.23340974780E+01  0.32920642909E+01  0.51100000000E-03 0.  1.
         12    1    3    3    0    0  0.40627973190E+01 -0.20302317796E+02  0.27283633097E+00  0.20706638298E+02  0.00000000000E+00 0. -1.
</event>
<event>
 7    1  0.4374874E-012  0.5052881E+02  0.7816164E-02  0.1300439E+00
        -11   -1    0    0    0    0  0.00000000000E+00  0.00000000000E+00  0.45593999997E+02  0.45594000000E+02  0.51100000000E-03 0. -1.
         11   -1    0    0    0    0 -0.00000000000E+00 -0.00000000000E+00 -0.45593999997E+02  0.45594000000E+02  0.51100000000E-03 0.  1.
    9900012    2    1    2    0    0  0.26012764372E+02  0.18936224617E+02  0.24858109174E+02  0.50528805410E+02  0.29999834523E+02 0.  0.
        -12    1    1    2    0    0 -0.26012764372E+02 -0.18936224617E+02 -0.24858109174E+02  0.40659194590E+02  0.00000000000E+00 0.  1.
         11    1    3    3    0    0  0.16604060927E+02  0.13670746226E+02  0.68203262690E+01  0.22563266437E+02  0.51100000000E-03 0. -1.
        -11    1    3    3    0    0 -0.22949055570E+01  0.75011125287E+01  0.12659274447E+02  0.14892632758E+02  0.51100000000E-03 0.  1.
         12    1    3    3    0    0  0.11703609002E+02 -0.22356341375E+01  0.53785084582E+01  0.13072906215E+02  0.00000000000E+00 0. -1.
</event>
<event>
 7    1  0.4374874E-012  0.5052885E+02  0.7816164E-02  0.1300439E+00
        -11   -1    0    0    0    0  0.00000000000E+00  0.00000000000E+00  0.45593999997E+02  0.45594000000E+02  0.51100000000E-03 0. -1.
         11   -1    0    0    0    0 -0.00000000000E+00 -0.00000000000E+00 -0.45593999997E+02  0.45594000000E+02  0.51100000000E-03 0.  1.
    9900012    2    1    2    0    0  0.15795208792E+02  0.35760768433E+02 -0.11173418907E+02  0.50528850110E+02  0.29999970394E+02 0.  0.
         12    1    1    2    0    0 -0.15795208792E+02 -0.35760768433E+02  0.11173418907E+02  0.40659149890E+02  0.00000000000E+00 0. -1.
         11    1    3    3    0    0  0.37630981394E+01  0.96052089857E+01  0.47888277524E+01  0.11373382029E+02  0.51100000000E-03 0. -1.
        -11    1    3    3    0    0  0.96878439498E+01  0.92514774503E+01  0.29133529070E+01  0.13708821278E+02  0.51100000000E-03 0.  1.
        -12    1    3    3    0    0  0.23442667032E+01  0.16904081997E+02 -0.18875599567E+02  0.25446646803E+02  0.00000000000E+00 0.  1.
</event>
<event>
 7    1  0.4374874E-012  0.5052887E+02  0.7816164E-02  0.1300439E+00
        -11   -1    0    0    0    0  0.00000000000E+00  0.00000000000E+00  0.45593999997E+02  0.45594000000E+02  0.51100000000E-03 0. -1.
         11   -1    0    0    0    0 -0.00000000000E+00 -0.00000000000E+00 -0.45593999997E+02  0.45594000000E+02  0.51100000000E-03 0.  1.
    9900012    2    1    2    0    0 -0.13613353865E+01 -0.12888727835E+01  0.40615891555E+02  0.50528867276E+02  0.30000022571E+02 0.  0.
        -12    1    1    2    0    0  0.13613353865E+01  0.12888727835E+01 -0.40615891555E+02  0.40659132724E+02  0.00000000000E+00 0.  1.
         11    1    3    3    0    0  0.19221430721E+01 -0.21086170536E+01  0.13947541425E+02  0.14236390411E+02  0.51100000000E-03 0. -1.
        -11    1    3    3    0    0 -0.66210301925E+01  0.68511538912E+01  0.27727079079E+02  0.29318377598E+02  0.51100000000E-03 0.  1.
        -12    1    3    3    0    0  0.33375517338E+01 -0.60314096211E+01 -0.10587289490E+01  0.69740992667E+01  0.00000000000E+00 0.  1.
</event>
<event>
 7    1  0.4374874E-012  0.5052886E+02  0.7816164E-02  0.1300439E+00
        -11   -1    0    0    0    0  0.00000000000E+00  0.00000000000E+00  0.45593999997E+02  0.45594000000E+02  0.51100000000E-03 0. -1.
         11   -1    0    0    0    0 -0.00000000000E+00 -0.00000000000E+00 -0.45593999997E+02  0.45594000000E+02  0.51100000000E-03 0.  1.
    9900012    2    1    2    0    0 -0.21748169864E+02 -0.23205728182E+02 -0.25331336445E+02  0.50528864262E+02  0.30000013411E+02 0.  0.
         12    1    1    2    0    0  0.21748169864E+02  0.23205728182E+02  0.25331336445E+02  0.40659135738E+02  0.00000000000E+00 0. -1.
         11    1    3    3    0    0 -0.53961919764E+01  0.27812580215E+01  0.10867316830E+01  0.61672741175E+01  0.51100000000E-03 0. -1.
        -11    1    3    3    0    0 -0.25247719487E+01 -0.12436633731E+02 -0.14584802846E+01  0.12773859908E+02  0.51100000000E-03 0.  1.
        -12    1    3    3    0    0 -0.13827205939E+02 -0.13550352473E+02 -0.24959587843E+02  0.31587730237E+02  0.00000000000E+00 0.  1.
</event>
<event>
 7    1  0.4374874E-012  0.5052886E+02  0.7816164E-02  0.1300439E+00
        -11   -1    0    0    0    0  0.00000000000E+00  0.00000000000E+00  0.45593999997E+02  0.45594000000E+02  0.51100000000E-03 0. -1.
         11   -1    0    0    0    0 -0.00000000000E+00 -0.00000000000E+00 -0.45593999997E+02  0.45594000000E+02  0.51100000000E-03 0.  1.
    9900012    2    1    2    0    0  0.10798789417E+02 -0.26400079891E+02  0.28975637530E+02  0.50528860297E+02  0.30000001358E+02 0.  0.
        -12    1    1    2    0    0 -0.10798789417E+02  0.26400079891E+02 -0.28975637530E+02  0.40659139703E+02  0.00000000000E+00 0.  1.
         11    1    3    3    0    0  0.40205274595E+01 -0.24271164464E+02  0.19957404423E+02  0.31678889770E+02  0.51100000000E-03 0. -1.
        -11    1    3    3    0    0  0.75445101515E+01 -0.74559170099E+01  0.35698269712E+01  0.11191693203E+02  0.51100000000E-03 0.  1.
         12    1    3    3    0    0 -0.76624819368E+00  0.53270015825E+01  0.54484061354E+01  0.76582773239E+01  0.00000000000E+00 0. -1.
</event>
<event>
 7    1  0.4374874E-012  0.5052886E+02  0.7816164E-02  0.1300439E+00
        -11   -1    0    0    0    0  0.00000000000E+00  0.00000000000E+00  0.45593999997E+02  0.45594000000E+02  0.51100000000E-03 0. -1.
         11   -1    0    0    0    0 -0.00000000000E+00 -0.00000000000E+00 -0.45593999997E+02  0.45594000000E+02  0.51100000000E-03 0.  1.
    9900012    2    1    2    0    0 -0.21604883842E+02  0.29802810681E+02 -0.17268098093E+02  0.50528859059E+02  0.29999997596E+02 0.  0.
         12    1    1    2    0    0  0.21604883842E+02 -0.29802810681E+02  0.17268098093E+02  0.40659140941E+02  0.00000000000E+00 0. -1.
         11    1    3    3    0    0 -0.10694583234E+01 -0.17167989878E+01 -0.31180827422E+00  0.20465494206E+01  0.51100000000E-03 0. -1.
        -11    1    3    3    0    0 -0.75040107778E+01  0.19452883472E+02  0.37693812307E+01  0.21188041162E+02  0.51100000000E-03 0.  1.
         12    1    3    3    0    0 -0.13031414740E+02  0.12066726197E+02 -0.20725671049E+02  0.27294268477E+02  0.00000000000E+00 0. -1.
</event>
<event>
 7    1  0.4990073E-012  0.5052884E+02  0.7816164E-02  0.1300439E+00
        -11   -1    0    0    0    0  0.00000000000E+00  0.00000000000E+00  0.45593999997E+02  0.45594000000E+02  0.51100000000E-03 0. -1.
         11   -1    0    0    0    0 -0.00000000000E+00 -0.00000000000E+00 -0.45593999997E+02  0.45594000000E+02  0.51100000000E-03 0.  1.
    9900012    2    1    2    0    0 -0.12497401106E+02  0.34140724568E+02 -0.18204215515E+02  0.50528836568E+02  0.29999929233E+02 0.  0.
         12    1    1    2    0    0  0.12497401106E+02 -0.34140724568E+02  0.18204215515E+02  0.40659163432E+02  0.00000000000E+00 0. -1.
         11    1    3    3    0    0 -0.15174700193E+01  0.52667472324E+00 -0.66965086554E+01  0.68864599002E+01  0.51100000000E-03 0. -1.
        -11    1    3    3    0    0 -0.58368001576E+01  0.27656414539E+02 -0.17939625931E+02  0.33477987993E+02  0.51100000000E-03 0.  1.
         12    1    3    3    0    0 -0.51431309292E+01  0.59576353055E+01  0.64319190717E+01  0.10164388675E+02  0.00000000000E+00 0. -1.
</event>
<event>
 7    1  0.4374874E-012  0.5052886E+02  0.7816164E-02  0.1300439E+00
        -11   -1    0    0    0    0  0.00000000000E+00  0.00000000000E+00  0.45593999997E+02  0.45594000000E+02  0.51100000000E-03 0. -1.
         11   -1    0    0    0    0 -0.00000000000E+00 -0.00000000000E+00 -0.45593999997E+02  0.45594000000E+02  0.51100000000E-03 0.  1.
    9900012    2    1    2    0    0  0.16262740019E+02  0.32249987329E+01  0.37125303342E+02  0.50528862306E+02  0.30000007466E+02 0.  0.
        -12    1    1    2    0    0 -0.16262740019E+02 -0.32249987329E+01 -0.37125303342E+02  0.40659137694E+02  0.00000000000E+00 0.  1.
         11    1    3    3    0    0  0.94850952639E+01  0.53319880309E+01  0.16438793195E+02  0.19713727463E+02  0.51100000000E-03 0. -1.
        -11    1    3    3    0    0  0.10233758752E+02 -0.76492135957E+01  0.20650618712E+02  0.24283499342E+02  0.51100000000E-03 0.  1.
        -12    1    3    3    0    0 -0.34561139966E+01  0.55422242976E+01  0.35891434687E-01  0.65316355010E+01  0.00000000000E+00 0.  1.
</event>
<event>
 7    1  0.4374874E-012  0.5052877E+02  0.7816164E-02  0.1300439E+00
        -11   -1    0    0    0    0  0.00000000000E+00  0.00000000000E+00  0.45593999997E+02  0.45594000000E+02  0.51100000000E-03 0. -1.
         11   -1    0    0    0    0 -0.00000000000E+00 -0.00000000000E+00 -0.45593999997E+02  0.45594000000E+02  0.51100000000E-03 0.  1.
    9900012    2    1    2    0    0  0.18565952822E+01  0.20738232737E+02 -0.34923511620E+02  0.50528770950E+02  0.29999729779E+02 0.  0.
         12    1    1    2    0    0 -0.18565952822E+01 -0.20738232737E+02  0.34923511620E+02  0.40659229050E+02  0.00000000000E+00 0. -1.
         11    1    3    3    0    0 -0.83252316770E+01  0.81485519681E+01 -0.68204209170E+01  0.13499130468E+02  0.51100000000E-03 0. -1.
        -11    1    3    3    0    0  0.88760517085E+01  0.11764181747E+02 -0.78114864498E+01  0.16679316141E+02  0.51100000000E-03 0.  1.
        -12    1    3    3    0    0  0.13057752507E+01  0.82549902181E+00 -0.20291604253E+02  0.20350324341E+02  0.00000000000E+00 0.  1.
</event>
<event>
 7    1  0.4374874E-012  0.5052885E+02  0.7816164E-02  0.1300439E+00
        -11   -1    0    0    0    0  0.00000000000E+00  0.00000000000E+00  0.45593999997E+02  0.45594000000E+02  0.51100000000E-03 0. -1.
         11   -1    0    0    0    0 -0.00000000000E+00 -0.00000000000E+00 -0.45593999997E+02  0.45594000000E+02  0.51100000000E-03 0.  1.
    9900012    2    1    2    0    0  0.12410152518E+02  0.10350161184E+02 -0.37309898107E+02  0.50528853197E+02  0.29999979776E+02 0.  0.
         12    1    1    2    0    0 -0.12410152518E+02 -0.10350161184E+02  0.37309898107E+02  0.40659146803E+02  0.00000000000E+00 0. -1.
         11    1    3    3    0    0 -0.16136671330E+01 -0.34322155307E+01 -0.12044939773E+02  0.12627929342E+02  0.51100000000E-03 0. -1.
        -11    1    3    3    0    0  0.17218303914E+01  0.12831506298E+02 -0.21327099475E+02  0.24949096698E+02  0.51100000000E-03 0.  1.
        -12    1    3    3    0    0  0.12301989260E+02  0.95087041587E+00 -0.39378588586E+01  0.12951827156E+02  0.00000000000E+00 0.  1.
</event>
<event>
 7    1  0.4374874E-012  0.5052886E+02  0.7816164E-02  0.1300439E+00
        -11   -1    0    0    0    0  0.00000000000E+00  0.00000000000E+00  0.45593999997E+02  0.45594000000E+02  0.51100000000E-03 0. -1.
         11   -1    0    0    0    0 -0.00000000000E+00 -0.00000000000E+00 -0.45593999997E+02  0.45594000000E+02  0.51100000000E-03 0.  1.
    9900012    2    1    2    0    0  0.23359972737E+02 -0.26502205320E+02 -0.20127350342E+02  0.50528862714E+02  0.30000008704E+02 0.  0.
         12    1    1    2    0    0 -0.23359972737E+02  0.26502205320E+02  0.20127350342E+02  0.40659137286E+02  0.00000000000E+00 0. -1.
         11    1    3    3    0    0  0.20193714805E+01 -0.14069516697E+01  0.36404077249E+01  0.43943080049E+01  0.51100000000E-03 0. -1.
        -11    1    3    3    0    0  0.20418953686E+02 -0.13163187274E+02 -0.65419097035E+01  0.25159486316E+02  0.51100000000E-03 0.  1.
        -12    1    3    3    0    0  0.92164757030E+00 -0.11932066377E+02 -0.17225848363E+02  0.20975068393E+02  0.00000000000E+00 0.  1.
</event>
<event>
 7    1  0.4374874E-012  0.5052885E+02  0.7816164E-02  0.1300439E+00
        -11   -1    0    0    0    0  0.00000000000E+00  0.00000000000E+00  0.45593999997E+02  0.45594000000E+02  0.51100000000E-03 0. -1.
         11   -1    0    0    0    0 -0.00000000000E+00 -0.00000000000E+00 -0.45593999997E+02  0.45594000000E+02  0.51100000000E-03 0.  1.
    9900012    2    1    2    0    0  0.23566899838E+02 -0.10206442995E+02 -0.31521362698E+02  0.50528849088E+02  0.29999967287E+02 0.  0.
         12    1    1    2    0    0 -0.23566899838E+02  0.10206442995E+02  0.31521362698E+02  0.40659150912E+02  0.00000000000E+00 0. -1.
         11    1    3    3    0    0  0.22786179080E+02 -0.63237884762E+01 -0.99731942250E+01  0.25664466896E+02  0.51100000000E-03 0. -1.
        -11    1    3    3    0    0 -0.13669228777E+00 -0.22164936863E+01  0.85574108621E+00  0.23798785916E+01  0.51100000000E-03 0.  1.
        -12    1    3    3    0    0  0.91741304559E+00 -0.16661608330E+01 -0.22403909559E+02  0.22484503600E+02  0.00000000000E+00 0.  1.
</event>
<event>
 7    1  0.4374874E-012  0.5052887E+02  0.7816164E-02  0.1300439E+00
        -11   -1    0    0    0    0  0.00000000000E+00  0.00000000000E+00  0.45593999997E+02  0.45594000000E+02  0.51100000000E-03 0. -1.
         11   -1    0    0    0    0 -0.00000000000E+00 -0.00000000000E+00 -0.45593999997E+02  0.45594000000E+02  0.51100000000E-03 0.  1.
    9900012    2    1    2    0    0 -0.19415360714E+02  0.32794894452E+02  0.14166996260E+02  0.50528866748E+02  0.30000020968E+02 0.  0.
        -12    1    1    2    0    0  0.19415360714E+02 -0.32794894452E+02 -0.14166996260E+02  0.40659133252E+02  0.00000000000E+00 0.  1.
         11    1    3    3    0    0  0.11884040573E+01  0.28553017535E+00 -0.27737546615E+01  0.30310966444E+01  0.51100000000E-03 0. -1.
        -11    1    3    3    0    0 -0.15231047057E+02  0.51916778381E+01  0.94719882608E+01  0.18672355906E+02  0.51100000000E-03 0.  1.
         12    1    3    3    0    0 -0.53727177139E+01  0.27317686439E+02  0.74687626603E+01  0.28825414198E+02  0.00000000000E+00 0. -1.
</event>
<event>
 7    1  0.4374874E-012  0.5052886E+02  0.7816164E-02  0.1300439E+00
        -11   -1    0    0    0    0  0.00000000000E+00  0.00000000000E+00  0.45593999997E+02  0.45594000000E+02  0.51100000000E-03 0. -1.
         11   -1    0    0    0    0 -0.00000000000E+00 -0.00000000000E+00 -0.45593999997E+02  0.45594000000E+02  0.51100000000E-03 0.  1.
    9900012    2    1    2    0    0  0.80099835630E+01 -0.88152992839E+01 -0.38875396757E+02  0.50528858210E+02  0.29999995014E+02 0.  0.
         12    1    1    2    0    0 -0.80099835630E+01  0.88152992839E+01  0.38875396757E+02  0.40659141790E+02  0.00000000000E+00 0. -1.
         11    1    3    3    0    0 -0.24544500547E+01 -0.98492614696E+00 -0.47981286827E+01  0.54787264672E+01  0.51100000000E-03 0. -1.
        -11    1    3    3    0    0  0.59325228181E+01 -0.60872699331E+01  0.19305044541E+01  0.87164516825E+01  0.51100000000E-03 0.  1.
        -12    1    3    3    0    0  0.45319107996E+01 -0.17431032039E+01 -0.36007772528E+02  0.36333680060E+02  0.00000000000E+00 0.  1.
</event>
<event>
 7    1  0.4374874E-012  0.5052884E+02  0.7816164E-02  0.1300439E+00
        -11   -1    0    0    0    0  0.00000000000E+00  0.00000000000E+00  0.45593999997E+02  0.45594000000E+02  0.51100000000E-03 0. -1.
         11   -1    0    0    0    0 -0.00000000000E+00 -0.00000000000E+00 -0.45593999997E+02  0.45594000000E+02  0.51100000000E-03 0.  1.
    9900012    2    1    2    0    0 -0.35515899361E+02  0.12167775248E+02 -0.15611968259E+02  0.50528838489E+02  0.29999935070E+02 0.  0.
         12    1    1    2    0    0  0.35515899361E+02 -0.12167775248E+02  0.15611968259E+02  0.40659161511E+02  0.00000000000E+00 0. -1.
         11    1    3    3    0    0  0.22970125138E+00  0.49199341053E+01 -0.89457713347E+01  0.10212019355E+02  0.51100000000E-03 0. -1.
        -11    1    3    3    0    0 -0.52874588327E+01 -0.46455878658E+01 -0.17362814451E+01  0.72493710793E+01  0.51100000000E-03 0.  1.
        -12    1    3    3    0    0 -0.30458141779E+02  0.11893429009E+02 -0.49299154795E+01  0.33067448055E+02  0.00000000000E+00 0.  1.
</event>
<event>
 7    1  0.4374874E-012  0.5052885E+02  0.7816164E-02  0.1300439E+00
        -11   -1    0    0    0    0  0.00000000000E+00  0.00000000000E+00  0.45593999997E+02  0.45594000000E+02  0.51100000000E-03 0. -1.
         11   -1    0    0    0    0 -0.00000000000E+00 -0.00000000000E+00 -0.45593999997E+02  0.45594000000E+02  0.51100000000E-03 0.  1.
    9900012    2    1    2    0    0 -0.21306349989E+02  0.18369110490E+02 -0.29356117277E+02  0.50528851072E+02  0.29999973317E+02 0.  0.
         12    1    1    2    0    0  0.21306349989E+02 -0.18369110490E+02  0.29356117277E+02  0.40659148928E+02  0.00000000000E+00 0. -1.
         11    1    3    3    0    0 -0.23573121283E+01 -0.52090846409E+01  0.15257460839E+00  0.57196820313E+01  0.51100000000E-03 0. -1.
        -11    1    3    3    0    0 -0.70831906421E+01  0.64524938106E+01 -0.19431330458E+02  0.21665245664E+02  0.51100000000E-03 0.  1.
        -12    1    3    3    0    0 -0.11865847218E+02  0.17125701320E+02 -0.10077361427E+02  0.23143923376E+02  0.00000000000E+00 0.  1.
</event>
<event>
 7    1  0.4374874E-012  0.5052886E+02  0.7816164E-02  0.1300439E+00
        -11   -1    0    0    0    0  0.00000000000E+00  0.00000000000E+00  0.45593999997E+02  0.45594000000E+02  0.51100000000E-03 0. -1.
         11   -1    0    0    0    0 -0.00000000000E+00 -0.00000000000E+00 -0.45593999997E+02  0.45594000000E+02  0.51100000000E-03 0.  1.
    9900012    2    1    2    0    0  0.13193503813E+02 -0.25470677000E+02 -0.28815645993E+02  0.50528863466E+02  0.30000010990E+02 0.  0.
         12    1    1    2    0    0 -0.13193503813E+02  0.25470677000E+02  0.28815645993E+02  0.40659136534E+02  0.00000000000E+00 0. -1.
         11    1    3    3    0    0  0.93172702438E+01 -0.11937783882E+02 -0.65985940113E+01  0.16518585049E+02  0.51100000000E-03 0. -1.
        -11    1    3    3    0    0 -0.14731589519E+01 -0.18417185972E+02 -0.15197839299E+02  0.23923571139E+02  0.51100000000E-03 0.  1.
         12    1    3    3    0    0  0.53493925215E+01  0.48842928539E+01 -0.70192126825E+01  0.10086707278E+02  0.00000000000E+00 0. -1.
</event>
<event>
 7    1  0.4374874E-012  0.5052886E+02  0.7816164E-02  0.1300439E+00
        -11   -1    0    0    0    0  0.00000000000E+00  0.00000000000E+00  0.45593999997E+02  0.45594000000E+02  0.51100000000E-03 0. -1.
         11   -1    0    0    0    0 -0.00000000000E+00 -0.00000000000E+00 -0.45593999997E+02  0.45594000000E+02  0.51100000000E-03 0.  1.
    9900012    2    1    2    0    0 -0.12806337595E+02 -0.18578835344E+02  0.33822925499E+02  0.50528859642E+02  0.29999999367E+02 0.  0.
        -12    1    1    2    0    0  0.12806337595E+02  0.18578835344E+02 -0.33822925499E+02  0.40659140358E+02  0.00000000000E+00 0.  1.
         11    1    3    3    0    0 -0.32946090622E+00  0.10036255577E+01 -0.31918103609E+01  0.33620622228E+01  0.51100000000E-03 0. -1.
        -11    1    3    3    0    0 -0.58562814333E+01 -0.35697625169E+01  0.65540480195E+00  0.68897599645E+01  0.51100000000E-03 0.  1.
         12    1    3    3    0    0 -0.66205952559E+01 -0.16012698385E+02  0.36359331058E+02  0.40277037454E+02  0.00000000000E+00 0. -1.
</event>
<event>
 7    1  0.4374874E-012  0.5052886E+02  0.7816164E-02  0.1300439E+00
        -11   -1    0    0    0    0  0.00000000000E+00  0.00000000000E+00  0.45593999997E+02  0.45594000000E+02  0.51100000000E-03 0. -1.
         11   -1    0    0    0    0 -0.00000000000E+00 -0.00000000000E+00 -0.45593999997E+02  0.45594000000E+02  0.51100000000E-03 0.  1.
    9900012    2    1    2    0    0 -0.36376449013E+02  0.77118389996E+00  0.18147318164E+02  0.50528856822E+02  0.29999990798E+02 0.  0.
        -12    1    1    2    0    0  0.36376449013E+02 -0.77118389996E+00 -0.18147318164E+02  0.40659143178E+02  0.00000000000E+00 0.  1.
         11    1    3    3    0    0 -0.15397855144E+02 -0.51083713416E+01  0.18409125810E+02  0.24537426804E+02  0.51100000000E-03 0. -1.
        -11    1    3    3    0    0 -0.13594544628E+02 -0.25528475448E+01  0.33191748125E+01  0.14224823230E+02  0.51100000000E-03 0.  1.
        -12    1    3    3    0    0 -0.73840492404E+01  0.84324027864E+01 -0.35809824589E+01  0.11766606788E+02  0.00000000000E+00 0.  1.
</event>
<event>
 7    1  0.4374874E-012  0.5052886E+02  0.7816164E-02  0.1300439E+00
        -11   -1    0    0    0    0  0.00000000000E+00  0.00000000000E+00  0.45593999997E+02  0.45594000000E+02  0.51100000000E-03 0. -1.
         11   -1    0    0    0    0 -0.00000000000E+00 -0.00000000000E+00 -0.45593999997E+02  0.45594000000E+02  0.51100000000E-03 0.  1.
    9900012    2    1    2    0    0  0.36025829492E+02 -0.60039623111E+01  0.17867773107E+02  0.50528864866E+02  0.30000015246E+02 0.  0.
        -12    1    1    2    0    0 -0.36025829492E+02  0.60039623111E+01 -0.17867773107E+02  0.40659135134E+02  0.00000000000E+00 0.  1.
         11    1    3    3    0    0  0.13296991887E+02 -0.26152492449E+01  0.16757978174E+02  0.21551783096E+02  0.51100000000E-03 0. -1.
        -11    1    3    3    0    0 -0.27547612376E+01 -0.15283275182E+00  0.17742844978E+01  0.32802672249E+01  0.51100000000E-03 0.  1.
         12    1    3    3    0    0  0.25483598843E+02 -0.32358803144E+01 -0.66448956506E+00  0.25696814545E+02  0.00000000000E+00 0. -1.
</event>
<event>
 7    1  0.4374874E-012  0.5052887E+02  0.7816164E-02  0.1300439E+00
        -11   -1    0    0    0    0  0.00000000000E+00  0.00000000000E+00  0.45593999997E+02  0.45594000000E+02  0.51100000000E-03 0.  1.
         11   -1    0    0    0    0 -0.00000000000E+00 -0.00000000000E+00 -0.45593999997E+02  0.45594000000E+02  0.51100000000E-03 0. -1.
    9900012    2    1    2    0    0  0.14717072960E+02  0.35498917521E+02 -0.13281559647E+02  0.50528865623E+02  0.30000017547E+02 0.  0.
         12    1    1    2    0    0 -0.14717072960E+02 -0.35498917521E+02  0.13281559647E+02  0.40659134377E+02  0.00000000000E+00 0. -1.
         11    1    3    3    0    0  0.13645016056E+02  0.31188721966E+02 -0.14124915676E+02  0.36856967919E+02  0.51100000000E-03 0.  1.
        -11    1    3    3    0    0  0.51218729171E+01 -0.11906707163E+01  0.35281325278E+01  0.63323769888E+01  0.51100000000E-03 0. -1.
        -12    1    3    3    0    0 -0.40498160136E+01  0.55008662711E+01 -0.26847764994E+01  0.73395207151E+01  0.00000000000E+00 0.  1.
</event>
<event>
 7    1  0.4374874E-012  0.5052886E+02  0.7816164E-02  0.1300439E+00
        -11   -1    0    0    0    0  0.00000000000E+00  0.00000000000E+00  0.45593999997E+02  0.45594000000E+02  0.51100000000E-03 0.  1.
         11   -1    0    0    0    0 -0.00000000000E+00 -0.00000000000E+00 -0.45593999997E+02  0.45594000000E+02  0.51100000000E-03 0. -1.
    9900012    2    1    2    0    0  0.33221234038E+02 -0.21388663786E+02  0.95937447672E+01  0.50528864886E+02  0.30000015308E+02 0.  0.
         12    1    1    2    0    0 -0.33221234038E+02  0.21388663786E+02 -0.95937447672E+01  0.40659135114E+02  0.00000000000E+00 0. -1.
         11    1    3    3    0    0  0.56884806540E+00 -0.17844094843E+01 -0.48317788234E+01  0.51820644717E+01  0.51100000000E-03 0. -1.
        -11    1    3    3    0    0  0.20524251388E+02 -0.11968297274E+01  0.10004610435E+02  0.22864153749E+02  0.51100000000E-03 0.  1.
        -12    1    3    3    0    0  0.12128134585E+02 -0.18407424574E+02  0.44209131553E+01  0.22482646666E+02  0.00000000000E+00 0.  1.
</event>
<event>
 7    1  0.4374874E-012  0.5052886E+02  0.7816164E-02  0.1300439E+00
        -11   -1    0    0    0    0  0.00000000000E+00  0.00000000000E+00  0.45593999997E+02  0.45594000000E+02  0.51100000000E-03 0.  1.
         11   -1    0    0    0    0 -0.00000000000E+00 -0.00000000000E+00 -0.45593999997E+02  0.45594000000E+02  0.51100000000E-03 0. -1.
    9900012    2    1    2    0    0 -0.35367680787E+02  0.20056879053E+02 -0.12129468899E+00  0.50528856452E+02  0.29999989673E+02 0.  0.
        -12    1    1    2    0    0  0.35367680787E+02 -0.20056879053E+02  0.12129468899E+00  0.40659143548E+02  0.00000000000E+00 0.  1.
         11    1    3    3    0    0 -0.53407494974E+01 -0.20573646823E+01 -0.32158654238E+01  0.65649177691E+01  0.51100000000E-03 0. -1.
        -11    1    3    3    0    0 -0.92081380298E+01  0.14631763466E+00  0.92785150866E+01  0.13072951361E+02  0.51100000000E-03 0.  1.
         12    1    3    3    0    0 -0.20818793260E+02  0.21967926101E+02 -0.61839443518E+01  0.30890987322E+02  0.00000000000E+00 0. -1.
</event>
<event>
 7    1  0.4374874E-012  0.5052886E+02  0.7816164E-02  0.1300439E+00
        -11   -1    0    0    0    0  0.00000000000E+00  0.00000000000E+00  0.45593999997E+02  0.45594000000E+02  0.51100000000E-03 0. -1.
         11   -1    0    0    0    0 -0.00000000000E+00 -0.00000000000E+00 -0.45593999997E+02  0.45594000000E+02  0.51100000000E-03 0.  1.
    9900012    2    1    2    0    0 -0.96962594122E+01  0.20520965342E+02  0.33734824729E+02  0.50528857551E+02  0.29999993012E+02 0.  0.
        -12    1    1    2    0    0  0.96962594122E+01 -0.20520965342E+02 -0.33734824729E+02  0.40659142449E+02  0.00000000000E+00 0.  1.
         11    1    3    3    0    0 -0.30813869342E+01 -0.15325832430E+01  0.98987570366E+01  0.10479940265E+02  0.51100000000E-03 0. -1.
        -11    1    3    3    0    0 -0.46402389165E+01  0.19551681358E+01  0.18482628694E+02  0.19156253896E+02  0.51100000000E-03 0.  1.
         12    1    3    3    0    0 -0.19746335615E+01  0.20098380450E+02  0.53534389989E+01  0.20892663390E+02  0.00000000000E+00 0. -1.
</event>
<event>
 7    1  0.4374874E-012  0.5052886E+02  0.7816164E-02  0.1300439E+00
        -11   -1    0    0    0    0  0.00000000000E+00  0.00000000000E+00  0.45593999997E+02  0.45594000000E+02  0.51100000000E-03 0.  1.
         11   -1    0    0    0    0 -0.00000000000E+00 -0.00000000000E+00 -0.45593999997E+02  0.45594000000E+02  0.51100000000E-03 0. -1.
    9900012    2    1    2    0    0 -0.20696593506E+02 -0.32003141296E+02  0.14163885428E+02  0.50528859749E+02  0.29999999692E+02 0.  0.
        -12    1    1    2    0    0  0.20696593506E+02  0.32003141296E+02 -0.14163885428E+02  0.40659140251E+02  0.00000000000E+00 0.  1.
         11    1    3    3    0    0  0.13714253451E+01 -0.76260349495E+01 -0.86385271852E+00  0.77963746901E+01  0.51100000000E-03 0. -1.
        -11    1    3    3    0    0 -0.24859726219E+01 -0.15223644177E+02  0.14408357391E+02  0.21107822363E+02  0.51100000000E-03 0.  1.
        -12    1    3    3    0    0 -0.19582046229E+02 -0.91534621689E+01  0.61938075540E+00  0.21624662696E+02  0.00000000000E+00 0.  1.
</event>
<event>
 7    1  0.4374874E-012  0.5052886E+02  0.7816164E-02  0.1300439E+00
        -11   -1    0    0    0    0  0.00000000000E+00  0.00000000000E+00  0.45593999997E+02  0.45594000000E+02  0.51100000000E-03 0. -1.
         11   -1    0    0    0    0 -0.00000000000E+00 -0.00000000000E+00 -0.45593999997E+02  0.45594000000E+02  0.51100000000E-03 0.  1.
    9900012    2    1    2    0    0  0.36132426477E+01 -0.18887213983E+02 -0.35824337569E+02  0.50528861584E+02  0.30000005270E+02 0.  0.
         12    1    1    2    0    0 -0.36132426477E+01  0.18887213983E+02  0.35824337569E+02  0.40659138416E+02  0.00000000000E+00 0. -1.
         11    1    3    3    0    0  0.73191955754E+01 -0.51566651273E+01 -0.40941765276E+01  0.98450038500E+01  0.51100000000E-03 0.  1.
        -11    1    3    3    0    0 -0.23306875091E+01 -0.36387420609E+01  0.24851234008E+01  0.49848156063E+01  0.51100000000E-03 0. -1.
        -12    1    3    3    0    0 -0.13752654186E+01 -0.10091806795E+02 -0.34215284442E+02  0.35699042128E+02  0.00000000000E+00 0.  1.
</event>
<event>
 7    1  0.4374874E-012  0.5052892E+02  0.7816164E-02  0.1300439E+00
        -11   -1    0    0    0    0  0.00000000000E+00  0.00000000000E+00  0.45593999997E+02  0.45594000000E+02  0.51100000000E-03 0. -1.
         11   -1    0    0    0    0 -0.00000000000E+00 -0.00000000000E+00 -0.45593999997E+02  0.45594000000E+02  0.51100000000E-03 0.  1.
    9900012    2    1    2    0    0 -0.39122224107E+02  0.11052539138E+02 -0.67350016044E+00  0.50528921765E+02  0.30000188195E+02 0.  0.
         12    1    1    2    0    0  0.39122224107E+02 -0.11052539138E+02  0.67350016044E+00  0.40659078235E+02  0.00000000000E+00 0. -1.
         11    1    3    3    0    0 -0.60607243284E+01  0.72254345083E+01 -0.58119891910E+01  0.11077838320E+02  0.51100000000E-03 0. -1.
        -11    1    3    3    0    0 -0.29244527015E+01  0.32436102863E+01  0.80599666636E+01  0.91671420940E+01  0.51100000000E-03 0.  1.
        -12    1    3    3    0    0 -0.30137047077E+02  0.58349434379E+00 -0.29214776330E+01  0.30283941351E+02  0.00000000000E+00 0.  1.
</event>
<event>
 7    1  0.4446968E-012  0.5052885E+02  0.7816164E-02  0.1300439E+00
        -11   -1    0    0    0    0  0.00000000000E+00  0.00000000000E+00  0.45593999997E+02  0.45594000000E+02  0.51100000000E-03 0. -1.
         11   -1    0    0    0    0 -0.00000000000E+00 -0.00000000000E+00 -0.45593999997E+02  0.45594000000E+02  0.51100000000E-03 0.  1.
    9900012    2    1    2    0    0  0.99414085740E+01 -0.13187006108E+02 -0.37154247042E+02  0.50528845954E+02  0.29999957760E+02 0.  0.
         12    1    1    2    0    0 -0.99414085740E+01  0.13187006108E+02  0.37154247042E+02  0.40659154046E+02  0.00000000000E+00 0. -1.
         11    1    3    3    0    0 -0.26975401866E+01 -0.83576860649E+01 -0.35363915320E+01  0.94675078424E+01  0.51100000000E-03 0. -1.
        -11    1    3    3    0    0 -0.29251248505E+01  0.19503101736E+01 -0.16803246032E+02  0.17167094764E+02  0.51100000000E-03 0.  1.
         12    1    3    3    0    0  0.15564073611E+02 -0.67796302171E+01 -0.16814609478E+02  0.23894243348E+02  0.00000000000E+00 0. -1.
</event>
<event>
 7    1  0.4374874E-012  0.5052885E+02  0.7816164E-02  0.1300439E+00
        -11   -1    0    0    0    0  0.00000000000E+00  0.00000000000E+00  0.45593999997E+02  0.45594000000E+02  0.51100000000E-03 0. -1.
         11   -1    0    0    0    0 -0.00000000000E+00 -0.00000000000E+00 -0.45593999997E+02  0.45594000000E+02  0.51100000000E-03 0.  1.
    9900012    2    1    2    0    0 -0.20037003247E+02 -0.26267991706E+02  0.23699738040E+02  0.50528850101E+02  0.29999970367E+02 0.  0.
        -12    1    1    2    0    0  0.20037003247E+02  0.26267991706E+02 -0.23699738040E+02  0.40659149899E+02  0.00000000000E+00 0.  1.
         11    1    3    3    0    0 -0.62704837811E+01 -0.10223785396E+02  0.76613834267E+01  0.14231709347E+02  0.51100000000E-03 0. -1.
        -11    1    3    3    0    0 -0.13649524410E+02 -0.31967407224E+01  0.18503895923E+02  0.23214711552E+02  0.51100000000E-03 0.  1.
        -12    1    3    3    0    0 -0.11699505502E+00 -0.12847465587E+02 -0.24655413099E+01  0.13082429202E+02  0.00000000000E+00 0.  1.
</event>
<event>
 7    1  0.4374874E-012  0.5052888E+02  0.7816164E-02  0.1300439E+00
        -11   -1    0    0    0    0  0.00000000000E+00  0.00000000000E+00  0.45593999997E+02  0.45594000000E+02  0.51100000000E-03 0. -1.
         11   -1    0    0    0    0 -0.00000000000E+00 -0.00000000000E+00 -0.45593999997E+02  0.45594000000E+02  0.51100000000E-03 0.  1.
    9900012    2    1    2    0    0  0.21623405335E+01 -0.31567386609E+02 -0.25534068685E+02  0.50528877069E+02  0.30000052339E+02 0.  0.
         12    1    1    2    0    0 -0.21623405335E+01  0.31567386609E+02  0.25534068685E+02  0.40659122931E+02  0.00000000000E+00 0. -1.
         11    1    3    3    0    0 -0.80786019046E+01 -0.10343955015E+02 -0.10648954014E+02  0.16901521705E+02  0.51100000000E-03 0. -1.
        -11    1    3    3    0    0 -0.91137190123E+00 -0.18362146353E+02 -0.69986764663E+01  0.19671819691E+02  0.51100000000E-03 0.  1.
        -12    1    3    3    0    0  0.11152314339E+02 -0.28612852406E+01 -0.78864382050E+01  0.13955535673E+02  0.00000000000E+00 0.  1.
</event>
<event>
 7    1  0.4374874E-012  0.5052885E+02  0.7816164E-02  0.1300439E+00
        -11   -1    0    0    0    0  0.00000000000E+00  0.00000000000E+00  0.45593999997E+02  0.45594000000E+02  0.51100000000E-03 0. -1.
         11   -1    0    0    0    0 -0.00000000000E+00 -0.00000000000E+00 -0.45593999997E+02  0.45594000000E+02  0.51100000000E-03 0.  1.
    9900012    2    1    2    0    0  0.41868310080E+01  0.90420585763E+01  0.39419260117E+02  0.50528850410E+02  0.29999971307E+02 0.  0.
        -12    1    1    2    0    0 -0.41868310080E+01 -0.90420585763E+01 -0.39419260117E+02  0.40659149590E+02  0.00000000000E+00 0.  1.
         11    1    3    3    0    0 -0.42783332490E+01  0.10032825095E+02  0.38461279199E+02  0.39977890297E+02  0.51100000000E-03 0. -1.
        -11    1    3    3    0    0  0.50064623556E+01  0.15916503533E+01  0.26875371928E+01  0.59009213339E+01  0.51100000000E-03 0.  1.
        -12    1    3    3    0    0  0.34587019014E+01 -0.25824168717E+01 -0.17295562743E+01  0.46500387792E+01  0.00000000000E+00 0.  1.
</event>
<event>
 7    1  0.4374874E-012  0.5052886E+02  0.7816164E-02  0.1300439E+00
        -11   -1    0    0    0    0  0.00000000000E+00  0.00000000000E+00  0.45593999997E+02  0.45594000000E+02  0.51100000000E-03 0.  1.
         11   -1    0    0    0    0 -0.00000000000E+00 -0.00000000000E+00 -0.45593999997E+02  0.45594000000E+02  0.51100000000E-03 0. -1.
    9900012    2    1    2    0    0 -0.67598551706E+01 -0.27384691512E+02 -0.29283935850E+02  0.50528857485E+02  0.29999992812E+02 0.  0.
         12    1    1    2    0    0  0.67598551706E+01  0.27384691512E+02  0.29283935850E+02  0.40659142515E+02  0.00000000000E+00 0. -1.
         11    1    3    3    0    0 -0.10558631897E+02 -0.26985611921E+01 -0.18554881708E+01  0.11054853082E+02  0.51100000000E-03 0.  1.
        -11    1    3    3    0    0 -0.12122465709E+01 -0.10333041140E+02 -0.20020716843E+02  0.22562588151E+02  0.51100000000E-03 0. -1.
        -12    1    3    3    0    0  0.50110232972E+01 -0.14353089180E+02 -0.74077308370E+01  0.16911416252E+02  0.00000000000E+00 0.  1.
</event>
<event>
 7    1  0.4374874E-012  0.5052886E+02  0.7816164E-02  0.1300439E+00
        -11   -1    0    0    0    0  0.00000000000E+00  0.00000000000E+00  0.45593999997E+02  0.45594000000E+02  0.51100000000E-03 0. -1.
         11   -1    0    0    0    0 -0.00000000000E+00 -0.00000000000E+00 -0.45593999997E+02  0.45594000000E+02  0.51100000000E-03 0.  1.
    9900012    2    1    2    0    0  0.35158045758E+02 -0.81922689823E+01  0.18707326584E+02  0.50528861783E+02  0.30000005877E+02 0.  0.
        -12    1    1    2    0    0 -0.35158045758E+02  0.81922689823E+01 -0.18707326584E+02  0.40659138217E+02  0.00000000000E+00 0.  1.
         11    1    3    3    0    0  0.45489184019E+01  0.36226680654E+01 -0.20933648799E+01  0.61804983068E+01  0.51100000000E-03 0. -1.
        -11    1    3    3    0    0  0.44465786778E+01  0.19499248479E+01  0.12847834650E+02  0.13734668701E+02  0.51100000000E-03 0.  1.
        -12    1    3    3    0    0  0.26162548678E+02 -0.13764861896E+02  0.79528568137E+01  0.30613694776E+02  0.00000000000E+00 0.  1.
</event>
<event>
 7    1  0.4374874E-012  0.5052883E+02  0.7816164E-02  0.1300439E+00
        -11   -1    0    0    0    0  0.00000000000E+00  0.00000000000E+00  0.45593999997E+02  0.45594000000E+02  0.51100000000E-03 0. -1.
         11   -1    0    0    0    0 -0.00000000000E+00 -0.00000000000E+00 -0.45593999997E+02  0.45594000000E+02  0.51100000000E-03 0.  1.
    9900012    2    1    2    0    0  0.92080545541E+00  0.13399831050E+02  0.38376622401E+02  0.50528825121E+02  0.29999894439E+02 0.  0.
        -12    1    1    2    0    0 -0.92080545541E+00 -0.13399831050E+02 -0.38376622401E+02  0.40659174879E+02  0.00000000000E+00 0.  1.
         11    1    3    3    0    0  0.81704468790E+01  0.71765656013E+01  0.32584093657E+02  0.34350872707E+02  0.51100000000E-03 0. -1.
        -11    1    3    3    0    0 -0.24104426006E+01 -0.34891500379E+01  0.19358918846E+01  0.46617678157E+01  0.51100000000E-03 0.  1.
        -12    1    3    3    0    0 -0.48391988230E+01  0.97124154870E+01  0.38566368599E+01  0.11516184599E+02  0.00000000000E+00 0.  1.
</event>
<event>
 7    1  0.4374874E-012  0.5052886E+02  0.7816164E-02  0.1300439E+00
        -11   -1    0    0    0    0  0.00000000000E+00  0.00000000000E+00  0.45593999997E+02  0.45594000000E+02  0.51100000000E-03 0. -1.
         11   -1    0    0    0    0 -0.00000000000E+00 -0.00000000000E+00 -0.45593999997E+02  0.45594000000E+02  0.51100000000E-03 0.  1.
    9900012    2    1    2    0    0 -0.16998535131E+02 -0.15026998996E+01 -0.36904710450E+02  0.50528856416E+02  0.29999989563E+02 0.  0.
         12    1    1    2    0    0  0.16998535131E+02  0.15026998996E+01  0.36904710450E+02  0.40659143584E+02  0.00000000000E+00 0. -1.
         11    1    3    3    0    0 -0.45615123459E+01 -0.52363118663E+01 -0.19492253120E+01  0.72128937620E+01  0.51100000000E-03 0. -1.
        -11    1    3    3    0    0  0.44671120461E+00 -0.58187453069E+01 -0.12200856180E+01  0.59620430243E+01  0.51100000000E-03 0.  1.
        -12    1    3    3    0    0 -0.12883733989E+02  0.95523572737E+01 -0.33735399520E+02  0.37353919630E+02  0.00000000000E+00 0.  1.
</event>
<event>
 7    1  0.4374874E-012  0.5052887E+02  0.7816164E-02  0.1300439E+00
        -11   -1    0    0    0    0  0.00000000000E+00  0.00000000000E+00  0.45593999997E+02  0.45594000000E+02  0.51100000000E-03 0. -1.
         11   -1    0    0    0    0 -0.00000000000E+00 -0.00000000000E+00 -0.45593999997E+02  0.45594000000E+02  0.51100000000E-03 0.  1.
    9900012    2    1    2    0    0 -0.21478524604E+02  0.18983138759E+02  0.28835368559E+02  0.50528867493E+02  0.30000023232E+02 0.  0.
        -12    1    1    2    0    0  0.21478524604E+02 -0.18983138759E+02 -0.28835368559E+02  0.40659132507E+02  0.00000000000E+00 0.  1.
         11    1    3    3    0    0 -0.42116198878E+01  0.64312104610E+01 -0.50544275805E+01  0.92002961094E+01  0.51100000000E-03 0.  1.
        -11    1    3    3    0    0 -0.13112214417E+02  0.58439169571E+01  0.14543784204E+02  0.20435341728E+02  0.51100000000E-03 0. -1.
        -12    1    3    3    0    0 -0.41546902991E+01  0.67080113405E+01  0.19346011936E+02  0.20893229656E+02  0.00000000000E+00 0.  1.
</event>
<event>
 7    1  0.4374874E-012  0.5052880E+02  0.7816164E-02  0.1300439E+00
        -11   -1    0    0    0    0  0.00000000000E+00  0.00000000000E+00  0.45593999997E+02  0.45594000000E+02  0.51100000000E-03 0.  1.
         11   -1    0    0    0    0 -0.00000000000E+00 -0.00000000000E+00 -0.45593999997E+02  0.45594000000E+02  0.51100000000E-03 0. -1.
    9900012    2    1    2    0    0 -0.12594233763E+01  0.40138003204E+02  0.63659068392E+01  0.50528804012E+02  0.29999830275E+02 0.  0.
        -12    1    1    2    0    0  0.12594233763E+01 -0.40138003204E+02 -0.63659068392E+01  0.40659195988E+02  0.00000000000E+00 0.  1.
         11    1    3    3    0    0 -0.83157367431E+01  0.14528459714E+02  0.30173683375E+01  0.17009765759E+02  0.51100000000E-03 0. -1.
        -11    1    3    3    0    0 -0.44264405375E+00 -0.43456855205E+00 -0.50945241830E+01  0.51321496955E+01  0.51100000000E-03 0.  1.
         12    1    3    3    0    0  0.74989574205E+01  0.26044112043E+02  0.84430626847E+01  0.28386888558E+02  0.00000000000E+00 0. -1.
</event>
<event>
 7    1  0.4374874E-012  0.5052886E+02  0.7816164E-02  0.1300439E+00
        -11   -1    0    0    0    0  0.00000000000E+00  0.00000000000E+00  0.45593999997E+02  0.45594000000E+02  0.51100000000E-03 0. -1.
         11   -1    0    0    0    0 -0.00000000000E+00 -0.00000000000E+00 -0.45593999997E+02  0.45594000000E+02  0.51100000000E-03 0.  1.
    9900012    2    1    2    0    0  0.29346612766E+02  0.40449936844E+01 -0.27849238327E+02  0.50528859206E+02  0.29999998041E+02 0.  0.
         12    1    1    2    0    0 -0.29346612766E+02 -0.40449936844E+01  0.27849238327E+02  0.40659140794E+02  0.00000000000E+00 0. -1.
         11    1    3    3    0    0  0.89825031205E+01 -0.30653062293E+01 -0.12812709204E+01  0.95772188041E+01  0.51100000000E-03 0. -1.
        -11    1    3    3    0    0  0.52392956282E+01  0.11679102676E+02 -0.20205451225E+02  0.23918861124E+02  0.51100000000E-03 0.  1.
         12    1    3    3    0    0  0.15124814017E+02 -0.45688027629E+01 -0.63625161813E+01  0.17032779277E+02  0.00000000000E+00 0. -1.
</event>
<event>
 7    1  0.4374874E-012  0.5052887E+02  0.7816164E-02  0.1300439E+00
        -11   -1    0    0    0    0  0.00000000000E+00  0.00000000000E+00  0.45593999997E+02  0.45594000000E+02  0.51100000000E-03 0. -1.
         11   -1    0    0    0    0 -0.00000000000E+00 -0.00000000000E+00 -0.45593999997E+02  0.45594000000E+02  0.51100000000E-03 0.  1.
    9900012    2    1    2    0    0 -0.10829260420E+02 -0.13848609223E+02  0.36662083427E+02  0.50528865481E+02  0.30000017115E+02 0.  0.
        -12    1    1    2    0    0  0.10829260420E+02  0.13848609223E+02 -0.36662083427E+02  0.40659134519E+02  0.00000000000E+00 0.  1.
         11    1    3    3    0    0 -0.52835109178E+01  0.64403606026E+00  0.85809735673E+01  0.10097691701E+02  0.51100000000E-03 0. -1.
        -11    1    3    3    0    0 -0.11630165520E+02 -0.16800993091E+02  0.26958575609E+02  0.33827487610E+02  0.51100000000E-03 0.  1.
         12    1    3    3    0    0  0.60844160183E+01  0.23083478074E+01  0.11225342505E+01  0.66036861697E+01  0.00000000000E+00 0. -1.
</event>
<event>
 7    1  0.4374874E-012  0.5052886E+02  0.7816164E-02  0.1300439E+00
        -11   -1    0    0    0    0  0.00000000000E+00  0.00000000000E+00  0.45593999997E+02  0.45594000000E+02  0.51100000000E-03 0. -1.
         11   -1    0    0    0    0 -0.00000000000E+00 -0.00000000000E+00 -0.45593999997E+02  0.45594000000E+02  0.51100000000E-03 0.  1.
    9900012    2    1    2    0    0  0.43847781929E+01  0.37273445689E+01  0.40249801597E+02  0.50528857043E+02  0.29999991469E+02 0.  0.
        -12    1    1    2    0    0 -0.43847781929E+01 -0.37273445689E+01 -0.40249801597E+02  0.40659142957E+02  0.00000000000E+00 0.  1.
         11    1    3    3    0    0  0.79150883895E+01  0.64878798943E+01  0.29564401849E+02  0.31285700674E+02  0.51100000000E-03 0. -1.
        -11    1    3    3    0    0 -0.13853091249E+01 -0.48013725577E+01  0.13960621303E+02  0.14828054736E+02  0.51100000000E-03 0.  1.
        -12    1    3    3    0    0 -0.21450010716E+01  0.20408372323E+01 -0.32752215544E+01  0.44151016338E+01  0.00000000000E+00 0.  1.
</event>
<event>
 7    1  0.4374874E-012  0.5052886E+02  0.7816164E-02  0.1300439E+00
        -11   -1    0    0    0    0  0.00000000000E+00  0.00000000000E+00  0.45593999997E+02  0.45594000000E+02  0.51100000000E-03 0. -1.
         11   -1    0    0    0    0 -0.00000000000E+00 -0.00000000000E+00 -0.45593999997E+02  0.45594000000E+02  0.51100000000E-03 0.  1.
    9900012    2    1    2    0    0  0.78383951989E+01  0.70430185009E+01 -0.39269852397E+02  0.50528857655E+02  0.29999993329E+02 0.  0.
         12    1    1    2    0    0 -0.78383951989E+01 -0.70430185009E+01  0.39269852397E+02  0.40659142345E+02  0.00000000000E+00 0. -1.
         11    1    3    3    0    0  0.65038406885E+01 -0.72196205317E+01 -0.49791063365E+01  0.10918533074E+02  0.51100000000E-03 0. -1.
        -11    1    3    3    0    0 -0.43336472727E+01 -0.11244044352E+00 -0.65104747472E+01  0.78217276374E+01  0.51100000000E-03 0.  1.
        -12    1    3    3    0    0  0.56682017831E+01  0.14375079476E+02 -0.27780271314E+02  0.31788596944E+02  0.00000000000E+00 0.  1.
</event>
<event>
 7    1  0.4374874E-012  0.5052885E+02  0.7816164E-02  0.1300439E+00
        -11   -1    0    0    0    0  0.00000000000E+00  0.00000000000E+00  0.45593999997E+02  0.45594000000E+02  0.51100000000E-03 0. -1.
         11   -1    0    0    0    0 -0.00000000000E+00 -0.00000000000E+00 -0.45593999997E+02  0.45594000000E+02  0.51100000000E-03 0.  1.
    9900012    2    1    2    0    0  0.32502517975E+01 -0.28336890161E+02  0.28976247665E+02  0.50528850852E+02  0.29999972650E+02 0.  0.
        -12    1    1    2    0    0 -0.32502517975E+01  0.28336890161E+02 -0.28976247665E+02  0.40659149148E+02  0.00000000000E+00 0.  1.
         11    1    3    3    0    0 -0.54326376567E+01 -0.15283440821E+02  0.99399877123E+01  0.19023681852E+02  0.51100000000E-03 0. -1.
        -11    1    3    3    0    0 -0.36357367792E+01  0.12650517173E+01 -0.99189815865E+00  0.39752735747E+01  0.51100000000E-03 0.  1.
         12    1    3    3    0    0  0.12318626233E+02 -0.14318501057E+02  0.20028158111E+02  0.27529895425E+02  0.00000000000E+00 0. -1.
</event>
<event>
 7    1  0.4374874E-012  0.5052886E+02  0.7816164E-02  0.1300439E+00
        -11   -1    0    0    0    0  0.00000000000E+00  0.00000000000E+00  0.45593999997E+02  0.45594000000E+02  0.51100000000E-03 0. -1.
         11   -1    0    0    0    0 -0.00000000000E+00 -0.00000000000E+00 -0.45593999997E+02  0.45594000000E+02  0.51100000000E-03 0.  1.
    9900012    2    1    2    0    0 -0.71383181035E+01 -0.28959155988E+02  0.27632908377E+02  0.50528856794E+02  0.29999990710E+02 0.  0.
        -12    1    1    2    0    0  0.71383181035E+01  0.28959155988E+02 -0.27632908377E+02  0.40659143206E+02  0.00000000000E+00 0.  1.
         11    1    3    3    0    0 -0.58857114766E+01 -0.14815842028E+02  0.26265615723E+02  0.30725125617E+02  0.51100000000E-03 0. -1.
        -11    1    3    3    0    0  0.54886728321E+01 -0.59830284858E+01  0.37668358987E+01  0.89504867056E+01  0.51100000000E-03 0.  1.
         12    1    3    3    0    0 -0.67412794589E+01 -0.81602854745E+01 -0.23995432451E+01  0.10853244471E+02  0.00000000000E+00 0. -1.
</event>
<event>
 7    1  0.4374874E-012  0.5052894E+02  0.7816164E-02  0.1300439E+00
        -11   -1    0    0    0    0  0.00000000000E+00  0.00000000000E+00  0.45593999997E+02  0.45594000000E+02  0.51100000000E-03 0. -1.
         11   -1    0    0    0    0 -0.00000000000E+00 -0.00000000000E+00 -0.45593999997E+02  0.45594000000E+02  0.51100000000E-03 0.  1.
    9900012    2    1    2    0    0  0.19710022834E+02 -0.30041229542E+02 -0.19031512364E+02  0.50528942763E+02  0.30000252023E+02 0.  0.
         12    1    1    2    0    0 -0.19710022834E+02  0.30041229542E+02  0.19031512364E+02  0.40659057237E+02  0.00000000000E+00 0. -1.
         11    1    3    3    0    0 -0.29145618307E+01 -0.28786897238E+01 -0.27231206916E+01  0.49190356528E+01  0.51100000000E-03 0. -1.
        -11    1    3    3    0    0 -0.18525814565E+01 -0.31156186283E+01 -0.10111736507E+02  0.10741803989E+02  0.51100000000E-03 0.  1.
         12    1    3    3    0    0  0.24477166121E+02 -0.24046921190E+02 -0.61966551650E+01  0.34868103121E+02  0.00000000000E+00 0. -1.
</event>
<event>
 7    1  0.4407713E-012  0.5052886E+02  0.7816164E-02  0.1300439E+00
        -11   -1    0    0    0    0  0.00000000000E+00  0.00000000000E+00  0.45593999997E+02  0.45594000000E+02  0.51100000000E-03 0. -1.
         11   -1    0    0    0    0 -0.00000000000E+00 -0.00000000000E+00 -0.45593999997E+02  0.45594000000E+02  0.51100000000E-03 0.  1.
    9900012    2    1    2    0    0 -0.14656114949E+02  0.34898303966E+02 -0.14848307664E+02  0.50528861229E+02  0.30000004193E+02 0.  0.
         12    1    1    2    0    0  0.14656114949E+02 -0.34898303966E+02  0.14848307664E+02  0.40659138771E+02  0.00000000000E+00 0. -1.
         11    1    3    3    0    0  0.28025254166E+01  0.12886312284E+02  0.10013791029E+01  0.13225503898E+02  0.51100000000E-03 0. -1.
        -11    1    3    3    0    0 -0.18897089799E+02  0.24436972939E+02 -0.15108925635E+02  0.34388156150E+02  0.51100000000E-03 0.  1.
         12    1    3    3    0    0  0.14384494339E+01 -0.24249812571E+01 -0.74076113155E+00  0.29152011809E+01  0.00000000000E+00 0. -1.
</event>
<event>
 7    1  0.4374874E-012  0.5052887E+02  0.7816164E-02  0.1300439E+00
        -11   -1    0    0    0    0  0.00000000000E+00  0.00000000000E+00  0.45593999997E+02  0.45594000000E+02  0.51100000000E-03 0. -1.
         11   -1    0    0    0    0 -0.00000000000E+00 -0.00000000000E+00 -0.45593999997E+02  0.45594000000E+02  0.51100000000E-03 0.  1.
    9900012    2    1    2    0    0  0.78155517506E+01 -0.15997825594E+02  0.36553409807E+02  0.50528867675E+02  0.30000023785E+02 0.  0.
        -12    1    1    2    0    0 -0.78155517506E+01  0.15997825594E+02 -0.36553409807E+02  0.40659132325E+02  0.00000000000E+00 0.  1.
         11    1    3    3    0    0  0.72162426544E+01  0.18019461251E+01  0.20381344020E+02  0.21696090713E+02  0.51100000000E-03 0.  1.
        -11    1    3    3    0    0  0.29220227639E+01 -0.17061498365E+02  0.18588910253E+02  0.25400404095E+02  0.51100000000E-03 0. -1.
        -12    1    3    3    0    0 -0.23227136677E+01 -0.73827335407E+00 -0.24168444666E+01  0.34323728677E+01  0.00000000000E+00 0.  1.
</event>
<event>
 7    1  0.4374874E-012  0.5052887E+02  0.7816164E-02  0.1300439E+00
        -11   -1    0    0    0    0  0.00000000000E+00  0.00000000000E+00  0.45593999997E+02  0.45594000000E+02  0.51100000000E-03 0. -1.
         11   -1    0    0    0    0 -0.00000000000E+00 -0.00000000000E+00 -0.45593999997E+02  0.45594000000E+02  0.51100000000E-03 0.  1.
    9900012    2    1    2    0    0 -0.14164396810E+02 -0.19624007947E+02  0.32671599062E+02  0.50528865600E+02  0.30000017477E+02 0.  0.
        -12    1    1    2    0    0  0.14164396810E+02  0.19624007947E+02 -0.32671599062E+02  0.40659134400E+02  0.00000000000E+00 0.  1.
         11    1    3    3    0    0 -0.50482054885E+01 -0.13524936103E+02  0.31016938845E+01  0.14765797657E+02  0.51100000000E-03 0. -1.
        -11    1    3    3    0    0 -0.44920468968E-01 -0.44697392270E+01 -0.32300838998E+00  0.44816203863E+01  0.51100000000E-03 0.  1.
        -12    1    3    3    0    0 -0.90712708529E+01 -0.16293326172E+01  0.29892913567E+02  0.31281447556E+02  0.00000000000E+00 0.  1.
</event>
<event>
 7    1  0.5184507E-012  0.5052886E+02  0.7816164E-02  0.1300439E+00
        -11   -1    0    0    0    0  0.00000000000E+00  0.00000000000E+00  0.45593999997E+02  0.45594000000E+02  0.51100000000E-03 0. -1.
         11   -1    0    0    0    0 -0.00000000000E+00 -0.00000000000E+00 -0.45593999997E+02  0.45594000000E+02  0.51100000000E-03 0.  1.
    9900012    2    1    2    0    0 -0.11868236382E+02  0.29817970924E+02 -0.24963959885E+02  0.50528859355E+02  0.29999998496E+02 0.  0.
         12    1    1    2    0    0  0.11868236382E+02 -0.29817970924E+02  0.24963959885E+02  0.40659140645E+02  0.00000000000E+00 0. -1.
         11    1    3    3    0    0  0.37826405941E+01 -0.17294061709E+01 -0.80893973712E+00  0.42371687868E+01  0.51100000000E-03 0. -1.
        -11    1    3    3    0    0 -0.98832953917E+00  0.85321992695E+01  0.16358267889E+01  0.87436347817E+01  0.51100000000E-03 0.  1.
        -12    1    3    3    0    0 -0.14662547436E+02  0.23015177826E+02 -0.25790846936E+02  0.37548055787E+02  0.00000000000E+00 0.  1.
</event>
<event>
 7    1  0.4374874E-012  0.5052886E+02  0.7816164E-02  0.1300439E+00
        -11   -1    0    0    0    0  0.00000000000E+00  0.00000000000E+00  0.45593999997E+02  0.45594000000E+02  0.51100000000E-03 0. -1.
         11   -1    0    0    0    0 -0.00000000000E+00 -0.00000000000E+00 -0.45593999997E+02  0.45594000000E+02  0.51100000000E-03 0.  1.
    9900012    2    1    2    0    0 -0.79035615699E+01  0.10494773147E+02  0.38478038088E+02  0.50528856330E+02  0.29999989301E+02 0.  0.
        -12    1    1    2    0    0  0.79035615699E+01 -0.10494773147E+02 -0.38478038088E+02  0.40659143670E+02  0.00000000000E+00 0.  1.
         11    1    3    3    0    0 -0.48196499656E+00  0.11237914271E+01  0.65918055817E+01  0.67042597293E+01  0.51100000000E-03 0. -1.
        -11    1    3    3    0    0 -0.25546171515E+01  0.23317448317E+01 -0.49325153001E+01  0.60243514338E+01  0.51100000000E-03 0.  1.
        -12    1    3    3    0    0 -0.48669794219E+01  0.70392368884E+01  0.36818747806E+02  0.37800245167E+02  0.00000000000E+00 0.  1.
</event>
<event>
 7    1  0.4374874E-012  0.5052885E+02  0.7816164E-02  0.1300439E+00
        -11   -1    0    0    0    0  0.00000000000E+00  0.00000000000E+00  0.45593999997E+02  0.45594000000E+02  0.51100000000E-03 0. -1.
         11   -1    0    0    0    0 -0.00000000000E+00 -0.00000000000E+00 -0.45593999997E+02  0.45594000000E+02  0.51100000000E-03 0.  1.
    9900012    2    1    2    0    0 -0.17861225419E+02 -0.17551761137E+02 -0.32032459459E+02  0.50528854024E+02  0.29999982292E+02 0.  0.
         12    1    1    2    0    0  0.17861225419E+02  0.17551761137E+02  0.32032459459E+02  0.40659145976E+02  0.00000000000E+00 0. -1.
         11    1    3    3    0    0 -0.49092747536E+01 -0.19689768856E+02 -0.21924247001E+02  0.29874078781E+02  0.51100000000E-03 0. -1.
        -11    1    3    3    0    0 -0.16826887388E+01 -0.20071900050E+01 -0.80587083850E+01  0.84736671048E+01  0.51100000000E-03 0.  1.
         12    1    3    3    0    0 -0.11269261927E+02  0.41451977233E+01 -0.20495040735E+01  0.12181108138E+02  0.00000000000E+00 0. -1.
</event>
<event>
 7    1  0.4374874E-012  0.5052886E+02  0.7816164E-02  0.1300439E+00
        -11   -1    0    0    0    0  0.00000000000E+00  0.00000000000E+00  0.45593999997E+02  0.45594000000E+02  0.51100000000E-03 0. -1.
         11   -1    0    0    0    0 -0.00000000000E+00 -0.00000000000E+00 -0.45593999997E+02  0.45594000000E+02  0.51100000000E-03 0.  1.
    9900012    2    1    2    0    0 -0.28661660660E+02  0.65187172923E+01 -0.28092363261E+02  0.50528863997E+02  0.30000012604E+02 0.  0.
         12    1    1    2    0    0  0.28661660660E+02 -0.65187172923E+01  0.28092363261E+02  0.40659136003E+02  0.00000000000E+00 0. -1.
         11    1    3    3    0    0 -0.65434672813E+01  0.50253669248E+01  0.44999143612E+00  0.82627942818E+01  0.51100000000E-03 0.  1.
        -11    1    3    3    0    0 -0.22865414754E+01  0.46647680189E+01 -0.19608538453E+02  0.20285046540E+02  0.51100000000E-03 0. -1.
        -12    1    3    3    0    0 -0.19831651903E+02 -0.31714176513E+01 -0.89338162442E+01  0.21981023175E+02  0.00000000000E+00 0.  1.
</event>
<event>
 7    1  0.4374874E-012  0.5052886E+02  0.7816164E-02  0.1300439E+00
        -11   -1    0    0    0    0  0.00000000000E+00  0.00000000000E+00  0.45593999997E+02  0.45594000000E+02  0.51100000000E-03 0. -1.
         11   -1    0    0    0    0 -0.00000000000E+00 -0.00000000000E+00 -0.45593999997E+02  0.45594000000E+02  0.51100000000E-03 0.  1.
    9900012    2    1    2    0    0 -0.31796695260E+02 -0.60060417329E+01 -0.24618355470E+02  0.50528858435E+02  0.29999995699E+02 0.  0.
         12    1    1    2    0    0  0.31796695260E+02  0.60060417329E+01  0.24618355470E+02  0.40659141565E+02  0.00000000000E+00 0. -1.
         11    1    3    3    0    0 -0.75193864401E+01 -0.10318590009E+02 -0.12087225985E+02  0.17581680935E+02  0.51100000000E-03 0. -1.
        -11    1    3    3    0    0 -0.87942538499E+01 -0.40342361086E+01  0.22935901243E+01  0.99435666477E+01  0.51100000000E-03 0.  1.
        -12    1    3    3    0    0 -0.15483054970E+02  0.83467843847E+01 -0.14824719609E+02  0.23003610853E+02  0.00000000000E+00 0.  1.
</event>
<event>
 7    1  0.4374874E-012  0.5052886E+02  0.7816164E-02  0.1300439E+00
        -11   -1    0    0    0    0  0.00000000000E+00  0.00000000000E+00  0.45593999997E+02  0.45594000000E+02  0.51100000000E-03 0. -1.
         11   -1    0    0    0    0 -0.00000000000E+00 -0.00000000000E+00 -0.45593999997E+02  0.45594000000E+02  0.51100000000E-03 0.  1.
    9900012    2    1    2    0    0  0.40523369454E+02  0.14818766531E+01  0.29708914936E+01  0.50528860479E+02  0.30000001911E+02 0.  0.
        -12    1    1    2    0    0 -0.40523369454E+02 -0.14818766531E+01 -0.29708914936E+01  0.40659139521E+02  0.00000000000E+00 0.  1.
         11    1    3    3    0    0  0.20556147266E+02 -0.24439014515E+01 -0.78017282532E+01  0.22122269520E+02  0.51100000000E-03 0. -1.
        -11    1    3    3    0    0 -0.96442242125E+00  0.18895221014E+00 -0.29439078866E+01  0.31036120006E+01  0.51100000000E-03 0.  1.
         12    1    3    3    0    0  0.20931644609E+02  0.37368258944E+01  0.13716527633E+02  0.25302978958E+02  0.00000000000E+00 0. -1.
</event>
<event>
 7    1  0.4374874E-012  0.5052885E+02  0.7816164E-02  0.1300439E+00
        -11   -1    0    0    0    0  0.00000000000E+00  0.00000000000E+00  0.45593999997E+02  0.45594000000E+02  0.51100000000E-03 0. -1.
         11   -1    0    0    0    0 -0.00000000000E+00 -0.00000000000E+00 -0.45593999997E+02  0.45594000000E+02  0.51100000000E-03 0.  1.
    9900012    2    1    2    0    0  0.35094126113E+02  0.66200678276E+01  0.19435617979E+02  0.50528853036E+02  0.29999979287E+02 0.  0.
        -12    1    1    2    0    0 -0.35094126113E+02 -0.66200678276E+01 -0.19435617979E+02  0.40659146964E+02  0.00000000000E+00 0.  1.
         11    1    3    3    0    0  0.14787077278E+02 -0.31455092179E+01  0.13329666330E+02  0.20155195047E+02  0.51100000000E-03 0. -1.
        -11    1    3    3    0    0  0.20204623634E+02  0.91125317159E+01  0.11478642937E+02  0.24960454612E+02  0.51100000000E-03 0.  1.
        -12    1    3    3    0    0  0.10242520014E+00  0.65304532962E+00 -0.53726912880E+01  0.54132033770E+01  0.00000000000E+00 0.  1.
</event>
<event>
 7    1  0.4374874E-012  0.5052894E+02  0.7816164E-02  0.1300439E+00
        -11   -1    0    0    0    0  0.00000000000E+00  0.00000000000E+00  0.45593999997E+02  0.45594000000E+02  0.51100000000E-03 0.  1.
         11   -1    0    0    0    0 -0.00000000000E+00 -0.00000000000E+00 -0.45593999997E+02  0.45594000000E+02  0.51100000000E-03 0. -1.
    9900012    2    1    2    0    0  0.45251816681E+01  0.39598078291E+02  0.80420253668E+01  0.50528938950E+02  0.30000240432E+02 0.  0.
        -12    1    1    2    0    0 -0.45251816681E+01 -0.39598078291E+02 -0.80420253668E+01  0.40659061050E+02  0.00000000000E+00 0.  1.
         11    1    3    3    0    0 -0.10408422658E+02  0.11194067389E+02 -0.57590716657E-01  0.15285474278E+02  0.51100000000E-03 0. -1.
        -11    1    3    3    0    0  0.20947929330E+01  0.17995401140E+01 -0.26312337066E+01  0.38144322165E+01  0.51100000000E-03 0.  1.
         12    1    3    3    0    0  0.12838811394E+02  0.26604470788E+02  0.10730849790E+02  0.31429032456E+02  0.00000000000E+00 0. -1.
</event>
<event>
 7    1  0.4374874E-012  0.5052886E+02  0.7816164E-02  0.1300439E+00
        -11   -1    0    0    0    0  0.00000000000E+00  0.00000000000E+00  0.45593999997E+02  0.45594000000E+02  0.51100000000E-03 0. -1.
         11   -1    0    0    0    0 -0.00000000000E+00 -0.00000000000E+00 -0.45593999997E+02  0.45594000000E+02  0.51100000000E-03 0.  1.
    9900012    2    1    2    0    0  0.10493489830E+02 -0.29362187121E+02 -0.26094339579E+02  0.50528856878E+02  0.29999990967E+02 0.  0.
         12    1    1    2    0    0 -0.10493489830E+02  0.29362187121E+02  0.26094339579E+02  0.40659143122E+02  0.00000000000E+00 0. -1.
         11    1    3    3    0    0  0.97524446591E+01 -0.15035500780E+02 -0.14385526256E+02  0.22980857827E+02  0.51100000000E-03 0. -1.
        -11    1    3    3    0    0  0.38255468112E+01 -0.12315153758E+01 -0.13398976927E+02  0.13988710501E+02  0.51100000000E-03 0.  1.
        -12    1    3    3    0    0 -0.30845016398E+01 -0.13095170965E+02  0.16901636043E+01  0.13559288550E+02  0.00000000000E+00 0.  1.
</event>
<event>
 7    1  0.4374874E-012  0.5052886E+02  0.7816164E-02  0.1300439E+00
        -11   -1    0    0    0    0  0.00000000000E+00  0.00000000000E+00  0.45593999997E+02  0.45594000000E+02  0.51100000000E-03 0. -1.
         11   -1    0    0    0    0 -0.00000000000E+00 -0.00000000000E+00 -0.45593999997E+02  0.45594000000E+02  0.51100000000E-03 0.  1.
    9900012    2    1    2    0    0  0.68035753438E+00 -0.65396354293E+01 -0.40124006416E+02  0.50528860698E+02  0.30000002578E+02 0.  0.
         12    1    1    2    0    0 -0.68035753438E+00  0.65396354293E+01  0.40124006416E+02  0.40659139302E+02  0.00000000000E+00 0. -1.
         11    1    3    3    0    0  0.89484147109E+00 -0.60496053148E+01 -0.28639914970E+01  0.67528448286E+01  0.51100000000E-03 0. -1.
        -11    1    3    3    0    0  0.10599524168E+02  0.13745348956E+01 -0.11108759465E+02  0.15415699656E+02  0.51100000000E-03 0.  1.
        -12    1    3    3    0    0 -0.10814008104E+02 -0.18645650101E+01 -0.26151255454E+02  0.28360316214E+02  0.00000000000E+00 0.  1.
</event>
<event>
 7    1  0.4374874E-012  0.5052886E+02  0.7816164E-02  0.1300439E+00
        -11   -1    0    0    0    0  0.00000000000E+00  0.00000000000E+00  0.45593999997E+02  0.45594000000E+02  0.51100000000E-03 0.  1.
         11   -1    0    0    0    0 -0.00000000000E+00 -0.00000000000E+00 -0.45593999997E+02  0.45594000000E+02  0.51100000000E-03 0. -1.
    9900012    2    1    2    0    0  0.37591102092E+02  0.79214481812E+01  0.13316350609E+02  0.50528862143E+02  0.30000006969E+02 0.  0.
        -12    1    1    2    0    0 -0.37591102092E+02 -0.79214481812E+01 -0.13316350609E+02  0.40659137857E+02  0.00000000000E+00 0.  1.
         11    1    3    3    0    0  0.39452739995E+02  0.78471199091E+01  0.12802485922E+02  0.42213737456E+02  0.51100000000E-03 0. -1.
        -11    1    3    3    0    0  0.26332952904E+01 -0.28392938040E+00 -0.18434382524E+01  0.32269373764E+01  0.51100000000E-03 0.  1.
        -12    1    3    3    0    0 -0.44949331935E+01  0.35825765247E+00  0.23573029394E+01  0.50881873106E+01  0.00000000000E+00 0.  1.
</event>
<event>
 7    1  0.4374874E-012  0.5052886E+02  0.7816164E-02  0.1300439E+00
        -11   -1    0    0    0    0  0.00000000000E+00  0.00000000000E+00  0.45593999997E+02  0.45594000000E+02  0.51100000000E-03 0. -1.
         11   -1    0    0    0    0 -0.00000000000E+00 -0.00000000000E+00 -0.45593999997E+02  0.45594000000E+02  0.51100000000E-03 0.  1.
    9900012    2    1    2    0    0 -0.25039157244E+02  0.28330439434E+02 -0.14953000720E+02  0.50528862964E+02  0.30000009465E+02 0.  0.
        -12    1    1    2    0    0  0.25039157244E+02 -0.28330439434E+02  0.14953000720E+02  0.40659137036E+02  0.00000000000E+00 0.  1.
         11    1    3    3    0    0 -0.51911429961E+01  0.65911995010E+01  0.44969280871E+00  0.84020295377E+01  0.51100000000E-03 0. -1.
        -11    1    3    3    0    0 -0.25210382039E+02  0.18717884534E+02 -0.78162882226E+01  0.32357640919E+02  0.51100000000E-03 0.  1.
         12    1    3    3    0    0  0.53623677914E+01  0.30213553988E+01 -0.75864053066E+01  0.97691925076E+01  0.00000000000E+00 0. -1.
</event>
<event>
 7    1  0.4374874E-012  0.5052886E+02  0.7816164E-02  0.1300439E+00
        -11   -1    0    0    0    0  0.00000000000E+00  0.00000000000E+00  0.45593999997E+02  0.45594000000E+02  0.51100000000E-03 0. -1.
         11   -1    0    0    0    0 -0.00000000000E+00 -0.00000000000E+00 -0.45593999997E+02  0.45594000000E+02  0.51100000000E-03 0.  1.
    9900012    2    1    2    0    0 -0.83502995198E+01  0.28332980527E+01  0.39691444798E+02  0.50528857484E+02  0.29999992810E+02 0.  0.
        -12    1    1    2    0    0  0.83502995198E+01 -0.28332980527E+01 -0.39691444798E+02  0.40659142516E+02  0.00000000000E+00 0.  1.
         11    1    3    3    0    0 -0.93989585068E+01  0.45319896625E+01  0.18515439252E+02  0.21253254863E+02  0.51100000000E-03 0. -1.
        -11    1    3    3    0    0 -0.44773977212E+00  0.49737836243E+01 -0.17962912131E+01  0.53071326371E+01  0.51100000000E-03 0.  1.
         12    1    3    3    0    0  0.14963987592E+01 -0.66724752340E+01  0.22972296759E+02  0.23968469984E+02  0.00000000000E+00 0. -1.
</event>
<event>
 7    1  0.4374874E-012  0.5052887E+02  0.7816164E-02  0.1300439E+00
        -11   -1    0    0    0    0  0.00000000000E+00  0.00000000000E+00  0.45593999997E+02  0.45594000000E+02  0.51100000000E-03 0. -1.
         11   -1    0    0    0    0 -0.00000000000E+00 -0.00000000000E+00 -0.45593999997E+02  0.45594000000E+02  0.51100000000E-03 0.  1.
    9900012    2    1    2    0    0 -0.14973862698E+02 -0.32622777017E+02 -0.19097195571E+02  0.50528867901E+02  0.30000024471E+02 0.  0.
         12    1    1    2    0    0  0.14973862698E+02  0.32622777017E+02  0.19097195571E+02  0.40659132099E+02  0.00000000000E+00 0. -1.
         11    1    3    3    0    0  0.99824736031E+00 -0.11225775087E+02 -0.12536516251E+01  0.11339584064E+02  0.51100000000E-03 0. -1.
        -11    1    3    3    0    0 -0.19813202252E+02 -0.22460773050E+02 -0.12338112469E+02  0.32392565954E+02  0.51100000000E-03 0.  1.
         12    1    3    3    0    0  0.38410921936E+01  0.10637711203E+01 -0.55054314771E+01  0.67967178833E+01  0.00000000000E+00 0. -1.
</event>
<event>
 7    1  0.4374874E-012  0.5052886E+02  0.7816164E-02  0.1300439E+00
        -11   -1    0    0    0    0  0.00000000000E+00  0.00000000000E+00  0.45593999997E+02  0.45594000000E+02  0.51100000000E-03 0. -1.
         11   -1    0    0    0    0 -0.00000000000E+00 -0.00000000000E+00 -0.45593999997E+02  0.45594000000E+02  0.51100000000E-03 0.  1.
    9900012    2    1    2    0    0  0.84714851226E+01 -0.72653530733E+01  0.39097497141E+02  0.50528859599E+02  0.29999999236E+02 0.  0.
        -12    1    1    2    0    0 -0.84714851226E+01  0.72653530733E+01 -0.39097497141E+02  0.40659140401E+02  0.00000000000E+00 0.  1.
         11    1    3    3    0    0 -0.46494325223E+01 -0.11251990231E+02  0.45241088458E+01  0.12988151063E+02  0.51100000000E-03 0.  1.
        -11    1    3    3    0    0  0.48814092081E+01  0.39310165193E+01  0.12587162498E+02  0.14061212848E+02  0.51100000000E-03 0. -1.
        -12    1    3    3    0    0  0.82395084368E+01  0.55620638135E-01  0.21986225797E+02  0.23479495687E+02  0.00000000000E+00 0.  1.
</event>
<event>
 7    1  0.4374874E-012  0.5052886E+02  0.7816164E-02  0.1300439E+00
        -11   -1    0    0    0    0  0.00000000000E+00  0.00000000000E+00  0.45593999997E+02  0.45594000000E+02  0.51100000000E-03 0. -1.
         11   -1    0    0    0    0 -0.00000000000E+00 -0.00000000000E+00 -0.45593999997E+02  0.45594000000E+02  0.51100000000E-03 0.  1.
    9900012    2    1    2    0    0 -0.22515883951E+00 -0.57964974616E+01  0.40243203842E+02  0.50528861607E+02  0.30000005342E+02 0.  0.
        -12    1    1    2    0    0  0.22515883951E+00  0.57964974616E+01 -0.40243203842E+02  0.40659138393E+02  0.00000000000E+00 0.  1.
         11    1    3    3    0    0 -0.81877324804E+01  0.33511220303E+01  0.28505527781E+02  0.29846843993E+02  0.51100000000E-03 0. -1.
        -11    1    3    3    0    0  0.13630661508E+00 -0.41300302774E+01 -0.15939586014E+01  0.44290443518E+01  0.51100000000E-03 0.  1.
        -12    1    3    3    0    0  0.78262670258E+01 -0.50175892145E+01  0.13331634663E+02  0.16252973263E+02  0.00000000000E+00 0.  1.
</event>
<event>
 7    1  0.4374874E-012  0.5052885E+02  0.7816164E-02  0.1300439E+00
        -11   -1    0    0    0    0  0.00000000000E+00  0.00000000000E+00  0.45593999997E+02  0.45594000000E+02  0.51100000000E-03 0. -1.
         11   -1    0    0    0    0 -0.00000000000E+00 -0.00000000000E+00 -0.45593999997E+02  0.45594000000E+02  0.51100000000E-03 0.  1.
    9900012    2    1    2    0    0  0.82658942305E+01  0.55987954556E+01 -0.39414399844E+02  0.50528850562E+02  0.29999971768E+02 0.  0.
         12    1    1    2    0    0 -0.82658942305E+01 -0.55987954556E+01  0.39414399844E+02  0.40659149438E+02  0.00000000000E+00 0. -1.
         11    1    3    3    0    0  0.59369168062E+01  0.82731196567E+00 -0.11249909777E+02  0.12747230935E+02  0.51100000000E-03 0. -1.
        -11    1    3    3    0    0 -0.11822898911E+01 -0.99613953736E+01 -0.11651219721E+02  0.15374593602E+02  0.51100000000E-03 0.  1.
         12    1    3    3    0    0  0.35112673154E+01  0.14732878864E+02 -0.16513270346E+02  0.22407026025E+02  0.00000000000E+00 0. -1.
</event>
<event>
 7    1  0.5674267E-012  0.5052885E+02  0.7816164E-02  0.1300439E+00
        -11   -1    0    0    0    0  0.00000000000E+00  0.00000000000E+00  0.45593999997E+02  0.45594000000E+02  0.51100000000E-03 0. -1.
         11   -1    0    0    0    0 -0.00000000000E+00 -0.00000000000E+00 -0.45593999997E+02  0.45594000000E+02  0.51100000000E-03 0.  1.
    9900012    2    1    2    0    0  0.18079504315E+02 -0.13626436333E+01 -0.36392871394E+02  0.50528851433E+02  0.29999974415E+02 0.  0.
         12    1    1    2    0    0 -0.18079504315E+02  0.13626436333E+01  0.36392871394E+02  0.40659148567E+02  0.00000000000E+00 0. -1.
         11    1    3    3    0    0  0.75668740344E+01 -0.55754420858E+01 -0.83587637630E+01  0.12578237914E+02  0.51100000000E-03 0. -1.
        -11    1    3    3    0    0  0.13627894832E+02  0.15410210925E+01 -0.30302326587E+02  0.33261468104E+02  0.51100000000E-03 0.  1.
         12    1    3    3    0    0 -0.31152645519E+01  0.26717773600E+01  0.22682189565E+01  0.46891454151E+01  0.00000000000E+00 0. -1.
</event>
<event>
 7    1  0.4374874E-012  0.5052886E+02  0.7816164E-02  0.1300439E+00
        -11   -1    0    0    0    0  0.00000000000E+00  0.00000000000E+00  0.45593999997E+02  0.45594000000E+02  0.51100000000E-03 0. -1.
         11   -1    0    0    0    0 -0.00000000000E+00 -0.00000000000E+00 -0.45593999997E+02  0.45594000000E+02  0.51100000000E-03 0.  1.
    9900012    2    1    2    0    0 -0.13032789465E+02  0.24280443870E+02 -0.29896018630E+02  0.50528862212E+02  0.30000007179E+02 0.  0.
         12    1    1    2    0    0  0.13032789465E+02 -0.24280443870E+02  0.29896018630E+02  0.40659137788E+02  0.00000000000E+00 0. -1.
         11    1    3    3    0    0  0.46197309598E+01  0.81155654349E+01 -0.14853850625E+02  0.17545403818E+02  0.51100000000E-03 0. -1.
        -11    1    3    3    0    0 -0.11747156011E+02  0.11275805311E+02 -0.18437742860E+02  0.24598573573E+02  0.51100000000E-03 0.  1.
        -12    1    3    3    0    0 -0.59053644135E+01  0.48890731236E+01  0.33955748556E+01  0.83848848211E+01  0.00000000000E+00 0.  1.
</event>
<event>
 7    1  0.4374874E-012  0.5052887E+02  0.7816164E-02  0.1300439E+00
        -11   -1    0    0    0    0  0.00000000000E+00  0.00000000000E+00  0.45593999997E+02  0.45594000000E+02  0.51100000000E-03 0. -1.
         11   -1    0    0    0    0 -0.00000000000E+00 -0.00000000000E+00 -0.45593999997E+02  0.45594000000E+02  0.51100000000E-03 0.  1.
    9900012    2    1    2    0    0 -0.19828113454E+01  0.87003249873E+01  0.39667843050E+02  0.50528868579E+02  0.30000026532E+02 0.  0.
        -12    1    1    2    0    0  0.19828113454E+01 -0.87003249873E+01 -0.39667843050E+02  0.40659131421E+02  0.00000000000E+00 0.  1.
         11    1    3    3    0    0  0.16130487595E+01  0.16558530927E+02  0.12372139430E+02  0.20732985966E+02  0.51100000000E-03 0.  1.
        -11    1    3    3    0    0  0.26241986656E+01 -0.33298986297E+01  0.10394147722E+02  0.11225549013E+02  0.51100000000E-03 0. -1.
        -12    1    3    3    0    0 -0.62200587705E+01 -0.45283073098E+01  0.16901555898E+02  0.18570333599E+02  0.00000000000E+00 0.  1.
</event>
<event>
 7    1  0.4374874E-012  0.5052886E+02  0.7816164E-02  0.1300439E+00
        -11   -1    0    0    0    0  0.00000000000E+00  0.00000000000E+00  0.45593999997E+02  0.45594000000E+02  0.51100000000E-03 0. -1.
         11   -1    0    0    0    0 -0.00000000000E+00 -0.00000000000E+00 -0.45593999997E+02  0.45594000000E+02  0.51100000000E-03 0.  1.
    9900012    2    1    2    0    0 -0.24650923945E+01  0.31198424678E+02 -0.25956638605E+02  0.50528862397E+02  0.30000007742E+02 0.  0.
         12    1    1    2    0    0  0.24650923945E+01 -0.31198424678E+02  0.25956638605E+02  0.40659137603E+02  0.00000000000E+00 0. -1.
         11    1    3    3    0    0 -0.74385803370E+01  0.88371417239E+01 -0.28474542116E+01  0.11896871313E+02  0.51100000000E-03 0. -1.
        -11    1    3    3    0    0 -0.61497721710E+00  0.22282080608E+02 -0.10097980400E+02  0.24471177365E+02  0.51100000000E-03 0.  1.
         12    1    3    3    0    0  0.55884651596E+01  0.79202346723E-01 -0.13011203993E+02  0.14160813720E+02  0.00000000000E+00 0. -1.
</event>
<event>
 7    1  0.4374874E-012  0.5052886E+02  0.7816164E-02  0.1300439E+00
        -11   -1    0    0    0    0  0.00000000000E+00  0.00000000000E+00  0.45593999997E+02  0.45594000000E+02  0.51100000000E-03 0. -1.
         11   -1    0    0    0    0 -0.00000000000E+00 -0.00000000000E+00 -0.45593999997E+02  0.45594000000E+02  0.51100000000E-03 0.  1.
    9900012    2    1    2    0    0  0.79363285201E+01  0.15068538653E+02 -0.36920448808E+02  0.50528859481E+02  0.29999998878E+02 0.  0.
         12    1    1    2    0    0 -0.79363285201E+01 -0.15068538653E+02  0.36920448808E+02  0.40659140519E+02  0.00000000000E+00 0. -1.
         11    1    3    3    0    0 -0.40923524115E+01 -0.71814262565E+00 -0.76479891624E+00  0.42246887145E+01  0.51100000000E-03 0. -1.
        -11    1    3    3    0    0  0.10604793246E+02  0.17563409388E+02 -0.15993797189E+02  0.26014160335E+02  0.51100000000E-03 0.  1.
         12    1    3    3    0    0  0.14238876853E+01 -0.17767281089E+01 -0.20161852703E+02  0.20290010432E+02  0.00000000000E+00 0. -1.
</event>
<event>
 7    1  0.4374874E-012  0.5052886E+02  0.7816164E-02  0.1300439E+00
        -11   -1    0    0    0    0  0.00000000000E+00  0.00000000000E+00  0.45593999997E+02  0.45594000000E+02  0.51100000000E-03 0. -1.
         11   -1    0    0    0    0 -0.00000000000E+00 -0.00000000000E+00 -0.45593999997E+02  0.45594000000E+02  0.51100000000E-03 0.  1.
    9900012    2    1    2    0    0  0.28720077685E+02  0.24301455252E+02  0.15419530209E+02  0.50528862018E+02  0.30000006591E+02 0.  0.
        -12    1    1    2    0    0 -0.28720077685E+02 -0.24301455252E+02 -0.15419530209E+02  0.40659137982E+02  0.00000000000E+00 0.  1.
         11    1    3    3    0    0 -0.10144914851E+01  0.85543249847E+00  0.42890604373E+01  0.44896544888E+01  0.51100000000E-03 0. -1.
        -11    1    3    3    0    0  0.87184902514E+01  0.20749602464E+02  0.10514878448E+02  0.24841915057E+02  0.51100000000E-03 0.  1.
        -12    1    3    3    0    0  0.21016078918E+02  0.26964202891E+01  0.61559132303E+00  0.21197292472E+02  0.00000000000E+00 0.  1.
</event>
<event>
 7    1  0.4374874E-012  0.5052887E+02  0.7816164E-02  0.1300439E+00
        -11   -1    0    0    0    0  0.00000000000E+00  0.00000000000E+00  0.45593999997E+02  0.45594000000E+02  0.51100000000E-03 0. -1.
         11   -1    0    0    0    0 -0.00000000000E+00 -0.00000000000E+00 -0.45593999997E+02  0.45594000000E+02  0.51100000000E-03 0.  1.
    9900012    2    1    2    0    0 -0.10732455543E+02 -0.32194719994E+02  0.22393728476E+02  0.50528872212E+02  0.30000037575E+02 0.  0.
        -12    1    1    2    0    0  0.10732455543E+02  0.32194719994E+02 -0.22393728476E+02  0.40659127788E+02  0.00000000000E+00 0.  1.
         11    1    3    3    0    0 -0.35554775329E+01 -0.16717966667E+02  0.10532352336E+02  0.20076410933E+02  0.51100000000E-03 0. -1.
        -11    1    3    3    0    0 -0.41427785213E+01 -0.18030319410E+01  0.15364221401E+02  0.16014769358E+02  0.51100000000E-03 0.  1.
        -12    1    3    3    0    0 -0.30341994888E+01 -0.13673721386E+02 -0.35028452615E+01  0.14437691921E+02  0.00000000000E+00 0.  1.
</event>
<event>
 7    1  0.4374874E-012  0.5052882E+02  0.7816164E-02  0.1300439E+00
        -11   -1    0    0    0    0  0.00000000000E+00  0.00000000000E+00  0.45593999997E+02  0.45594000000E+02  0.51100000000E-03 0. -1.
         11   -1    0    0    0    0 -0.00000000000E+00 -0.00000000000E+00 -0.45593999997E+02  0.45594000000E+02  0.51100000000E-03 0.  1.
    9900012    2    1    2    0    0 -0.31647157502E+02 -0.10589600057E+02  0.23226851380E+02  0.50528821056E+02  0.29999882083E+02 0.  0.
        -12    1    1    2    0    0  0.31647157502E+02  0.10589600057E+02 -0.23226851380E+02  0.40659178944E+02  0.00000000000E+00 0.  1.
         11    1    3    3    0    0 -0.54793094581E+01  0.67922666559E+00  0.80246078961E+01  0.97405602071E+01  0.51100000000E-03 0. -1.
        -11    1    3    3    0    0 -0.89471498021E+01  0.66230005540E+01 -0.93782650526E+00  0.11171174725E+02  0.51100000000E-03 0.  1.
        -12    1    3    3    0    0 -0.17220698242E+02 -0.17891827277E+02  0.16140069989E+02  0.29617086124E+02  0.00000000000E+00 0.  1.
</event>
<event>
 7    1  0.4374874E-012  0.5052881E+02  0.7816164E-02  0.1300439E+00
        -11   -1    0    0    0    0  0.00000000000E+00  0.00000000000E+00  0.45593999997E+02  0.45594000000E+02  0.51100000000E-03 0. -1.
         11   -1    0    0    0    0 -0.00000000000E+00 -0.00000000000E+00 -0.45593999997E+02  0.45594000000E+02  0.51100000000E-03 0.  1.
    9900012    2    1    2    0    0 -0.32431230226E+01  0.26432383615E+02  0.30724278005E+02  0.50528806581E+02  0.29999838084E+02 0.  0.
        -12    1    1    2    0    0  0.32431230226E+01 -0.26432383615E+02 -0.30724278005E+02  0.40659193419E+02  0.00000000000E+00 0.  1.
         11    1    3    3    0    0  0.17143520928E+01  0.20584158734E+02  0.11972985486E+02  0.23874651319E+02  0.51100000000E-03 0. -1.
        -11    1    3    3    0    0 -0.29917306204E+01  0.64041139162E+01  0.21837561938E+02  0.22953044217E+02  0.51100000000E-03 0.  1.
         12    1    3    3    0    0 -0.19657444950E+01 -0.55588903567E+00 -0.30862694193E+01  0.37011110450E+01  0.00000000000E+00 0. -1.
</event>
<event>
 7    1  0.4374874E-012  0.5052884E+02  0.7816164E-02  0.1300439E+00
        -11   -1    0    0    0    0  0.00000000000E+00  0.00000000000E+00  0.45593999997E+02  0.45594000000E+02  0.51100000000E-03 0. -1.
         11   -1    0    0    0    0 -0.00000000000E+00 -0.00000000000E+00 -0.45593999997E+02  0.45594000000E+02  0.51100000000E-03 0.  1.
    9900012    2    1    2    0    0  0.94963423317E+01 -0.73842263686E+01 -0.38838901947E+02  0.50528835950E+02  0.29999927355E+02 0.  0.
         12    1    1    2    0    0 -0.94963423317E+01  0.73842263686E+01  0.38838901947E+02  0.40659164050E+02  0.00000000000E+00 0. -1.
         11    1    3    3    0    0 -0.58320830714E+01  0.32101933166E+01 -0.13506767279E+01  0.67928537424E+01  0.51100000000E-03 0. -1.
        -11    1    3    3    0    0  0.46043804960E+01 -0.76730837911E+01 -0.27036506673E+02  0.28478926032E+02  0.51100000000E-03 0.  1.
        -12    1    3    3    0    0  0.10724044907E+02 -0.29213358940E+01 -0.10451718547E+02  0.15257056176E+02  0.00000000000E+00 0.  1.
</event>
<event>
 7    1  0.4374874E-012  0.5052885E+02  0.7816164E-02  0.1300439E+00
        -11   -1    0    0    0    0  0.00000000000E+00  0.00000000000E+00  0.45593999997E+02  0.45594000000E+02  0.51100000000E-03 0. -1.
         11   -1    0    0    0    0 -0.00000000000E+00 -0.00000000000E+00 -0.45593999997E+02  0.45594000000E+02  0.51100000000E-03 0.  1.
    9900012    2    1    2    0    0  0.37064327658E+02  0.15525948773E+02 -0.61924683457E+01  0.50528854236E+02  0.29999982935E+02 0.  0.
        -12    1    1    2    0    0 -0.37064327658E+02 -0.15525948773E+02  0.61924683457E+01  0.40659145764E+02  0.00000000000E+00 0.  1.
         11    1    3    3    0    0 -0.34808080464E+00  0.71175351040E+01  0.33866013921E+01  0.78898374796E+01  0.51100000000E-03 0. -1.
        -11    1    3    3    0    0  0.77344442526E+01  0.39789696027E+01 -0.91567874300E+01  0.12629354033E+02  0.51100000000E-03 0.  1.
         12    1    3    3    0    0  0.29677964210E+02  0.44294440666E+01 -0.42228230778E+00  0.30009662723E+02  0.00000000000E+00 0. -1.
</event>
<event>
 7    1  0.4374874E-012  0.5052886E+02  0.7816164E-02  0.1300439E+00
        -11   -1    0    0    0    0  0.00000000000E+00  0.00000000000E+00  0.45593999997E+02  0.45594000000E+02  0.51100000000E-03 0. -1.
         11   -1    0    0    0    0 -0.00000000000E+00 -0.00000000000E+00 -0.45593999997E+02  0.45594000000E+02  0.51100000000E-03 0.  1.
    9900012    2    1    2    0    0  0.78936304405E+01 -0.28891976093E+02  0.27497450304E+02  0.50528862561E+02  0.30000008239E+02 0.  0.
        -12    1    1    2    0    0 -0.78936304405E+01  0.28891976093E+02 -0.27497450304E+02  0.40659137439E+02  0.00000000000E+00 0.  1.
         11    1    3    3    0    0  0.11665550788E+02 -0.14245748810E+02  0.15585418638E+02  0.24123260740E+02  0.51100000000E-03 0. -1.
        -11    1    3    3    0    0 -0.23623420145E+01 -0.18511324602E+02  0.12177058996E+02  0.22282965789E+02  0.51100000000E-03 0.  1.
        -12    1    3    3    0    0 -0.14095783329E+01  0.38650973190E+01 -0.26502733030E+00  0.41226360314E+01  0.00000000000E+00 0.  1.
</event>
<event>
 7    1  0.4374874E-012  0.5052886E+02  0.7816164E-02  0.1300439E+00
        -11   -1    0    0    0    0  0.00000000000E+00  0.00000000000E+00  0.45593999997E+02  0.45594000000E+02  0.51100000000E-03 0. -1.
         11   -1    0    0    0    0 -0.00000000000E+00 -0.00000000000E+00 -0.45593999997E+02  0.45594000000E+02  0.51100000000E-03 0.  1.
    9900012    2    1    2    0    0  0.56232029013E+01  0.19276637159E+02 -0.35354718967E+02  0.50528864442E+02  0.30000013959E+02 0.  0.
         12    1    1    2    0    0 -0.56232029013E+01 -0.19276637159E+02  0.35354718967E+02  0.40659135558E+02  0.00000000000E+00 0. -1.
         11    1    3    3    0    0  0.53813672827E+01  0.58782225442E+01  0.25834715602E+01  0.83777645989E+01  0.51100000000E-03 0.  1.
        -11    1    3    3    0    0 -0.28040532865E+01 -0.14832338254E+01 -0.69819952312E+01  0.76688300988E+01  0.51100000000E-03 0. -1.
        -12    1    3    3    0    0  0.30458889051E+01  0.14881648441E+02 -0.30956195296E+02  0.34482269745E+02  0.00000000000E+00 0.  1.
</event>
<event>
 7    1  0.4374874E-012  0.5052885E+02  0.7816164E-02  0.1300439E+00
        -11   -1    0    0    0    0  0.00000000000E+00  0.00000000000E+00  0.45593999997E+02  0.45594000000E+02  0.51100000000E-03 0. -1.
         11   -1    0    0    0    0 -0.00000000000E+00 -0.00000000000E+00 -0.45593999997E+02  0.45594000000E+02  0.51100000000E-03 0.  1.
    9900012    2    1    2    0    0  0.10653859268E+01  0.57695382002E+01  0.40233615399E+02  0.50528850645E+02  0.29999972020E+02 0.  0.
        -12    1    1    2    0    0 -0.10653859268E+01 -0.57695382002E+01 -0.40233615399E+02  0.40659149355E+02  0.00000000000E+00 0.  1.
         11    1    3    3    0    0  0.89643439640E+01 -0.72819528307E+00  0.66829365979E+01  0.11204970902E+02  0.51100000000E-03 0. -1.
        -11    1    3    3    0    0 -0.15289668175E+01 -0.59574854610E+01  0.13921561650E+02  0.15219699458E+02  0.51100000000E-03 0.  1.
        -12    1    3    3    0    0 -0.63699912196E+01  0.12455218944E+02  0.19629117151E+02  0.24104180285E+02  0.00000000000E+00 0.  1.
</event>
<event>
 7    1  0.4374874E-012  0.5052885E+02  0.7816164E-02  0.1300439E+00
        -11   -1    0    0    0    0  0.00000000000E+00  0.00000000000E+00  0.45593999997E+02  0.45594000000E+02  0.51100000000E-03 0. -1.
         11   -1    0    0    0    0 -0.00000000000E+00 -0.00000000000E+00 -0.45593999997E+02  0.45594000000E+02  0.51100000000E-03 0.  1.
    9900012    2    1    2    0    0  0.31344468656E+02 -0.72678431206E+01  0.24856973213E+02  0.50528851260E+02  0.29999973890E+02 0.  0.
        -12    1    1    2    0    0 -0.31344468656E+02  0.72678431206E+01 -0.24856973213E+02  0.40659148740E+02  0.00000000000E+00 0.  1.
         11    1    3    3    0    0  0.28681425368E+01 -0.19030821014E+01  0.17324696810E+02  0.17663325930E+02  0.51100000000E-03 0. -1.
        -11    1    3    3    0    0  0.74526897496E+01 -0.64903679550E+01  0.64149521800E+01  0.11782150586E+02  0.51100000000E-03 0.  1.
        -12    1    3    3    0    0  0.21023636370E+02  0.11256069358E+01  0.11173242228E+01  0.21083374744E+02  0.00000000000E+00 0.  1.
</event>
<event>
 7    1  0.4374874E-012  0.5052887E+02  0.7816164E-02  0.1300439E+00
        -11   -1    0    0    0    0  0.00000000000E+00  0.00000000000E+00  0.45593999997E+02  0.45594000000E+02  0.51100000000E-03 0. -1.
         11   -1    0    0    0    0 -0.00000000000E+00 -0.00000000000E+00 -0.45593999997E+02  0.45594000000E+02  0.51100000000E-03 0.  1.
    9900012    2    1    2    0    0  0.13207704633E+02  0.21428806515E+02 -0.31930041703E+02  0.50528870970E+02  0.30000033799E+02 0.  0.
         12    1    1    2    0    0 -0.13207704633E+02 -0.21428806515E+02  0.31930041703E+02  0.40659129030E+02  0.00000000000E+00 0. -1.
         11    1    3    3    0    0  0.34740925178E+01  0.13074895436E+02 -0.10430311464E+02  0.17082552707E+02  0.51100000000E-03 0. -1.
        -11    1    3    3    0    0  0.25896647161E+01  0.23393626061E+01 -0.23614677436E+02  0.23871153542E+02  0.51100000000E-03 0.  1.
         12    1    3    3    0    0  0.71439473986E+01  0.60145484738E+01  0.21149471976E+01  0.95751647206E+01  0.00000000000E+00 0. -1.
</event>
<event>
 7    1  0.4374874E-012  0.5052886E+02  0.7816164E-02  0.1300439E+00
        -11   -1    0    0    0    0  0.00000000000E+00  0.00000000000E+00  0.45593999997E+02  0.45594000000E+02  0.51100000000E-03 0. -1.
         11   -1    0    0    0    0 -0.00000000000E+00 -0.00000000000E+00 -0.45593999997E+02  0.45594000000E+02  0.51100000000E-03 0.  1.
    9900012    2    1    2    0    0  0.30422994904E+02  0.26142906940E+02 -0.66449624201E+01  0.50528859235E+02  0.29999998129E+02 0.  0.
         12    1    1    2    0    0 -0.30422994904E+02 -0.26142906940E+02  0.66449624201E+01  0.40659140765E+02  0.00000000000E+00 0. -1.
         11    1    3    3    0    0  0.14946859043E+02  0.70801262789E+01 -0.68952939711E+01  0.17918757283E+02  0.51100000000E-03 0. -1.
        -11    1    3    3    0    0  0.44777123384E+00 -0.11210996588E+01 -0.64557008741E+01  0.65676051617E+01  0.51100000000E-03 0.  1.
         12    1    3    3    0    0  0.15028364628E+02  0.20183880320E+02  0.67060324251E+01  0.26042496790E+02  0.00000000000E+00 0. -1.
</event>
<event>
 7    1  0.4374874E-012  0.5052886E+02  0.7816164E-02  0.1300439E+00
        -11   -1    0    0    0    0  0.00000000000E+00  0.00000000000E+00  0.45593999997E+02  0.45594000000E+02  0.51100000000E-03 0. -1.
         11   -1    0    0    0    0 -0.00000000000E+00 -0.00000000000E+00 -0.45593999997E+02  0.45594000000E+02  0.51100000000E-03 0.  1.
    9900012    2    1    2    0    0 -0.20837603573E+02  0.24234211227E+01 -0.34829402383E+02  0.50528856342E+02  0.29999989337E+02 0.  0.
         12    1    1    2    0    0  0.20837603573E+02 -0.24234211227E+01  0.34829402383E+02  0.40659143658E+02  0.00000000000E+00 0. -1.
         11    1    3    3    0    0 -0.10822380322E+02  0.73391798930E+01 -0.22263179628E+02  0.25819307596E+02  0.51100000000E-03 0. -1.
        -11    1    3    3    0    0  0.75334543037E+00 -0.85535565425E+00 -0.13137385263E+02  0.13186737824E+02  0.51100000000E-03 0.  1.
         12    1    3    3    0    0 -0.10768568682E+02 -0.40604031160E+01  0.57116250791E+00  0.11522810922E+02  0.00000000000E+00 0. -1.
</event>
<event>
 7    1  0.4374874E-012  0.5052886E+02  0.7816164E-02  0.1300439E+00
        -11   -1    0    0    0    0  0.00000000000E+00  0.00000000000E+00  0.45593999997E+02  0.45594000000E+02  0.51100000000E-03 0. -1.
         11   -1    0    0    0    0 -0.00000000000E+00 -0.00000000000E+00 -0.45593999997E+02  0.45594000000E+02  0.51100000000E-03 0.  1.
    9900012    2    1    2    0    0  0.97014448871E+01 -0.86333265938E+01  0.38529387233E+02  0.50528855377E+02  0.29999986403E+02 0.  0.
        -12    1    1    2    0    0 -0.97014448871E+01  0.86333265938E+01 -0.38529387233E+02  0.40659144623E+02  0.00000000000E+00 0.  1.
         11    1    3    3    0    0  0.46333507803E+00 -0.74135791648E+01  0.18895249947E+02  0.20302864484E+02  0.51100000000E-03 0. -1.
        -11    1    3    3    0    0  0.10562960728E+02 -0.26119268476E+01  0.23506602236E+02  0.25902869535E+02  0.51100000000E-03 0.  1.
         12    1    3    3    0    0 -0.13248509186E+01  0.13921794186E+01 -0.38724649502E+01  0.43231213585E+01  0.00000000000E+00 0. -1.
</event>
<event>
 7    1  0.4374874E-012  0.5052887E+02  0.7816164E-02  0.1300439E+00
        -11   -1    0    0    0    0  0.00000000000E+00  0.00000000000E+00  0.45593999997E+02  0.45594000000E+02  0.51100000000E-03 0.  1.
         11   -1    0    0    0    0 -0.00000000000E+00 -0.00000000000E+00 -0.45593999997E+02  0.45594000000E+02  0.51100000000E-03 0. -1.
    9900012    2    1    2    0    0  0.30091205725E+02 -0.27208756035E+02  0.27144012243E+01  0.50528867681E+02  0.30000023802E+02 0.  0.
        -12    1    1    2    0    0 -0.30091205725E+02  0.27208756035E+02 -0.27144012243E+01  0.40659132319E+02  0.00000000000E+00 0.  1.
         11    1    3    3    0    0  0.10524724275E+02 -0.96163228737E+01  0.21617276435E+01  0.14419311819E+02  0.51100000000E-03 0. -1.
        -11    1    3    3    0    0  0.13618191705E+02 -0.25685824574E+01  0.10274736296E+02  0.17251752588E+02  0.51100000000E-03 0.  1.
        -12    1    3    3    0    0  0.59482897451E+01 -0.15023850704E+02 -0.97220627148E+01  0.18857803273E+02  0.00000000000E+00 0.  1.
</event>
<event>
 7    1  0.4374874E-012  0.5052886E+02  0.7816164E-02  0.1300439E+00
        -11   -1    0    0    0    0  0.00000000000E+00  0.00000000000E+00  0.45593999997E+02  0.45594000000E+02  0.51100000000E-03 0. -1.
         11   -1    0    0    0    0 -0.00000000000E+00 -0.00000000000E+00 -0.45593999997E+02  0.45594000000E+02  0.51100000000E-03 0.  1.
    9900012    2    1    2    0    0  0.40331269341E+02 -0.50149551083E+01 -0.11852005295E+01  0.50528858818E+02  0.29999996863E+02 0.  0.
        -12    1    1    2    0    0 -0.40331269341E+02  0.50149551083E+01  0.11852005295E+01  0.40659141182E+02  0.00000000000E+00 0.  1.
         11    1    3    3    0    0  0.14497366994E+02 -0.30270060265E+01 -0.65520178327E+01  0.16194608769E+02  0.51100000000E-03 0. -1.
        -11    1    3    3    0    0 -0.32580542020E+01 -0.22663163821E+01 -0.18203962236E+01  0.43663428403E+01  0.51100000000E-03 0.  1.
         12    1    3    3    0    0  0.29091956548E+02  0.27836730023E+00  0.71872135268E+01  0.29967907208E+02  0.00000000000E+00 0. -1.
</event>
<event>
 7    1  0.4374874E-012  0.5052887E+02  0.7816164E-02  0.1300439E+00
        -11   -1    0    0    0    0  0.00000000000E+00  0.00000000000E+00  0.45593999997E+02  0.45594000000E+02  0.51100000000E-03 0. -1.
         11   -1    0    0    0    0 -0.00000000000E+00 -0.00000000000E+00 -0.45593999997E+02  0.45594000000E+02  0.51100000000E-03 0.  1.
    9900012    2    1    2    0    0 -0.34176448230E+01  0.23054998465E+02  0.33315931214E+02  0.50528874050E+02  0.30000043163E+02 0.  0.
        -12    1    1    2    0    0  0.34176448230E+01 -0.23054998465E+02 -0.33315931214E+02  0.40659125950E+02  0.00000000000E+00 0.  1.
         11    1    3    3    0    0  0.48892748265E+01  0.10053489765E+02  0.19815098355E+02  0.22751171132E+02  0.51100000000E-03 0. -1.
        -11    1    3    3    0    0 -0.16718936757E+01 -0.39861736270E+01  0.73575319798E+01  0.85333513781E+01  0.51100000000E-03 0.  1.
         12    1    3    3    0    0 -0.66350259738E+01  0.16987682327E+02  0.61433008791E+01  0.19244351540E+02  0.00000000000E+00 0. -1.
</event>
<event>
 7    1  0.4374874E-012  0.5052886E+02  0.7816164E-02  0.1300439E+00
        -11   -1    0    0    0    0  0.00000000000E+00  0.00000000000E+00  0.45593999997E+02  0.45594000000E+02  0.51100000000E-03 0. -1.
         11   -1    0    0    0    0 -0.00000000000E+00 -0.00000000000E+00 -0.45593999997E+02  0.45594000000E+02  0.51100000000E-03 0.  1.
    9900012    2    1    2    0    0 -0.10319603248E+02 -0.14383175378E+02  0.36603218456E+02  0.50528861464E+02  0.30000004907E+02 0.  0.
        -12    1    1    2    0    0  0.10319603248E+02  0.14383175378E+02 -0.36603218456E+02  0.40659138536E+02  0.00000000000E+00 0.  1.
         11    1    3    3    0    0 -0.12926010734E+02 -0.11031920852E+02  0.13029609770E+02  0.21413915154E+02  0.51100000000E-03 0. -1.
        -11    1    3    3    0    0  0.23095441067E+01 -0.30483484355E+00 -0.21737807964E+01  0.31862582247E+01  0.51100000000E-03 0.  1.
         12    1    3    3    0    0  0.29686337982E+00 -0.30464196827E+01  0.25747389482E+02  0.25928688086E+02  0.00000000000E+00 0. -1.
</event>
<event>
 7    1  0.4374874E-012  0.5052886E+02  0.7816164E-02  0.1300439E+00
        -11   -1    0    0    0    0  0.00000000000E+00  0.00000000000E+00  0.45593999997E+02  0.45594000000E+02  0.51100000000E-03 0. -1.
         11   -1    0    0    0    0 -0.00000000000E+00 -0.00000000000E+00 -0.45593999997E+02  0.45594000000E+02  0.51100000000E-03 0.  1.
    9900012    2    1    2    0    0 -0.39126003138E+01 -0.10063911979E+02 -0.39199173925E+02  0.50528855863E+02  0.29999987881E+02 0.  0.
         12    1    1    2    0    0  0.39126003138E+01  0.10063911979E+02  0.39199173925E+02  0.40659144137E+02  0.00000000000E+00 0. -1.
         11    1    3    3    0    0  0.46844087920E+01 -0.31628997638E+01  0.29834907361E-01  0.56523013923E+01  0.51100000000E-03 0. -1.
        -11    1    3    3    0    0 -0.90525306794E+01 -0.80139078302E+01 -0.10187056006E+02  0.15809716656E+02  0.51100000000E-03 0.  1.
        -12    1    3    3    0    0  0.45552157358E+00  0.11128956148E+01 -0.29041952827E+02  0.29066837815E+02  0.00000000000E+00 0.  1.
</event>
<event>
 7    1  0.4374874E-012  0.5052880E+02  0.7816164E-02  0.1300439E+00
        -11   -1    0    0    0    0  0.00000000000E+00  0.00000000000E+00  0.45593999997E+02  0.45594000000E+02  0.51100000000E-03 0. -1.
         11   -1    0    0    0    0 -0.00000000000E+00 -0.00000000000E+00 -0.45593999997E+02  0.45594000000E+02  0.51100000000E-03 0.  1.
    9900012    2    1    2    0    0  0.36935548244E+02 -0.11199944264E+02  0.12786599259E+02  0.50528799365E+02  0.29999816151E+02 0.  0.
        -12    1    1    2    0    0 -0.36935548244E+02  0.11199944264E+02 -0.12786599259E+02  0.40659200635E+02  0.00000000000E+00 0.  1.
         11    1    3    3    0    0  0.10666204928E+02 -0.78381583683E+01  0.33829963646E+01  0.13661966141E+02  0.51100000000E-03 0. -1.
        -11    1    3    3    0    0  0.20686658784E+02  0.35093911257E+01 -0.34452854867E+01  0.21263199901E+02  0.51100000000E-03 0.  1.
         12    1    3    3    0    0  0.55826845328E+01 -0.68711770219E+01  0.12848888381E+02  0.15603633323E+02  0.00000000000E+00 0. -1.
</event>
<event>
 7    1  0.4374874E-012  0.5052886E+02  0.7816164E-02  0.1300439E+00
        -11   -1    0    0    0    0  0.00000000000E+00  0.00000000000E+00  0.45593999997E+02  0.45594000000E+02  0.51100000000E-03 0.  1.
         11   -1    0    0    0    0 -0.00000000000E+00 -0.00000000000E+00 -0.45593999997E+02  0.45594000000E+02  0.51100000000E-03 0. -1.
    9900012    2    1    2    0    0 -0.31835250512E+02  0.24974951584E+02 -0.39917914103E+01  0.50528858587E+02  0.29999996162E+02 0.  0.
         12    1    1    2    0    0  0.31835250512E+02 -0.24974951584E+02  0.39917914103E+01  0.40659141413E+02  0.00000000000E+00 0. -1.
         11    1    3    3    0    0  0.64554903369E-01 -0.54339302568E+00 -0.23166937660E+01  0.23804439886E+01  0.51100000000E-03 0. -1.
        -11    1    3    3    0    0 -0.55686412301E+01  0.17825211602E+02 -0.74658859626E+01  0.20111871799E+02  0.51100000000E-03 0.  1.
         12    1    3    3    0    0 -0.26331164185E+02  0.76931330077E+01  0.57907883183E+01  0.28036542800E+02  0.00000000000E+00 0. -1.
</event>
<event>
 7    1  0.4374874E-012  0.5052886E+02  0.7816164E-02  0.1300439E+00
        -11   -1    0    0    0    0  0.00000000000E+00  0.00000000000E+00  0.45593999997E+02  0.45594000000E+02  0.51100000000E-03 0. -1.
         11   -1    0    0    0    0 -0.00000000000E+00 -0.00000000000E+00 -0.45593999997E+02  0.45594000000E+02  0.51100000000E-03 0.  1.
    9900012    2    1    2    0    0  0.31012463733E+02 -0.22148691586E+02  0.14171393820E+02  0.50528857749E+02  0.29999993615E+02 0.  0.
        -12    1    1    2    0    0 -0.31012463733E+02  0.22148691586E+02 -0.14171393820E+02  0.40659142251E+02  0.00000000000E+00 0.  1.
         11    1    3    3    0    0  0.72388729281E+01 -0.18566224986E+02  0.77835678169E+01  0.21393688782E+02  0.51100000000E-03 0.  1.
        -11    1    3    3    0    0  0.15366194521E+02 -0.61353824394E+01 -0.23874634210E+01  0.16717141909E+02  0.51100000000E-03 0. -1.
        -12    1    3    3    0    0  0.84073962838E+01  0.25529158391E+01  0.87752894237E+01  0.12418027058E+02  0.00000000000E+00 0.  1.
</event>
<event>
 7    1  0.4374874E-012  0.5052885E+02  0.7816164E-02  0.1300439E+00
        -11   -1    0    0    0    0  0.00000000000E+00  0.00000000000E+00  0.45593999997E+02  0.45594000000E+02  0.51100000000E-03 0. -1.
         11   -1    0    0    0    0 -0.00000000000E+00 -0.00000000000E+00 -0.45593999997E+02  0.45594000000E+02  0.51100000000E-03 0.  1.
    9900012    2    1    2    0    0 -0.15160105006E+02 -0.92133739842E+01 -0.36584850132E+02  0.50528852159E+02  0.29999976623E+02 0.  0.
         12    1    1    2    0    0  0.15160105006E+02  0.92133739842E+01  0.36584850132E+02  0.40659147841E+02  0.00000000000E+00 0. -1.
         11    1    3    3    0    0  0.28381995496E+00 -0.50281283805E+01 -0.79276575045E+00  0.50981473668E+01  0.51100000000E-03 0. -1.
        -11    1    3    3    0    0 -0.18199925267E+02  0.44159049260E+01 -0.21382010069E+02  0.28424071680E+02  0.51100000000E-03 0.  1.
         12    1    3    3    0    0  0.27560003053E+01 -0.86011505297E+01 -0.14410074312E+02  0.17006633112E+02  0.00000000000E+00 0. -1.
</event>
<event>
 7    1  0.4374874E-012  0.5052885E+02  0.7816164E-02  0.1300439E+00
        -11   -1    0    0    0    0  0.00000000000E+00  0.00000000000E+00  0.45593999997E+02  0.45594000000E+02  0.51100000000E-03 0. -1.
         11   -1    0    0    0    0 -0.00000000000E+00 -0.00000000000E+00 -0.45593999997E+02  0.45594000000E+02  0.51100000000E-03 0.  1.
    9900012    2    1    2    0    0  0.61178648739E+01  0.27056204264E+02  0.29727096393E+02  0.50528847036E+02  0.29999961052E+02 0.  0.
        -12    1    1    2    0    0 -0.61178648739E+01 -0.27056204264E+02 -0.29727096393E+02  0.40659152964E+02  0.00000000000E+00 0.  1.
         11    1    3    3    0    0  0.63948460359E+01  0.62255101334E+01  0.20371549018E+02  0.22240751829E+02  0.51100000000E-03 0. -1.
        -11    1    3    3    0    0 -0.36798108521E+01  0.12561257618E+02  0.13168367028E+02  0.18566962360E+02  0.51100000000E-03 0.  1.
        -12    1    3    3    0    0  0.34028296901E+01  0.82694365120E+01 -0.38128196530E+01  0.97211328471E+01  0.00000000000E+00 0.  1.
</event>
<event>
 7    1  0.4374874E-012  0.5052882E+02  0.7816164E-02  0.1300439E+00
        -11   -1    0    0    0    0  0.00000000000E+00  0.00000000000E+00  0.45593999997E+02  0.45594000000E+02  0.51100000000E-03 0. -1.
         11   -1    0    0    0    0 -0.00000000000E+00 -0.00000000000E+00 -0.45593999997E+02  0.45594000000E+02  0.51100000000E-03 0.  1.
    9900012    2    1    2    0    0 -0.14422614892E+02 -0.86673081387E+01  0.37013980241E+02  0.50528821651E+02  0.29999883892E+02 0.  0.
        -12    1    1    2    0    0  0.14422614892E+02  0.86673081387E+01 -0.37013980241E+02  0.40659178349E+02  0.00000000000E+00 0.  1.
         11    1    3    3    0    0 -0.15757882814E+02  0.16007291041E+01  0.19729011947E+02  0.25300338280E+02  0.51100000000E-03 0. -1.
        -11    1    3    3    0    0 -0.18335782050E+01 -0.97319126539E+01  0.19116509710E+02  0.21529353838E+02  0.51100000000E-03 0.  1.
        -12    1    3    3    0    0  0.31688461267E+01 -0.53612458887E+00 -0.18315414153E+01  0.36991295335E+01  0.00000000000E+00 0.  1.
</event>
<event>
 7    1  0.4374874E-012  0.5052886E+02  0.7816164E-02  0.1300439E+00
        -11   -1    0    0    0    0  0.00000000000E+00  0.00000000000E+00  0.45593999997E+02  0.45594000000E+02  0.51100000000E-03 0. -1.
         11   -1    0    0    0    0 -0.00000000000E+00 -0.00000000000E+00 -0.45593999997E+02  0.45594000000E+02  0.51100000000E-03 0.  1.
    9900012    2    1    2    0    0  0.23585822743E+02 -0.12170097685E+02  0.30802005355E+02  0.50528857781E+02  0.29999993711E+02 0.  0.
        -12    1    1    2    0    0 -0.23585822743E+02  0.12170097685E+02 -0.30802005355E+02  0.40659142219E+02  0.00000000000E+00 0.  1.
         11    1    3    3    0    0  0.16728774199E+02 -0.10926836521E+02  0.20285448609E+02  0.28473620565E+02  0.51100000000E-03 0. -1.
        -11    1    3    3    0    0 -0.40131231536E+01 -0.38312369128E+01  0.92812102908E+01  0.10813158579E+02  0.51100000000E-03 0.  1.
         12    1    3    3    0    0  0.10870171697E+02  0.25879757495E+01  0.12353464550E+01  0.11242078637E+02  0.00000000000E+00 0. -1.
</event>
<event>
 7    1  0.4374874E-012  0.5052885E+02  0.7816164E-02  0.1300439E+00
        -11   -1    0    0    0    0  0.00000000000E+00  0.00000000000E+00  0.45593999997E+02  0.45594000000E+02  0.51100000000E-03 0. -1.
         11   -1    0    0    0    0 -0.00000000000E+00 -0.00000000000E+00 -0.45593999997E+02  0.45594000000E+02  0.51100000000E-03 0.  1.
    9900012    2    1    2    0    0  0.34318105272E+02  0.23999381940E+01  0.21671967257E+02  0.50528853212E+02  0.29999979823E+02 0.  0.
        -12    1    1    2    0    0 -0.34318105272E+02 -0.23999381940E+01 -0.21671967257E+02  0.40659146788E+02  0.00000000000E+00 0.  1.
         11    1    3    3    0    0  0.89377821961E+01 -0.21800850397E+01 -0.34267760752E+01  0.98173069574E+01  0.51100000000E-03 0. -1.
        -11    1    3    3    0    0 -0.28848535457E+01  0.64180840283E+00  0.42475226718E+00  0.29857516233E+01  0.51100000000E-03 0.  1.
        -12    1    3    3    0    0  0.28265176621E+02  0.39382148308E+01  0.24673991065E+02  0.37725794631E+02  0.00000000000E+00 0.  1.
</event>
<event>
 7    1  0.4374874E-012  0.5052886E+02  0.7816164E-02  0.1300439E+00
        -11   -1    0    0    0    0  0.00000000000E+00  0.00000000000E+00  0.45593999997E+02  0.45594000000E+02  0.51100000000E-03 0. -1.
         11   -1    0    0    0    0 -0.00000000000E+00 -0.00000000000E+00 -0.45593999997E+02  0.45594000000E+02  0.51100000000E-03 0.  1.
    9900012    2    1    2    0    0 -0.32339593780E+00 -0.50835204881E+01  0.40338805414E+02  0.50528856038E+02  0.29999988414E+02 0.  0.
        -12    1    1    2    0    0  0.32339593780E+00  0.50835204881E+01 -0.40338805414E+02  0.40659143962E+02  0.00000000000E+00 0.  1.
         11    1    3    3    0    0  0.69007276382E+01  0.26154658295E+01  0.56082167035E+01  0.92689157023E+01  0.51100000000E-03 0.  1.
        -11    1    3    3    0    0 -0.37138881043E+01 -0.80859813459E+01  0.36315041357E+02  0.37389280391E+02  0.51100000000E-03 0. -1.
         12    1    3    3    0    0 -0.35102354718E+01  0.38699502827E+00 -0.15844526464E+01  0.38706599448E+01  0.00000000000E+00 0. -1.
</event>
<event>
 7    1  0.4374874E-012  0.5052886E+02  0.7816164E-02  0.1300439E+00
        -11   -1    0    0    0    0  0.00000000000E+00  0.00000000000E+00  0.45593999997E+02  0.45594000000E+02  0.51100000000E-03 0. -1.
         11   -1    0    0    0    0 -0.00000000000E+00 -0.00000000000E+00 -0.45593999997E+02  0.45594000000E+02  0.51100000000E-03 0.  1.
    9900012    2    1    2    0    0 -0.29893332529E+02  0.23371417653E+02 -0.14605861898E+02  0.50528859643E+02  0.29999999371E+02 0.  0.
         12    1    1    2    0    0  0.29893332529E+02 -0.23371417653E+02  0.14605861898E+02  0.40659140357E+02  0.00000000000E+00 0. -1.
         11    1    3    3    0    0 -0.75839200477E+01  0.71657011461E+01 -0.13278499786E+02  0.16887322850E+02  0.51100000000E-03 0. -1.
        -11    1    3    3    0    0 -0.21349998744E+02  0.49378817889E+01 -0.33046824916E+01  0.22161363892E+02  0.51100000000E-03 0.  1.
         12    1    3    3    0    0 -0.95941373691E+00  0.11267834718E+02  0.19773203793E+01  0.11480172901E+02  0.00000000000E+00 0. -1.
</event>
<event>
 7    1  0.4374874E-012  0.5052887E+02  0.7816164E-02  0.1300439E+00
        -11   -1    0    0    0    0  0.00000000000E+00  0.00000000000E+00  0.45593999997E+02  0.45594000000E+02  0.51100000000E-03 0. -1.
         11   -1    0    0    0    0 -0.00000000000E+00 -0.00000000000E+00 -0.45593999997E+02  0.45594000000E+02  0.51100000000E-03 0.  1.
    9900012    2    1    2    0    0 -0.99775598251E+01 -0.35960290896E+02  0.16139096947E+02  0.50528872223E+02  0.30000037608E+02 0.  0.
        -12    1    1    2    0    0  0.99775598251E+01  0.35960290896E+02 -0.16139096947E+02  0.40659127777E+02  0.00000000000E+00 0.  1.
         11    1    3    3    0    0 -0.10277547144E+02 -0.35891736063E+02  0.44161963265E+01  0.37594514003E+02  0.51100000000E-03 0. -1.
        -11    1    3    3    0    0  0.12575777720E+01  0.15474330068E+00  0.10115875705E+00  0.12710942911E+01  0.51100000000E-03 0.  1.
         12    1    3    3    0    0 -0.95759045318E+00 -0.22329813356E+00  0.11621741863E+02  0.11663263928E+02  0.00000000000E+00 0. -1.
</event>
<event>
 7    1  0.4374874E-012  0.5052887E+02  0.7816164E-02  0.1300439E+00
        -11   -1    0    0    0    0  0.00000000000E+00  0.00000000000E+00  0.45593999997E+02  0.45594000000E+02  0.51100000000E-03 0. -1.
         11   -1    0    0    0    0 -0.00000000000E+00 -0.00000000000E+00 -0.45593999997E+02  0.45594000000E+02  0.51100000000E-03 0.  1.
    9900012    2    1    2    0    0  0.74123837599E+00 -0.33800226904E+02 -0.22586723518E+02  0.50528870000E+02  0.30000030851E+02 0.  0.
         12    1    1    2    0    0 -0.74123837599E+00  0.33800226904E+02  0.22586723518E+02  0.40659130000E+02  0.00000000000E+00 0. -1.
         11    1    3    3    0    0 -0.11902431438E+01  0.74093221825E+00 -0.14392353006E+01  0.20092430926E+01  0.51100000000E-03 0. -1.
        -11    1    3    3    0    0 -0.68489143161E+01 -0.34016178639E+02 -0.18560640913E+02  0.39351053707E+02  0.51100000000E-03 0.  1.
        -12    1    3    3    0    0  0.87803958358E+01 -0.52498048303E+00 -0.25868473050E+01  0.91685731999E+01  0.00000000000E+00 0.  1.
</event>
<event>
 7    1  0.4374874E-012  0.5052885E+02  0.7816164E-02  0.1300439E+00
        -11   -1    0    0    0    0  0.00000000000E+00  0.00000000000E+00  0.45593999997E+02  0.45594000000E+02  0.51100000000E-03 0. -1.
         11   -1    0    0    0    0 -0.00000000000E+00 -0.00000000000E+00 -0.45593999997E+02  0.45594000000E+02  0.51100000000E-03 0.  1.
    9900012    2    1    2    0    0 -0.31467664274E+02  0.12415431969E+02  0.22556806587E+02  0.50528851346E+02  0.29999974151E+02 0.  0.
        -12    1    1    2    0    0  0.31467664274E+02 -0.12415431969E+02 -0.22556806587E+02  0.40659148654E+02  0.00000000000E+00 0.  1.
         11    1    3    3    0    0 -0.13039587203E+02 -0.22781662156E+01  0.12240830642E+02  0.18029387422E+02  0.51100000000E-03 0. -1.
        -11    1    3    3    0    0 -0.16154033508E+02  0.39899686485E+01  0.13135655955E+02  0.21199483626E+02  0.51100000000E-03 0.  1.
        -12    1    3    3    0    0 -0.22740435640E+01  0.10703629536E+02 -0.28196800101E+01  0.11299980298E+02  0.00000000000E+00 0.  1.
</event>
<event>
 7    1  0.4374874E-012  0.5052886E+02  0.7816164E-02  0.1300439E+00
        -11   -1    0    0    0    0  0.00000000000E+00  0.00000000000E+00  0.45593999997E+02  0.45594000000E+02  0.51100000000E-03 0. -1.
         11   -1    0    0    0    0 -0.00000000000E+00 -0.00000000000E+00 -0.45593999997E+02  0.45594000000E+02  0.51100000000E-03 0.  1.
    9900012    2    1    2    0    0 -0.13296812990E+01  0.19896669499E+02  0.35433317672E+02  0.50528861904E+02  0.30000006243E+02 0.  0.
        -12    1    1    2    0    0  0.13296812990E+01 -0.19896669499E+02 -0.35433317672E+02  0.40659138096E+02  0.00000000000E+00 0.  1.
         11    1    3    3    0    0  0.77173740042E+01  0.19444641133E+02  0.94210847729E+01  0.22943599736E+02  0.51100000000E-03 0.  1.
        -11    1    3    3    0    0 -0.39870821974E+01  0.71495801637E+00  0.13200037920E+02  0.13807570053E+02  0.51100000000E-03 0. -1.
        -12    1    3    3    0    0 -0.50599731058E+01 -0.26292965037E+00  0.12812194978E+02  0.13777692114E+02  0.00000000000E+00 0.  1.
</event>
<event>
 7    1  0.4374874E-012  0.5052886E+02  0.7816164E-02  0.1300439E+00
        -11   -1    0    0    0    0  0.00000000000E+00  0.00000000000E+00  0.45593999997E+02  0.45594000000E+02  0.51100000000E-03 0. -1.
         11   -1    0    0    0    0 -0.00000000000E+00 -0.00000000000E+00 -0.45593999997E+02  0.45594000000E+02  0.51100000000E-03 0.  1.
    9900012    2    1    2    0    0 -0.79090190557E+01 -0.17946890488E+02  0.35616321802E+02  0.50528857863E+02  0.29999993960E+02 0.  0.
        -12    1    1    2    0    0  0.79090190557E+01  0.17946890488E+02 -0.35616321802E+02  0.40659142137E+02  0.00000000000E+00 0.  1.
         11    1    3    3    0    0  0.86065791068E+01 -0.62180361386E+01  0.84714122772E+01  0.13583151460E+02  0.51100000000E-03 0. -1.
        -11    1    3    3    0    0 -0.54602028020E+01  0.82741879691E+00  0.15786382820E+02  0.16724482632E+02  0.51100000000E-03 0.  1.
        -12    1    3    3    0    0 -0.11055395361E+02 -0.12556273146E+02  0.11358526705E+02  0.20221223771E+02  0.00000000000E+00 0.  1.
</event>
<event>
 7    1  0.4374874E-012  0.5052886E+02  0.7816164E-02  0.1300439E+00
        -11   -1    0    0    0    0  0.00000000000E+00  0.00000000000E+00  0.45593999997E+02  0.45594000000E+02  0.51100000000E-03 0. -1.
         11   -1    0    0    0    0 -0.00000000000E+00 -0.00000000000E+00 -0.45593999997E+02  0.45594000000E+02  0.51100000000E-03 0.  1.
    9900012    2    1    2    0    0  0.13912609959E+02  0.22811273626E+02  0.30647194099E+02  0.50528862940E+02  0.30000009393E+02 0.  0.
        -12    1    1    2    0    0 -0.13912609959E+02 -0.22811273626E+02 -0.30647194099E+02  0.40659137060E+02  0.00000000000E+00 0.  1.
         11    1    3    3    0    0 -0.44337696756E+01  0.75937954616E+01  0.92540786673E+01  0.12765657652E+02  0.51100000000E-03 0. -1.
        -11    1    3    3    0    0  0.10414729111E+02  0.19464261840E+02  0.16122579151E+02  0.27336086592E+02  0.51100000000E-03 0.  1.
         12    1    3    3    0    0  0.79316505239E+01 -0.42467836754E+01  0.52705362799E+01  0.10427118696E+02  0.00000000000E+00 0. -1.
</event>
<event>
 7    1  0.4374874E-012  0.5052887E+02  0.7816164E-02  0.1300439E+00
        -11   -1    0    0    0    0  0.00000000000E+00  0.00000000000E+00  0.45593999997E+02  0.45594000000E+02  0.51100000000E-03 0. -1.
         11   -1    0    0    0    0 -0.00000000000E+00 -0.00000000000E+00 -0.45593999997E+02  0.45594000000E+02  0.51100000000E-03 0.  1.
    9900012    2    1    2    0    0  0.15010679134E+02 -0.27488792451E+02  0.25927032205E+02  0.50528865757E+02  0.30000017955E+02 0.  0.
        -12    1    1    2    0    0 -0.15010679134E+02  0.27488792451E+02 -0.25927032205E+02  0.40659134243E+02  0.00000000000E+00 0.  1.
         11    1    3    3    0    0  0.55199949712E+01 -0.20128646407E+02  0.17610814248E+02  0.27308854414E+02  0.51100000000E-03 0. -1.
        -11    1    3    3    0    0 -0.40495751646E+01 -0.10962445942E+01 -0.24165690102E+01  0.48415511220E+01  0.51100000000E-03 0.  1.
         12    1    3    3    0    0  0.13540259327E+02 -0.62639014493E+01  0.10732786967E+02  0.18378460221E+02  0.00000000000E+00 0. -1.
</event>
<event>
 7    1  0.4374874E-012  0.5052886E+02  0.7816164E-02  0.1300439E+00
        -11   -1    0    0    0    0  0.00000000000E+00  0.00000000000E+00  0.45593999997E+02  0.45594000000E+02  0.51100000000E-03 0.  1.
         11   -1    0    0    0    0 -0.00000000000E+00 -0.00000000000E+00 -0.45593999997E+02  0.45594000000E+02  0.51100000000E-03 0. -1.
    9900012    2    1    2    0    0  0.18599539088E+02  0.34863180334E+02 -0.95802684244E+01  0.50528859080E+02  0.29999997659E+02 0.  0.
         12    1    1    2    0    0 -0.18599539088E+02 -0.34863180334E+02  0.95802684244E+01  0.40659140920E+02  0.00000000000E+00 0. -1.
         11    1    3    3    0    0  0.16039971348E+02  0.17803630980E+02 -0.13535628037E+02  0.27522049043E+02  0.51100000000E-03 0. -1.
        -11    1    3    3    0    0  0.84528618285E+01  0.82271081746E+01  0.37829313884E+01  0.12387362599E+02  0.51100000000E-03 0.  1.
         12    1    3    3    0    0 -0.58932940883E+01  0.88324411795E+01  0.17242822385E+00  0.10619447438E+02  0.00000000000E+00 0. -1.
</event>
<event>
 7    1  0.4374874E-012  0.5052886E+02  0.7816164E-02  0.1300439E+00
        -11   -1    0    0    0    0  0.00000000000E+00  0.00000000000E+00  0.45593999997E+02  0.45594000000E+02  0.51100000000E-03 0. -1.
         11   -1    0    0    0    0 -0.00000000000E+00 -0.00000000000E+00 -0.45593999997E+02  0.45594000000E+02  0.51100000000E-03 0.  1.
    9900012    2    1    2    0    0 -0.19580826360E+02 -0.32655716599E+01 -0.35483697695E+02  0.50528861774E+02  0.30000005847E+02 0.  0.
         12    1    1    2    0    0  0.19580826360E+02  0.32655716599E+01  0.35483697695E+02  0.40659138226E+02  0.00000000000E+00 0. -1.
         11    1    3    3    0    0  0.31592483060E+01 -0.25265703218E+01 -0.91343002821E+00  0.41471390292E+01  0.51100000000E-03 0. -1.
        -11    1    3    3    0    0 -0.17412327194E+02 -0.10032953886E+02 -0.20622706869E+02  0.28794883935E+02  0.51100000000E-03 0.  1.
         12    1    3    3    0    0 -0.53277474724E+01  0.92939525479E+01 -0.13947560798E+02  0.17586838809E+02  0.00000000000E+00 0. -1.
</event>
<event>
 7    1  0.4374874E-012  0.5052887E+02  0.7816164E-02  0.1300439E+00
        -11   -1    0    0    0    0  0.00000000000E+00  0.00000000000E+00  0.45593999997E+02  0.45594000000E+02  0.51100000000E-03 0. -1.
         11   -1    0    0    0    0 -0.00000000000E+00 -0.00000000000E+00 -0.45593999997E+02  0.45594000000E+02  0.51100000000E-03 0.  1.
    9900012    2    1    2    0    0 -0.72076202832E+01 -0.15467815172E+02  0.36904768702E+02  0.50528867578E+02  0.30000023490E+02 0.  0.
        -12    1    1    2    0    0  0.72076202832E+01  0.15467815172E+02 -0.36904768702E+02  0.40659132422E+02  0.00000000000E+00 0.  1.
         11    1    3    3    0    0 -0.72373592949E+01 -0.34242005559E+01  0.21397629939E+02  0.22846511469E+02  0.51100000000E-03 0. -1.
        -11    1    3    3    0    0 -0.37995644635E+01  0.45335275766E+01  0.41750436180E+01  0.72402038558E+01  0.51100000000E-03 0.  1.
        -12    1    3    3    0    0  0.38293034752E+01 -0.16577142193E+02  0.11332095145E+02  0.20442152253E+02  0.00000000000E+00 0.  1.
</event>
<event>
 7    1  0.4374874E-012  0.5052885E+02  0.7816164E-02  0.1300439E+00
        -11   -1    0    0    0    0  0.00000000000E+00  0.00000000000E+00  0.45593999997E+02  0.45594000000E+02  0.51100000000E-03 0.  1.
         11   -1    0    0    0    0 -0.00000000000E+00 -0.00000000000E+00 -0.45593999997E+02  0.45594000000E+02  0.51100000000E-03 0. -1.
    9900012    2    1    2    0    0 -0.40602106928E+02  0.20067170855E+01  0.77993338346E+00  0.50528852240E+02  0.29999976869E+02 0.  0.
         12    1    1    2    0    0  0.40602106928E+02 -0.20067170855E+01 -0.77993338346E+00  0.40659147760E+02  0.00000000000E+00 0. -1.
         11    1    3    3    0    0 -0.51729192836E+01  0.48847493828E+01  0.74109479570E+01  0.10273364606E+02  0.51100000000E-03 0. -1.
        -11    1    3    3    0    0 -0.27759936089E+02 -0.39416163878E+01  0.26564531804E+01  0.28163933234E+02  0.51100000000E-03 0.  1.
         12    1    3    3    0    0 -0.76692515556E+01  0.10635840906E+01 -0.92874677539E+01  0.12091554400E+02  0.00000000000E+00 0. -1.
</event>
<event>
 7    1  0.4374874E-012  0.5052887E+02  0.7816164E-02  0.1300439E+00
        -11   -1    0    0    0    0  0.00000000000E+00  0.00000000000E+00  0.45593999997E+02  0.45594000000E+02  0.51100000000E-03 0. -1.
         11   -1    0    0    0    0 -0.00000000000E+00 -0.00000000000E+00 -0.45593999997E+02  0.45594000000E+02  0.51100000000E-03 0.  1.
    9900012    2    1    2    0    0 -0.98781796424E+01 -0.30221492283E+02 -0.25342615724E+02  0.50528865717E+02  0.30000017835E+02 0.  0.
         12    1    1    2    0    0  0.98781796424E+01  0.30221492283E+02  0.25342615724E+02  0.40659134283E+02  0.00000000000E+00 0. -1.
         11    1    3    3    0    0 -0.56179003018E+01 -0.53532557368E+01 -0.13567918903E+01  0.78777557260E+01  0.51100000000E-03 0. -1.
        -11    1    3    3    0    0 -0.10935699574E+02 -0.15896056800E+01 -0.75429290496E+01  0.13379542230E+02  0.51100000000E-03 0.  1.
        -12    1    3    3    0    0  0.66754202332E+01 -0.23278630867E+02 -0.16442894784E+02  0.29271567761E+02  0.00000000000E+00 0.  1.
</event>
<event>
 7    1  0.4374874E-012  0.5052887E+02  0.7816164E-02  0.1300439E+00
        -11   -1    0    0    0    0  0.00000000000E+00  0.00000000000E+00  0.45593999997E+02  0.45594000000E+02  0.51100000000E-03 0.  1.
         11   -1    0    0    0    0 -0.00000000000E+00 -0.00000000000E+00 -0.45593999997E+02  0.45594000000E+02  0.51100000000E-03 0. -1.
    9900012    2    1    2    0    0  0.34072414987E+02 -0.90277722484E+01 -0.20266582533E+02  0.50528874304E+02  0.30000043933E+02 0.  0.
         12    1    1    2    0    0 -0.34072414987E+02  0.90277722484E+01  0.20266582533E+02  0.40659125696E+02  0.00000000000E+00 0. -1.
         11    1    3    3    0    0 -0.27198271428E+01  0.23198465713E+01 -0.19037348682E+01  0.40501054938E+01  0.51100000000E-03 0. -1.
        -11    1    3    3    0    0  0.17761593504E+02 -0.14786102526E+02 -0.74959451597E+01  0.24295930232E+02  0.51100000000E-03 0.  1.
         12    1    3    3    0    0  0.19030648626E+02  0.34384837067E+01 -0.10866902505E+02  0.22182838578E+02  0.00000000000E+00 0. -1.
</event>
<event>
 7    1  0.4374874E-012  0.5052886E+02  0.7816164E-02  0.1300439E+00
        -11   -1    0    0    0    0  0.00000000000E+00  0.00000000000E+00  0.45593999997E+02  0.45594000000E+02  0.51100000000E-03 0. -1.
         11   -1    0    0    0    0 -0.00000000000E+00 -0.00000000000E+00 -0.45593999997E+02  0.45594000000E+02  0.51100000000E-03 0.  1.
    9900012    2    1    2    0    0  0.19358608298E+02 -0.40648813412E+01  0.35523043686E+02  0.50528860704E+02  0.30000002597E+02 0.  0.
        -12    1    1    2    0    0 -0.19358608298E+02  0.40648813412E+01 -0.35523043686E+02  0.40659139296E+02  0.00000000000E+00 0.  1.
         11    1    3    3    0    0 -0.13822682246E+01 -0.43312619489E+01  0.52592191446E+01  0.69519696337E+01  0.51100000000E-03 0. -1.
        -11    1    3    3    0    0  0.52493823305E+01 -0.90201761217E+01  0.29750268744E+01  0.10852206102E+02  0.51100000000E-03 0.  1.
         12    1    3    3    0    0  0.15491494192E+02  0.92865567295E+01  0.27288797667E+02  0.32724684969E+02  0.00000000000E+00 0. -1.
</event>
<event>
 7    1  0.4374874E-012  0.5052885E+02  0.7816164E-02  0.1300439E+00
        -11   -1    0    0    0    0  0.00000000000E+00  0.00000000000E+00  0.45593999997E+02  0.45594000000E+02  0.51100000000E-03 0. -1.
         11   -1    0    0    0    0 -0.00000000000E+00 -0.00000000000E+00 -0.45593999997E+02  0.45594000000E+02  0.51100000000E-03 0.  1.
    9900012    2    1    2    0    0  0.24606300959E+01  0.22322721721E+02  0.33894067192E+02  0.50528851014E+02  0.29999973141E+02 0.  0.
        -12    1    1    2    0    0 -0.24606300959E+01 -0.22322721721E+02 -0.33894067192E+02  0.40659148986E+02  0.00000000000E+00 0.  1.
         11    1    3    3    0    0  0.58658656441E+01  0.13916909072E+02  0.13966615633E+02  0.20570733832E+02  0.51100000000E-03 0. -1.
        -11    1    3    3    0    0  0.62153236446E+01  0.24049020683E+01  0.16982336678E+02  0.18243178486E+02  0.51100000000E-03 0.  1.
        -12    1    3    3    0    0 -0.96205591928E+01  0.60009105805E+01  0.29451148798E+01  0.11714938695E+02  0.00000000000E+00 0.  1.
</event>
<event>
 7    1  0.4374874E-012  0.5052888E+02  0.7816164E-02  0.1300439E+00
        -11   -1    0    0    0    0  0.00000000000E+00  0.00000000000E+00  0.45593999997E+02  0.45594000000E+02  0.51100000000E-03 0. -1.
         11   -1    0    0    0    0 -0.00000000000E+00 -0.00000000000E+00 -0.45593999997E+02  0.45594000000E+02  0.51100000000E-03 0.  1.
    9900012    2    1    2    0    0  0.20581785555E+02 -0.24379741115E+02 -0.25202831852E+02  0.50528875479E+02  0.30000047505E+02 0.  0.
         12    1    1    2    0    0 -0.20581785555E+02  0.24379741115E+02  0.25202831852E+02  0.40659124521E+02  0.00000000000E+00 0. -1.
         11    1    3    3    0    0  0.10833339164E+02  0.27253924989E+00  0.33033368381E+00  0.10841800390E+02  0.51100000000E-03 0. -1.
        -11    1    3    3    0    0 -0.33567846651E+01 -0.83152996691E+01 -0.46109509217E+01  0.10083307024E+02  0.51100000000E-03 0.  1.
        -12    1    3    3    0    0  0.13105231056E+02 -0.16336980696E+02 -0.20922214614E+02  0.29603768065E+02  0.00000000000E+00 0.  1.
</event>
<event>
 7    1  0.4374874E-012  0.5052875E+02  0.7816164E-02  0.1300439E+00
        -11   -1    0    0    0    0  0.00000000000E+00  0.00000000000E+00  0.45593999997E+02  0.45594000000E+02  0.51100000000E-03 0. -1.
         11   -1    0    0    0    0 -0.00000000000E+00 -0.00000000000E+00 -0.45593999997E+02  0.45594000000E+02  0.51100000000E-03 0.  1.
    9900012    2    1    2    0    0 -0.16432283660E+02  0.37109402857E+02 -0.24590739585E+01  0.50528748022E+02  0.29999660085E+02 0.  0.
        -12    1    1    2    0    0  0.16432283660E+02 -0.37109402857E+02  0.24590739585E+01  0.40659251978E+02  0.00000000000E+00 0.  1.
         11    1    3    3    0    0  0.25292768538E+01  0.17084571089E+02  0.32296798073E+01  0.17570163420E+02  0.51100000000E-03 0. -1.
        -11    1    3    3    0    0 -0.16845330566E+02  0.16272986462E+02  0.26518564339E+01  0.23571329897E+02  0.51100000000E-03 0.  1.
        -12    1    3    3    0    0 -0.21162299472E+01  0.37518453067E+01 -0.83406101997E+01  0.93872547051E+01  0.00000000000E+00 0.  1.
</event>
<event>
 7    1  0.4374874E-012  0.5052886E+02  0.7816164E-02  0.1300439E+00
        -11   -1    0    0    0    0  0.00000000000E+00  0.00000000000E+00  0.45593999997E+02  0.45594000000E+02  0.51100000000E-03 0. -1.
         11   -1    0    0    0    0 -0.00000000000E+00 -0.00000000000E+00 -0.45593999997E+02  0.45594000000E+02  0.51100000000E-03 0.  1.
    9900012    2    1    2    0    0  0.27656637618E+02 -0.12387514314E+02  0.27107665819E+02  0.50528860051E+02  0.30000000611E+02 0.  0.
        -12    1    1    2    0    0 -0.27656637618E+02  0.12387514314E+02 -0.27107665819E+02  0.40659139949E+02  0.00000000000E+00 0.  1.
         11    1    3    3    0    0  0.15129478691E+02  0.59670686887E+01  0.12144764684E+02  0.20297840863E+02  0.51100000000E-03 0. -1.
        -11    1    3    3    0    0  0.81305048095E+00  0.77819634504E+00 -0.18710555098E+01  0.21834581787E+01  0.51100000000E-03 0.  1.
         12    1    3    3    0    0  0.11714108446E+02 -0.19132779347E+02  0.16833956645E+02  0.28047561009E+02  0.00000000000E+00 0. -1.
</event>
<event>
 7    1  0.4374874E-012  0.5052887E+02  0.7816164E-02  0.1300439E+00
        -11   -1    0    0    0    0  0.00000000000E+00  0.00000000000E+00  0.45593999997E+02  0.45594000000E+02  0.51100000000E-03 0. -1.
         11   -1    0    0    0    0 -0.00000000000E+00 -0.00000000000E+00 -0.45593999997E+02  0.45594000000E+02  0.51100000000E-03 0.  1.
    9900012    2    1    2    0    0 -0.31902986311E+01 -0.18699608984E+01  0.40490618567E+02  0.50528868786E+02  0.30000027163E+02 0.  0.
        -12    1    1    2    0    0  0.31902986311E+01  0.18699608984E+01 -0.40490618567E+02  0.40659131214E+02  0.00000000000E+00 0.  1.
         11    1    3    3    0    0  0.76187865518E+01 -0.20979349470E+01  0.81229969976E+01  0.11332710181E+02  0.51100000000E-03 0.  1.
        -11    1    3    3    0    0 -0.18237938871E+01  0.57722297395E+01  0.26364872695E+02  0.27050903364E+02  0.51100000000E-03 0. -1.
        -12    1    3    3    0    0 -0.89852912957E+01 -0.55442556909E+01  0.60027488742E+01  0.12145255242E+02  0.00000000000E+00 0.  1.
</event>
<event>
 7    1  0.4374874E-012  0.5052886E+02  0.7816164E-02  0.1300439E+00
        -11   -1    0    0    0    0  0.00000000000E+00  0.00000000000E+00  0.45593999997E+02  0.45594000000E+02  0.51100000000E-03 0. -1.
         11   -1    0    0    0    0 -0.00000000000E+00 -0.00000000000E+00 -0.45593999997E+02  0.45594000000E+02  0.51100000000E-03 0.  1.
    9900012    2    1    2    0    0  0.71840013383E+01  0.25881360250E+02 -0.30523936026E+02  0.50528863829E+02  0.30000012095E+02 0.  0.
         12    1    1    2    0    0 -0.71840013383E+01 -0.25881360250E+02  0.30523936026E+02  0.40659136171E+02  0.00000000000E+00 0. -1.
         11    1    3    3    0    0 -0.89153787801E+00  0.22067854103E+01  0.19382361566E-01  0.23801507456E+01  0.51100000000E-03 0. -1.
        -11    1    3    3    0    0  0.87706715327E+01  0.72457176863E+00 -0.21922736874E+02  0.23623210529E+02  0.51100000000E-03 0.  1.
         12    1    3    3    0    0 -0.69513231643E+00  0.22950003071E+02 -0.86205815133E+01  0.24525502554E+02  0.00000000000E+00 0. -1.
</event>
<event>
 7    1  0.4374874E-012  0.5052883E+02  0.7816164E-02  0.1300439E+00
        -11   -1    0    0    0    0  0.00000000000E+00  0.00000000000E+00  0.45593999997E+02  0.45594000000E+02  0.51100000000E-03 0. -1.
         11   -1    0    0    0    0 -0.00000000000E+00 -0.00000000000E+00 -0.45593999997E+02  0.45594000000E+02  0.51100000000E-03 0.  1.
    9900012    2    1    2    0    0 -0.80496976238E+01  0.25938881258E+02  0.30257972244E+02  0.50528830344E+02  0.29999910315E+02 0.  0.
        -12    1    1    2    0    0  0.80496976238E+01 -0.25938881258E+02 -0.30257972244E+02  0.40659169656E+02  0.00000000000E+00 0.  1.
         11    1    3    3    0    0 -0.18012130755E+01  0.31724800390E+01  0.16415337133E+02  0.16815834549E+02  0.51100000000E-03 0. -1.
        -11    1    3    3    0    0  0.37001261793E+01  0.20082883756E+02  0.87022005369E+01  0.22197780253E+02  0.51100000000E-03 0.  1.
        -12    1    3    3    0    0 -0.99486107276E+01  0.26835174633E+01  0.51404345744E+01  0.11515215543E+02  0.00000000000E+00 0.  1.
</event>
<event>
 7    1  0.5631906E-012  0.5052886E+02  0.7816164E-02  0.1300439E+00
        -11   -1    0    0    0    0  0.00000000000E+00  0.00000000000E+00  0.45593999997E+02  0.45594000000E+02  0.51100000000E-03 0. -1.
         11   -1    0    0    0    0 -0.00000000000E+00 -0.00000000000E+00 -0.45593999997E+02  0.45594000000E+02  0.51100000000E-03 0.  1.
    9900012    2    1    2    0    0 -0.11152104411E+01 -0.52805445219E+01 -0.40299353591E+02  0.50528859027E+02  0.29999997499E+02 0.  0.
         12    1    1    2    0    0  0.11152104411E+01  0.52805445219E+01  0.40299353591E+02  0.40659140973E+02  0.00000000000E+00 0. -1.
         11    1    3    3    0    0  0.69127301788E+01 -0.34114742021E+01 -0.50093682929E+01  0.91933544320E+01  0.51100000000E-03 0. -1.
        -11    1    3    3    0    0  0.13151295723E+01 -0.91880452501E+01 -0.19363762342E+02  0.21473356366E+02  0.51100000000E-03 0.  1.
         12    1    3    3    0    0 -0.93430701922E+01  0.73189749303E+01 -0.15926222956E+02  0.19862148230E+02  0.00000000000E+00 0. -1.
</event>
<event>
 7    1  0.4374874E-012  0.5052887E+02  0.7816164E-02  0.1300439E+00
        -11   -1    0    0    0    0  0.00000000000E+00  0.00000000000E+00  0.45593999997E+02  0.45594000000E+02  0.51100000000E-03 0. -1.
         11   -1    0    0    0    0 -0.00000000000E+00 -0.00000000000E+00 -0.45593999997E+02  0.45594000000E+02  0.51100000000E-03 0.  1.
    9900012    2    1    2    0    0  0.11297189654E+01 -0.29711843374E+02 -0.27732562308E+02  0.50528869244E+02  0.30000028555E+02 0.  0.
         12    1    1    2    0    0 -0.11297189654E+01  0.29711843374E+02  0.27732562308E+02  0.40659130756E+02  0.00000000000E+00 0. -1.
         11    1    3    3    0    0 -0.20923195302E+01 -0.52502536754E+01 -0.27771203374E+01  0.62972503763E+01  0.51100000000E-03 0. -1.
        -11    1    3    3    0    0 -0.28924145860E+01 -0.14349086458E+02  0.20245906347E+01  0.14777053557E+02  0.51100000000E-03 0.  1.
         12    1    3    3    0    0  0.61144530816E+01 -0.10112503240E+02 -0.26980032605E+02  0.29454565311E+02  0.00000000000E+00 0. -1.
</event>
<event>
 7    1  0.4374874E-012  0.5052886E+02  0.7816164E-02  0.1300439E+00
        -11   -1    0    0    0    0  0.00000000000E+00  0.00000000000E+00  0.45593999997E+02  0.45594000000E+02  0.51100000000E-03 0. -1.
         11   -1    0    0    0    0 -0.00000000000E+00 -0.00000000000E+00 -0.45593999997E+02  0.45594000000E+02  0.51100000000E-03 0.  1.
    9900012    2    1    2    0    0 -0.18896164238E+02  0.71692228755E+01 -0.35280348702E+02  0.50528858542E+02  0.29999996024E+02 0.  0.
         12    1    1    2    0    0  0.18896164238E+02 -0.71692228755E+01  0.35280348702E+02  0.40659141458E+02  0.00000000000E+00 0. -1.
         11    1    3    3    0    0  0.48434890143E+01 -0.13509838349E+01  0.76475207076E-01  0.50289553460E+01  0.51100000000E-03 0. -1.
        -11    1    3    3    0    0 -0.92878921431E+01  0.35251848635E+01 -0.41852018754E+01  0.10779971418E+02  0.51100000000E-03 0.  1.
         12    1    3    3    0    0 -0.14451761110E+02  0.49950218469E+01 -0.31171622034E+02  0.34719931778E+02  0.00000000000E+00 0. -1.
</event>
<event>
 7    1  0.4374874E-012  0.5052885E+02  0.7816164E-02  0.1300439E+00
        -11   -1    0    0    0    0  0.00000000000E+00  0.00000000000E+00  0.45593999997E+02  0.45594000000E+02  0.51100000000E-03 0. -1.
         11   -1    0    0    0    0 -0.00000000000E+00 -0.00000000000E+00 -0.45593999997E+02  0.45594000000E+02  0.51100000000E-03 0.  1.
    9900012    2    1    2    0    0  0.98474925399E+01 -0.32067863024E+01 -0.39318063811E+02  0.50528846915E+02  0.29999960684E+02 0.  0.
         12    1    1    2    0    0 -0.98474925399E+01  0.32067863024E+01  0.39318063811E+02  0.40659153085E+02  0.00000000000E+00 0. -1.
         11    1    3    3    0    0 -0.49944428086E+01  0.12408181665E+01 -0.10315675719E+01  0.52486398817E+01  0.51100000000E-03 0. -1.
        -11    1    3    3    0    0  0.33623152790E+01  0.34539479761E+00 -0.30320293645E+02  0.30508108243E+02  0.51100000000E-03 0.  1.
         12    1    3    3    0    0  0.11479620070E+02 -0.47929992665E+01 -0.79662025941E+01  0.14772098791E+02  0.00000000000E+00 0. -1.
</event>
<event>
 7    1  0.4374874E-012  0.5052886E+02  0.7816164E-02  0.1300439E+00
        -11   -1    0    0    0    0  0.00000000000E+00  0.00000000000E+00  0.45593999997E+02  0.45594000000E+02  0.51100000000E-03 0. -1.
         11   -1    0    0    0    0 -0.00000000000E+00 -0.00000000000E+00 -0.45593999997E+02  0.45594000000E+02  0.51100000000E-03 0.  1.
    9900012    2    1    2    0    0 -0.37544524135E+02  0.43538805519E+01 -0.14987272731E+02  0.50528856966E+02  0.29999991233E+02 0.  0.
         12    1    1    2    0    0  0.37544524135E+02 -0.43538805519E+01  0.14987272731E+02  0.40659143034E+02  0.00000000000E+00 0. -1.
         11    1    3    3    0    0 -0.13260117551E+01 -0.32711935167E+01  0.46443189523E+01  0.58334134938E+01  0.51100000000E-03 0. -1.
        -11    1    3    3    0    0 -0.15440263585E+02 -0.24120472393E+01 -0.13909300134E+02  0.20921002412E+02  0.51100000000E-03 0.  1.
        -12    1    3    3    0    0 -0.20778248795E+02  0.10037121308E+02 -0.57222915493E+01  0.23774441060E+02  0.00000000000E+00 0.  1.
</event>
<event>
 7    1  0.4607329E-012  0.5052886E+02  0.7816164E-02  0.1300439E+00
        -11   -1    0    0    0    0  0.00000000000E+00  0.00000000000E+00  0.45593999997E+02  0.45594000000E+02  0.51100000000E-03 0. -1.
         11   -1    0    0    0    0 -0.00000000000E+00 -0.00000000000E+00 -0.45593999997E+02  0.45594000000E+02  0.51100000000E-03 0.  1.
    9900012    2    1    2    0    0  0.75245844754E+01 -0.35739147528E+02 -0.17867842384E+02  0.50528857990E+02  0.29999994345E+02 0.  0.
         12    1    1    2    0    0 -0.75245844754E+01  0.35739147528E+02  0.17867842384E+02  0.40659142010E+02  0.00000000000E+00 0. -1.
         11    1    3    3    0    0 -0.16724906319E+01 -0.56623646403E+01 -0.11475012500E+02  0.12904863826E+02  0.51100000000E-03 0. -1.
        -11    1    3    3    0    0  0.85122970427E+01 -0.27779140535E+02 -0.12069890177E+02  0.31461438285E+02  0.51100000000E-03 0.  1.
         12    1    3    3    0    0  0.68477806464E+00 -0.22976423528E+01  0.56770602935E+01  0.61625558785E+01  0.00000000000E+00 0. -1.
</event>
<event>
 7    1  0.4374874E-012  0.5052886E+02  0.7816164E-02  0.1300439E+00
        -11   -1    0    0    0    0  0.00000000000E+00  0.00000000000E+00  0.45593999997E+02  0.45594000000E+02  0.51100000000E-03 0. -1.
         11   -1    0    0    0    0 -0.00000000000E+00 -0.00000000000E+00 -0.45593999997E+02  0.45594000000E+02  0.51100000000E-03 0.  1.
    9900012    2    1    2    0    0  0.10053037715E+02 -0.13709655933E+01 -0.39372869958E+02  0.50528855854E+02  0.29999987854E+02 0.  0.
         12    1    1    2    0    0 -0.10053037715E+02  0.13709655933E+01  0.39372869958E+02  0.40659144146E+02  0.00000000000E+00 0. -1.
         11    1    3    3    0    0 -0.68249140525E+01 -0.19204937531E+01  0.50357571348E+00  0.71078362981E+01  0.51100000000E-03 0. -1.
        -11    1    3    3    0    0  0.81169406285E+01  0.29701219769E+00 -0.23214945309E+02  0.24594849611E+02  0.51100000000E-03 0.  1.
        -12    1    3    3    0    0  0.87610111388E+01  0.25251596208E+00 -0.16661500362E+02  0.18826169945E+02  0.00000000000E+00 0.  1.
</event>
<event>
 7    1  0.4374874E-012  0.5052886E+02  0.7816164E-02  0.1300439E+00
        -11   -1    0    0    0    0  0.00000000000E+00  0.00000000000E+00  0.45593999997E+02  0.45594000000E+02  0.51100000000E-03 0. -1.
         11   -1    0    0    0    0 -0.00000000000E+00 -0.00000000000E+00 -0.45593999997E+02  0.45594000000E+02  0.51100000000E-03 0.  1.
    9900012    2    1    2    0    0 -0.92631183683E+01 -0.50026833420E+01 -0.39272549294E+02  0.50528864119E+02  0.30000012976E+02 0.  0.
         12    1    1    2    0    0  0.92631183683E+01  0.50026833420E+01  0.39272549294E+02  0.40659135881E+02  0.00000000000E+00 0. -1.
         11    1    3    3    0    0  0.15007352126E+01 -0.93849419266E+01 -0.55374952089E+01  0.10999690659E+02  0.51100000000E-03 0. -1.
        -11    1    3    3    0    0  0.36166681570E+01 -0.15649101931E+01 -0.13125727345E+02  0.13704523015E+02  0.51100000000E-03 0.  1.
         12    1    3    3    0    0 -0.14380521738E+02  0.59471687777E+01 -0.20609326741E+02  0.25824650445E+02  0.00000000000E+00 0. -1.
</event>
<event>
 7    1  0.4374874E-012  0.5052885E+02  0.7816164E-02  0.1300439E+00
        -11   -1    0    0    0    0  0.00000000000E+00  0.00000000000E+00  0.45593999997E+02  0.45594000000E+02  0.51100000000E-03 0. -1.
         11   -1    0    0    0    0 -0.00000000000E+00 -0.00000000000E+00 -0.45593999997E+02  0.45594000000E+02  0.51100000000E-03 0.  1.
    9900012    2    1    2    0    0 -0.51563762915E+01  0.37614910742E+02  0.14549801552E+02  0.50528850331E+02  0.29999971065E+02 0.  0.
        -12    1    1    2    0    0  0.51563762915E+01 -0.37614910742E+02 -0.14549801552E+02  0.40659149669E+02  0.00000000000E+00 0.  1.
         11    1    3    3    0    0 -0.93436083248E+01  0.85919066435E+01  0.53682715455E+01  0.13781952545E+02  0.51100000000E-03 0. -1.
        -11    1    3    3    0    0  0.63842148214E+01  0.31951718775E+01  0.81086654302E+01  0.10803600212E+02  0.51100000000E-03 0.  1.
        -12    1    3    3    0    0 -0.21969827881E+01  0.25827832222E+02  0.10728645762E+01  0.25943297574E+02  0.00000000000E+00 0.  1.
</event>
<event>
 7    1  0.4374874E-012  0.5052885E+02  0.7816164E-02  0.1300439E+00
        -11   -1    0    0    0    0  0.00000000000E+00  0.00000000000E+00  0.45593999997E+02  0.45594000000E+02  0.51100000000E-03 0. -1.
         11   -1    0    0    0    0 -0.00000000000E+00 -0.00000000000E+00 -0.45593999997E+02  0.45594000000E+02  0.51100000000E-03 0.  1.
    9900012    2    1    2    0    0  0.91300245353E+00 -0.29355143456E+02 -0.28117755843E+02  0.50528853250E+02  0.29999979938E+02 0.  0.
         12    1    1    2    0    0 -0.91300245353E+00  0.29355143456E+02  0.28117755843E+02  0.40659146750E+02  0.00000000000E+00 0. -1.
         11    1    3    3    0    0 -0.16533879638E+01  0.42266717454E+01 -0.84432825723E+00  0.46164202873E+01  0.51100000000E-03 0. -1.
        -11    1    3    3    0    0  0.49978261218E+01 -0.33734720965E+01 -0.79193259836E+01  0.99536075985E+01  0.51100000000E-03 0.  1.
         12    1    3    3    0    0 -0.24314357044E+01 -0.30208343105E+02 -0.19354101602E+02  0.35958825364E+02  0.00000000000E+00 0. -1.
</event>
<event>
 7    1  0.4374874E-012  0.5052885E+02  0.7816164E-02  0.1300439E+00
        -11   -1    0    0    0    0  0.00000000000E+00  0.00000000000E+00  0.45593999997E+02  0.45594000000E+02  0.51100000000E-03 0. -1.
         11   -1    0    0    0    0 -0.00000000000E+00 -0.00000000000E+00 -0.45593999997E+02  0.45594000000E+02  0.51100000000E-03 0.  1.
    9900012    2    1    2    0    0  0.13018318806E+02  0.26415731495E+02 -0.28033893142E+02  0.50528847775E+02  0.29999963298E+02 0.  0.
         12    1    1    2    0    0 -0.13018318806E+02 -0.26415731495E+02  0.28033893142E+02  0.40659152225E+02  0.00000000000E+00 0. -1.
         11    1    3    3    0    0 -0.15024442605E+01  0.16336056964E+00 -0.40384884029E+01  0.43120081486E+01  0.51100000000E-03 0. -1.
        -11    1    3    3    0    0  0.90665253196E+01  0.19184299218E+02 -0.29037118795E+02  0.35963780197E+02  0.51100000000E-03 0.  1.
         12    1    3    3    0    0  0.54542377473E+01  0.70680717067E+01  0.50417140560E+01  0.10253059430E+02  0.00000000000E+00 0. -1.
</event>
<event>
 7    1  0.4374874E-012  0.5052886E+02  0.7816164E-02  0.1300439E+00
        -11   -1    0    0    0    0  0.00000000000E+00  0.00000000000E+00  0.45593999997E+02  0.45594000000E+02  0.51100000000E-03 0.  1.
         11   -1    0    0    0    0 -0.00000000000E+00 -0.00000000000E+00 -0.45593999997E+02  0.45594000000E+02  0.51100000000E-03 0. -1.
    9900012    2    1    2    0    0 -0.18950505630E+02  0.26874900364E+02  0.23912003608E+02  0.50528857735E+02  0.29999993571E+02 0.  0.
        -12    1    1    2    0    0  0.18950505630E+02 -0.26874900364E+02 -0.23912003608E+02  0.40659142265E+02  0.00000000000E+00 0.  1.
         11    1    3    3    0    0 -0.80663150926E+01  0.19302941645E+02  0.93038928412E+01  0.22896100489E+02  0.51100000000E-03 0. -1.
        -11    1    3    3    0    0  0.37341585425E+00  0.63887945290E+01  0.14998117565E+02  0.16306430195E+02  0.51100000000E-03 0.  1.
        -12    1    3    3    0    0 -0.11257606391E+02  0.11831641898E+01 -0.39000679896E+00  0.11326327051E+02  0.00000000000E+00 0.  1.
</event>
<event>
 7    1  0.4417540E-012  0.5052885E+02  0.7816164E-02  0.1300439E+00
        -11   -1    0    0    0    0  0.00000000000E+00  0.00000000000E+00  0.45593999997E+02  0.45594000000E+02  0.51100000000E-03 0. -1.
         11   -1    0    0    0    0 -0.00000000000E+00 -0.00000000000E+00 -0.45593999997E+02  0.45594000000E+02  0.51100000000E-03 0.  1.
    9900012    2    1    2    0    0 -0.14606772530E+02 -0.82561128323E+01 -0.37035733544E+02  0.50528846517E+02  0.29999959472E+02 0.  0.
         12    1    1    2    0    0  0.14606772530E+02  0.82561128323E+01  0.37035733544E+02  0.40659153483E+02  0.00000000000E+00 0. -1.
         11    1    3    3    0    0 -0.73012113339E+01 -0.42682652773E+01 -0.21945578140E+02  0.23518804723E+02  0.51100000000E-03 0.  1.
        -11    1    3    3    0    0 -0.14215257940E+02 -0.44425989972E+01 -0.13021338862E+02  0.19782960096E+02  0.51100000000E-03 0. -1.
         12    1    3    3    0    0  0.69096967446E+01  0.45475144217E+00 -0.20688165421E+01  0.72270816974E+01  0.00000000000E+00 0. -1.
</event>
<event>
 7    1  0.4374874E-012  0.5052886E+02  0.7816164E-02  0.1300439E+00
        -11   -1    0    0    0    0  0.00000000000E+00  0.00000000000E+00  0.45593999997E+02  0.45594000000E+02  0.51100000000E-03 0.  1.
         11   -1    0    0    0    0 -0.00000000000E+00 -0.00000000000E+00 -0.45593999997E+02  0.45594000000E+02  0.51100000000E-03 0. -1.
    9900012    2    1    2    0    0 -0.34542787575E+02 -0.13060918641E+02  0.17010983427E+02  0.50528864171E+02  0.30000013136E+02 0.  0.
        -12    1    1    2    0    0  0.34542787575E+02  0.13060918641E+02 -0.17010983427E+02  0.40659135829E+02  0.00000000000E+00 0.  1.
         11    1    3    3    0    0 -0.23646022391E+02 -0.13659554780E+02  0.16258608334E+02  0.31781443594E+02  0.51100000000E-03 0. -1.
        -11    1    3    3    0    0 -0.36623808323E+01  0.38085778206E+00  0.78124011160E+01  0.86366485091E+01  0.51100000000E-03 0.  1.
         12    1    3    3    0    0 -0.72343843514E+01  0.21777835698E+00 -0.70600260237E+01  0.10110772068E+02  0.00000000000E+00 0. -1.
</event>
<event>
 7    1  0.4374874E-012  0.5052884E+02  0.7816164E-02  0.1300439E+00
        -11   -1    0    0    0    0  0.00000000000E+00  0.00000000000E+00  0.45593999997E+02  0.45594000000E+02  0.51100000000E-03 0. -1.
         11   -1    0    0    0    0 -0.00000000000E+00 -0.00000000000E+00 -0.45593999997E+02  0.45594000000E+02  0.51100000000E-03 0.  1.
    9900012    2    1    2    0    0  0.34120165490E+02  0.28774842051E+01  0.21924902631E+02  0.50528844034E+02  0.29999951927E+02 0.  0.
        -12    1    1    2    0    0 -0.34120165490E+02 -0.28774842051E+01 -0.21924902631E+02  0.40659155966E+02  0.00000000000E+00 0.  1.
         11    1    3    3    0    0  0.14038328470E+02 -0.47813123933E+01  0.27177610699E+01  0.15077196023E+02  0.51100000000E-03 0. -1.
        -11    1    3    3    0    0  0.16799860011E+02 -0.19768045753E+01  0.18763390836E+02  0.25262776740E+02  0.51100000000E-03 0.  1.
         12    1    3    3    0    0  0.32819770098E+01  0.96356011737E+01  0.44375072571E+00  0.10188871271E+02  0.00000000000E+00 0. -1.
</event>
<event>
 7    1  0.4374874E-012  0.5052886E+02  0.7816164E-02  0.1300439E+00
        -11   -1    0    0    0    0  0.00000000000E+00  0.00000000000E+00  0.45593999997E+02  0.45594000000E+02  0.51100000000E-03 0.  1.
         11   -1    0    0    0    0 -0.00000000000E+00 -0.00000000000E+00 -0.45593999997E+02  0.45594000000E+02  0.51100000000E-03 0. -1.
    9900012    2    1    2    0    0  0.24451161210E+02 -0.31057316381E+02 -0.95262473524E+01  0.50528861127E+02  0.30000003881E+02 0.  0.
         12    1    1    2    0    0 -0.24451161210E+02  0.31057316381E+02  0.95262473524E+01  0.40659138873E+02  0.00000000000E+00 0. -1.
         11    1    3    3    0    0  0.27962690908E+01 -0.22467973486E+02 -0.32751347566E+01  0.22876963552E+02  0.51100000000E-03 0. -1.
        -11    1    3    3    0    0  0.23866532916E+01 -0.70411088946E+01 -0.35800993388E+00  0.74432183747E+01  0.51100000000E-03 0.  1.
        -12    1    3    3    0    0  0.19268238828E+02 -0.15482339996E+01 -0.58931026619E+01  0.20208679200E+02  0.00000000000E+00 0.  1.
</event>
<event>
 7    1  0.4374874E-012  0.5052886E+02  0.7816164E-02  0.1300439E+00
        -11   -1    0    0    0    0  0.00000000000E+00  0.00000000000E+00  0.45593999997E+02  0.45594000000E+02  0.51100000000E-03 0. -1.
         11   -1    0    0    0    0 -0.00000000000E+00 -0.00000000000E+00 -0.45593999997E+02  0.45594000000E+02  0.51100000000E-03 0.  1.
    9900012    2    1    2    0    0  0.30855143496E+02  0.85164817831E+01  0.25071807509E+02  0.50528857438E+02  0.29999992669E+02 0.  0.
        -12    1    1    2    0    0 -0.30855143496E+02 -0.85164817831E+01 -0.25071807509E+02  0.40659142562E+02  0.00000000000E+00 0.  1.
         11    1    3    3    0    0  0.92012905752E+01  0.75056788733E+01 -0.18668840347E+01  0.12020158895E+02  0.51100000000E-03 0.  1.
        -11    1    3    3    0    0  0.17288092322E+02  0.81782864551E+01  0.18820169305E+02  0.26832094186E+02  0.51100000000E-03 0. -1.
        -12    1    3    3    0    0  0.43657605983E+01 -0.71674835453E+01  0.81185222382E+01  0.11676604357E+02  0.00000000000E+00 0.  1.
</event>
<event>
 7    1  0.4374874E-012  0.5052886E+02  0.7816164E-02  0.1300439E+00
        -11   -1    0    0    0    0  0.00000000000E+00  0.00000000000E+00  0.45593999997E+02  0.45594000000E+02  0.51100000000E-03 0. -1.
         11   -1    0    0    0    0 -0.00000000000E+00 -0.00000000000E+00 -0.45593999997E+02  0.45594000000E+02  0.51100000000E-03 0.  1.
    9900012    2    1    2    0    0  0.39106306911E+02 -0.64895083328E+01 -0.90415080239E+01  0.50528858027E+02  0.29999994460E+02 0.  0.
         12    1    1    2    0    0 -0.39106306911E+02  0.64895083328E+01  0.90415080239E+01  0.40659141973E+02  0.00000000000E+00 0. -1.
         11    1    3    3    0    0  0.36605332648E+02 -0.25645084134E+01 -0.76691811558E+01  0.37487910339E+02  0.51100000000E-03 0. -1.
        -11    1    3    3    0    0  0.65565311851E+01  0.65417304039E+00  0.59393047476E+00  0.66157990612E+01  0.51100000000E-03 0.  1.
        -12    1    3    3    0    0 -0.40555569225E+01 -0.45791729597E+01 -0.19662573428E+01  0.64251486275E+01  0.00000000000E+00 0.  1.
</event>
<event>
 7    1  0.4374874E-012  0.5052894E+02  0.7816164E-02  0.1300439E+00
        -11   -1    0    0    0    0  0.00000000000E+00  0.00000000000E+00  0.45593999997E+02  0.45594000000E+02  0.51100000000E-03 0. -1.
         11   -1    0    0    0    0 -0.00000000000E+00 -0.00000000000E+00 -0.45593999997E+02  0.45594000000E+02  0.51100000000E-03 0.  1.
    9900012    2    1    2    0    0 -0.23572386706E+02 -0.24488328717E+02  0.22311965509E+02  0.50528936272E+02  0.30000232292E+02 0.  0.
        -12    1    1    2    0    0  0.23572386706E+02  0.24488328717E+02 -0.22311965509E+02  0.40659063728E+02  0.00000000000E+00 0.  1.
         11    1    3    3    0    0  0.58560370295E+00 -0.39438897141E+01 -0.28623748310E+01  0.49081959728E+01  0.51100000000E-03 0. -1.
        -11    1    3    3    0    0 -0.11625514287E+02 -0.18878394303E+02  0.65638172088E+01  0.23122068474E+02  0.51100000000E-03 0.  1.
        -12    1    3    3    0    0 -0.12532476121E+02 -0.16660446992E+01  0.18610523131E+02  0.22498671825E+02  0.00000000000E+00 0.  1.
</event>
<event>
 7    1  0.4374874E-012  0.5052887E+02  0.7816164E-02  0.1300439E+00
        -11   -1    0    0    0    0  0.00000000000E+00  0.00000000000E+00  0.45593999997E+02  0.45594000000E+02  0.51100000000E-03 0. -1.
         11   -1    0    0    0    0 -0.00000000000E+00 -0.00000000000E+00 -0.45593999997E+02  0.45594000000E+02  0.51100000000E-03 0.  1.
    9900012    2    1    2    0    0 -0.22569713648E+02 -0.31366578369E+02 -0.12645566420E+02  0.50528873560E+02  0.30000041674E+02 0.  0.
         12    1    1    2    0    0  0.22569713648E+02  0.31366578369E+02  0.12645566420E+02  0.40659126440E+02  0.00000000000E+00 0. -1.
         11    1    3    3    0    0 -0.94969532963E+01 -0.73421441042E+01  0.40031778485E+01  0.12654036317E+02  0.51100000000E-03 0. -1.
        -11    1    3    3    0    0  0.28900560728E+01 -0.24865563571E+01  0.28206721784E+01  0.47425286947E+01  0.51100000000E-03 0.  1.
        -12    1    3    3    0    0 -0.15962816425E+02 -0.21537877908E+02 -0.19469416447E+02  0.33132308549E+02  0.00000000000E+00 0.  1.
</event>
<event>
 7    1  0.4374874E-012  0.5052874E+02  0.7816164E-02  0.1300439E+00
        -11   -1    0    0    0    0  0.00000000000E+00  0.00000000000E+00  0.45593999997E+02  0.45594000000E+02  0.51100000000E-03 0. -1.
         11   -1    0    0    0    0 -0.00000000000E+00 -0.00000000000E+00 -0.45593999997E+02  0.45594000000E+02  0.51100000000E-03 0.  1.
    9900012    2    1    2    0    0  0.30486651036E+02 -0.75661777284E+01 -0.25816511435E+02  0.50528742757E+02  0.29999644083E+02 0.  0.
         12    1    1    2    0    0 -0.30486651036E+02  0.75661777284E+01  0.25816511435E+02  0.40659257243E+02  0.00000000000E+00 0. -1.
         11    1    3    3    0    0  0.25079901231E+01 -0.36603940009E+01  0.44315327597E+01  0.62711228310E+01  0.51100000000E-03 0. -1.
        -11    1    3    3    0    0  0.15191483057E+02 -0.67083217765E+01 -0.79747295352E+01  0.18422243347E+02  0.51100000000E-03 0.  1.
        -12    1    3    3    0    0  0.12787177856E+02  0.28025380490E+01 -0.22273314660E+02  0.25835376579E+02  0.00000000000E+00 0.  1.
</event>
<event>
 7    1  0.4374874E-012  0.5052886E+02  0.7816164E-02  0.1300439E+00
        -11   -1    0    0    0    0  0.00000000000E+00  0.00000000000E+00  0.45593999997E+02  0.45594000000E+02  0.51100000000E-03 0. -1.
         11   -1    0    0    0    0 -0.00000000000E+00 -0.00000000000E+00 -0.45593999997E+02  0.45594000000E+02  0.51100000000E-03 0.  1.
    9900012    2    1    2    0    0 -0.32878549017E+02 -0.59257098389E+01 -0.23174387807E+02  0.50528864830E+02  0.30000015136E+02 0.  0.
         12    1    1    2    0    0  0.32878549017E+02  0.59257098389E+01  0.23174387807E+02  0.40659135170E+02  0.00000000000E+00 0. -1.
         11    1    3    3    0    0 -0.19357096201E+02 -0.40524665352E+01 -0.73648762159E+01  0.21103579324E+02  0.51100000000E-03 0. -1.
        -11    1    3    3    0    0 -0.40847641722E+01 -0.10007185983E+02 -0.12519338524E+02  0.16539737210E+02  0.51100000000E-03 0.  1.
         12    1    3    3    0    0 -0.94366886441E+01  0.81339426789E+01 -0.32901730676E+01  0.12885548296E+02  0.00000000000E+00 0. -1.
</event>
<event>
 7    1  0.4374874E-012  0.5052878E+02  0.7816164E-02  0.1300439E+00
        -11   -1    0    0    0    0  0.00000000000E+00  0.00000000000E+00  0.45593999997E+02  0.45594000000E+02  0.51100000000E-03 0. -1.
         11   -1    0    0    0    0 -0.00000000000E+00 -0.00000000000E+00 -0.45593999997E+02  0.45594000000E+02  0.51100000000E-03 0.  1.
    9900012    2    1    2    0    0  0.27306480473E+02 -0.30089488244E+02  0.14666222268E+01  0.50528780143E+02  0.29999757721E+02 0.  0.
        -12    1    1    2    0    0 -0.27306480473E+02  0.30089488244E+02 -0.14666222268E+01  0.40659219857E+02  0.00000000000E+00 0.  1.
         11    1    3    3    0    0  0.10419619760E+02 -0.23224658767E+02 -0.32139594606E+01  0.25657022167E+02  0.51100000000E-03 0. -1.
        -11    1    3    3    0    0 -0.25403538305E+01 -0.21238956001E+01 -0.19023134484E+01  0.38187860403E+01  0.51100000000E-03 0.  1.
         12    1    3    3    0    0  0.19427214544E+02 -0.47409338772E+01  0.65828951358E+01  0.21052971936E+02  0.00000000000E+00 0. -1.
</event>
<event>
 7    1  0.4374874E-012  0.5052884E+02  0.7816164E-02  0.1300439E+00
        -11   -1    0    0    0    0  0.00000000000E+00  0.00000000000E+00  0.45593999997E+02  0.45594000000E+02  0.51100000000E-03 0.  1.
         11   -1    0    0    0    0 -0.00000000000E+00 -0.00000000000E+00 -0.45593999997E+02  0.45594000000E+02  0.51100000000E-03 0. -1.
    9900012    2    1    2    0    0  0.96009730336E+01  0.39023149163E+02  0.61791799596E+01  0.50528842129E+02  0.29999946135E+02 0.  0.
        -12    1    1    2    0    0 -0.96009730336E+01 -0.39023149163E+02 -0.61791799596E+01  0.40659157871E+02  0.00000000000E+00 0.  1.
         11    1    3    3    0    0  0.54507766830E+01  0.21747527265E+02  0.52630320526E+01  0.23029663811E+02  0.51100000000E-03 0. -1.
        -11    1    3    3    0    0  0.94993958543E+01  0.79869449428E+01  0.78944754761E+01  0.14708927711E+02  0.51100000000E-03 0.  1.
         12    1    3    3    0    0 -0.53491995037E+01  0.92886769555E+01 -0.69783275691E+01  0.12790250606E+02  0.00000000000E+00 0. -1.
</event>
<event>
 7    1  0.4374874E-012  0.5052887E+02  0.7816164E-02  0.1300439E+00
        -11   -1    0    0    0    0  0.00000000000E+00  0.00000000000E+00  0.45593999997E+02  0.45594000000E+02  0.51100000000E-03 0. -1.
         11   -1    0    0    0    0 -0.00000000000E+00 -0.00000000000E+00 -0.45593999997E+02  0.45594000000E+02  0.51100000000E-03 0.  1.
    9900012    2    1    2    0    0 -0.29494471055E+02 -0.48049515639E+01 -0.27570882524E+02  0.50528868854E+02  0.30000027369E+02 0.  0.
         12    1    1    2    0    0  0.29494471055E+02  0.48049515639E+01  0.27570882524E+02  0.40659131146E+02  0.00000000000E+00 0. -1.
         11    1    3    3    0    0  0.95602960571E+00 -0.38395375206E+01  0.41900847159E+01  0.57630591847E+01  0.51100000000E-03 0. -1.
        -11    1    3    3    0    0 -0.78713684596E+01  0.24878211212E+01 -0.53014450068E+01  0.98108620814E+01  0.51100000000E-03 0.  1.
        -12    1    3    3    0    0 -0.22579132201E+02 -0.34532351645E+01 -0.26459522234E+02  0.34954947588E+02  0.00000000000E+00 0.  1.
</event>
<event>
 7    1  0.4374874E-012  0.5052886E+02  0.7816164E-02  0.1300439E+00
        -11   -1    0    0    0    0  0.00000000000E+00  0.00000000000E+00  0.45593999997E+02  0.45594000000E+02  0.51100000000E-03 0. -1.
         11   -1    0    0    0    0 -0.00000000000E+00 -0.00000000000E+00 -0.45593999997E+02  0.45594000000E+02  0.51100000000E-03 0.  1.
    9900012    2    1    2    0    0 -0.13294340941E+02 -0.13858567791E+02 -0.35838055228E+02  0.50528860747E+02  0.30000002727E+02 0.  0.
         12    1    1    2    0    0  0.13294340941E+02  0.13858567791E+02  0.35838055228E+02  0.40659139253E+02  0.00000000000E+00 0. -1.
         11    1    3    3    0    0 -0.74247900963E+01 -0.70125668595E+00  0.17609356603E+01  0.76629082975E+01  0.51100000000E-03 0. -1.
        -11    1    3    3    0    0  0.41840256134E+01 -0.36089867997E+01 -0.50447253026E+01  0.74819856785E+01  0.51100000000E-03 0.  1.
        -12    1    3    3    0    0 -0.10053576458E+02 -0.95483243056E+01 -0.32554265585E+02  0.35383966771E+02  0.00000000000E+00 0.  1.
</event>
<event>
 7    1  0.4374874E-012  0.5052886E+02  0.7816164E-02  0.1300439E+00
        -11   -1    0    0    0    0  0.00000000000E+00  0.00000000000E+00  0.45593999997E+02  0.45594000000E+02  0.51100000000E-03 0. -1.
         11   -1    0    0    0    0 -0.00000000000E+00 -0.00000000000E+00 -0.45593999997E+02  0.45594000000E+02  0.51100000000E-03 0.  1.
    9900012    2    1    2    0    0 -0.20723005568E+02  0.24862817518E+02 -0.24608196717E+02  0.50528855882E+02  0.29999987940E+02 0.  0.
         12    1    1    2    0    0  0.20723005568E+02 -0.24862817518E+02  0.24608196717E+02  0.40659144118E+02  0.00000000000E+00 0. -1.
         11    1    3    3    0    0 -0.11653194044E+02  0.14431809148E+02 -0.78955058400E+01  0.20159688972E+02  0.51100000000E-03 0. -1.
        -11    1    3    3    0    0 -0.14862620388E+02  0.64298108621E+01 -0.16792078402E+02  0.23328391497E+02  0.51100000000E-03 0.  1.
         12    1    3    3    0    0  0.57928088644E+01  0.40011975079E+01  0.79387524819E-01  0.70407754130E+01  0.00000000000E+00 0. -1.
</event>
<event>
 7    1  0.4374874E-012  0.5052889E+02  0.7816164E-02  0.1300439E+00
        -11   -1    0    0    0    0  0.00000000000E+00  0.00000000000E+00  0.45593999997E+02  0.45594000000E+02  0.51100000000E-03 0. -1.
         11   -1    0    0    0    0 -0.00000000000E+00 -0.00000000000E+00 -0.45593999997E+02  0.45594000000E+02  0.51100000000E-03 0.  1.
    9900012    2    1    2    0    0  0.30689142593E+02  0.24970392958E+02  0.93711857310E+01  0.50528891309E+02  0.30000095622E+02 0.  0.
        -12    1    1    2    0    0 -0.30689142593E+02 -0.24970392958E+02 -0.93711857310E+01  0.40659108691E+02  0.00000000000E+00 0.  1.
         11    1    3    3    0    0  0.11054821539E+02  0.31406017622E+01  0.36845434876E+00  0.11498183229E+02  0.51100000000E-03 0. -1.
        -11    1    3    3    0    0  0.15990211893E+02  0.22905875759E+02 -0.13855169164E+01  0.27969370355E+02  0.51100000000E-03 0.  1.
        -12    1    3    3    0    0  0.36441091604E+01 -0.10760845631E+01  0.10388248299E+02  0.11061337725E+02  0.00000000000E+00 0.  1.
</event>
<event>
 7    1  0.4374874E-012  0.5052886E+02  0.7816164E-02  0.1300439E+00
        -11   -1    0    0    0    0  0.00000000000E+00  0.00000000000E+00  0.45593999997E+02  0.45594000000E+02  0.51100000000E-03 0. -1.
         11   -1    0    0    0    0 -0.00000000000E+00 -0.00000000000E+00 -0.45593999997E+02  0.45594000000E+02  0.51100000000E-03 0.  1.
    9900012    2    1    2    0    0 -0.20590376826E+02 -0.16762493739E+02  0.30793193191E+02  0.50528861284E+02  0.30000004359E+02 0.  0.
        -12    1    1    2    0    0  0.20590376826E+02  0.16762493739E+02 -0.30793193191E+02  0.40659138716E+02  0.00000000000E+00 0.  1.
         11    1    3    3    0    0 -0.80836768719E+01 -0.95357410918E+01  0.31169643209E+02  0.33583073832E+02  0.51100000000E-03 0. -1.
        -11    1    3    3    0    0 -0.17120126080E+00 -0.32966802601E+01  0.18878909460E+01  0.38028335612E+01  0.51100000000E-03 0.  1.
        -12    1    3    3    0    0 -0.12335498693E+02 -0.39300723871E+01 -0.22643409639E+01  0.13142953891E+02  0.00000000000E+00 0.  1.
</event>
<event>
 7    1  0.4374874E-012  0.5052885E+02  0.7816164E-02  0.1300439E+00
        -11   -1    0    0    0    0  0.00000000000E+00  0.00000000000E+00  0.45593999997E+02  0.45594000000E+02  0.51100000000E-03 0. -1.
         11   -1    0    0    0    0 -0.00000000000E+00 -0.00000000000E+00 -0.45593999997E+02  0.45594000000E+02  0.51100000000E-03 0.  1.
    9900012    2    1    2    0    0 -0.28015442026E+02 -0.62183665972E+01  0.28803354354E+02  0.50528852234E+02  0.29999976850E+02 0.  0.
        -12    1    1    2    0    0  0.28015442026E+02  0.62183665972E+01 -0.28803354354E+02  0.40659147766E+02  0.00000000000E+00 0.  1.
         11    1    3    3    0    0 -0.74854900456E+01  0.70144465560E+00  0.65374662583E+01  0.99630844204E+01  0.51100000000E-03 0. -1.
        -11    1    3    3    0    0 -0.73722382955E+00  0.82448580172E+01  0.22134268834E+01  0.85685728992E+01  0.51100000000E-03 0.  1.
         12    1    3    3    0    0 -0.19792728150E+02 -0.15164669270E+02  0.20052461212E+02  0.31997194914E+02  0.00000000000E+00 0. -1.
</event>
<event>
 7    1  0.4374874E-012  0.5052886E+02  0.7816164E-02  0.1300439E+00
        -11   -1    0    0    0    0  0.00000000000E+00  0.00000000000E+00  0.45593999997E+02  0.45594000000E+02  0.51100000000E-03 0. -1.
         11   -1    0    0    0    0 -0.00000000000E+00 -0.00000000000E+00 -0.45593999997E+02  0.45594000000E+02  0.51100000000E-03 0.  1.
    9900012    2    1    2    0    0 -0.16530304028E+02 -0.32315131117E+02  0.18320668495E+02  0.50528861489E+02  0.30000004982E+02 0.  0.
        -12    1    1    2    0    0  0.16530304028E+02  0.32315131117E+02 -0.18320668495E+02  0.40659138511E+02  0.00000000000E+00 0.  1.
         11    1    3    3    0    0 -0.54354324656E+01 -0.54381958277E+01  0.93385140013E+01  0.12096517844E+02  0.51100000000E-03 0. -1.
        -11    1    3    3    0    0 -0.13202739160E+02 -0.29965954106E+02  0.10512565799E+02  0.34391638035E+02  0.51100000000E-03 0.  1.
        -12    1    3    3    0    0  0.21078675977E+01  0.30890188168E+01 -0.15304113052E+01  0.40407056096E+01  0.00000000000E+00 0.  1.
</event>
<event>
 7    1  0.4374874E-012  0.5052886E+02  0.7816164E-02  0.1300439E+00
        -11   -1    0    0    0    0  0.00000000000E+00  0.00000000000E+00  0.45593999997E+02  0.45594000000E+02  0.51100000000E-03 0. -1.
         11   -1    0    0    0    0 -0.00000000000E+00 -0.00000000000E+00 -0.45593999997E+02  0.45594000000E+02  0.51100000000E-03 0.  1.
    9900012    2    1    2    0    0 -0.24949273557E+02  0.29043543200E+01 -0.31972867326E+02  0.50528858714E+02  0.29999996548E+02 0.  0.
         12    1    1    2    0    0  0.24949273557E+02 -0.29043543200E+01  0.31972867326E+02  0.40659141286E+02  0.00000000000E+00 0. -1.
         11    1    3    3    0    0 -0.28624837335E+01  0.56028707957E+01 -0.39494698084E+01  0.74286126771E+01  0.51100000000E-03 0. -1.
        -11    1    3    3    0    0 -0.37024431658E+01  0.59113522447E+00 -0.23614839994E+02  0.23910629320E+02  0.51100000000E-03 0.  1.
         12    1    3    3    0    0 -0.18384346657E+02 -0.32896517002E+01 -0.44085575238E+01  0.19189616718E+02  0.00000000000E+00 0. -1.
</event>
<event>
 7    1  0.4374874E-012  0.5052892E+02  0.7816164E-02  0.1300439E+00
        -11   -1    0    0    0    0  0.00000000000E+00  0.00000000000E+00  0.45593999997E+02  0.45594000000E+02  0.51100000000E-03 0. -1.
         11   -1    0    0    0    0 -0.00000000000E+00 -0.00000000000E+00 -0.45593999997E+02  0.45594000000E+02  0.51100000000E-03 0.  1.
    9900012    2    1    2    0    0 -0.15383338605E+01 -0.83152772271E+01 -0.39769969433E+02  0.50528920140E+02  0.30000183256E+02 0.  0.
         12    1    1    2    0    0  0.15383338605E+01  0.83152772271E+01  0.39769969433E+02  0.40659079860E+02  0.00000000000E+00 0. -1.
         11    1    3    3    0    0  0.65502323357E+01  0.87905676989E+01 -0.14433860700E+02  0.18125009216E+02  0.51100000000E-03 0. -1.
        -11    1    3    3    0    0  0.75305884852E+00 -0.54808841765E+01 -0.81452634999E+01  0.98464464011E+01  0.51100000000E-03 0.  1.
        -12    1    3    3    0    0 -0.88416250446E+01 -0.11624960749E+02 -0.17190845233E+02  0.22557464522E+02  0.00000000000E+00 0.  1.
</event>
<event>
 7    1  0.4374874E-012  0.5052885E+02  0.7816164E-02  0.1300439E+00
        -11   -1    0    0    0    0  0.00000000000E+00  0.00000000000E+00  0.45593999997E+02  0.45594000000E+02  0.51100000000E-03 0.  1.
         11   -1    0    0    0    0 -0.00000000000E+00 -0.00000000000E+00 -0.45593999997E+02  0.45594000000E+02  0.51100000000E-03 0. -1.
    9900012    2    1    2    0    0 -0.12402368716E+01  0.38041781642E+02 -0.14298652117E+02  0.50528846168E+02  0.29999958411E+02 0.  0.
         12    1    1    2    0    0  0.12402368716E+01 -0.38041781642E+02  0.14298652117E+02  0.40659153832E+02  0.00000000000E+00 0. -1.
         11    1    3    3    0    0  0.41048354495E+01  0.23811956263E+02 -0.80698811289E+01  0.25475123490E+02  0.51100000000E-03 0. -1.
        -11    1    3    3    0    0 -0.50314442645E+01  0.17695969971E+02 -0.56491115349E+00  0.18406029160E+02  0.51100000000E-03 0.  1.
         12    1    3    3    0    0 -0.31362805660E+00 -0.34661445909E+01 -0.56638598342E+01  0.66476935176E+01  0.00000000000E+00 0. -1.
</event>
<event>
 7    1  0.4374874E-012  0.5052886E+02  0.7816164E-02  0.1300439E+00
        -11   -1    0    0    0    0  0.00000000000E+00  0.00000000000E+00  0.45593999997E+02  0.45594000000E+02  0.51100000000E-03 0. -1.
         11   -1    0    0    0    0 -0.00000000000E+00 -0.00000000000E+00 -0.45593999997E+02  0.45594000000E+02  0.51100000000E-03 0.  1.
    9900012    2    1    2    0    0 -0.33199228924E+02 -0.10245178449E+02 -0.21119022161E+02  0.50528861056E+02  0.30000003666E+02 0.  0.
         12    1    1    2    0    0  0.33199228924E+02  0.10245178449E+02  0.21119022161E+02  0.40659138944E+02  0.00000000000E+00 0. -1.
         11    1    3    3    0    0 -0.44186859178E+01 -0.99519719464E+01 -0.15392192667E+02  0.18854339718E+02  0.51100000000E-03 0. -1.
        -11    1    3    3    0    0 -0.28767635159E+01  0.39641307668E+01 -0.10671933991E+01  0.50128837085E+01  0.51100000000E-03 0.  1.
         12    1    3    3    0    0 -0.25903779491E+02 -0.42573372698E+01 -0.46596360947E+01  0.26661637629E+02  0.00000000000E+00 0. -1.
</event>
<event>
 7    1  0.4703306E-012  0.5052883E+02  0.7816164E-02  0.1300439E+00
        -11   -1    0    0    0    0  0.00000000000E+00  0.00000000000E+00  0.45593999997E+02  0.45594000000E+02  0.51100000000E-03 0. -1.
         11   -1    0    0    0    0 -0.00000000000E+00 -0.00000000000E+00 -0.45593999997E+02  0.45594000000E+02  0.51100000000E-03 0.  1.
    9900012    2    1    2    0    0  0.65158531764E+01  0.34924908584E+02 -0.19772762123E+02  0.50528834930E+02  0.29999924252E+02 0.  0.
         12    1    1    2    0    0 -0.65158531764E+01 -0.34924908584E+02  0.19772762123E+02  0.40659165070E+02  0.00000000000E+00 0. -1.
         11    1    3    3    0    0 -0.92700772916E+00  0.13079559158E+02 -0.14358358823E+02  0.19444708264E+02  0.51100000000E-03 0.  1.
        -11    1    3    3    0    0  0.12655192923E+02  0.18623288036E+02 -0.86909634825E+01  0.24135318762E+02  0.51100000000E-03 0. -1.
         12    1    3    3    0    0 -0.52123320176E+01  0.32220613896E+01  0.32765601825E+01  0.69488079042E+01  0.00000000000E+00 0. -1.
</event>
<event>
 7    1  0.4374874E-012  0.5052886E+02  0.7816164E-02  0.1300439E+00
        -11   -1    0    0    0    0  0.00000000000E+00  0.00000000000E+00  0.45593999997E+02  0.45594000000E+02  0.51100000000E-03 0. -1.
         11   -1    0    0    0    0 -0.00000000000E+00 -0.00000000000E+00 -0.45593999997E+02  0.45594000000E+02  0.51100000000E-03 0.  1.
    9900012    2    1    2    0    0 -0.34909501783E+02 -0.70552778056E+00 -0.20832538012E+02  0.50528859278E+02  0.29999998262E+02 0.  0.
         12    1    1    2    0    0  0.34909501783E+02  0.70552778056E+00  0.20832538012E+02  0.40659140722E+02  0.00000000000E+00 0. -1.
         11    1    3    3    0    0 -0.25588409077E+02 -0.14194701842E+02 -0.13916828998E+02  0.32402690769E+02  0.51100000000E-03 0.  1.
        -11    1    3    3    0    0 -0.58224357818E+01  0.54036609078E+01 -0.33983789474E+01  0.86399820238E+01  0.51100000000E-03 0. -1.
        -12    1    3    3    0    0 -0.34986569247E+01  0.80855131534E+01 -0.35173300666E+01  0.94861864850E+01  0.00000000000E+00 0.  1.
</event>
<event>
 7    1  0.4374874E-012  0.5052886E+02  0.7816164E-02  0.1300439E+00
        -11   -1    0    0    0    0  0.00000000000E+00  0.00000000000E+00  0.45593999997E+02  0.45594000000E+02  0.51100000000E-03 0. -1.
         11   -1    0    0    0    0 -0.00000000000E+00 -0.00000000000E+00 -0.45593999997E+02  0.45594000000E+02  0.51100000000E-03 0.  1.
    9900012    2    1    2    0    0  0.28142029186E+02  0.25673739654E+02 -0.14214455177E+02  0.50528862644E+02  0.30000008494E+02 0.  0.
         12    1    1    2    0    0 -0.28142029186E+02 -0.25673739654E+02  0.14214455177E+02  0.40659137356E+02  0.00000000000E+00 0. -1.
         11    1    3    3    0    0 -0.22355744603E+01 -0.10081293845E+01 -0.23661282474E+01  0.34077384242E+01  0.51100000000E-03 0. -1.
        -11    1    3    3    0    0  0.70675121693E+01  0.61108077186E+01  0.61619695326E+01  0.11192031452E+02  0.51100000000E-03 0.  1.
        -12    1    3    3    0    0  0.23310091477E+02  0.20571061320E+02 -0.18010296462E+02  0.35929092768E+02  0.00000000000E+00 0.  1.
</event>
<event>
 7    1  0.4374874E-012  0.5052886E+02  0.7816164E-02  0.1300439E+00
        -11   -1    0    0    0    0  0.00000000000E+00  0.00000000000E+00  0.45593999997E+02  0.45594000000E+02  0.51100000000E-03 0. -1.
         11   -1    0    0    0    0 -0.00000000000E+00 -0.00000000000E+00 -0.45593999997E+02  0.45594000000E+02  0.51100000000E-03 0.  1.
    9900012    2    1    2    0    0  0.41244182408E+00 -0.19296591979E+02  0.35785988699E+02  0.50528861330E+02  0.30000004498E+02 0.  0.
        -12    1    1    2    0    0 -0.41244182408E+00  0.19296591979E+02 -0.35785988699E+02  0.40659138670E+02  0.00000000000E+00 0.  1.
         11    1    3    3    0    0  0.70538587994E+01  0.28429331452E+01  0.10382287638E+02  0.12869774267E+02  0.51100000000E-03 0. -1.
        -11    1    3    3    0    0 -0.16580098711E+00 -0.22302960045E+01 -0.21174577370E+01  0.30798275543E+01  0.51100000000E-03 0.  1.
         12    1    3    3    0    0 -0.64756159882E+01 -0.19909229120E+02  0.27521158798E+02  0.34579259508E+02  0.00000000000E+00 0. -1.
</event>
<event>
 7    1  0.4374874E-012  0.5052887E+02  0.7816164E-02  0.1300439E+00
        -11   -1    0    0    0    0  0.00000000000E+00  0.00000000000E+00  0.45593999997E+02  0.45594000000E+02  0.51100000000E-03 0. -1.
         11   -1    0    0    0    0 -0.00000000000E+00 -0.00000000000E+00 -0.45593999997E+02  0.45594000000E+02  0.51100000000E-03 0.  1.
    9900012    2    1    2    0    0 -0.32835704036E+02 -0.83412801566E+01  0.22481204502E+02  0.50528868553E+02  0.30000026454E+02 0.  0.
        -12    1    1    2    0    0  0.32835704036E+02  0.83412801566E+01 -0.22481204502E+02  0.40659131447E+02  0.00000000000E+00 0.  1.
         11    1    3    3    0    0 -0.16057660839E+02 -0.29264670206E+01  0.22885723845E-01  0.16322169122E+02  0.51100000000E-03 0. -1.
        -11    1    3    3    0    0 -0.36426492923E+01  0.65644409674E+01  0.37247881022E+01  0.83806220383E+01  0.51100000000E-03 0.  1.
        -12    1    3    3    0    0 -0.13135393905E+02 -0.11979254103E+02  0.18733530676E+02  0.25826077392E+02  0.00000000000E+00 0.  1.
</event>
<event>
 7    1  0.4374874E-012  0.5052887E+02  0.7816164E-02  0.1300439E+00
        -11   -1    0    0    0    0  0.00000000000E+00  0.00000000000E+00  0.45593999997E+02  0.45594000000E+02  0.51100000000E-03 0.  1.
         11   -1    0    0    0    0 -0.00000000000E+00 -0.00000000000E+00 -0.45593999997E+02  0.45594000000E+02  0.51100000000E-03 0. -1.
    9900012    2    1    2    0    0  0.12812840892E+02 -0.36308310675E+02 -0.13065329469E+02  0.50528866341E+02  0.30000019729E+02 0.  0.
        -12    1    1    2    0    0 -0.12812840892E+02  0.36308310675E+02  0.13065329469E+02  0.40659133659E+02  0.00000000000E+00 0.  1.
         11    1    3    3    0    0  0.16494161725E+02 -0.24319296555E+02 -0.12755831167E+02  0.32034306376E+02  0.51100000000E-03 0.  1.
        -11    1    3    3    0    0  0.41462071206E+01 -0.39707942051E+00  0.14204745063E+01  0.44007333068E+01  0.51100000000E-03 0. -1.
        -12    1    3    3    0    0 -0.78275279538E+01 -0.11591934699E+02 -0.17299728074E+01  0.14093826658E+02  0.00000000000E+00 0.  1.
</event>
<event>
 7    1  0.4374874E-012  0.5052887E+02  0.7816164E-02  0.1300439E+00
        -11   -1    0    0    0    0  0.00000000000E+00  0.00000000000E+00  0.45593999997E+02  0.45594000000E+02  0.51100000000E-03 0. -1.
         11   -1    0    0    0    0 -0.00000000000E+00 -0.00000000000E+00 -0.45593999997E+02  0.45594000000E+02  0.51100000000E-03 0.  1.
    9900012    2    1    2    0    0  0.36673591143E+02 -0.15504596928E+02 -0.82353042081E+01  0.50528867586E+02  0.30000023515E+02 0.  0.
         12    1    1    2    0    0 -0.36673591143E+02  0.15504596928E+02  0.82353042081E+01  0.40659132414E+02  0.00000000000E+00 0. -1.
         11    1    3    3    0    0  0.89454848441E+01 -0.11256588257E+02  0.22636494984E+01  0.14555294143E+02  0.51100000000E-03 0. -1.
        -11    1    3    3    0    0  0.60111829077E+01 -0.95320784389E+01  0.25236517184E-01  0.11269226968E+02  0.51100000000E-03 0.  1.
        -12    1    3    3    0    0  0.21716923392E+02  0.52840697676E+01 -0.10524190224E+02  0.24704346475E+02  0.00000000000E+00 0.  1.
</event>
<event>
 7    1  0.4374874E-012  0.5052886E+02  0.7816164E-02  0.1300439E+00
        -11   -1    0    0    0    0  0.00000000000E+00  0.00000000000E+00  0.45593999997E+02  0.45594000000E+02  0.51100000000E-03 0. -1.
         11   -1    0    0    0    0 -0.00000000000E+00 -0.00000000000E+00 -0.45593999997E+02  0.45594000000E+02  0.51100000000E-03 0.  1.
    9900012    2    1    2    0    0 -0.12921168058E+02 -0.19948245345E+02 -0.32989039737E+02  0.50528858111E+02  0.29999994716E+02 0.  0.
         12    1    1    2    0    0  0.12921168058E+02  0.19948245345E+02  0.32989039737E+02  0.40659141889E+02  0.00000000000E+00 0. -1.
         11    1    3    3    0    0  0.27984049718E+01 -0.60975491235E+01 -0.19470920454E+02  0.20594366203E+02  0.51100000000E-03 0. -1.
        -11    1    3    3    0    0 -0.19076464311E+01 -0.11955887494E+02 -0.96051012719E+01  0.15454459919E+02  0.51100000000E-03 0.  1.
         12    1    3    3    0    0 -0.13811926598E+02 -0.18948087281E+01 -0.39130180107E+01  0.14480031990E+02  0.00000000000E+00 0. -1.
</event>
<event>
 7    1  0.4374874E-012  0.5052886E+02  0.7816164E-02  0.1300439E+00
        -11   -1    0    0    0    0  0.00000000000E+00  0.00000000000E+00  0.45593999997E+02  0.45594000000E+02  0.51100000000E-03 0. -1.
         11   -1    0    0    0    0 -0.00000000000E+00 -0.00000000000E+00 -0.45593999997E+02  0.45594000000E+02  0.51100000000E-03 0.  1.
    9900012    2    1    2    0    0 -0.23593557266E+02 -0.71435390503E+01  0.32333876459E+02  0.50528860050E+02  0.30000000608E+02 0.  0.
        -12    1    1    2    0    0  0.23593557266E+02  0.71435390503E+01 -0.32333876459E+02  0.40659139950E+02  0.00000000000E+00 0.  1.
         11    1    3    3    0    0 -0.15559425919E+01  0.11777212291E+01  0.12989544231E+01  0.23441986898E+01  0.51100000000E-03 0. -1.
        -11    1    3    3    0    0 -0.12392048287E+02 -0.34825090658E+01 -0.23625086077E+01  0.13087099652E+02  0.51100000000E-03 0.  1.
         12    1    3    3    0    0 -0.96455663874E+01 -0.48387512137E+01  0.33397430644E+02  0.35097561708E+02  0.00000000000E+00 0. -1.
</event>
<event>
 7    1  0.4374874E-012  0.5052886E+02  0.7816164E-02  0.1300439E+00
        -11   -1    0    0    0    0  0.00000000000E+00  0.00000000000E+00  0.45593999997E+02  0.45594000000E+02  0.51100000000E-03 0. -1.
         11   -1    0    0    0    0 -0.00000000000E+00 -0.00000000000E+00 -0.45593999997E+02  0.45594000000E+02  0.51100000000E-03 0.  1.
    9900012    2    1    2    0    0  0.13703973205E+01  0.87535012060E+01 -0.39682033193E+02  0.50528861660E+02  0.30000005502E+02 0.  0.
         12    1    1    2    0    0 -0.13703973205E+01 -0.87535012060E+01  0.39682033193E+02  0.40659138340E+02  0.00000000000E+00 0. -1.
         11    1    3    3    0    0  0.58938475987E+01  0.12942638496E+01 -0.21365730429E+01  0.64013672803E+01  0.51100000000E-03 0. -1.
        -11    1    3    3    0    0 -0.79251127577E+00 -0.75499988999E+01 -0.14611234202E+02  0.16465683183E+02  0.51100000000E-03 0.  1.
        -12    1    3    3    0    0 -0.37309390023E+01  0.15009236256E+02 -0.22934225949E+02  0.27661811197E+02  0.00000000000E+00 0.  1.
</event>
<event>
 7    1  0.4374874E-012  0.5052886E+02  0.7816164E-02  0.1300439E+00
        -11   -1    0    0    0    0  0.00000000000E+00  0.00000000000E+00  0.45593999997E+02  0.45594000000E+02  0.51100000000E-03 0. -1.
         11   -1    0    0    0    0 -0.00000000000E+00 -0.00000000000E+00 -0.45593999997E+02  0.45594000000E+02  0.51100000000E-03 0.  1.
    9900012    2    1    2    0    0  0.15125318044E+02 -0.10568463522E+01  0.37726299889E+02  0.50528857443E+02  0.29999992684E+02 0.  0.
        -12    1    1    2    0    0 -0.15125318044E+02  0.10568463522E+01 -0.37726299889E+02  0.40659142557E+02  0.00000000000E+00 0.  1.
         11    1    3    3    0    0  0.18373168921E+02 -0.31582664432E+01  0.35830023874E+02  0.40389832808E+02  0.51100000000E-03 0. -1.
        -11    1    3    3    0    0  0.30830625007E+01 -0.31736413712E+00 -0.78881850625E-02  0.30993639450E+01  0.51100000000E-03 0.  1.
        -12    1    3    3    0    0 -0.63309133776E+01  0.24187842280E+01  0.19041641995E+01  0.70396606904E+01  0.00000000000E+00 0.  1.
</event>
<event>
 7    1  0.4374874E-012  0.5052885E+02  0.7816164E-02  0.1300439E+00
        -11   -1    0    0    0    0  0.00000000000E+00  0.00000000000E+00  0.45593999997E+02  0.45594000000E+02  0.51100000000E-03 0. -1.
         11   -1    0    0    0    0 -0.00000000000E+00 -0.00000000000E+00 -0.45593999997E+02  0.45594000000E+02  0.51100000000E-03 0.  1.
    9900012    2    1    2    0    0 -0.22772723269E+02 -0.19261271119E+02 -0.27632829757E+02  0.50528846411E+02  0.29999959150E+02 0.  0.
         12    1    1    2    0    0  0.22772723269E+02  0.19261271119E+02  0.27632829757E+02  0.40659153589E+02  0.00000000000E+00 0. -1.
         11    1    3    3    0    0  0.26306707365E+01  0.39839977548E+01 -0.57133199850E+01  0.74454477465E+01  0.51100000000E-03 0. -1.
        -11    1    3    3    0    0 -0.77414727642E+01  0.12970330425E+00 -0.36826164990E+01  0.85737324454E+01  0.51100000000E-03 0.  1.
         12    1    3    3    0    0 -0.17661921242E+02 -0.23374972178E+02 -0.18236893273E+02  0.34509666219E+02  0.00000000000E+00 0. -1.
</event>
<event>
 7    1  0.4374874E-012  0.5052887E+02  0.7816164E-02  0.1300439E+00
        -11   -1    0    0    0    0  0.00000000000E+00  0.00000000000E+00  0.45593999997E+02  0.45594000000E+02  0.51100000000E-03 0. -1.
         11   -1    0    0    0    0 -0.00000000000E+00 -0.00000000000E+00 -0.45593999997E+02  0.45594000000E+02  0.51100000000E-03 0.  1.
    9900012    2    1    2    0    0 -0.10373392173E+02 -0.40787525116E+01 -0.39101427302E+02  0.50528866902E+02  0.30000021435E+02 0.  0.
         12    1    1    2    0    0  0.10373392173E+02  0.40787525116E+01  0.39101427302E+02  0.40659133098E+02  0.00000000000E+00 0. -1.
         11    1    3    3    0    0  0.13137612097E+01 -0.84666582305E+01 -0.33575130269E+02  0.34651113156E+02  0.51100000000E-03 0. -1.
        -11    1    3    3    0    0 -0.46544733714E+01 -0.19483711477E+01 -0.27654900416E+00  0.50533901598E+01  0.51100000000E-03 0.  1.
        -12    1    3    3    0    0 -0.70326800115E+01  0.63362768666E+01 -0.52497480285E+01  0.10824363586E+02  0.00000000000E+00 0.  1.
</event>
<event>
 7    1  0.4374874E-012  0.5052882E+02  0.7816164E-02  0.1300439E+00
        -11   -1    0    0    0    0  0.00000000000E+00  0.00000000000E+00  0.45593999997E+02  0.45594000000E+02  0.51100000000E-03 0. -1.
         11   -1    0    0    0    0 -0.00000000000E+00 -0.00000000000E+00 -0.45593999997E+02  0.45594000000E+02  0.51100000000E-03 0.  1.
    9900012    2    1    2    0    0  0.25502813154E+02 -0.29756346235E+02 -0.10832151633E+02  0.50528817409E+02  0.29999870995E+02 0.  0.
         12    1    1    2    0    0 -0.25502813154E+02  0.29756346235E+02  0.10832151633E+02  0.40659182591E+02  0.00000000000E+00 0. -1.
         11    1    3    3    0    0 -0.13695319785E+01  0.15485403181E+00  0.58562256836E+01  0.60162261534E+01  0.51100000000E-03 0. -1.
        -11    1    3    3    0    0 -0.73811179362E+00 -0.11818172048E+01 -0.86216977963E+00  0.16385475017E+01  0.51100000000E-03 0.  1.
        -12    1    3    3    0    0  0.27610456926E+02 -0.28729383062E+02 -0.15826207537E+02  0.42874043753E+02  0.00000000000E+00 0.  1.
</event>
<event>
 7    1  0.4374874E-012  0.5052886E+02  0.7816164E-02  0.1300439E+00
        -11   -1    0    0    0    0  0.00000000000E+00  0.00000000000E+00  0.45593999997E+02  0.45594000000E+02  0.51100000000E-03 0.  1.
         11   -1    0    0    0    0 -0.00000000000E+00 -0.00000000000E+00 -0.45593999997E+02  0.45594000000E+02  0.51100000000E-03 0. -1.
    9900012    2    1    2    0    0  0.39904436817E+02  0.48341614166E+01  0.61182090974E+01  0.50528859861E+02  0.30000000032E+02 0.  0.
         12    1    1    2    0    0 -0.39904436817E+02 -0.48341614166E+01 -0.61182090974E+01  0.40659140139E+02  0.00000000000E+00 0. -1.
         11    1    3    3    0    0  0.16769248798E+02 -0.30035575092E+01  0.66355522573E+01  0.18282768307E+02  0.51100000000E-03 0. -1.
        -11    1    3    3    0    0  0.11934158925E+02  0.63238273301E+01  0.10001307335E+02  0.16805983756E+02  0.51100000000E-03 0.  1.
         12    1    3    3    0    0  0.11201029095E+02  0.15138915957E+01 -0.10518650495E+02  0.15440107797E+02  0.00000000000E+00 0. -1.
</event>
<event>
 7    1  0.4374874E-012  0.5052886E+02  0.7816164E-02  0.1300439E+00
        -11   -1    0    0    0    0  0.00000000000E+00  0.00000000000E+00  0.45593999997E+02  0.45594000000E+02  0.51100000000E-03 0. -1.
         11   -1    0    0    0    0 -0.00000000000E+00 -0.00000000000E+00 -0.45593999997E+02  0.45594000000E+02  0.51100000000E-03 0.  1.
    9900012    2    1    2    0    0  0.14182978179E+02 -0.93099812251E+01 -0.36950416891E+02  0.50528856762E+02  0.29999990613E+02 0.  0.
         12    1    1    2    0    0 -0.14182978179E+02  0.93099812251E+01  0.36950416891E+02  0.40659143238E+02  0.00000000000E+00 0. -1.
         11    1    3    3    0    0 -0.51222939250E+01 -0.11518873915E+02 -0.13625973685E+02  0.18563122325E+02  0.51100000000E-03 0. -1.
        -11    1    3    3    0    0  0.65743101058E+01  0.39674099069E+01 -0.14399303700E+02  0.16318757368E+02  0.51100000000E-03 0.  1.
        -12    1    3    3    0    0  0.12730961998E+02 -0.17585172173E+01 -0.89251395060E+01  0.15646977069E+02  0.00000000000E+00 0.  1.
</event>
<event>
 7    1  0.4374874E-012  0.5052886E+02  0.7816164E-02  0.1300439E+00
        -11   -1    0    0    0    0  0.00000000000E+00  0.00000000000E+00  0.45593999997E+02  0.45594000000E+02  0.51100000000E-03 0. -1.
         11   -1    0    0    0    0 -0.00000000000E+00 -0.00000000000E+00 -0.45593999997E+02  0.45594000000E+02  0.51100000000E-03 0.  1.
    9900012    2    1    2    0    0  0.46824086168E+01 -0.28626653323E+02  0.28491327867E+02  0.50528855954E+02  0.29999988157E+02 0.  0.
        -12    1    1    2    0    0 -0.46824086168E+01  0.28626653323E+02 -0.28491327867E+02  0.40659144046E+02  0.00000000000E+00 0.  1.
         11    1    3    3    0    0  0.23887653604E+01 -0.77535544859E+00 -0.91486894161E+00  0.26728938363E+01  0.51100000000E-03 0. -1.
        -11    1    3    3    0    0  0.12443413154E+02 -0.13184541244E+02  0.22091596659E+02  0.28578126285E+02  0.51100000000E-03 0.  1.
         12    1    3    3    0    0 -0.10149769898E+02 -0.14666756630E+02  0.73146001495E+01  0.19277835832E+02  0.00000000000E+00 0. -1.
</event>
<event>
 7    1  0.4374874E-012  0.5052886E+02  0.7816164E-02  0.1300439E+00
        -11   -1    0    0    0    0  0.00000000000E+00  0.00000000000E+00  0.45593999997E+02  0.45594000000E+02  0.51100000000E-03 0. -1.
         11   -1    0    0    0    0 -0.00000000000E+00 -0.00000000000E+00 -0.45593999997E+02  0.45594000000E+02  0.51100000000E-03 0.  1.
    9900012    2    1    2    0    0  0.17067639667E+01 -0.91656671324E+01  0.39575788012E+02  0.50528862110E+02  0.30000006869E+02 0.  0.
        -12    1    1    2    0    0 -0.17067639667E+01  0.91656671324E+01 -0.39575788012E+02  0.40659137890E+02  0.00000000000E+00 0.  1.
         11    1    3    3    0    0  0.50186283564E+01 -0.11811321725E+02  0.20623036994E+02  0.24289989844E+02  0.51100000000E-03 0. -1.
        -11    1    3    3    0    0  0.63951386178E+01  0.43854263043E+01  0.52821472129E+01  0.93824752199E+01  0.51100000000E-03 0.  1.
         12    1    3    3    0    0 -0.97070030076E+01 -0.17397717117E+01  0.13670603805E+02  0.16856397046E+02  0.00000000000E+00 0. -1.
</event>
<event>
 7    1  0.4374874E-012  0.5052885E+02  0.7816164E-02  0.1300439E+00
        -11   -1    0    0    0    0  0.00000000000E+00  0.00000000000E+00  0.45593999997E+02  0.45594000000E+02  0.51100000000E-03 0. -1.
         11   -1    0    0    0    0 -0.00000000000E+00 -0.00000000000E+00 -0.45593999997E+02  0.45594000000E+02  0.51100000000E-03 0.  1.
    9900012    2    1    2    0    0  0.26465235579E+01 -0.16587775846E+02 -0.37027123106E+02  0.50528852937E+02  0.29999978986E+02 0.  0.
         12    1    1    2    0    0 -0.26465235579E+01  0.16587775846E+02  0.37027123106E+02  0.40659147063E+02  0.00000000000E+00 0. -1.
         11    1    3    3    0    0 -0.31309943976E+01 -0.96624941045E+01 -0.14208887097E+02  0.17465949474E+02  0.51100000000E-03 0. -1.
        -11    1    3    3    0    0  0.11638945908E+02 -0.11597465637E+02 -0.15742836697E+02  0.22755289024E+02  0.51100000000E-03 0.  1.
        -12    1    3    3    0    0 -0.58614279522E+01  0.46721838958E+01 -0.70753993118E+01  0.10307614439E+02  0.00000000000E+00 0.  1.
</event>
<event>
 7    1  0.4374874E-012  0.5052886E+02  0.7816164E-02  0.1300439E+00
        -11   -1    0    0    0    0  0.00000000000E+00  0.00000000000E+00  0.45593999997E+02  0.45594000000E+02  0.51100000000E-03 0. -1.
         11   -1    0    0    0    0 -0.00000000000E+00 -0.00000000000E+00 -0.45593999997E+02  0.45594000000E+02  0.51100000000E-03 0.  1.
    9900012    2    1    2    0    0  0.40292191077E+01  0.28459314996E+02  0.28757574993E+02  0.50528864050E+02  0.30000012767E+02 0.  0.
        -12    1    1    2    0    0 -0.40292191077E+01 -0.28459314996E+02 -0.28757574993E+02  0.40659135950E+02  0.00000000000E+00 0.  1.
         11    1    3    3    0    0  0.67294814301E+00 -0.34633223996E+01 -0.70719386688E+00  0.35982752359E+01  0.51100000000E-03 0. -1.
        -11    1    3    3    0    0 -0.50520305603E+01  0.12662278867E+02  0.46312734299E+01  0.14398090594E+02  0.51100000000E-03 0.  1.
         12    1    3    3    0    0  0.84083015250E+01  0.19260358529E+02  0.24833495430E+02  0.32532498221E+02  0.00000000000E+00 0. -1.
</event>
<event>
 7    1  0.4374874E-012  0.5052886E+02  0.7816164E-02  0.1300439E+00
        -11   -1    0    0    0    0  0.00000000000E+00  0.00000000000E+00  0.45593999997E+02  0.45594000000E+02  0.51100000000E-03 0. -1.
         11   -1    0    0    0    0 -0.00000000000E+00 -0.00000000000E+00 -0.45593999997E+02  0.45594000000E+02  0.51100000000E-03 0.  1.
    9900012    2    1    2    0    0  0.68723286546E+01  0.22930445521E+02  0.32865358257E+02  0.50528855809E+02  0.29999987718E+02 0.  0.
        -12    1    1    2    0    0 -0.68723286546E+01 -0.22930445521E+02 -0.32865358257E+02  0.40659144191E+02  0.00000000000E+00 0.  1.
         11    1    3    3    0    0 -0.27905033465E+01  0.96698804519E+01  0.20579365334E+02  0.22908596088E+02  0.51100000000E-03 0. -1.
        -11    1    3    3    0    0  0.73680847546E+00  0.24270253288E+01  0.13306554666E+02  0.13546133619E+02  0.51100000000E-03 0.  1.
        -12    1    3    3    0    0  0.89260235257E+01  0.10833539740E+02 -0.10205617432E+01  0.14074126103E+02  0.00000000000E+00 0.  1.
</event>
<event>
 7    1  0.4374874E-012  0.5052886E+02  0.7816164E-02  0.1300439E+00
        -11   -1    0    0    0    0  0.00000000000E+00  0.00000000000E+00  0.45593999997E+02  0.45594000000E+02  0.51100000000E-03 0. -1.
         11   -1    0    0    0    0 -0.00000000000E+00 -0.00000000000E+00 -0.45593999997E+02  0.45594000000E+02  0.51100000000E-03 0.  1.
    9900012    2    1    2    0    0  0.36610774333E+02 -0.13027473084E+02 -0.11962510790E+02  0.50528861831E+02  0.30000006023E+02 0.  0.
        -12    1    1    2    0    0 -0.36610774333E+02  0.13027473084E+02  0.11962510790E+02  0.40659138169E+02  0.00000000000E+00 0.  1.
         11    1    3    3    0    0  0.27941831483E+02 -0.12715883010E+02 -0.15695901576E+02  0.34478992936E+02  0.51100000000E-03 0. -1.
        -11    1    3    3    0    0  0.54742687098E+01 -0.63788829231E+01  0.37384038127E+00  0.84141263447E+01  0.51100000000E-03 0.  1.
         12    1    3    3    0    0  0.31946741406E+01  0.60672928488E+01  0.33595504051E+01  0.76357425508E+01  0.00000000000E+00 0. -1.
</event>
<event>
 7    1  0.4374874E-012  0.5052888E+02  0.7816164E-02  0.1300439E+00
        -11   -1    0    0    0    0  0.00000000000E+00  0.00000000000E+00  0.45593999997E+02  0.45594000000E+02  0.51100000000E-03 0. -1.
         11   -1    0    0    0    0 -0.00000000000E+00 -0.00000000000E+00 -0.45593999997E+02  0.45594000000E+02  0.51100000000E-03 0.  1.
    9900012    2    1    2    0    0 -0.10107188073E+02  0.10144331493E+02  0.38053931344E+02  0.50528875527E+02  0.30000047651E+02 0.  0.
        -12    1    1    2    0    0  0.10107188073E+02 -0.10144331493E+02 -0.38053931344E+02  0.40659124473E+02  0.00000000000E+00 0.  1.
         11    1    3    3    0    0 -0.16376426728E+02  0.40566625175E+01  0.17710171424E+02  0.24460049781E+02  0.51100000000E-03 0. -1.
        -11    1    3    3    0    0 -0.19188678925E+01  0.74951452492E+01  0.75227451008E+01  0.10791244155E+02  0.51100000000E-03 0.  1.
         12    1    3    3    0    0  0.81881065470E+01 -0.14074762735E+01  0.12821014819E+02  0.15277581591E+02  0.00000000000E+00 0. -1.
</event>
<event>
 7    1  0.4374874E-012  0.5052887E+02  0.7816164E-02  0.1300439E+00
        -11   -1    0    0    0    0  0.00000000000E+00  0.00000000000E+00  0.45593999997E+02  0.45594000000E+02  0.51100000000E-03 0. -1.
         11   -1    0    0    0    0 -0.00000000000E+00 -0.00000000000E+00 -0.45593999997E+02  0.45594000000E+02  0.51100000000E-03 0.  1.
    9900012    2    1    2    0    0 -0.16896768236E+02  0.10199755602E+02  0.35547563895E+02  0.50528867077E+02  0.30000021968E+02 0.  0.
        -12    1    1    2    0    0  0.16896768236E+02 -0.10199755602E+02 -0.35547563895E+02  0.40659132923E+02  0.00000000000E+00 0.  1.
         11    1    3    3    0    0 -0.47839733958E+01  0.20418582294E+01 -0.19219160709E+01  0.55452094753E+01  0.51100000000E-03 0. -1.
        -11    1    3    3    0    0 -0.14479388901E+02 -0.18530434235E+01  0.22494598669E+02  0.26815917706E+02  0.51100000000E-03 0.  1.
         12    1    3    3    0    0  0.23665940608E+01  0.10010940796E+02  0.14974881297E+02  0.18167739896E+02  0.00000000000E+00 0. -1.
</event>
<event>
 7    1  0.4374874E-012  0.5052887E+02  0.7816164E-02  0.1300439E+00
        -11   -1    0    0    0    0  0.00000000000E+00  0.00000000000E+00  0.45593999997E+02  0.45594000000E+02  0.51100000000E-03 0.  1.
         11   -1    0    0    0    0 -0.00000000000E+00 -0.00000000000E+00 -0.45593999997E+02  0.45594000000E+02  0.51100000000E-03 0. -1.
    9900012    2    1    2    0    0  0.33412926161E+02 -0.21487499665E+02  0.86619216695E+01  0.50528866173E+02  0.30000019220E+02 0.  0.
        -12    1    1    2    0    0 -0.33412926161E+02  0.21487499665E+02 -0.86619216695E+01  0.40659133827E+02  0.00000000000E+00 0.  1.
         11    1    3    3    0    0  0.19626014595E+02 -0.24540316957E+02  0.41153492791E+01  0.31691382191E+02  0.51100000000E-03 0. -1.
        -11    1    3    3    0    0  0.49778174373E+01 -0.26331543757E+01  0.60273037474E+01  0.82486701431E+01  0.51100000000E-03 0.  1.
        -12    1    3    3    0    0  0.88090941288E+01  0.56859716668E+01 -0.14807313571E+01  0.10588813839E+02  0.00000000000E+00 0.  1.
</event>
<event>
 7    1  0.4374874E-012  0.5052886E+02  0.7816164E-02  0.1300439E+00
        -11   -1    0    0    0    0  0.00000000000E+00  0.00000000000E+00  0.45593999997E+02  0.45594000000E+02  0.51100000000E-03 0. -1.
         11   -1    0    0    0    0 -0.00000000000E+00 -0.00000000000E+00 -0.45593999997E+02  0.45594000000E+02  0.51100000000E-03 0.  1.
    9900012    2    1    2    0    0 -0.11262939638E+02  0.12666883671E+02  0.36957571937E+02  0.50528857428E+02  0.29999992639E+02 0.  0.
        -12    1    1    2    0    0  0.11262939638E+02 -0.12666883671E+02 -0.36957571937E+02  0.40659142572E+02  0.00000000000E+00 0.  1.
         11    1    3    3    0    0 -0.64439769175E+01  0.42294971603E+01  0.21959455099E+02  0.23272970443E+02  0.51100000000E-03 0. -1.
        -11    1    3    3    0    0  0.30631938206E+01  0.10908096409E+02  0.15242213311E+02  0.18991966473E+02  0.51100000000E-03 0.  1.
        -12    1    3    3    0    0 -0.78821565406E+01 -0.24707098983E+01 -0.24409647363E+00  0.82639205115E+01  0.00000000000E+00 0.  1.
</event>
<event>
 7    1  0.4374874E-012  0.5052886E+02  0.7816164E-02  0.1300439E+00
        -11   -1    0    0    0    0  0.00000000000E+00  0.00000000000E+00  0.45593999997E+02  0.45594000000E+02  0.51100000000E-03 0. -1.
         11   -1    0    0    0    0 -0.00000000000E+00 -0.00000000000E+00 -0.45593999997E+02  0.45594000000E+02  0.51100000000E-03 0.  1.
    9900012    2    1    2    0    0 -0.25194350755E+02  0.98075637363E+01  0.30368113379E+02  0.50528856790E+02  0.29999990698E+02 0.  0.
        -12    1    1    2    0    0  0.25194350755E+02 -0.98075637363E+01 -0.30368113379E+02  0.40659143210E+02  0.00000000000E+00 0.  1.
         11    1    3    3    0    0 -0.10229123586E+02 -0.64097501814E+01  0.47432702619E+01  0.12969906698E+02  0.51100000000E-03 0. -1.
        -11    1    3    3    0    0  0.29693379736E+00 -0.19217031610E+01  0.74172897904E+01  0.76679398025E+01  0.51100000000E-03 0.  1.
         12    1    3    3    0    0 -0.15262160966E+02  0.18139017079E+02  0.18207553327E+02  0.29891010289E+02  0.00000000000E+00 0. -1.
</event>
<event>
 7    1  0.4374874E-012  0.5052888E+02  0.7816164E-02  0.1300439E+00
        -11   -1    0    0    0    0  0.00000000000E+00  0.00000000000E+00  0.45593999997E+02  0.45594000000E+02  0.51100000000E-03 0. -1.
         11   -1    0    0    0    0 -0.00000000000E+00 -0.00000000000E+00 -0.45593999997E+02  0.45594000000E+02  0.51100000000E-03 0.  1.
    9900012    2    1    2    0    0  0.21536311393E+02  0.10908989602E+02  0.32716134956E+02  0.50528877419E+02  0.30000053404E+02 0.  0.
        -12    1    1    2    0    0 -0.21536311393E+02 -0.10908989602E+02 -0.32716134956E+02  0.40659122581E+02  0.00000000000E+00 0.  1.
         11    1    3    3    0    0  0.80307906469E+01  0.59438034162E+01  0.63449354892E+01  0.11835565220E+02  0.51100000000E-03 0. -1.
        -11    1    3    3    0    0  0.17352876325E+02  0.45898474277E+01  0.28938181551E+02  0.34053008206E+02  0.51100000000E-03 0.  1.
        -12    1    3    3    0    0 -0.38473555786E+01  0.37533875810E+00 -0.25669820834E+01  0.46403039931E+01  0.00000000000E+00 0.  1.
</event>
<event>
 7    1  0.4374874E-012  0.5052887E+02  0.7816164E-02  0.1300439E+00
        -11   -1    0    0    0    0  0.00000000000E+00  0.00000000000E+00  0.45593999997E+02  0.45594000000E+02  0.51100000000E-03 0. -1.
         11   -1    0    0    0    0 -0.00000000000E+00 -0.00000000000E+00 -0.45593999997E+02  0.45594000000E+02  0.51100000000E-03 0.  1.
    9900012    2    1    2    0    0  0.23909791971E+02  0.18607567144E+02 -0.27115403938E+02  0.50528870179E+02  0.30000031397E+02 0.  0.
         12    1    1    2    0    0 -0.23909791971E+02 -0.18607567144E+02  0.27115403938E+02  0.40659129821E+02  0.00000000000E+00 0. -1.
         11    1    3    3    0    0  0.63929470606E+01 -0.38596864944E+01  0.15437373609E+01  0.76256197948E+01  0.51100000000E-03 0. -1.
        -11    1    3    3    0    0  0.90396271232E+01  0.31826274796E+01 -0.14989014029E+02  0.17790854898E+02  0.51100000000E-03 0.  1.
         12    1    3    3    0    0  0.84772177867E+01  0.19284626158E+02 -0.13670127270E+02  0.25112395486E+02  0.00000000000E+00 0. -1.
</event>
<event>
 7    1  0.4374874E-012  0.5052886E+02  0.7816164E-02  0.1300439E+00
        -11   -1    0    0    0    0  0.00000000000E+00  0.00000000000E+00  0.45593999997E+02  0.45594000000E+02  0.51100000000E-03 0. -1.
         11   -1    0    0    0    0 -0.00000000000E+00 -0.00000000000E+00 -0.45593999997E+02  0.45594000000E+02  0.51100000000E-03 0.  1.
    9900012    2    1    2    0    0 -0.23857723056E+02  0.32484524657E+02 -0.53600575562E+01  0.50528861930E+02  0.30000006322E+02 0.  0.
         12    1    1    2    0    0  0.23857723056E+02 -0.32484524657E+02  0.53600575562E+01  0.40659138070E+02  0.00000000000E+00 0. -1.
         11    1    3    3    0    0 -0.65435560939E+01 -0.17736636719E+01  0.51182184574E+01  0.84947142161E+01  0.51100000000E-03 0. -1.
        -11    1    3    3    0    0 -0.68352074262E+01  0.99456939426E+01  0.28409378969E+01  0.12397895666E+02  0.51100000000E-03 0.  1.
        -12    1    3    3    0    0 -0.10478959536E+02  0.24312494386E+02 -0.13319213911E+02  0.29636252048E+02  0.00000000000E+00 0.  1.
</event>
<event>
 7    1  0.4374874E-012  0.5052885E+02  0.7816164E-02  0.1300439E+00
        -11   -1    0    0    0    0  0.00000000000E+00  0.00000000000E+00  0.45593999997E+02  0.45594000000E+02  0.51100000000E-03 0. -1.
         11   -1    0    0    0    0 -0.00000000000E+00 -0.00000000000E+00 -0.45593999997E+02  0.45594000000E+02  0.51100000000E-03 0.  1.
    9900012    2    1    2    0    0  0.35002665091E+02 -0.82626162599E+01  0.18966004485E+02  0.50528847069E+02  0.29999961152E+02 0.  0.
        -12    1    1    2    0    0 -0.35002665091E+02  0.82626162599E+01 -0.18966004485E+02  0.40659152931E+02  0.00000000000E+00 0.  1.
         11    1    3    3    0    0  0.14911138775E+01  0.26168476546E+01  0.91740992149E+01  0.96558484303E+01  0.51100000000E-03 0.  1.
        -11    1    3    3    0    0  0.56519494417E+01 -0.79281305318E+01 -0.28387200813E+01  0.10141899141E+02  0.51100000000E-03 0. -1.
        -12    1    3    3    0    0  0.27859601771E+02 -0.29513333826E+01  0.12630625352E+02  0.30731099498E+02  0.00000000000E+00 0.  1.
</event>
<event>
 7    1  0.4374874E-012  0.5052878E+02  0.7816164E-02  0.1300439E+00
        -11   -1    0    0    0    0  0.00000000000E+00  0.00000000000E+00  0.45593999997E+02  0.45594000000E+02  0.51100000000E-03 0. -1.
         11   -1    0    0    0    0 -0.00000000000E+00 -0.00000000000E+00 -0.45593999997E+02  0.45594000000E+02  0.51100000000E-03 0.  1.
    9900012    2    1    2    0    0  0.26016384461E+01 -0.35749200685E+02 -0.19193708496E+02  0.50528778192E+02  0.29999751792E+02 0.  0.
         12    1    1    2    0    0 -0.26016384461E+01  0.35749200685E+02  0.19193708496E+02  0.40659221808E+02  0.00000000000E+00 0. -1.
         11    1    3    3    0    0 -0.40475395075E-01  0.27978541150E+01 -0.16065136995E+01  0.32265325714E+01  0.51100000000E-03 0. -1.
        -11    1    3    3    0    0  0.52123951274E+01 -0.19921911110E+02  0.13241121107E+01  0.20635040062E+02  0.51100000000E-03 0.  1.
        -12    1    3    3    0    0 -0.25702812862E+01 -0.18625143690E+02 -0.18911306907E+02  0.26667205558E+02  0.00000000000E+00 0.  1.
</event>
<event>
 7    1  0.4374874E-012  0.5052885E+02  0.7816164E-02  0.1300439E+00
        -11   -1    0    0    0    0  0.00000000000E+00  0.00000000000E+00  0.45593999997E+02  0.45594000000E+02  0.51100000000E-03 0.  1.
         11   -1    0    0    0    0 -0.00000000000E+00 -0.00000000000E+00 -0.45593999997E+02  0.45594000000E+02  0.51100000000E-03 0. -1.
    9900012    2    1    2    0    0  0.29277253756E+02 -0.20296772788E+02  0.19597182570E+02  0.50528854192E+02  0.29999982803E+02 0.  0.
         12    1    1    2    0    0 -0.29277253756E+02  0.20296772788E+02 -0.19597182570E+02  0.40659145808E+02  0.00000000000E+00 0. -1.
         11    1    3    3    0    0  0.21673493542E+01 -0.35195967288E+00 -0.12953617090E+01  0.25493609106E+01  0.51100000000E-03 0. -1.
        -11    1    3    3    0    0  0.31400526037E+02 -0.21121289438E+02  0.21443898142E+02  0.43496467336E+02  0.51100000000E-03 0.  1.
        -12    1    3    3    0    0 -0.42906216343E+01  0.11764763233E+01 -0.55135386251E+00  0.44830259457E+01  0.00000000000E+00 0.  1.
</event>
<event>
 7    1  0.4374874E-012  0.5052886E+02  0.7816164E-02  0.1300439E+00
        -11   -1    0    0    0    0  0.00000000000E+00  0.00000000000E+00  0.45593999997E+02  0.45594000000E+02  0.51100000000E-03 0. -1.
         11   -1    0    0    0    0 -0.00000000000E+00 -0.00000000000E+00 -0.45593999997E+02  0.45594000000E+02  0.51100000000E-03 0.  1.
    9900012    2    1    2    0    0 -0.24794722575E+02  0.40288076029E+01 -0.31971180705E+02  0.50528856453E+02  0.29999989676E+02 0.  0.
         12    1    1    2    0    0  0.24794722575E+02 -0.40288076029E+01  0.31971180705E+02  0.40659143547E+02  0.00000000000E+00 0. -1.
         11    1    3    3    0    0  0.26523053136E+01 -0.37247407445E+01 -0.50287799249E+01  0.67968408017E+01  0.51100000000E-03 0. -1.
        -11    1    3    3    0    0 -0.57003911733E+01  0.53351631914E+00 -0.18412306148E+02  0.19281911657E+02  0.51100000000E-03 0.  1.
         12    1    3    3    0    0 -0.21746636715E+02  0.72200320282E+01 -0.85300946314E+01  0.24450103995E+02  0.00000000000E+00 0. -1.
</event>
<event>
 7    1  0.4374874E-012  0.5052886E+02  0.7816164E-02  0.1300439E+00
        -11   -1    0    0    0    0  0.00000000000E+00  0.00000000000E+00  0.45593999997E+02  0.45594000000E+02  0.51100000000E-03 0. -1.
         11   -1    0    0    0    0 -0.00000000000E+00 -0.00000000000E+00 -0.45593999997E+02  0.45594000000E+02  0.51100000000E-03 0.  1.
    9900012    2    1    2    0    0  0.21353300480E+02 -0.22633557303E+02  0.26171065412E+02  0.50528855612E+02  0.29999987118E+02 0.  0.
        -12    1    1    2    0    0 -0.21353300480E+02  0.22633557303E+02 -0.26171065412E+02  0.40659144388E+02  0.00000000000E+00 0.  1.
         11    1    3    3    0    0  0.19404280624E+02 -0.15204066123E+02  0.13515670411E+02  0.28113396808E+02  0.51100000000E-03 0. -1.
        -11    1    3    3    0    0  0.78683378214E+01  0.11466287254E+01  0.67993720008E+01  0.10462167910E+02  0.51100000000E-03 0.  1.
         12    1    3    3    0    0 -0.59193179653E+01 -0.85761199060E+01  0.58560230003E+01  0.11953290894E+02  0.00000000000E+00 0. -1.
</event>
<event>
 7    1  0.4374874E-012  0.5052882E+02  0.7816164E-02  0.1300439E+00
        -11   -1    0    0    0    0  0.00000000000E+00  0.00000000000E+00  0.45593999997E+02  0.45594000000E+02  0.51100000000E-03 0.  1.
         11   -1    0    0    0    0 -0.00000000000E+00 -0.00000000000E+00 -0.45593999997E+02  0.45594000000E+02  0.51100000000E-03 0. -1.
    9900012    2    1    2    0    0 -0.34095761372E+02  0.84517923048E+01 -0.20474744151E+02  0.50528820412E+02  0.29999880125E+02 0.  0.
         12    1    1    2    0    0  0.34095761372E+02 -0.84517923048E+01  0.20474744151E+02  0.40659179588E+02  0.00000000000E+00 0. -1.
         11    1    3    3    0    0 -0.57364726214E+01  0.63911255699E+01 -0.85636790335E+01  0.12128074993E+02  0.51100000000E-03 0. -1.
        -11    1    3    3    0    0 -0.28834786782E+02  0.80699468427E+01 -0.12276245106E+02  0.32361631062E+02  0.51100000000E-03 0.  1.
         12    1    3    3    0    0  0.47549803196E+00 -0.60092801079E+01  0.36517998822E+00  0.60391143570E+01  0.00000000000E+00 0. -1.
</event>
<event>
 7    1  0.4374874E-012  0.5052886E+02  0.7816164E-02  0.1300439E+00
        -11   -1    0    0    0    0  0.00000000000E+00  0.00000000000E+00  0.45593999997E+02  0.45594000000E+02  0.51100000000E-03 0. -1.
         11   -1    0    0    0    0 -0.00000000000E+00 -0.00000000000E+00 -0.45593999997E+02  0.45594000000E+02  0.51100000000E-03 0.  1.
    9900012    2    1    2    0    0 -0.32323583401E+02  0.24428237600E+00  0.24663578627E+02  0.50528857997E+02  0.29999994368E+02 0.  0.
        -12    1    1    2    0    0  0.32323583401E+02 -0.24428237600E+00 -0.24663578627E+02  0.40659142003E+02  0.00000000000E+00 0.  1.
         11    1    3    3    0    0 -0.28865686421E+01  0.50002623683E+01  0.15047771456E+02  0.16117392107E+02  0.51100000000E-03 0. -1.
        -11    1    3    3    0    0 -0.87742389504E+01  0.50768015495E+01  0.35133329814E+01  0.10728685475E+02  0.51100000000E-03 0.  1.
        -12    1    3    3    0    0 -0.20662775808E+02 -0.98327815419E+01  0.61024741891E+01  0.23682780415E+02  0.00000000000E+00 0.  1.
</event>
<event>
 7    1  0.4374874E-012  0.5052886E+02  0.7816164E-02  0.1300439E+00
        -11   -1    0    0    0    0  0.00000000000E+00  0.00000000000E+00  0.45593999997E+02  0.45594000000E+02  0.51100000000E-03 0. -1.
         11   -1    0    0    0    0 -0.00000000000E+00 -0.00000000000E+00 -0.45593999997E+02  0.45594000000E+02  0.51100000000E-03 0.  1.
    9900012    2    1    2    0    0 -0.11491444301E+02  0.33450235270E+02 -0.20054777065E+02  0.50528860623E+02  0.30000002350E+02 0.  0.
         12    1    1    2    0    0  0.11491444301E+02 -0.33450235270E+02  0.20054777065E+02  0.40659139377E+02  0.00000000000E+00 0. -1.
         11    1    3    3    0    0 -0.15933534779E+02  0.16659511684E+02 -0.14164971064E+02  0.27056667674E+02  0.51100000000E-03 0. -1.
        -11    1    3    3    0    0 -0.43347578950E+01  0.75388179330E+01  0.13614122738E+01  0.88021216462E+01  0.51100000000E-03 0.  1.
         12    1    3    3    0    0  0.87768483732E+01  0.92519056535E+01 -0.72512182743E+01  0.14670071303E+02  0.00000000000E+00 0. -1.
</event>
<event>
 7    1  0.4381395E-012  0.5052886E+02  0.7816164E-02  0.1300439E+00
        -11   -1    0    0    0    0  0.00000000000E+00  0.00000000000E+00  0.45593999997E+02  0.45594000000E+02  0.51100000000E-03 0. -1.
         11   -1    0    0    0    0 -0.00000000000E+00 -0.00000000000E+00 -0.45593999997E+02  0.45594000000E+02  0.51100000000E-03 0.  1.
    9900012    2    1    2    0    0  0.15423122525E+02  0.19352076152E+02 -0.32261272655E+02  0.50528864826E+02  0.30000015124E+02 0.  0.
         12    1    1    2    0    0 -0.15423122525E+02 -0.19352076152E+02  0.32261272655E+02  0.40659135174E+02  0.00000000000E+00 0. -1.
         11    1    3    3    0    0  0.28884702129E+01 -0.39375083035E+01 -0.85826265483E+01  0.98746498945E+01  0.51100000000E-03 0. -1.
        -11    1    3    3    0    0  0.34256349786E+01  0.92608166317E+01 -0.21662181594E+02  0.23806465747E+02  0.51100000000E-03 0.  1.
         12    1    3    3    0    0  0.91090173336E+01  0.14028767824E+02 -0.20164645127E+01  0.16847749184E+02  0.00000000000E+00 0. -1.
</event>
<event>
 7    1  0.4374874E-012  0.5052886E+02  0.7816164E-02  0.1300439E+00
        -11   -1    0    0    0    0  0.00000000000E+00  0.00000000000E+00  0.45593999997E+02  0.45594000000E+02  0.51100000000E-03 0. -1.
         11   -1    0    0    0    0 -0.00000000000E+00 -0.00000000000E+00 -0.45593999997E+02  0.45594000000E+02  0.51100000000E-03 0.  1.
    9900012    2    1    2    0    0  0.86381538806E+01  0.20718169622E+02  0.33901409274E+02  0.50528858276E+02  0.29999995216E+02 0.  0.
        -12    1    1    2    0    0 -0.86381538806E+01 -0.20718169622E+02 -0.33901409274E+02  0.40659141724E+02  0.00000000000E+00 0.  1.
         11    1    3    3    0    0  0.54785337760E+00  0.91378154557E+01  0.19862529989E+02  0.21870526113E+02  0.51100000000E-03 0. -1.
        -11    1    3    3    0    0  0.12915292263E+02  0.11886511563E+02  0.15696593416E+02  0.23547334807E+02  0.51100000000E-03 0.  1.
        -12    1    3    3    0    0 -0.48249917605E+01 -0.30615739664E+00 -0.16577141307E+01  0.51109973566E+01  0.00000000000E+00 0.  1.
</event>
<event>
 7    1  0.4374874E-012  0.5052886E+02  0.7816164E-02  0.1300439E+00
        -11   -1    0    0    0    0  0.00000000000E+00  0.00000000000E+00  0.45593999997E+02  0.45594000000E+02  0.51100000000E-03 0. -1.
         11   -1    0    0    0    0 -0.00000000000E+00 -0.00000000000E+00 -0.45593999997E+02  0.45594000000E+02  0.51100000000E-03 0.  1.
    9900012    2    1    2    0    0 -0.45277366387E+01  0.24644923289E+02  0.32020191469E+02  0.50528864437E+02  0.30000013943E+02 0.  0.
        -12    1    1    2    0    0  0.45277366387E+01 -0.24644923289E+02 -0.32020191469E+02  0.40659135563E+02  0.00000000000E+00 0.  1.
         11    1    3    3    0    0  0.43219908215E+01  0.16609162148E+02  0.10121529603E+02  0.19924588671E+02  0.51100000000E-03 0. -1.
        -11    1    3    3    0    0 -0.46145102621E+01  0.73110592793E+01  0.37259351094E+00  0.86535610548E+01  0.51100000000E-03 0.  1.
         12    1    3    3    0    0 -0.42352171981E+01  0.72470186154E+00  0.21526068356E+02  0.21950714712E+02  0.00000000000E+00 0. -1.
</event>
<event>
 7    1  0.4374874E-012  0.5052886E+02  0.7816164E-02  0.1300439E+00
        -11   -1    0    0    0    0  0.00000000000E+00  0.00000000000E+00  0.45593999997E+02  0.45594000000E+02  0.51100000000E-03 0. -1.
         11   -1    0    0    0    0 -0.00000000000E+00 -0.00000000000E+00 -0.45593999997E+02  0.45594000000E+02  0.51100000000E-03 0.  1.
    9900012    2    1    2    0    0  0.28974051429E+02  0.22885509226E+02  0.17027137305E+02  0.50528860885E+02  0.30000003147E+02 0.  0.
        -12    1    1    2    0    0 -0.28974051429E+02 -0.22885509226E+02 -0.17027137305E+02  0.40659139115E+02  0.00000000000E+00 0.  1.
         11    1    3    3    0    0  0.10792005343E+02  0.27421503844E+01 -0.50661566845E+01  0.12233262519E+02  0.51100000000E-03 0. -1.
        -11    1    3    3    0    0  0.72489927578E+01  0.58353630141E+00  0.11264800803E+02  0.13408361123E+02  0.51100000000E-03 0.  1.
         12    1    3    3    0    0  0.10933053328E+02  0.19559822540E+02  0.10828493187E+02  0.24887237243E+02  0.00000000000E+00 0. -1.
</event>
<event>
 7    1  0.4374874E-012  0.5052886E+02  0.7816164E-02  0.1300439E+00
        -11   -1    0    0    0    0  0.00000000000E+00  0.00000000000E+00  0.45593999997E+02  0.45594000000E+02  0.51100000000E-03 0. -1.
         11   -1    0    0    0    0 -0.00000000000E+00 -0.00000000000E+00 -0.45593999997E+02  0.45594000000E+02  0.51100000000E-03 0.  1.
    9900012    2    1    2    0    0  0.66509572466E+01 -0.29953823376E+00  0.40110355062E+02  0.50528861560E+02  0.30000005198E+02 0.  0.
        -12    1    1    2    0    0 -0.66509572466E+01  0.29953823376E+00 -0.40110355062E+02  0.40659138440E+02  0.00000000000E+00 0.  1.
         11    1    3    3    0    0  0.50694897822E+01  0.76655040050E+01  0.15986715178E+02  0.18440030932E+02  0.51100000000E-03 0. -1.
        -11    1    3    3    0    0 -0.79260644389E+01  0.81894444659E+00  0.11636781135E+02  0.14103469181E+02  0.51100000000E-03 0.  1.
         12    1    3    3    0    0  0.95075319034E+01 -0.87839866853E+01  0.12486858749E+02  0.17985361448E+02  0.00000000000E+00 0. -1.
</event>
<event>
 7    1  0.4374874E-012  0.5052886E+02  0.7816164E-02  0.1300439E+00
        -11   -1    0    0    0    0  0.00000000000E+00  0.00000000000E+00  0.45593999997E+02  0.45594000000E+02  0.51100000000E-03 0. -1.
         11   -1    0    0    0    0 -0.00000000000E+00 -0.00000000000E+00 -0.45593999997E+02  0.45594000000E+02  0.51100000000E-03 0.  1.
    9900012    2    1    2    0    0 -0.18867103506E+01  0.22205074309E+02  0.34007951024E+02  0.50528859160E+02  0.29999997904E+02 0.  0.
        -12    1    1    2    0    0  0.18867103506E+01 -0.22205074309E+02 -0.34007951024E+02  0.40659140840E+02  0.00000000000E+00 0.  1.
         11    1    3    3    0    0  0.57689046268E+01  0.22691203564E+02  0.26674453760E+02  0.35492216941E+02  0.51100000000E-03 0. -1.
        -11    1    3    3    0    0 -0.77736801783E+01  0.31762633967E+01  0.76487763440E+01  0.11358808586E+02  0.51100000000E-03 0.  1.
        -12    1    3    3    0    0  0.11806520099E+00 -0.36623926522E+01 -0.31527907995E+00  0.36778336326E+01  0.00000000000E+00 0.  1.
</event>
<event>
 7    1  0.4374874E-012  0.5052884E+02  0.7816164E-02  0.1300439E+00
        -11   -1    0    0    0    0  0.00000000000E+00  0.00000000000E+00  0.45593999997E+02  0.45594000000E+02  0.51100000000E-03 0. -1.
         11   -1    0    0    0    0 -0.00000000000E+00 -0.00000000000E+00 -0.45593999997E+02  0.45594000000E+02  0.51100000000E-03 0.  1.
    9900012    2    1    2    0    0  0.24859891740E+02 -0.15550674983E+02 -0.28166107315E+02  0.50528839764E+02  0.29999938948E+02 0.  0.
         12    1    1    2    0    0 -0.24859891740E+02  0.15550674983E+02  0.28166107315E+02  0.40659160236E+02  0.00000000000E+00 0. -1.
         11    1    3    3    0    0 -0.19975955700E+01  0.28185440185E+01 -0.25847174386E+01  0.43145501439E+01  0.51100000000E-03 0. -1.
        -11    1    3    3    0    0  0.73930011673E+01 -0.71023748589E+01 -0.20846720200E+02  0.23231141562E+02  0.51100000000E-03 0.  1.
         12    1    3    3    0    0  0.19464486143E+02 -0.11266844143E+02 -0.47346696765E+01  0.22983148059E+02  0.00000000000E+00 0. -1.
</event>
<event>
 7    1  0.4374874E-012  0.5052886E+02  0.7816164E-02  0.1300439E+00
        -11   -1    0    0    0    0  0.00000000000E+00  0.00000000000E+00  0.45593999997E+02  0.45594000000E+02  0.51100000000E-03 0. -1.
         11   -1    0    0    0    0 -0.00000000000E+00 -0.00000000000E+00 -0.45593999997E+02  0.45594000000E+02  0.51100000000E-03 0.  1.
    9900012    2    1    2    0    0 -0.11043109414E+02 -0.26831547168E+02  0.28483036627E+02  0.50528861244E+02  0.30000004236E+02 0.  0.
        -12    1    1    2    0    0  0.11043109414E+02  0.26831547168E+02 -0.28483036627E+02  0.40659138756E+02  0.00000000000E+00 0.  1.
         11    1    3    3    0    0  0.21332090241E+01 -0.81528804164E+01 -0.13647115745E+01  0.85371235066E+01  0.51100000000E-03 0. -1.
        -11    1    3    3    0    0 -0.61321248358E+01  0.29273134705E+01  0.74687892159E+01  0.10097273482E+02  0.51100000000E-03 0.  1.
         12    1    3    3    0    0 -0.70441936022E+01 -0.21605980222E+02  0.22378958985E+02  0.31894464255E+02  0.00000000000E+00 0. -1.
</event>
<event>
 7    1  0.4374874E-012  0.5052887E+02  0.7816164E-02  0.1300439E+00
        -11   -1    0    0    0    0  0.00000000000E+00  0.00000000000E+00  0.45593999997E+02  0.45594000000E+02  0.51100000000E-03 0. -1.
         11   -1    0    0    0    0 -0.00000000000E+00 -0.00000000000E+00 -0.45593999997E+02  0.45594000000E+02  0.51100000000E-03 0.  1.
    9900012    2    1    2    0    0  0.55415112420E+01 -0.25478300691E+02  0.31197961864E+02  0.50528868462E+02  0.30000026176E+02 0.  0.
        -12    1    1    2    0    0 -0.55415112420E+01  0.25478300691E+02 -0.31197961864E+02  0.40659131538E+02  0.00000000000E+00 0.  1.
         11    1    3    3    0    0  0.12571089301E+02 -0.25670408131E+01  0.17903883454E+02  0.22026598188E+02  0.51100000000E-03 0.  1.
        -11    1    3    3    0    0  0.14095652736E+01 -0.63426534111E+01  0.46946850762E+01  0.80159961814E+01  0.51100000000E-03 0. -1.
        -12    1    3    3    0    0 -0.84391433330E+01 -0.16568606467E+02  0.85993933343E+01  0.20486274092E+02  0.00000000000E+00 0.  1.
</event>
<event>
 7    1  0.4374874E-012  0.5052885E+02  0.7816164E-02  0.1300439E+00
        -11   -1    0    0    0    0  0.00000000000E+00  0.00000000000E+00  0.45593999997E+02  0.45594000000E+02  0.51100000000E-03 0. -1.
         11   -1    0    0    0    0 -0.00000000000E+00 -0.00000000000E+00 -0.45593999997E+02  0.45594000000E+02  0.51100000000E-03 0.  1.
    9900012    2    1    2    0    0  0.61246403270E+01 -0.11773150971E+01  0.40177968399E+02  0.50528850542E+02  0.29999971707E+02 0.  0.
        -12    1    1    2    0    0 -0.61246403270E+01  0.11773150971E+01 -0.40177968399E+02  0.40659149458E+02  0.00000000000E+00 0.  1.
         11    1    3    3    0    0  0.13708174546E+02  0.34802599083E+01  0.27169795210E+02  0.30630442870E+02  0.51100000000E-03 0. -1.
        -11    1    3    3    0    0 -0.22798134930E+00  0.29391502822E+00 -0.22340066070E+01  0.22647620892E+01  0.51100000000E-03 0.  1.
        -12    1    3    3    0    0 -0.73555528702E+01 -0.49514900337E+01  0.15242179797E+02  0.17633645583E+02  0.00000000000E+00 0.  1.
</event>
<event>
 7    1  0.4374874E-012  0.5052886E+02  0.7816164E-02  0.1300439E+00
        -11   -1    0    0    0    0  0.00000000000E+00  0.00000000000E+00  0.45593999997E+02  0.45594000000E+02  0.51100000000E-03 0. -1.
         11   -1    0    0    0    0 -0.00000000000E+00 -0.00000000000E+00 -0.45593999997E+02  0.45594000000E+02  0.51100000000E-03 0.  1.
    9900012    2    1    2    0    0  0.77462740078E+01 -0.83636960789E+01 -0.39028313519E+02  0.50528862905E+02  0.30000009287E+02 0.  0.
         12    1    1    2    0    0 -0.77462740078E+01  0.83636960789E+01  0.39028313519E+02  0.40659137095E+02  0.00000000000E+00 0. -1.
         11    1    3    3    0    0  0.16224572519E+02 -0.59285130118E+00 -0.19714233009E+02  0.25538974323E+02  0.51100000000E-03 0. -1.
        -11    1    3    3    0    0  0.87438230929E+00  0.16288486860E+01 -0.56705907428E+01  0.59643350088E+01  0.51100000000E-03 0.  1.
         12    1    3    3    0    0 -0.93526808203E+01 -0.93996934636E+01 -0.13643489767E+02  0.19025553573E+02  0.00000000000E+00 0. -1.
</event>
<event>
 7    1  0.4374874E-012  0.5052886E+02  0.7816164E-02  0.1300439E+00
        -11   -1    0    0    0    0  0.00000000000E+00  0.00000000000E+00  0.45593999997E+02  0.45594000000E+02  0.51100000000E-03 0. -1.
         11   -1    0    0    0    0 -0.00000000000E+00 -0.00000000000E+00 -0.45593999997E+02  0.45594000000E+02  0.51100000000E-03 0.  1.
    9900012    2    1    2    0    0  0.22380180976E+02 -0.31479107234E+02  0.12702730736E+02  0.50528855138E+02  0.29999985677E+02 0.  0.
        -12    1    1    2    0    0 -0.22380180976E+02  0.31479107234E+02 -0.12702730736E+02  0.40659144862E+02  0.00000000000E+00 0.  1.
         11    1    3    3    0    0 -0.28253577676E+01 -0.12403923198E+02  0.29984202775E+01  0.13070213527E+02  0.51100000000E-03 0. -1.
        -11    1    3    3    0    0  0.17607545382E+02 -0.10864162417E+02 -0.25730447091E+01  0.20848890588E+02  0.51100000000E-03 0.  1.
         12    1    3    3    0    0  0.75979933617E+01 -0.82110216197E+01  0.12277355167E+02  0.16609751024E+02  0.00000000000E+00 0. -1.
</event>
<event>
 7    1  0.4374874E-012  0.5052882E+02  0.7816164E-02  0.1300439E+00
        -11   -1    0    0    0    0  0.00000000000E+00  0.00000000000E+00  0.45593999997E+02  0.45594000000E+02  0.51100000000E-03 0.  1.
         11   -1    0    0    0    0 -0.00000000000E+00 -0.00000000000E+00 -0.45593999997E+02  0.45594000000E+02  0.51100000000E-03 0. -1.
    9900012    2    1    2    0    0 -0.34707465485E+02 -0.70040768916E+01  0.19987588046E+02  0.50528819863E+02  0.29999878457E+02 0.  0.
        -12    1    1    2    0    0  0.34707465485E+02  0.70040768916E+01 -0.19987588046E+02  0.40659180137E+02  0.00000000000E+00 0.  1.
         11    1    3    3    0    0  0.23292481501E+01 -0.20767883120E+01 -0.27201833946E+01  0.41397879896E+01  0.51100000000E-03 0. -1.
        -11    1    3    3    0    0 -0.11298979839E+02  0.20045292256E+01  0.16000165839E+00  0.11476527507E+02  0.51100000000E-03 0.  1.
        -12    1    3    3    0    0 -0.25737733796E+02 -0.69318178052E+01  0.22547769782E+02  0.34912504367E+02  0.00000000000E+00 0.  1.
</event>
<event>
 7    1  0.4374874E-012  0.5052887E+02  0.7816164E-02  0.1300439E+00
        -11   -1    0    0    0    0  0.00000000000E+00  0.00000000000E+00  0.45593999997E+02  0.45594000000E+02  0.51100000000E-03 0. -1.
         11   -1    0    0    0    0 -0.00000000000E+00 -0.00000000000E+00 -0.45593999997E+02  0.45594000000E+02  0.51100000000E-03 0.  1.
    9900012    2    1    2    0    0 -0.22089671730E+02 -0.30801229583E+02  0.14713781524E+02  0.50528871779E+02  0.30000036259E+02 0.  0.
        -12    1    1    2    0    0  0.22089671730E+02  0.30801229583E+02 -0.14713781524E+02  0.40659128221E+02  0.00000000000E+00 0.  1.
         11    1    3    3    0    0 -0.54768056842E+01 -0.30018629185E+01  0.16268419409E+01  0.64539287605E+01  0.51100000000E-03 0. -1.
        -11    1    3    3    0    0  0.30918441674E+01  0.20531653055E+01  0.68146299840E+01  0.77597790050E+01  0.51100000000E-03 0.  1.
        -12    1    3    3    0    0 -0.19704710213E+02 -0.29852531970E+02  0.62723095987E+01  0.36315164013E+02  0.00000000000E+00 0.  1.
</event>
<event>
 7    1  0.4374874E-012  0.5052886E+02  0.7816164E-02  0.1300439E+00
        -11   -1    0    0    0    0  0.00000000000E+00  0.00000000000E+00  0.45593999997E+02  0.45594000000E+02  0.51100000000E-03 0.  1.
         11   -1    0    0    0    0 -0.00000000000E+00 -0.00000000000E+00 -0.45593999997E+02  0.45594000000E+02  0.51100000000E-03 0. -1.
    9900012    2    1    2    0    0 -0.15362478861E+02  0.36342323947E+02 -0.98180954253E+01  0.50528864933E+02  0.30000015450E+02 0.  0.
        -12    1    1    2    0    0  0.15362478861E+02 -0.36342323947E+02  0.98180954253E+01  0.40659135067E+02  0.00000000000E+00 0.  1.
         11    1    3    3    0    0 -0.52162999815E+01  0.13631014850E+01  0.39413232274E+01  0.66784624128E+01  0.51100000000E-03 0. -1.
        -11    1    3    3    0    0  0.58700404196E+01  0.57967698436E+01 -0.15554593417E+01  0.83951991741E+01  0.51100000000E-03 0.  1.
         12    1    3    3    0    0 -0.16016219299E+02  0.29182452618E+02 -0.12203959311E+02  0.35455203346E+02  0.00000000000E+00 0. -1.
</event>
<event>
 7    1  0.4374874E-012  0.5052886E+02  0.7816164E-02  0.1300439E+00
        -11   -1    0    0    0    0  0.00000000000E+00  0.00000000000E+00  0.45593999997E+02  0.45594000000E+02  0.51100000000E-03 0.  1.
         11   -1    0    0    0    0 -0.00000000000E+00 -0.00000000000E+00 -0.45593999997E+02  0.45594000000E+02  0.51100000000E-03 0. -1.
    9900012    2    1    2    0    0  0.21227375567E+02 -0.32154945146E+02 -0.12985519881E+02  0.50528859608E+02  0.29999999265E+02 0.  0.
         12    1    1    2    0    0 -0.21227375567E+02  0.32154945146E+02  0.12985519881E+02  0.40659140392E+02  0.00000000000E+00 0. -1.
         11    1    3    3    0    0 -0.44217864179E+01 -0.10064627104E+02  0.16688636805E+01  0.11119083601E+02  0.51100000000E-03 0. -1.
        -11    1    3    3    0    0  0.65417219383E+00 -0.20644768045E+01  0.23100917840E+01  0.31664696504E+01  0.51100000000E-03 0.  1.
        -12    1    3    3    0    0  0.24994989791E+02 -0.20025841237E+02 -0.16964475346E+02  0.36243306357E+02  0.00000000000E+00 0.  1.
</event>
<event>
 7    1  0.4374874E-012  0.5052886E+02  0.7816164E-02  0.1300439E+00
        -11   -1    0    0    0    0  0.00000000000E+00  0.00000000000E+00  0.45593999997E+02  0.45594000000E+02  0.51100000000E-03 0. -1.
         11   -1    0    0    0    0 -0.00000000000E+00 -0.00000000000E+00 -0.45593999997E+02  0.45594000000E+02  0.51100000000E-03 0.  1.
    9900012    2    1    2    0    0  0.51870458912E+01  0.23352077185E+02 -0.32877664458E+02  0.50528858665E+02  0.29999996398E+02 0.  0.
         12    1    1    2    0    0 -0.51870458912E+01 -0.23352077185E+02  0.32877664458E+02  0.40659141335E+02  0.00000000000E+00 0. -1.
         11    1    3    3    0    0  0.32154057096E+01  0.35760867758E+01 -0.73833574555E+01  0.88114242936E+01  0.51100000000E-03 0.  1.
        -11    1    3    3    0    0 -0.97962925355E+01  0.46691671845E+00 -0.42422354353E+01  0.10685594060E+02  0.51100000000E-03 0. -1.
         12    1    3    3    0    0  0.11767932717E+02  0.19309073691E+02 -0.21252071567E+02  0.31031840311E+02  0.00000000000E+00 0. -1.
</event>
<event>
 7    1  0.4374874E-012  0.5052885E+02  0.7816164E-02  0.1300439E+00
        -11   -1    0    0    0    0  0.00000000000E+00  0.00000000000E+00  0.45593999997E+02  0.45594000000E+02  0.51100000000E-03 0. -1.
         11   -1    0    0    0    0 -0.00000000000E+00 -0.00000000000E+00 -0.45593999997E+02  0.45594000000E+02  0.51100000000E-03 0.  1.
    9900012    2    1    2    0    0 -0.30991769254E+02  0.24423059288E+02 -0.98076896129E+01  0.50528851435E+02  0.29999974421E+02 0.  0.
         12    1    1    2    0    0  0.30991769254E+02 -0.24423059288E+02  0.98076896129E+01  0.40659148565E+02  0.00000000000E+00 0. -1.
         11    1    3    3    0    0 -0.82033370700E+01 -0.21031400687E+01  0.45879864585E+01  0.96315916253E+01  0.51100000000E-03 0. -1.
        -11    1    3    3    0    0 -0.10110608118E+02  0.26075654101E+01 -0.78037534534E+01  0.13035427193E+02  0.51100000000E-03 0.  1.
        -12    1    3    3    0    0 -0.12677824066E+02  0.23918633947E+02 -0.65919226180E+01  0.27861832616E+02  0.00000000000E+00 0.  1.
</event>
<event>
 7    1  0.4374874E-012  0.5052886E+02  0.7816164E-02  0.1300439E+00
        -11   -1    0    0    0    0  0.00000000000E+00  0.00000000000E+00  0.45593999997E+02  0.45594000000E+02  0.51100000000E-03 0. -1.
         11   -1    0    0    0    0 -0.00000000000E+00 -0.00000000000E+00 -0.45593999997E+02  0.45594000000E+02  0.51100000000E-03 0.  1.
    9900012    2    1    2    0    0  0.15762455761E+02  0.29849932145E+02  0.22664778950E+02  0.50528860000E+02  0.30000000457E+02 0.  0.
        -12    1    1    2    0    0 -0.15762455761E+02 -0.29849932145E+02 -0.22664778950E+02  0.40659140000E+02  0.00000000000E+00 0.  1.
         11    1    3    3    0    0  0.14615608249E+01 -0.18635996307E+00  0.10839054494E+02  0.10938738167E+02  0.51100000000E-03 0. -1.
        -11    1    3    3    0    0  0.10307653096E+02  0.10100551856E+02  0.12722254972E+02  0.19238623443E+02  0.51100000000E-03 0.  1.
        -12    1    3    3    0    0  0.39932418405E+01  0.19935740252E+02 -0.89653051712E+00  0.20351498391E+02  0.00000000000E+00 0.  1.
</event>
<event>
 7    1  0.4374874E-012  0.5052886E+02  0.7816164E-02  0.1300439E+00
        -11   -1    0    0    0    0  0.00000000000E+00  0.00000000000E+00  0.45593999997E+02  0.45594000000E+02  0.51100000000E-03 0. -1.
         11   -1    0    0    0    0 -0.00000000000E+00 -0.00000000000E+00 -0.45593999997E+02  0.45594000000E+02  0.51100000000E-03 0.  1.
    9900012    2    1    2    0    0  0.20173511923E+02  0.22269651517E+02  0.27390829636E+02  0.50528861911E+02  0.30000006264E+02 0.  0.
        -12    1    1    2    0    0 -0.20173511923E+02 -0.22269651517E+02 -0.27390829636E+02  0.40659138089E+02  0.00000000000E+00 0.  1.
         11    1    3    3    0    0 -0.12705986658E+01 -0.41995036151E+00  0.91911370830E+01  0.92880450266E+01  0.51100000000E-03 0.  1.
        -11    1    3    3    0    0  0.23206934000E+02  0.11928471616E+02  0.13273178886E+02  0.29275032003E+02  0.51100000000E-03 0. -1.
         12    1    3    3    0    0 -0.17628234112E+01  0.10761130263E+02  0.49265136667E+01  0.11965784881E+02  0.00000000000E+00 0. -1.
</event>
<event>
 7    1  0.4374874E-012  0.5052888E+02  0.7816164E-02  0.1300439E+00
        -11   -1    0    0    0    0  0.00000000000E+00  0.00000000000E+00  0.45593999997E+02  0.45594000000E+02  0.51100000000E-03 0. -1.
         11   -1    0    0    0    0 -0.00000000000E+00 -0.00000000000E+00 -0.45593999997E+02  0.45594000000E+02  0.51100000000E-03 0.  1.
    9900012    2    1    2    0    0 -0.24010242909E+02  0.11927918436E+02  0.30567914752E+02  0.50528875378E+02  0.30000047198E+02 0.  0.
        -12    1    1    2    0    0  0.24010242909E+02 -0.11927918436E+02 -0.30567914752E+02  0.40659124622E+02  0.00000000000E+00 0.  1.
         11    1    3    3    0    0  0.10572102638E+01  0.60217092906E+01  0.12146957940E+02  0.13598796410E+02  0.51100000000E-03 0.  1.
        -11    1    3    3    0    0 -0.87779687655E+01  0.33290956311E+01 -0.30365630347E+01  0.98669310677E+01  0.51100000000E-03 0. -1.
         12    1    3    3    0    0 -0.16289484407E+02  0.25771135146E+01  0.21457519846E+02  0.27063147900E+02  0.00000000000E+00 0. -1.
</event>
<event>
 7    1  0.4374874E-012  0.5052886E+02  0.7816164E-02  0.1300439E+00
        -11   -1    0    0    0    0  0.00000000000E+00  0.00000000000E+00  0.45593999997E+02  0.45594000000E+02  0.51100000000E-03 0. -1.
         11   -1    0    0    0    0 -0.00000000000E+00 -0.00000000000E+00 -0.45593999997E+02  0.45594000000E+02  0.51100000000E-03 0.  1.
    9900012    2    1    2    0    0 -0.10440352294E+02  0.70681150608E+01 -0.38654968131E+02  0.50528858744E+02  0.29999996637E+02 0.  0.
         12    1    1    2    0    0  0.10440352294E+02 -0.70681150608E+01  0.38654968131E+02  0.40659141256E+02  0.00000000000E+00 0. -1.
         11    1    3    3    0    0 -0.56988616327E+01  0.81343580951E+01 -0.40709626738E+01  0.10733943492E+02  0.51100000000E-03 0.  1.
        -11    1    3    3    0    0 -0.33705387495E+01 -0.36000701106E+01  0.15751279453E+00  0.49341510723E+01  0.51100000000E-03 0. -1.
        -12    1    3    3    0    0 -0.13709519113E+01  0.25338270764E+01 -0.34741518251E+02  0.34860764180E+02  0.00000000000E+00 0.  1.
</event>
<event>
 7    1  0.4374874E-012  0.5052881E+02  0.7816164E-02  0.1300439E+00
        -11   -1    0    0    0    0  0.00000000000E+00  0.00000000000E+00  0.45593999997E+02  0.45594000000E+02  0.51100000000E-03 0. -1.
         11   -1    0    0    0    0 -0.00000000000E+00 -0.00000000000E+00 -0.45593999997E+02  0.45594000000E+02  0.51100000000E-03 0.  1.
    9900012    2    1    2    0    0  0.28027539856E+02  0.27480386579E+02 -0.10604466312E+02  0.50528814781E+02  0.29999863009E+02 0.  0.
         12    1    1    2    0    0 -0.28027539856E+02 -0.27480386579E+02  0.10604466312E+02  0.40659185219E+02  0.00000000000E+00 0. -1.
         11    1    3    3    0    0  0.12273477958E+02  0.23650349706E+02 -0.56372802246E+00  0.26651361915E+02  0.51100000000E-03 0. -1.
        -11    1    3    3    0    0  0.67595040242E+01  0.69243219030E+01 -0.10595612283E+02  0.14349359860E+02  0.51100000000E-03 0.  1.
        -12    1    3    3    0    0  0.89945578740E+01 -0.30942850299E+01  0.55487399364E+00  0.95280930067E+01  0.00000000000E+00 0.  1.
</event>
<event>
 7    1  0.4374874E-012  0.5052887E+02  0.7816164E-02  0.1300439E+00
        -11   -1    0    0    0    0  0.00000000000E+00  0.00000000000E+00  0.45593999997E+02  0.45594000000E+02  0.51100000000E-03 0.  1.
         11   -1    0    0    0    0 -0.00000000000E+00 -0.00000000000E+00 -0.45593999997E+02  0.45594000000E+02  0.51100000000E-03 0. -1.
    9900012    2    1    2    0    0  0.36837626523E+02  0.30338905402E+00 -0.17206465186E+02  0.50528865516E+02  0.30000017223E+02 0.  0.
         12    1    1    2    0    0 -0.36837626523E+02 -0.30338905402E+00  0.17206465186E+02  0.40659134484E+02  0.00000000000E+00 0. -1.
         11    1    3    3    0    0  0.83319463094E+01 -0.85378535769E+01 -0.13469920135E+02  0.17993193760E+02  0.51100000000E-03 0. -1.
        -11    1    3    3    0    0  0.21898788233E+02  0.44693806796E+01 -0.77486192455E+01  0.23655303638E+02  0.51100000000E-03 0.  1.
         12    1    3    3    0    0  0.66068919806E+01  0.43718619513E+01  0.40120741943E+01  0.88803681176E+01  0.00000000000E+00 0. -1.
</event>
<event>
 7    1  0.4374874E-012  0.5052886E+02  0.7816164E-02  0.1300439E+00
        -11   -1    0    0    0    0  0.00000000000E+00  0.00000000000E+00  0.45593999997E+02  0.45594000000E+02  0.51100000000E-03 0. -1.
         11   -1    0    0    0    0 -0.00000000000E+00 -0.00000000000E+00 -0.45593999997E+02  0.45594000000E+02  0.51100000000E-03 0.  1.
    9900012    2    1    2    0    0  0.12854626231E+02 -0.18518553670E+01  0.38529143643E+02  0.50528859653E+02  0.29999999402E+02 0.  0.
        -12    1    1    2    0    0 -0.12854626231E+02  0.18518553670E+01 -0.38529143643E+02  0.40659140347E+02  0.00000000000E+00 0.  1.
         11    1    3    3    0    0  0.94327455315E+01  0.28191009191E+01  0.84545619727E+01  0.12977042678E+02  0.51100000000E-03 0. -1.
        -11    1    3    3    0    0  0.24969643718E+01 -0.29460597183E+01 -0.27042786977E+01  0.47145755349E+01  0.51100000000E-03 0.  1.
         12    1    3    3    0    0  0.92491632802E+00 -0.17248965677E+01  0.32778860368E+02  0.32837241440E+02  0.00000000000E+00 0. -1.
</event>
<event>
 7    1  0.4374874E-012  0.5052895E+02  0.7816164E-02  0.1300438E+00
        -11   -1    0    0    0    0  0.00000000000E+00  0.00000000000E+00  0.45593999997E+02  0.45594000000E+02  0.51100000000E-03 0. -1.
         11   -1    0    0    0    0 -0.00000000000E+00 -0.00000000000E+00 -0.45593999997E+02  0.45594000000E+02  0.51100000000E-03 0.  1.
    9900012    2    1    2    0    0  0.10369307884E+02  0.32171085740E+02 -0.22597715115E+02  0.50528953871E+02  0.30000285784E+02 0.  0.
         12    1    1    2    0    0 -0.10369307884E+02 -0.32171085740E+02  0.22597715115E+02  0.40659046129E+02  0.00000000000E+00 0. -1.
         11    1    3    3    0    0  0.26230556644E+01 -0.18143187567E+01 -0.51293845551E+00  0.32303683520E+01  0.51100000000E-03 0. -1.
        -11    1    3    3    0    0  0.10179476531E+02  0.20606009017E+02 -0.20364226061E+01  0.23073282544E+02  0.51100000000E-03 0.  1.
         12    1    3    3    0    0 -0.24332243111E+01  0.13379395480E+02 -0.20048354054E+02  0.24225302975E+02  0.00000000000E+00 0. -1.
</event>
<event>
 7    1  0.4374874E-012  0.5052885E+02  0.7816164E-02  0.1300439E+00
        -11   -1    0    0    0    0  0.00000000000E+00  0.00000000000E+00  0.45593999997E+02  0.45594000000E+02  0.51100000000E-03 0. -1.
         11   -1    0    0    0    0 -0.00000000000E+00 -0.00000000000E+00 -0.45593999997E+02  0.45594000000E+02  0.51100000000E-03 0.  1.
    9900012    2    1    2    0    0 -0.60235312030E+00 -0.18987745118E+01 -0.40610319944E+02  0.50528852691E+02  0.29999978239E+02 0.  0.
         12    1    1    2    0    0  0.60235312030E+00  0.18987745118E+01  0.40610319944E+02  0.40659147309E+02  0.00000000000E+00 0. -1.
         11    1    3    3    0    0 -0.67707777435E+00 -0.33643625198E+01 -0.13022966959E+01  0.36706057296E+01  0.51100000000E-03 0. -1.
        -11    1    3    3    0    0 -0.47440172963E+01 -0.53406506841E+01 -0.49621549707E+00  0.71606200791E+01  0.51100000000E-03 0.  1.
         12    1    3    3    0    0  0.48187419503E+01  0.68062386921E+01 -0.38811807752E+02  0.39697626882E+02  0.00000000000E+00 0. -1.
</event>
<event>
 7    1  0.4374874E-012  0.5052886E+02  0.7816164E-02  0.1300439E+00
        -11   -1    0    0    0    0  0.00000000000E+00  0.00000000000E+00  0.45593999997E+02  0.45594000000E+02  0.51100000000E-03 0.  1.
         11   -1    0    0    0    0 -0.00000000000E+00 -0.00000000000E+00 -0.45593999997E+02  0.45594000000E+02  0.51100000000E-03 0. -1.
    9900012    2    1    2    0    0  0.59406339210E+01 -0.38672676852E+02 -0.11058867336E+02  0.50528860646E+02  0.30000002420E+02 0.  0.
         12    1    1    2    0    0 -0.59406339210E+01  0.38672676852E+02  0.11058867336E+02  0.40659139354E+02  0.00000000000E+00 0. -1.
         11    1    3    3    0    0  0.67270349100E+01 -0.45609202849E+01 -0.74785980951E+00  0.81617575976E+01  0.51100000000E-03 0. -1.
        -11    1    3    3    0    0 -0.16260836363E+01 -0.56171430027E+01  0.69177759437E+01  0.90582596438E+01  0.51100000000E-03 0.  1.
        -12    1    3    3    0    0  0.83968264724E+00 -0.28494613564E+02 -0.17228783470E+02  0.33308843405E+02  0.00000000000E+00 0.  1.
</event>
<event>
 7    1  0.4374874E-012  0.5052883E+02  0.7816164E-02  0.1300439E+00
        -11   -1    0    0    0    0  0.00000000000E+00  0.00000000000E+00  0.45593999997E+02  0.45594000000E+02  0.51100000000E-03 0. -1.
         11   -1    0    0    0    0 -0.00000000000E+00 -0.00000000000E+00 -0.45593999997E+02  0.45594000000E+02  0.51100000000E-03 0.  1.
    9900012    2    1    2    0    0  0.22573615641E+02 -0.18311000738E+02 -0.28430738548E+02  0.50528834176E+02  0.29999921962E+02 0.  0.
         12    1    1    2    0    0 -0.22573615641E+02  0.18311000738E+02  0.28430738548E+02  0.40659165824E+02  0.00000000000E+00 0. -1.
         11    1    3    3    0    0  0.45416725444E+01 -0.55461105177E+01  0.39599206272E+01  0.81894507148E+01  0.51100000000E-03 0.  1.
        -11    1    3    3    0    0 -0.32963963899E+00 -0.70340851966E+01 -0.14271046279E+02  0.15913823519E+02  0.51100000000E-03 0. -1.
        -12    1    3    3    0    0  0.18361582735E+02 -0.57308050234E+01 -0.18119612896E+02  0.26425559942E+02  0.00000000000E+00 0.  1.
</event>
<event>
 7    1  0.4374874E-012  0.5052886E+02  0.7816164E-02  0.1300439E+00
        -11   -1    0    0    0    0  0.00000000000E+00  0.00000000000E+00  0.45593999997E+02  0.45594000000E+02  0.51100000000E-03 0. -1.
         11   -1    0    0    0    0 -0.00000000000E+00 -0.00000000000E+00 -0.45593999997E+02  0.45594000000E+02  0.51100000000E-03 0.  1.
    9900012    2    1    2    0    0 -0.10095776942E+02  0.75006367066E+01 -0.38664992905E+02  0.50528856632E+02  0.29999990220E+02 0.  0.
         12    1    1    2    0    0  0.10095776942E+02 -0.75006367066E+01  0.38664992905E+02  0.40659143368E+02  0.00000000000E+00 0. -1.
         11    1    3    3    0    0 -0.74130685197E+01 -0.85816096370E+00  0.13645149608E+01  0.75862986006E+01  0.51100000000E-03 0. -1.
        -11    1    3    3    0    0  0.43104306414E+01  0.22104274893E+01 -0.62751697388E+01  0.79273928572E+01  0.51100000000E-03 0.  1.
         12    1    3    3    0    0 -0.69931390641E+01  0.61483701811E+01 -0.33754338127E+02  0.35015165175E+02  0.00000000000E+00 0. -1.
</event>
<event>
 7    1  0.4374874E-012  0.5052886E+02  0.7816164E-02  0.1300439E+00
        -11   -1    0    0    0    0  0.00000000000E+00  0.00000000000E+00  0.45593999997E+02  0.45594000000E+02  0.51100000000E-03 0. -1.
         11   -1    0    0    0    0 -0.00000000000E+00 -0.00000000000E+00 -0.45593999997E+02  0.45594000000E+02  0.51100000000E-03 0.  1.
    9900012    2    1    2    0    0  0.38568260696E+02 -0.10960259102E+02 -0.67474151709E+01  0.50528860508E+02  0.30000002001E+02 0.  0.
         12    1    1    2    0    0 -0.38568260696E+02  0.10960259102E+02  0.67474151709E+01  0.40659139492E+02  0.00000000000E+00 0. -1.
         11    1    3    3    0    0  0.12934775622E+02 -0.96479292980E+01  0.27934292824E+01  0.16376636026E+02  0.51100000000E-03 0.  1.
        -11    1    3    3    0    0  0.46392368221E+01  0.66650070880E+01  0.27207148335E+01  0.85642937386E+01  0.51100000000E-03 0. -1.
        -12    1    3    3    0    0  0.20994248253E+02 -0.79773368920E+01 -0.12261559287E+02  0.25587930743E+02  0.00000000000E+00 0.  1.
</event>
<event>
 7    1  0.4374874E-012  0.5052886E+02  0.7816164E-02  0.1300439E+00
        -11   -1    0    0    0    0  0.00000000000E+00  0.00000000000E+00  0.45593999997E+02  0.45594000000E+02  0.51100000000E-03 0. -1.
         11   -1    0    0    0    0 -0.00000000000E+00 -0.00000000000E+00 -0.45593999997E+02  0.45594000000E+02  0.51100000000E-03 0.  1.
    9900012    2    1    2    0    0  0.96473950055E+00 -0.32422505540E+01  0.40518174339E+02  0.50528863724E+02  0.30000011775E+02 0.  0.
        -12    1    1    2    0    0 -0.96473950055E+00  0.32422505540E+01 -0.40518174339E+02  0.40659136276E+02  0.00000000000E+00 0.  1.
         11    1    3    3    0    0  0.37874222117E+01 -0.55612000346E+01  0.31125469448E+02  0.31844408637E+02  0.51100000000E-03 0. -1.
        -11    1    3    3    0    0  0.15880708120E+01  0.73956881219E+01  0.92615078219E+01  0.11957997286E+02  0.51100000000E-03 0.  1.
        -12    1    3    3    0    0 -0.44107535231E+01 -0.50767386413E+01  0.13119706940E+00  0.67264578007E+01  0.00000000000E+00 0.  1.
</event>
<event>
 7    1  0.4374874E-012  0.5052885E+02  0.7816164E-02  0.1300439E+00
        -11   -1    0    0    0    0  0.00000000000E+00  0.00000000000E+00  0.45593999997E+02  0.45594000000E+02  0.51100000000E-03 0. -1.
         11   -1    0    0    0    0 -0.00000000000E+00 -0.00000000000E+00 -0.45593999997E+02  0.45594000000E+02  0.51100000000E-03 0.  1.
    9900012    2    1    2    0    0 -0.17669296998E+02  0.23350463569E+02 -0.28208473326E+02  0.50528853763E+02  0.29999981499E+02 0.  0.
         12    1    1    2    0    0  0.17669296998E+02 -0.23350463569E+02  0.28208473326E+02  0.40659146237E+02  0.00000000000E+00 0. -1.
         11    1    3    3    0    0 -0.74224805501E+01  0.12594410946E+02 -0.57608052278E+01  0.15713029043E+02  0.51100000000E-03 0. -1.
        -11    1    3    3    0    0 -0.13235267746E+02  0.14096657312E+02 -0.23273695535E+02  0.30258105754E+02  0.51100000000E-03 0.  1.
        -12    1    3    3    0    0  0.29884512984E+01 -0.33406046885E+01  0.82602743663E+00  0.45577189661E+01  0.00000000000E+00 0.  1.
</event>
<event>
 7    1  0.4374874E-012  0.5052886E+02  0.7816164E-02  0.1300439E+00
        -11   -1    0    0    0    0  0.00000000000E+00  0.00000000000E+00  0.45593999997E+02  0.45594000000E+02  0.51100000000E-03 0. -1.
         11   -1    0    0    0    0 -0.00000000000E+00 -0.00000000000E+00 -0.45593999997E+02  0.45594000000E+02  0.51100000000E-03 0.  1.
    9900012    2    1    2    0    0  0.76878766652E+01 -0.38436219723E+01 -0.39740270733E+02  0.50528855943E+02  0.29999988125E+02 0.  0.
         12    1    1    2    0    0 -0.76878766652E+01  0.38436219723E+01  0.39740270733E+02  0.40659144057E+02  0.00000000000E+00 0. -1.
         11    1    3    3    0    0 -0.53740128955E+01 -0.47588255449E+01 -0.25008651789E+02  0.26018437688E+02  0.51100000000E-03 0. -1.
        -11    1    3    3    0    0 -0.42107841910E+00  0.46659065376E+01 -0.78029537233E+00  0.47494054346E+01  0.51100000000E-03 0.  1.
         12    1    3    3    0    0  0.13482967980E+02 -0.37507029650E+01 -0.13951323572E+02  0.19761012820E+02  0.00000000000E+00 0. -1.
</event>
<event>
 7    1  0.4374874E-012  0.5052886E+02  0.7816164E-02  0.1300439E+00
        -11   -1    0    0    0    0  0.00000000000E+00  0.00000000000E+00  0.45593999997E+02  0.45594000000E+02  0.51100000000E-03 0. -1.
         11   -1    0    0    0    0 -0.00000000000E+00 -0.00000000000E+00 -0.45593999997E+02  0.45594000000E+02  0.51100000000E-03 0.  1.
    9900012    2    1    2    0    0  0.15890456765E+02 -0.13978636960E+02  0.34716811033E+02  0.50528857415E+02  0.29999992599E+02 0.  0.
        -12    1    1    2    0    0 -0.15890456765E+02  0.13978636960E+02 -0.34716811033E+02  0.40659142585E+02  0.00000000000E+00 0.  1.
         11    1    3    3    0    0  0.13469046501E+01 -0.84398700877E+01  0.26129076704E+02  0.27491347891E+02  0.51100000000E-03 0.  1.
        -11    1    3    3    0    0  0.73461229378E+01  0.24293900512E+01  0.95105204699E+01  0.12260402037E+02  0.51100000000E-03 0. -1.
        -12    1    3    3    0    0  0.71974291772E+01 -0.79681569235E+01 -0.92278614082E+00  0.10777107487E+02  0.00000000000E+00 0.  1.
</event>
<event>
 7    1  0.4374874E-012  0.5052886E+02  0.7816164E-02  0.1300439E+00
        -11   -1    0    0    0    0  0.00000000000E+00  0.00000000000E+00  0.45593999997E+02  0.45594000000E+02  0.51100000000E-03 0. -1.
         11   -1    0    0    0    0 -0.00000000000E+00 -0.00000000000E+00 -0.45593999997E+02  0.45594000000E+02  0.51100000000E-03 0.  1.
    9900012    2    1    2    0    0 -0.12229159594E+02 -0.21439664366E+01  0.38717137709E+02  0.50528859714E+02  0.29999999585E+02 0.  0.
        -12    1    1    2    0    0  0.12229159594E+02  0.21439664366E+01 -0.38717137709E+02  0.40659140286E+02  0.00000000000E+00 0.  1.
         11    1    3    3    0    0  0.47049330416E+01  0.39255461855E+01  0.97945971995E+01  0.11553373635E+02  0.51100000000E-03 0. -1.
        -11    1    3    3    0    0 -0.13209623609E+02  0.21101644358E+01  0.66106210762E+01  0.14921369277E+02  0.51100000000E-03 0.  1.
        -12    1    3    3    0    0 -0.37244690262E+01 -0.81796770580E+01  0.22311919433E+02  0.24054116802E+02  0.00000000000E+00 0.  1.
</event>
<event>
 7    1  0.4374874E-012  0.5052886E+02  0.7816164E-02  0.1300439E+00
        -11   -1    0    0    0    0  0.00000000000E+00  0.00000000000E+00  0.45593999997E+02  0.45594000000E+02  0.51100000000E-03 0. -1.
         11   -1    0    0    0    0 -0.00000000000E+00 -0.00000000000E+00 -0.45593999997E+02  0.45594000000E+02  0.51100000000E-03 0.  1.
    9900012    2    1    2    0    0 -0.28859396082E+02  0.45700557295E+01 -0.28273931804E+02  0.50528863619E+02  0.30000011457E+02 0.  0.
         12    1    1    2    0    0  0.28859396082E+02 -0.45700557295E+01  0.28273931804E+02  0.40659136381E+02  0.00000000000E+00 0. -1.
         11    1    3    3    0    0 -0.13974152816E+02  0.25066879131E+01  0.94154939512E-01  0.14197510227E+02  0.51100000000E-03 0. -1.
        -11    1    3    3    0    0 -0.74889042183E+00  0.60216495968E+01 -0.24487724139E+01  0.65435149062E+01  0.51100000000E-03 0.  1.
        -12    1    3    3    0    0 -0.14136352844E+02 -0.39582817805E+01 -0.25919314329E+02  0.29787838486E+02  0.00000000000E+00 0.  1.
</event>
<event>
 7    1  0.4374874E-012  0.5052885E+02  0.7816164E-02  0.1300439E+00
        -11   -1    0    0    0    0  0.00000000000E+00  0.00000000000E+00  0.45593999997E+02  0.45594000000E+02  0.51100000000E-03 0. -1.
         11   -1    0    0    0    0 -0.00000000000E+00 -0.00000000000E+00 -0.45593999997E+02  0.45594000000E+02  0.51100000000E-03 0.  1.
    9900012    2    1    2    0    0 -0.68532595648E+01 -0.36476502754E+02  0.16603130019E+02  0.50528851629E+02  0.29999975012E+02 0.  0.
        -12    1    1    2    0    0  0.68532595648E+01  0.36476502754E+02 -0.16603130019E+02  0.40659148371E+02  0.00000000000E+00 0.  1.
         11    1    3    3    0    0 -0.23331985004E+01  0.12980248526E+01  0.58098539720E+01  0.63939883639E+01  0.51100000000E-03 0. -1.
        -11    1    3    3    0    0  0.23904337757E+01 -0.33654564903E+02  0.12371627146E+02  0.35936069219E+02  0.51100000000E-03 0.  1.
         12    1    3    3    0    0 -0.69104948401E+01 -0.41199627037E+01 -0.15783510987E+01  0.81987940459E+01  0.00000000000E+00 0. -1.
</event>
<event>
 7    1  0.4374874E-012  0.5052886E+02  0.7816164E-02  0.1300439E+00
        -11   -1    0    0    0    0  0.00000000000E+00  0.00000000000E+00  0.45593999997E+02  0.45594000000E+02  0.51100000000E-03 0. -1.
         11   -1    0    0    0    0 -0.00000000000E+00 -0.00000000000E+00 -0.45593999997E+02  0.45594000000E+02  0.51100000000E-03 0.  1.
    9900012    2    1    2    0    0 -0.88530843681E+01 -0.28206862557E+02 -0.27913464723E+02  0.50528859442E+02  0.29999998759E+02 0.  0.
         12    1    1    2    0    0  0.88530843681E+01  0.28206862557E+02  0.27913464723E+02  0.40659140558E+02  0.00000000000E+00 0. -1.
         11    1    3    3    0    0  0.51765125886E+01 -0.13271480064E+02 -0.16931322047E+02  0.22126864491E+02  0.51100000000E-03 0. -1.
        -11    1    3    3    0    0 -0.78609906855E+01 -0.70315417733E+01 -0.14364562795E+02  0.17820730030E+02  0.51100000000E-03 0.  1.
         12    1    3    3    0    0 -0.61686062712E+01 -0.79038407199E+01  0.33824201194E+01  0.10581264921E+02  0.00000000000E+00 0. -1.
</event>
<event>
 7    1  0.4374874E-012  0.5052887E+02  0.7816164E-02  0.1300439E+00
        -11   -1    0    0    0    0  0.00000000000E+00  0.00000000000E+00  0.45593999997E+02  0.45594000000E+02  0.51100000000E-03 0. -1.
         11   -1    0    0    0    0 -0.00000000000E+00 -0.00000000000E+00 -0.45593999997E+02  0.45594000000E+02  0.51100000000E-03 0.  1.
    9900012    2    1    2    0    0  0.45600251929E+01  0.14953510621E+02  0.37533496571E+02  0.50528872188E+02  0.30000037501E+02 0.  0.
        -12    1    1    2    0    0 -0.45600251929E+01 -0.14953510621E+02 -0.37533496571E+02  0.40659127812E+02  0.00000000000E+00 0.  1.
         11    1    3    3    0    0  0.29006657539E+01  0.10708562908E+02  0.35406647600E+02  0.37104149039E+02  0.51100000000E-03 0. -1.
        -11    1    3    3    0    0  0.13745965006E+01  0.85045519889E+01  0.28924005400E+01  0.90875134782E+01  0.51100000000E-03 0.  1.
        -12    1    3    3    0    0  0.28476293843E+00 -0.42596042756E+01 -0.76555156980E+00  0.43372096701E+01  0.00000000000E+00 0.  1.
</event>
<event>
 7    1  0.4374874E-012  0.5052886E+02  0.7816164E-02  0.1300439E+00
        -11   -1    0    0    0    0  0.00000000000E+00  0.00000000000E+00  0.45593999997E+02  0.45594000000E+02  0.51100000000E-03 0. -1.
         11   -1    0    0    0    0 -0.00000000000E+00 -0.00000000000E+00 -0.45593999997E+02  0.45594000000E+02  0.51100000000E-03 0.  1.
    9900012    2    1    2    0    0  0.10935152333E+02 -0.21862607316E+02  0.32490219235E+02  0.50528862022E+02  0.30000006601E+02 0.  0.
        -12    1    1    2    0    0 -0.10935152333E+02  0.21862607316E+02 -0.32490219235E+02  0.40659137978E+02  0.00000000000E+00 0.  1.
         11    1    3    3    0    0 -0.19196549735E+01 -0.12964921823E+02  0.34602583291E+01  0.13555355438E+02  0.51100000000E-03 0. -1.
        -11    1    3    3    0    0  0.23573477111E+01  0.34110658418E+01  0.50023573405E+00  0.41764451940E+01  0.51100000000E-03 0.  1.
         12    1    3    3    0    0  0.10497459596E+02 -0.12308751335E+02  0.28529725172E+02  0.32797061389E+02  0.00000000000E+00 0. -1.
</event>
<event>
 7    1  0.4374874E-012  0.5052885E+02  0.7816164E-02  0.1300439E+00
        -11   -1    0    0    0    0  0.00000000000E+00  0.00000000000E+00  0.45593999997E+02  0.45594000000E+02  0.51100000000E-03 0. -1.
         11   -1    0    0    0    0 -0.00000000000E+00 -0.00000000000E+00 -0.45593999997E+02  0.45594000000E+02  0.51100000000E-03 0.  1.
    9900012    2    1    2    0    0 -0.38370789897E+01  0.19314332916E+02  0.35572454058E+02  0.50528854425E+02  0.29999983512E+02 0.  0.
        -12    1    1    2    0    0  0.38370789897E+01 -0.19314332916E+02 -0.35572454058E+02  0.40659145575E+02  0.00000000000E+00 0.  1.
         11    1    3    3    0    0 -0.13514337901E+01  0.11211014756E+02  0.61019455520E+01  0.12835379423E+02  0.51100000000E-03 0. -1.
        -11    1    3    3    0    0 -0.15595039561E+01 -0.64424064615E+01  0.25914909013E+01  0.71170554977E+01  0.51100000000E-03 0.  1.
         12    1    3    3    0    0 -0.92614124350E+00  0.14545724622E+02  0.26879017604E+02  0.30576419505E+02  0.00000000000E+00 0. -1.
</event>
<event>
 7    1  0.4374874E-012  0.5052886E+02  0.7816164E-02  0.1300439E+00
        -11   -1    0    0    0    0  0.00000000000E+00  0.00000000000E+00  0.45593999997E+02  0.45594000000E+02  0.51100000000E-03 0. -1.
         11   -1    0    0    0    0 -0.00000000000E+00 -0.00000000000E+00 -0.45593999997E+02  0.45594000000E+02  0.51100000000E-03 0.  1.
    9900012    2    1    2    0    0 -0.21814196225E+02  0.22414873125E+02  0.25978457073E+02  0.50528856796E+02  0.29999990719E+02 0.  0.
        -12    1    1    2    0    0  0.21814196225E+02 -0.22414873125E+02 -0.25978457073E+02  0.40659143204E+02  0.00000000000E+00 0.  1.
         11    1    3    3    0    0 -0.70212501340E-01  0.64805667223E+01  0.14835926566E+00  0.64826449517E+01  0.51100000000E-03 0. -1.
        -11    1    3    3    0    0  0.24879802215E+01 -0.50839668042E+00  0.10869168096E+02  0.11161869383E+02  0.51100000000E-03 0.  1.
         12    1    3    3    0    0 -0.24231963945E+02  0.16442703083E+02  0.14960929712E+02  0.32884342462E+02  0.00000000000E+00 0. -1.
</event>
<event>
 7    1  0.4374874E-012  0.5052886E+02  0.7816164E-02  0.1300439E+00
        -11   -1    0    0    0    0  0.00000000000E+00  0.00000000000E+00  0.45593999997E+02  0.45594000000E+02  0.51100000000E-03 0. -1.
         11   -1    0    0    0    0 -0.00000000000E+00 -0.00000000000E+00 -0.45593999997E+02  0.45594000000E+02  0.51100000000E-03 0.  1.
    9900012    2    1    2    0    0 -0.15356169364E+02 -0.13392658069E+02  0.35185087376E+02  0.50528860789E+02  0.30000002856E+02 0.  0.
        -12    1    1    2    0    0  0.15356169364E+02  0.13392658069E+02 -0.35185087376E+02  0.40659139211E+02  0.00000000000E+00 0.  1.
         11    1    3    3    0    0 -0.84230703860E+01 -0.52814101457E+01  0.19795827949E+02  0.22152115301E+02  0.51100000000E-03 0. -1.
        -11    1    3    3    0    0 -0.60087274597E+01  0.48306220409E+01  0.13101711178E+02  0.15201794336E+02  0.51100000000E-03 0.  1.
        -12    1    3    3    0    0 -0.92437151802E+00 -0.12941869964E+02  0.22875482492E+01  0.13174951153E+02  0.00000000000E+00 0.  1.
</event>
<event>
 7    1  0.4374874E-012  0.5052886E+02  0.7816164E-02  0.1300439E+00
        -11   -1    0    0    0    0  0.00000000000E+00  0.00000000000E+00  0.45593999997E+02  0.45594000000E+02  0.51100000000E-03 0. -1.
         11   -1    0    0    0    0 -0.00000000000E+00 -0.00000000000E+00 -0.45593999997E+02  0.45594000000E+02  0.51100000000E-03 0.  1.
    9900012    2    1    2    0    0 -0.32456400102E+02  0.12359297444E+02 -0.21142275951E+02  0.50528856216E+02  0.29999988953E+02 0.  0.
         12    1    1    2    0    0  0.32456400102E+02 -0.12359297444E+02  0.21142275951E+02  0.40659143784E+02  0.00000000000E+00 0. -1.
         11    1    3    3    0    0 -0.17054454531E+02  0.18750790226E+02 -0.67689519844E+01  0.26234810170E+02  0.51100000000E-03 0. -1.
        -11    1    3    3    0    0 -0.15799657718E+02 -0.37083688800E+01 -0.97466323202E+01  0.18930874929E+02  0.51100000000E-03 0.  1.
        -12    1    3    3    0    0  0.39771214635E+00 -0.26831239024E+01 -0.46266916465E+01  0.53631711160E+01  0.00000000000E+00 0.  1.
</event>
<event>
 7    1  0.4374874E-012  0.5052886E+02  0.7816164E-02  0.1300439E+00
        -11   -1    0    0    0    0  0.00000000000E+00  0.00000000000E+00  0.45593999997E+02  0.45594000000E+02  0.51100000000E-03 0. -1.
         11   -1    0    0    0    0 -0.00000000000E+00 -0.00000000000E+00 -0.45593999997E+02  0.45594000000E+02  0.51100000000E-03 0.  1.
    9900012    2    1    2    0    0 -0.25102904514E+02  0.11268244396E+02 -0.29933874906E+02  0.50528855719E+02  0.29999987442E+02 0.  0.
         12    1    1    2    0    0  0.25102904514E+02 -0.11268244396E+02  0.29933874906E+02  0.40659144281E+02  0.00000000000E+00 0. -1.
         11    1    3    3    0    0 -0.52867665267E+01  0.46929073070E+01 -0.15799484540E+02  0.17308870307E+02  0.51100000000E-03 0.  1.
        -11    1    3    3    0    0  0.44040595141E+01  0.34730928571E+01 -0.20149639844E+01  0.59597142815E+01  0.51100000000E-03 0. -1.
        -12    1    3    3    0    0 -0.24220197501E+02  0.31022442315E+01 -0.12119426382E+02  0.27260271130E+02  0.00000000000E+00 0.  1.
</event>
<event>
 7    1  0.4374874E-012  0.5052886E+02  0.7816164E-02  0.1300439E+00
        -11   -1    0    0    0    0  0.00000000000E+00  0.00000000000E+00  0.45593999997E+02  0.45594000000E+02  0.51100000000E-03 0. -1.
         11   -1    0    0    0    0 -0.00000000000E+00 -0.00000000000E+00 -0.45593999997E+02  0.45594000000E+02  0.51100000000E-03 0.  1.
    9900012    2    1    2    0    0  0.78643962302E+00 -0.44472940525E+01 -0.40407534611E+02  0.50528858777E+02  0.29999996737E+02 0.  0.
         12    1    1    2    0    0 -0.78643962302E+00  0.44472940525E+01  0.40407534611E+02  0.40659141223E+02  0.00000000000E+00 0. -1.
         11    1    3    3    0    0 -0.26637153441E+01 -0.10814701928E+02 -0.61747233438E+01  0.12735005530E+02  0.51100000000E-03 0. -1.
        -11    1    3    3    0    0  0.35855526275E+01 -0.41229653059E+01 -0.13316311133E+02  0.14393719916E+02  0.51100000000E-03 0.  1.
        -12    1    3    3    0    0 -0.13539766039E+00  0.10490373181E+02 -0.20916500135E+02  0.23400133331E+02  0.00000000000E+00 0.  1.
</event>
<event>
 7    1  0.4374874E-012  0.5052887E+02  0.7816164E-02  0.1300439E+00
        -11   -1    0    0    0    0  0.00000000000E+00  0.00000000000E+00  0.45593999997E+02  0.45594000000E+02  0.51100000000E-03 0.  1.
         11   -1    0    0    0    0 -0.00000000000E+00 -0.00000000000E+00 -0.45593999997E+02  0.45594000000E+02  0.51100000000E-03 0. -1.
    9900012    2    1    2    0    0 -0.72393758696E+01  0.39990175685E+02 -0.12418085852E+01  0.50528870608E+02  0.30000032701E+02 0.  0.
        -12    1    1    2    0    0  0.72393758696E+01 -0.39990175685E+02  0.12418085852E+01  0.40659129392E+02  0.00000000000E+00 0.  1.
         11    1    3    3    0    0  0.70661936273E+01  0.16105050753E+02  0.14109717245E+00  0.17587599632E+02  0.51100000000E-03 0. -1.
        -11    1    3    3    0    0  0.68378280056E+00 -0.84768194868E+00  0.34517587338E+01  0.36194975096E+01  0.51100000000E-03 0.  1.
        -12    1    3    3    0    0 -0.14989352297E+02  0.24732806881E+02 -0.48346644914E+01  0.29321773467E+02  0.00000000000E+00 0.  1.
</event>
<event>
 7    1  0.4374874E-012  0.5052885E+02  0.7816164E-02  0.1300439E+00
        -11   -1    0    0    0    0  0.00000000000E+00  0.00000000000E+00  0.45593999997E+02  0.45594000000E+02  0.51100000000E-03 0. -1.
         11   -1    0    0    0    0 -0.00000000000E+00 -0.00000000000E+00 -0.45593999997E+02  0.45594000000E+02  0.51100000000E-03 0.  1.
    9900012    2    1    2    0    0 -0.28107084128E+02  0.53281705312E+01 -0.28892369899E+02  0.50528848291E+02  0.29999964864E+02 0.  0.
         12    1    1    2    0    0  0.28107084128E+02 -0.53281705312E+01  0.28892369899E+02  0.40659151709E+02  0.00000000000E+00 0. -1.
         11    1    3    3    0    0  0.33169636518E+01  0.50592683274E+01 -0.11214773894E+02  0.12742432956E+02  0.51100000000E-03 0. -1.
        -11    1    3    3    0    0 -0.76301280452E+01  0.28901072988E+01 -0.94247539231E+01  0.12465855805E+02  0.51100000000E-03 0.  1.
         12    1    3    3    0    0 -0.23793919734E+02 -0.26212050950E+01 -0.82528420811E+01  0.25320559529E+02  0.00000000000E+00 0. -1.
</event>
<event>
 7    1  0.4374874E-012  0.5052886E+02  0.7816164E-02  0.1300439E+00
        -11   -1    0    0    0    0  0.00000000000E+00  0.00000000000E+00  0.45593999997E+02  0.45594000000E+02  0.51100000000E-03 0. -1.
         11   -1    0    0    0    0 -0.00000000000E+00 -0.00000000000E+00 -0.45593999997E+02  0.45594000000E+02  0.51100000000E-03 0.  1.
    9900012    2    1    2    0    0  0.33060542127E+02 -0.10157269312E+02 -0.21377469982E+02  0.50528858489E+02  0.29999995862E+02 0.  0.
         12    1    1    2    0    0 -0.33060542127E+02  0.10157269312E+02  0.21377469982E+02  0.40659141511E+02  0.00000000000E+00 0. -1.
         11    1    3    3    0    0  0.19124489238E+01 -0.87611355620E+01 -0.10916487182E+02  0.14127443147E+02  0.51100000000E-03 0. -1.
        -11    1    3    3    0    0  0.14903683887E+02 -0.83116085985E+01 -0.68063793460E+01  0.18371974063E+02  0.51100000000E-03 0.  1.
         12    1    3    3    0    0  0.16244409317E+02  0.69154748488E+01 -0.36546034541E+01  0.18029441279E+02  0.00000000000E+00 0. -1.
</event>
<event>
 7    1  0.4374874E-012  0.5052886E+02  0.7816164E-02  0.1300439E+00
        -11   -1    0    0    0    0  0.00000000000E+00  0.00000000000E+00  0.45593999997E+02  0.45594000000E+02  0.51100000000E-03 0. -1.
         11   -1    0    0    0    0 -0.00000000000E+00 -0.00000000000E+00 -0.45593999997E+02  0.45594000000E+02  0.51100000000E-03 0.  1.
    9900012    2    1    2    0    0 -0.12064044038E+02 -0.14671016521E+02  0.35949766034E+02  0.50528861270E+02  0.30000004318E+02 0.  0.
        -12    1    1    2    0    0  0.12064044038E+02  0.14671016521E+02 -0.35949766034E+02  0.40659138730E+02  0.00000000000E+00 0.  1.
         11    1    3    3    0    0 -0.58719611009E+01 -0.51016016094E+01  0.38198429465E+01  0.86658794446E+01  0.51100000000E-03 0. -1.
        -11    1    3    3    0    0 -0.45408394928E+00 -0.17198715609E+02  0.19038082841E+02  0.25660292464E+02  0.51100000000E-03 0.  1.
         12    1    3    3    0    0 -0.57379989881E+01  0.76293006969E+01  0.13091840246E+02  0.16202689362E+02  0.00000000000E+00 0. -1.
</event>
<event>
 7    1  0.4374874E-012  0.5052887E+02  0.7816164E-02  0.1300439E+00
        -11   -1    0    0    0    0  0.00000000000E+00  0.00000000000E+00  0.45593999997E+02  0.45594000000E+02  0.51100000000E-03 0. -1.
         11   -1    0    0    0    0 -0.00000000000E+00 -0.00000000000E+00 -0.45593999997E+02  0.45594000000E+02  0.51100000000E-03 0.  1.
    9900012    2    1    2    0    0  0.13273640202E+02 -0.83193915342E+01  0.37520172615E+02  0.50528866305E+02  0.30000019622E+02 0.  0.
        -12    1    1    2    0    0 -0.13273640202E+02  0.83193915342E+01 -0.37520172615E+02  0.40659133695E+02  0.00000000000E+00 0.  1.
         11    1    3    3    0    0  0.20090436706E+01 -0.14401072290E+02  0.21264954742E+02  0.25760928555E+02  0.51100000000E-03 0. -1.
        -11    1    3    3    0    0 -0.11745969023E+01 -0.15081325503E+01 -0.10207967052E+01  0.21670643384E+01  0.51100000000E-03 0.  1.
         12    1    3    3    0    0  0.12439193434E+02  0.75898133056E+01  0.17276014578E+02  0.22600873412E+02  0.00000000000E+00 0. -1.
</event>
<event>
 7    1  0.4374874E-012  0.5052884E+02  0.7816164E-02  0.1300439E+00
        -11   -1    0    0    0    0  0.00000000000E+00  0.00000000000E+00  0.45593999997E+02  0.45594000000E+02  0.51100000000E-03 0. -1.
         11   -1    0    0    0    0 -0.00000000000E+00 -0.00000000000E+00 -0.45593999997E+02  0.45594000000E+02  0.51100000000E-03 0.  1.
    9900012    2    1    2    0    0  0.56420477909E+01 -0.14333408008E+02  0.37628284007E+02  0.50528843027E+02  0.29999948866E+02 0.  0.
        -12    1    1    2    0    0 -0.56420477909E+01  0.14333408008E+02 -0.37628284007E+02  0.40659156973E+02  0.00000000000E+00 0.  1.
         11    1    3    3    0    0 -0.74272203811E+01 -0.35467197662E+01  0.40106060000E+01  0.91557514404E+01  0.51100000000E-03 0. -1.
        -11    1    3    3    0    0  0.90424384761E-01  0.41801888857E+01  0.43735991367E+01  0.60506632165E+01  0.51100000000E-03 0.  1.
         12    1    3    3    0    0  0.12978843787E+02 -0.14966877128E+02  0.29244078870E+02  0.35322428371E+02  0.00000000000E+00 0. -1.
</event>
<event>
 7    1  0.5087132E-012  0.5052886E+02  0.7816164E-02  0.1300439E+00
        -11   -1    0    0    0    0  0.00000000000E+00  0.00000000000E+00  0.45593999997E+02  0.45594000000E+02  0.51100000000E-03 0.  1.
         11   -1    0    0    0    0 -0.00000000000E+00 -0.00000000000E+00 -0.45593999997E+02  0.45594000000E+02  0.51100000000E-03 0. -1.
    9900012    2    1    2    0    0  0.28006480238E+02  0.19171442186E+02 -0.22388809355E+02  0.50528856931E+02  0.29999991128E+02 0.  0.
         12    1    1    2    0    0 -0.28006480238E+02 -0.19171442186E+02  0.22388809355E+02  0.40659143069E+02  0.00000000000E+00 0. -1.
         11    1    3    3    0    0  0.19826437428E+02  0.13164673445E+02 -0.25891305754E+02  0.35167541312E+02  0.51100000000E-03 0. -1.
        -11    1    3    3    0    0  0.71869198159E+01  0.60917460061E+01 -0.21152304524E+01  0.96558472425E+01  0.51100000000E-03 0.  1.
         12    1    3    3    0    0  0.99312299323E+00 -0.84977265815E-01  0.56177268516E+01  0.57054683765E+01  0.00000000000E+00 0. -1.
</event>
<event>
 7    1  0.4374874E-012  0.5052885E+02  0.7816164E-02  0.1300439E+00
        -11   -1    0    0    0    0  0.00000000000E+00  0.00000000000E+00  0.45593999997E+02  0.45594000000E+02  0.51100000000E-03 0. -1.
         11   -1    0    0    0    0 -0.00000000000E+00 -0.00000000000E+00 -0.45593999997E+02  0.45594000000E+02  0.51100000000E-03 0.  1.
    9900012    2    1    2    0    0 -0.18291501533E+01 -0.36318151908E+00  0.40616360439E+02  0.50528850643E+02  0.29999972015E+02 0.  0.
        -12    1    1    2    0    0  0.18291501533E+01  0.36318151908E+00 -0.40616360439E+02  0.40659149357E+02  0.00000000000E+00 0.  1.
         11    1    3    3    0    0  0.55489295232E+01  0.26565683796E+01  0.38401410083E+01  0.72522174287E+01  0.51100000000E-03 0. -1.
        -11    1    3    3    0    0 -0.51386974958E+01  0.80151835586E+01  0.26010415770E+02  0.27698214892E+02  0.51100000000E-03 0.  1.
        -12    1    3    3    0    0 -0.22393821807E+01 -0.11034933457E+02  0.10765803661E+02  0.15578418322E+02  0.00000000000E+00 0.  1.
</event>
<event>
 7    1  0.4374874E-012  0.5052885E+02  0.7816164E-02  0.1300439E+00
        -11   -1    0    0    0    0  0.00000000000E+00  0.00000000000E+00  0.45593999997E+02  0.45594000000E+02  0.51100000000E-03 0.  1.
         11   -1    0    0    0    0 -0.00000000000E+00 -0.00000000000E+00 -0.45593999997E+02  0.45594000000E+02  0.51100000000E-03 0. -1.
    9900012    2    1    2    0    0  0.11885407841E+02  0.38841405317E+02 -0.18024882793E+01  0.50528847887E+02  0.29999963636E+02 0.  0.
        -12    1    1    2    0    0 -0.11885407841E+02 -0.38841405317E+02  0.18024882793E+01  0.40659152113E+02  0.00000000000E+00 0.  1.
         11    1    3    3    0    0  0.11857364384E+02  0.26603023890E+02 -0.52179143532E+01  0.29589602915E+02  0.51100000000E-03 0. -1.
        -11    1    3    3    0    0 -0.37223629182E+01  0.11317500030E+02 -0.40091294701E+01  0.12570398244E+02  0.51100000000E-03 0.  1.
         12    1    3    3    0    0  0.37504063755E+01  0.92088139717E+00  0.74245555439E+01  0.83688467279E+01  0.00000000000E+00 0. -1.
</event>
<event>
 7    1  0.4374874E-012  0.5052884E+02  0.7816164E-02  0.1300439E+00
        -11   -1    0    0    0    0  0.00000000000E+00  0.00000000000E+00  0.45593999997E+02  0.45594000000E+02  0.51100000000E-03 0. -1.
         11   -1    0    0    0    0 -0.00000000000E+00 -0.00000000000E+00 -0.45593999997E+02  0.45594000000E+02  0.51100000000E-03 0.  1.
    9900012    2    1    2    0    0  0.13998351125E+02  0.25295639766E+01 -0.38089566526E+02  0.50528836134E+02  0.29999927914E+02 0.  0.
         12    1    1    2    0    0 -0.13998351125E+02 -0.25295639766E+01  0.38089566526E+02  0.40659163866E+02  0.00000000000E+00 0. -1.
         11    1    3    3    0    0  0.69232570419E+01  0.37331628806E+01 -0.45210976378E+01  0.90723931392E+01  0.51100000000E-03 0. -1.
        -11    1    3    3    0    0 -0.59625977287E+01  0.66343952509E+01 -0.99513246426E+01  0.13364005179E+02  0.51100000000E-03 0.  1.
        -12    1    3    3    0    0  0.13037691812E+02 -0.78379941550E+01 -0.23617144245E+02  0.28092437816E+02  0.00000000000E+00 0.  1.
</event>
<event>
 7    1  0.4374874E-012  0.5052886E+02  0.7816164E-02  0.1300439E+00
        -11   -1    0    0    0    0  0.00000000000E+00  0.00000000000E+00  0.45593999997E+02  0.45594000000E+02  0.51100000000E-03 0. -1.
         11   -1    0    0    0    0 -0.00000000000E+00 -0.00000000000E+00 -0.45593999997E+02  0.45594000000E+02  0.51100000000E-03 0.  1.
    9900012    2    1    2    0    0 -0.18482922489E+02 -0.28528810735E+02  0.22308163699E+02  0.50528860396E+02  0.30000001661E+02 0.  0.
        -12    1    1    2    0    0  0.18482922489E+02  0.28528810735E+02 -0.22308163699E+02  0.40659139604E+02  0.00000000000E+00 0.  1.
         11    1    3    3    0    0 -0.52068380171E+01 -0.27756389258E+02  0.11981969271E+02  0.30677286299E+02  0.51100000000E-03 0. -1.
        -11    1    3    3    0    0 -0.77806518360E+00  0.12505919387E+01  0.64423365098E+01  0.66085600242E+01  0.51100000000E-03 0.  1.
        -12    1    3    3    0    0 -0.12498019289E+02 -0.20230134153E+01  0.38838579176E+01  0.13243014073E+02  0.00000000000E+00 0.  1.
</event>
<event>
 7    1  0.4381376E-012  0.5052885E+02  0.7816164E-02  0.1300439E+00
        -11   -1    0    0    0    0  0.00000000000E+00  0.00000000000E+00  0.45593999997E+02  0.45594000000E+02  0.51100000000E-03 0. -1.
         11   -1    0    0    0    0 -0.00000000000E+00 -0.00000000000E+00 -0.45593999997E+02  0.45594000000E+02  0.51100000000E-03 0.  1.
    9900012    2    1    2    0    0  0.41329471660E+01  0.10737131944E+02 -0.38997421466E+02  0.50528854219E+02  0.29999982883E+02 0.  0.
         12    1    1    2    0    0 -0.41329471660E+01 -0.10737131944E+02  0.38997421466E+02  0.40659145781E+02  0.00000000000E+00 0. -1.
         11    1    3    3    0    0 -0.52413387703E+01 -0.47135046475E+01 -0.19642595574E+02  0.20869123588E+02  0.51100000000E-03 0. -1.
        -11    1    3    3    0    0 -0.15521495800E+01  0.64838306831E+01 -0.11995901463E+02  0.13724098543E+02  0.51100000000E-03 0.  1.
         12    1    3    3    0    0  0.10926435516E+02  0.89668059084E+01 -0.73589244293E+01  0.15935632088E+02  0.00000000000E+00 0. -1.
</event>
<event>
 7    1  0.4374874E-012  0.5052887E+02  0.7816164E-02  0.1300439E+00
        -11   -1    0    0    0    0  0.00000000000E+00  0.00000000000E+00  0.45593999997E+02  0.45594000000E+02  0.51100000000E-03 0.  1.
         11   -1    0    0    0    0 -0.00000000000E+00 -0.00000000000E+00 -0.45593999997E+02  0.45594000000E+02  0.51100000000E-03 0. -1.
    9900012    2    1    2    0    0  0.82456146943E+01  0.37526704870E+02  0.13301167818E+02  0.50528870577E+02  0.30000032606E+02 0.  0.
        -12    1    1    2    0    0 -0.82456146943E+01 -0.37526704870E+02 -0.13301167818E+02  0.40659129423E+02  0.00000000000E+00 0.  1.
         11    1    3    3    0    0  0.55137018483E+01  0.23299261048E+02  0.94707496845E+01  0.25747845993E+02  0.51100000000E-03 0. -1.
        -11    1    3    3    0    0  0.46611935854E+01  0.16154273504E+02 -0.33114875171E+01  0.17136313137E+02  0.51100000000E-03 0.  1.
         12    1    3    3    0    0 -0.19292807394E+01 -0.19268296811E+01  0.71419056505E+01  0.76447114472E+01  0.00000000000E+00 0. -1.
</event>
<event>
 7    1  0.4374874E-012  0.5052887E+02  0.7816164E-02  0.1300439E+00
        -11   -1    0    0    0    0  0.00000000000E+00  0.00000000000E+00  0.45593999997E+02  0.45594000000E+02  0.51100000000E-03 0. -1.
         11   -1    0    0    0    0 -0.00000000000E+00 -0.00000000000E+00 -0.45593999997E+02  0.45594000000E+02  0.51100000000E-03 0.  1.
    9900012    2    1    2    0    0 -0.27333848033E+02 -0.37101149631E+01  0.29870735868E+02  0.50528867414E+02  0.30000022992E+02 0.  0.
        -12    1    1    2    0    0  0.27333848033E+02  0.37101149631E+01 -0.29870735868E+02  0.40659132586E+02  0.00000000000E+00 0.  1.
         11    1    3    3    0    0 -0.18823846579E+02 -0.48199935723E+00  0.20152714543E+02  0.27580816288E+02  0.51100000000E-03 0. -1.
        -11    1    3    3    0    0 -0.12794373486E+02 -0.51078462930E+01  0.19972089661E+01  0.13920306411E+02  0.51100000000E-03 0.  1.
        -12    1    3    3    0    0  0.42843720319E+01  0.18797306872E+01  0.77208123595E+01  0.90277447158E+01  0.00000000000E+00 0.  1.
</event>
<event>
 7    1  0.4374874E-012  0.5052886E+02  0.7816164E-02  0.1300439E+00
        -11   -1    0    0    0    0  0.00000000000E+00  0.00000000000E+00  0.45593999997E+02  0.45594000000E+02  0.51100000000E-03 0. -1.
         11   -1    0    0    0    0 -0.00000000000E+00 -0.00000000000E+00 -0.45593999997E+02  0.45594000000E+02  0.51100000000E-03 0.  1.
    9900012    2    1    2    0    0 -0.65124774930E+01  0.19372977354E+02 -0.35148846106E+02  0.50528855921E+02  0.29999988057E+02 0.  0.
         12    1    1    2    0    0  0.65124774930E+01 -0.19372977354E+02  0.35148846106E+02  0.40659144079E+02  0.00000000000E+00 0. -1.
         11    1    3    3    0    0  0.37028082170E+01  0.29679551590E+01 -0.67115163296E+01  0.82197322475E+01  0.51100000000E-03 0. -1.
        -11    1    3    3    0    0 -0.15853606191E+01 -0.62439218464E+01 -0.98303286262E+01  0.11753097016E+02  0.51100000000E-03 0.  1.
        -12    1    3    3    0    0 -0.86299250909E+01  0.22648944041E+02 -0.18607001150E+02  0.30556026657E+02  0.00000000000E+00 0.  1.
</event>
<event>
 7    1  0.4374874E-012  0.5052885E+02  0.7816164E-02  0.1300439E+00
        -11   -1    0    0    0    0  0.00000000000E+00  0.00000000000E+00  0.45593999997E+02  0.45594000000E+02  0.51100000000E-03 0.  1.
         11   -1    0    0    0    0 -0.00000000000E+00 -0.00000000000E+00 -0.45593999997E+02  0.45594000000E+02  0.51100000000E-03 0. -1.
    9900012    2    1    2    0    0  0.31149992003E+02 -0.13401064060E+02  0.22433358979E+02  0.50528854475E+02  0.29999983663E+02 0.  0.
         12    1    1    2    0    0 -0.31149992003E+02  0.13401064060E+02 -0.22433358979E+02  0.40659145525E+02  0.00000000000E+00 0. -1.
         11    1    3    3    0    0  0.11624145844E+02  0.89931738964E-01 -0.24817756563E+01  0.11886465623E+02  0.51100000000E-03 0. -1.
        -11    1    3    3    0    0  0.22413057965E+02 -0.11887111353E+02  0.18407541544E+02  0.31344635419E+02  0.51100000000E-03 0.  1.
         12    1    3    3    0    0 -0.28872118058E+01 -0.16038844461E+01  0.65075930918E+01  0.72977534335E+01  0.00000000000E+00 0. -1.
</event>
<event>
 7    1  0.4374874E-012  0.5052886E+02  0.7816164E-02  0.1300439E+00
        -11   -1    0    0    0    0  0.00000000000E+00  0.00000000000E+00  0.45593999997E+02  0.45594000000E+02  0.51100000000E-03 0.  1.
         11   -1    0    0    0    0 -0.00000000000E+00 -0.00000000000E+00 -0.45593999997E+02  0.45594000000E+02  0.51100000000E-03 0. -1.
    9900012    2    1    2    0    0  0.14328011324E+02 -0.27366204574E+02 -0.26437935950E+02  0.50528861807E+02  0.30000005949E+02 0.  0.
         12    1    1    2    0    0 -0.14328011324E+02  0.27366204574E+02  0.26437935950E+02  0.40659138193E+02  0.00000000000E+00 0. -1.
         11    1    3    3    0    0  0.12973192130E+01  0.38972197252E+01 -0.46028316653E+01  0.61690694863E+01  0.51100000000E-03 0. -1.
        -11    1    3    3    0    0  0.12130655593E+02 -0.70416645524E+01 -0.51872453828E+01  0.14954777153E+02  0.51100000000E-03 0.  1.
         12    1    3    3    0    0  0.90003651758E+00 -0.24221759747E+02 -0.16647858902E+02  0.29405015167E+02  0.00000000000E+00 0. -1.
</event>
<event>
 7    1  0.4374874E-012  0.5052886E+02  0.7816164E-02  0.1300439E+00
        -11   -1    0    0    0    0  0.00000000000E+00  0.00000000000E+00  0.45593999997E+02  0.45594000000E+02  0.51100000000E-03 0.  1.
         11   -1    0    0    0    0 -0.00000000000E+00 -0.00000000000E+00 -0.45593999997E+02  0.45594000000E+02  0.51100000000E-03 0. -1.
    9900012    2    1    2    0    0  0.22730522211E+02 -0.69830775389E+00 -0.33704623316E+02  0.50528857036E+02  0.29999991447E+02 0.  0.
         12    1    1    2    0    0 -0.22730522211E+02  0.69830775389E+00  0.33704623316E+02  0.40659142964E+02  0.00000000000E+00 0. -1.
         11    1    3    3    0    0  0.19571233185E+02  0.53277698185E+01 -0.16486514811E+02  0.26138543772E+02  0.51100000000E-03 0. -1.
        -11    1    3    3    0    0  0.47820369059E+01 -0.56152085098E+01 -0.29166202409E+00  0.73812946409E+01  0.51100000000E-03 0.  1.
        -12    1    3    3    0    0 -0.16227478805E+01 -0.41086906261E+00 -0.16926446481E+02  0.17009018624E+02  0.00000000000E+00 0.  1.
</event>
<event>
 7    1  0.4374874E-012  0.5052885E+02  0.7816164E-02  0.1300439E+00
        -11   -1    0    0    0    0  0.00000000000E+00  0.00000000000E+00  0.45593999997E+02  0.45594000000E+02  0.51100000000E-03 0. -1.
         11   -1    0    0    0    0 -0.00000000000E+00 -0.00000000000E+00 -0.45593999997E+02  0.45594000000E+02  0.51100000000E-03 0.  1.
    9900012    2    1    2    0    0 -0.40603210674E+01  0.35364296724E+02 -0.19648077768E+02  0.50528847894E+02  0.29999963660E+02 0.  0.
         12    1    1    2    0    0  0.40603210674E+01 -0.35364296724E+02  0.19648077768E+02  0.40659152106E+02  0.00000000000E+00 0. -1.
         11    1    3    3    0    0  0.26385974188E+01 -0.18349409398E+01 -0.67754481790E+01  0.74990601331E+01  0.51100000000E-03 0. -1.
        -11    1    3    3    0    0 -0.48615882993E+01  0.90057217320E+01 -0.10522974393E+02  0.14678932353E+02  0.51100000000E-03 0.  1.
         12    1    3    3    0    0 -0.18373301870E+01  0.28193515932E+02 -0.23496551964E+01  0.28350855408E+02  0.00000000000E+00 0. -1.
</event>
<event>
 7    1  0.4374874E-012  0.5052886E+02  0.7816164E-02  0.1300439E+00
        -11   -1    0    0    0    0  0.00000000000E+00  0.00000000000E+00  0.45593999997E+02  0.45594000000E+02  0.51100000000E-03 0. -1.
         11   -1    0    0    0    0 -0.00000000000E+00 -0.00000000000E+00 -0.45593999997E+02  0.45594000000E+02  0.51100000000E-03 0.  1.
    9900012    2    1    2    0    0  0.62965913638E+01  0.19126602672E+02  0.35322676882E+02  0.50528862101E+02  0.30000006843E+02 0.  0.
        -12    1    1    2    0    0 -0.62965913638E+01 -0.19126602672E+02 -0.35322676882E+02  0.40659137899E+02  0.00000000000E+00 0.  1.
         11    1    3    3    0    0 -0.19164029414E+01  0.61395017811E+01  0.73986875745E+01  0.98034004529E+01  0.51100000000E-03 0. -1.
        -11    1    3    3    0    0 -0.30263232782E+01 -0.63329615136E+01  0.91735164440E+01  0.11550689950E+02  0.51100000000E-03 0.  1.
         12    1    3    3    0    0  0.11239317583E+02  0.19320062405E+02  0.18750472863E+02  0.29174771698E+02  0.00000000000E+00 0. -1.
</event>
<event>
 7    1  0.4374874E-012  0.5052885E+02  0.7816164E-02  0.1300439E+00
        -11   -1    0    0    0    0  0.00000000000E+00  0.00000000000E+00  0.45593999997E+02  0.45594000000E+02  0.51100000000E-03 0. -1.
         11   -1    0    0    0    0 -0.00000000000E+00 -0.00000000000E+00 -0.45593999997E+02  0.45594000000E+02  0.51100000000E-03 0.  1.
    9900012    2    1    2    0    0 -0.84163608143E+01 -0.24356105279E+02  0.31450138465E+02  0.50528853388E+02  0.29999980359E+02 0.  0.
        -12    1    1    2    0    0  0.84163608143E+01  0.24356105279E+02 -0.31450138465E+02  0.40659146612E+02  0.00000000000E+00 0.  1.
         11    1    3    3    0    0  0.28757129815E+01 -0.14009675319E+02  0.22647961055E+02  0.26785646677E+02  0.51100000000E-03 0. -1.
        -11    1    3    3    0    0 -0.87382683405E+01 -0.12121017854E+02  0.12087556900E+02  0.19219402682E+02  0.51100000000E-03 0.  1.
         12    1    3    3    0    0 -0.25538054553E+01  0.17745878941E+01 -0.32853794898E+01  0.45238040286E+01  0.00000000000E+00 0. -1.
</event>
<event>
 7    1  0.4374874E-012  0.5052883E+02  0.7816164E-02  0.1300439E+00
        -11   -1    0    0    0    0  0.00000000000E+00  0.00000000000E+00  0.45593999997E+02  0.45594000000E+02  0.51100000000E-03 0. -1.
         11   -1    0    0    0    0 -0.00000000000E+00 -0.00000000000E+00 -0.45593999997E+02  0.45594000000E+02  0.51100000000E-03 0.  1.
    9900012    2    1    2    0    0 -0.33542642223E+02 -0.22727025898E+02  0.33972381527E+01  0.50528833991E+02  0.29999921399E+02 0.  0.
        -12    1    1    2    0    0  0.33542642223E+02  0.22727025898E+02 -0.33972381527E+01  0.40659166009E+02  0.00000000000E+00 0.  1.
         11    1    3    3    0    0 -0.21336088962E+01 -0.93338125185E+01  0.41938816804E+01  0.10452798040E+02  0.51100000000E-03 0. -1.
        -11    1    3    3    0    0 -0.31468283767E+01  0.43858918111E+01  0.34670909428E+01  0.64155510814E+01  0.51100000000E-03 0.  1.
        -12    1    3    3    0    0 -0.28262204950E+02 -0.17779105191E+02 -0.42637344705E+01  0.33660484870E+02  0.00000000000E+00 0.  1.
</event>
<event>
 7    1  0.4374874E-012  0.5052885E+02  0.7816164E-02  0.1300439E+00
        -11   -1    0    0    0    0  0.00000000000E+00  0.00000000000E+00  0.45593999997E+02  0.45594000000E+02  0.51100000000E-03 0. -1.
         11   -1    0    0    0    0 -0.00000000000E+00 -0.00000000000E+00 -0.45593999997E+02  0.45594000000E+02  0.51100000000E-03 0.  1.
    9900012    2    1    2    0    0  0.38977602626E+02 -0.45210099852E+01  0.10652406378E+02  0.50528846056E+02  0.29999958073E+02 0.  0.
        -12    1    1    2    0    0 -0.38977602626E+02  0.45210099852E+01 -0.10652406378E+02  0.40659153944E+02  0.00000000000E+00 0.  1.
         11    1    3    3    0    0  0.19064621870E+02  0.30594196105E+00  0.39971723533E+01  0.19481550108E+02  0.51100000000E-03 0. -1.
        -11    1    3    3    0    0  0.18093749103E+02 -0.86683546359E+01  0.12635572564E+02  0.23710373742E+02  0.51100000000E-03 0.  1.
        -12    1    3    3    0    0  0.18192316534E+01  0.38414026896E+01 -0.59803385387E+01  0.73369222069E+01  0.00000000000E+00 0.  1.
</event>
<event>
 7    1  0.4374874E-012  0.5052888E+02  0.7816164E-02  0.1300439E+00
        -11   -1    0    0    0    0  0.00000000000E+00  0.00000000000E+00  0.45593999997E+02  0.45594000000E+02  0.51100000000E-03 0. -1.
         11   -1    0    0    0    0 -0.00000000000E+00 -0.00000000000E+00 -0.45593999997E+02  0.45594000000E+02  0.51100000000E-03 0.  1.
    9900012    2    1    2    0    0  0.58654173144E+01 -0.17700226974E+02  0.36131192401E+02  0.50528877782E+02  0.30000054506E+02 0.  0.
        -12    1    1    2    0    0 -0.58654173144E+01  0.17700226974E+02 -0.36131192401E+02  0.40659122218E+02  0.00000000000E+00 0.  1.
         11    1    3    3    0    0  0.88388418746E+00  0.26795634872E+01  0.14105290486E+01  0.31545053807E+01  0.51100000000E-03 0.  1.
        -11    1    3    3    0    0  0.94210698061E+01 -0.75900939921E+01  0.31085119292E+02  0.33356419543E+02  0.51100000000E-03 0. -1.
        -12    1    3    3    0    0 -0.44395366792E+01 -0.12789696470E+02  0.36355440609E+01  0.14017952858E+02  0.00000000000E+00 0.  1.
</event>
<event>
 7    1  0.4374874E-012  0.5052887E+02  0.7816164E-02  0.1300439E+00
        -11   -1    0    0    0    0  0.00000000000E+00  0.00000000000E+00  0.45593999997E+02  0.45594000000E+02  0.51100000000E-03 0. -1.
         11   -1    0    0    0    0 -0.00000000000E+00 -0.00000000000E+00 -0.45593999997E+02  0.45594000000E+02  0.51100000000E-03 0.  1.
    9900012    2    1    2    0    0 -0.17923814898E+02 -0.20645458597E+02  0.30094303979E+02  0.50528865317E+02  0.30000016618E+02 0.  0.
        -12    1    1    2    0    0  0.17923814898E+02  0.20645458597E+02 -0.30094303979E+02  0.40659134683E+02  0.00000000000E+00 0.  1.
         11    1    3    3    0    0 -0.17624627146E+02 -0.95872679371E+01  0.20880005379E+02  0.28957172055E+02  0.51100000000E-03 0. -1.
        -11    1    3    3    0    0 -0.61226109076E+01 -0.64338697646E+00 -0.51188836083E+00  0.61775675701E+01  0.51100000000E-03 0.  1.
         12    1    3    3    0    0  0.58234231563E+01 -0.10414803683E+02  0.97261869613E+01  0.15394125692E+02  0.00000000000E+00 0. -1.
</event>
<event>
 7    1  0.4374874E-012  0.5052886E+02  0.7816164E-02  0.1300439E+00
        -11   -1    0    0    0    0  0.00000000000E+00  0.00000000000E+00  0.45593999997E+02  0.45594000000E+02  0.51100000000E-03 0. -1.
         11   -1    0    0    0    0 -0.00000000000E+00 -0.00000000000E+00 -0.45593999997E+02  0.45594000000E+02  0.51100000000E-03 0.  1.
    9900012    2    1    2    0    0 -0.14691029826E+02 -0.13188107913E+02  0.35544523573E+02  0.50528859530E+02  0.29999999029E+02 0.  0.
        -12    1    1    2    0    0  0.14691029826E+02  0.13188107913E+02 -0.35544523573E+02  0.40659140470E+02  0.00000000000E+00 0.  1.
         11    1    3    3    0    0  0.52371626977E+01 -0.54878096903E+01  0.62832274839E+01  0.98500190962E+01  0.51100000000E-03 0. -1.
        -11    1    3    3    0    0 -0.72285523865E+01  0.41884287085E+01  0.24280714180E+01  0.87000250415E+01  0.51100000000E-03 0.  1.
         12    1    3    3    0    0 -0.12699640137E+02 -0.11888726931E+02  0.26833224671E+02  0.31978815393E+02  0.00000000000E+00 0. -1.
</event>
<event>
 7    1  0.4374874E-012  0.5052882E+02  0.7816164E-02  0.1300439E+00
        -11   -1    0    0    0    0  0.00000000000E+00  0.00000000000E+00  0.45593999997E+02  0.45594000000E+02  0.51100000000E-03 0. -1.
         11   -1    0    0    0    0 -0.00000000000E+00 -0.00000000000E+00 -0.45593999997E+02  0.45594000000E+02  0.51100000000E-03 0.  1.
    9900012    2    1    2    0    0  0.10688860276E+02  0.21413324083E+02 -0.32869231958E+02  0.50528824015E+02  0.29999891075E+02 0.  0.
         12    1    1    2    0    0 -0.10688860276E+02 -0.21413324083E+02  0.32869231958E+02  0.40659175985E+02  0.00000000000E+00 0. -1.
         11    1    3    3    0    0  0.71491818508E+01  0.11793253266E+02 -0.66543418871E+01  0.15312474978E+02  0.51100000000E-03 0. -1.
        -11    1    3    3    0    0  0.76418926400E+01 -0.52607686809E+00 -0.99509987375E+00  0.77243448921E+01  0.51100000000E-03 0.  1.
         12    1    3    3    0    0 -0.41022142152E+01  0.10146147685E+02 -0.25219790197E+02  0.27492004145E+02  0.00000000000E+00 0. -1.
</event>
<event>
 7    1  0.4374874E-012  0.5052886E+02  0.7816164E-02  0.1300439E+00
        -11   -1    0    0    0    0  0.00000000000E+00  0.00000000000E+00  0.45593999997E+02  0.45594000000E+02  0.51100000000E-03 0. -1.
         11   -1    0    0    0    0 -0.00000000000E+00 -0.00000000000E+00 -0.45593999997E+02  0.45594000000E+02  0.51100000000E-03 0.  1.
    9900012    2    1    2    0    0 -0.19104402967E+02  0.16998751028E+02 -0.31610600626E+02  0.50528858086E+02  0.29999994639E+02 0.  0.
         12    1    1    2    0    0  0.19104402967E+02 -0.16998751028E+02  0.31610600626E+02  0.40659141914E+02  0.00000000000E+00 0. -1.
         11    1    3    3    0    0 -0.19812608686E+01  0.21738027622E+01 -0.12492022217E+02  0.12833605589E+02  0.51100000000E-03 0. -1.
        -11    1    3    3    0    0 -0.20214932840E+02  0.56161548129E+01 -0.18482541131E+02  0.27960490545E+02  0.51100000000E-03 0.  1.
         12    1    3    3    0    0  0.30917907419E+01  0.92087934529E+01 -0.63603727790E+00  0.97347619524E+01  0.00000000000E+00 0. -1.
</event>
<event>
 7    1  0.4374874E-012  0.5052886E+02  0.7816164E-02  0.1300439E+00
        -11   -1    0    0    0    0  0.00000000000E+00  0.00000000000E+00  0.45593999997E+02  0.45594000000E+02  0.51100000000E-03 0. -1.
         11   -1    0    0    0    0 -0.00000000000E+00 -0.00000000000E+00 -0.45593999997E+02  0.45594000000E+02  0.51100000000E-03 0.  1.
    9900012    2    1    2    0    0  0.17966941210E+02 -0.48224796748E+01  0.36153815152E+02  0.50528860354E+02  0.30000001532E+02 0.  0.
        -12    1    1    2    0    0 -0.17966941210E+02  0.48224796748E+01 -0.36153815152E+02  0.40659139646E+02  0.00000000000E+00 0.  1.
         11    1    3    3    0    0 -0.34256572889E+01 -0.22934254941E+01  0.53800520806E+01  0.67778970935E+01  0.51100000000E-03 0.  1.
        -11    1    3    3    0    0  0.25942255864E+02 -0.22400624681E+01  0.23015510810E+02  0.34752442465E+02  0.51100000000E-03 0. -1.
         12    1    3    3    0    0 -0.45496573651E+01 -0.28899171259E+00  0.77582522617E+01  0.89985207954E+01  0.00000000000E+00 0. -1.
</event>
<event>
 7    1  0.4374874E-012  0.5052885E+02  0.7816164E-02  0.1300439E+00
        -11   -1    0    0    0    0  0.00000000000E+00  0.00000000000E+00  0.45593999997E+02  0.45594000000E+02  0.51100000000E-03 0. -1.
         11   -1    0    0    0    0 -0.00000000000E+00 -0.00000000000E+00 -0.45593999997E+02  0.45594000000E+02  0.51100000000E-03 0.  1.
    9900012    2    1    2    0    0  0.20702158308E+02 -0.98558795328E+01  0.33577499977E+02  0.50528853124E+02  0.29999979555E+02 0.  0.
        -12    1    1    2    0    0 -0.20702158308E+02  0.98558795328E+01 -0.33577499977E+02  0.40659146876E+02  0.00000000000E+00 0.  1.
         11    1    3    3    0    0  0.11082342106E+02 -0.98248928096E+01  0.15548140845E+02  0.21473041454E+02  0.51100000000E-03 0. -1.
        -11    1    3    3    0    0  0.14621241746E+02  0.28291273265E+01  0.17910461791E+02  0.23293117298E+02  0.51100000000E-03 0.  1.
        -12    1    3    3    0    0 -0.50014255443E+01 -0.28601140497E+01  0.11889734161E+00  0.57626943724E+01  0.00000000000E+00 0.  1.
</event>
<event>
 7    1  0.4374874E-012  0.5052885E+02  0.7816164E-02  0.1300439E+00
        -11   -1    0    0    0    0  0.00000000000E+00  0.00000000000E+00  0.45593999997E+02  0.45594000000E+02  0.51100000000E-03 0.  1.
         11   -1    0    0    0    0 -0.00000000000E+00 -0.00000000000E+00 -0.45593999997E+02  0.45594000000E+02  0.51100000000E-03 0. -1.
    9900012    2    1    2    0    0 -0.84584884193E+01  0.36215423088E+02 -0.16433600591E+02  0.50528854360E+02  0.29999983313E+02 0.  0.
         12    1    1    2    0    0  0.84584884193E+01 -0.36215423088E+02  0.16433600591E+02  0.40659145640E+02  0.00000000000E+00 0. -1.
         11    1    3    3    0    0 -0.79181226018E+00  0.53542192057E+01  0.68172246228E+01  0.87045494873E+01  0.51100000000E-03 0. -1.
        -11    1    3    3    0    0  0.29001788893E+01  0.16327099851E+02 -0.88502439539E+01  0.18796596645E+02  0.51100000000E-03 0.  1.
         12    1    3    3    0    0 -0.10566855048E+02  0.14534104031E+02 -0.14400581260E+02  0.23027708228E+02  0.00000000000E+00 0. -1.
</event>
<event>
 7    1  0.4374874E-012  0.5052886E+02  0.7816164E-02  0.1300439E+00
        -11   -1    0    0    0    0  0.00000000000E+00  0.00000000000E+00  0.45593999997E+02  0.45594000000E+02  0.51100000000E-03 0. -1.
         11   -1    0    0    0    0 -0.00000000000E+00 -0.00000000000E+00 -0.45593999997E+02  0.45594000000E+02  0.51100000000E-03 0.  1.
    9900012    2    1    2    0    0 -0.14300021653E+02  0.17482389582E+02  0.33808893322E+02  0.50528857948E+02  0.29999994218E+02 0.  0.
        -12    1    1    2    0    0  0.14300021653E+02 -0.17482389582E+02 -0.33808893322E+02  0.40659142052E+02  0.00000000000E+00 0.  1.
         11    1    3    3    0    0 -0.10202619879E+02  0.12559662237E+02  0.19279820214E+02  0.25170419854E+02  0.51100000000E-03 0. -1.
        -11    1    3    3    0    0  0.19522526646E+00  0.12263824940E+02  0.90386238744E+01  0.15236017750E+02  0.51100000000E-03 0.  1.
        -12    1    3    3    0    0 -0.42926270408E+01 -0.73410975956E+01  0.54904492337E+01  0.10122420343E+02  0.00000000000E+00 0.  1.
</event>
<event>
 7    1  0.4374874E-012  0.5052886E+02  0.7816164E-02  0.1300439E+00
        -11   -1    0    0    0    0  0.00000000000E+00  0.00000000000E+00  0.45593999997E+02  0.45594000000E+02  0.51100000000E-03 0. -1.
         11   -1    0    0    0    0 -0.00000000000E+00 -0.00000000000E+00 -0.45593999997E+02  0.45594000000E+02  0.51100000000E-03 0.  1.
    9900012    2    1    2    0    0  0.18503622146E+02  0.10871274753E+02  0.34534000702E+02  0.50528857710E+02  0.29999993495E+02 0.  0.
        -12    1    1    2    0    0 -0.18503622146E+02 -0.10871274753E+02 -0.34534000702E+02  0.40659142290E+02  0.00000000000E+00 0.  1.
         11    1    3    3    0    0  0.61933114667E+01 -0.37956738423E+01  0.12548025353E+02  0.14498868486E+02  0.51100000000E-03 0. -1.
        -11    1    3    3    0    0 -0.39924794050E+01  0.32899814739E+01  0.13420668142E+02  0.14383261227E+02  0.51100000000E-03 0.  1.
        -12    1    3    3    0    0  0.16302790084E+02  0.11376967121E+02  0.85653072071E+01  0.21646727997E+02  0.00000000000E+00 0.  1.
</event>
<event>
 7    1  0.4374874E-012  0.5052884E+02  0.7816164E-02  0.1300439E+00
        -11   -1    0    0    0    0  0.00000000000E+00  0.00000000000E+00  0.45593999997E+02  0.45594000000E+02  0.51100000000E-03 0. -1.
         11   -1    0    0    0    0 -0.00000000000E+00 -0.00000000000E+00 -0.45593999997E+02  0.45594000000E+02  0.51100000000E-03 0.  1.
    9900012    2    1    2    0    0  0.21485915380E+01  0.12055857914E+02  0.38771220071E+02  0.50528835456E+02  0.29999925851E+02 0.  0.
        -12    1    1    2    0    0 -0.21485915380E+01 -0.12055857914E+02 -0.38771220071E+02  0.40659164544E+02  0.00000000000E+00 0.  1.
         11    1    3    3    0    0  0.47540440305E+01  0.70847409987E+01  0.15330009244E+02  0.17544334509E+02  0.51100000000E-03 0. -1.
        -11    1    3    3    0    0  0.64938311629E+01  0.48645406665E+01  0.30106834392E+00  0.81193744511E+01  0.51100000000E-03 0.  1.
         12    1    3    3    0    0 -0.90992836554E+01  0.10657624910E+00  0.23140142483E+02  0.24865126496E+02  0.00000000000E+00 0. -1.
</event>
<event>
 7    1  0.4374874E-012  0.5052886E+02  0.7816164E-02  0.1300439E+00
        -11   -1    0    0    0    0  0.00000000000E+00  0.00000000000E+00  0.45593999997E+02  0.45594000000E+02  0.51100000000E-03 0. -1.
         11   -1    0    0    0    0 -0.00000000000E+00 -0.00000000000E+00 -0.45593999997E+02  0.45594000000E+02  0.51100000000E-03 0.  1.
    9900012    2    1    2    0    0 -0.25075775330E+02 -0.65830957677E+01  0.31321460867E+02  0.50528861186E+02  0.30000004060E+02 0.  0.
        -12    1    1    2    0    0  0.25075775330E+02  0.65830957677E+01 -0.31321460867E+02  0.40659138814E+02  0.00000000000E+00 0.  1.
         11    1    3    3    0    0 -0.33489085097E+01  0.50240809288E+01  0.38296394736E+01  0.71500151150E+01  0.51100000000E-03 0. -1.
        -11    1    3    3    0    0  0.58964589281E+00  0.52127362364E+01  0.22027395685E+01  0.56896716265E+01  0.51100000000E-03 0.  1.
         12    1    3    3    0    0 -0.22316512713E+02 -0.16819912933E+02  0.25289081825E+02  0.37689174444E+02  0.00000000000E+00 0. -1.
</event>
<event>
 7    1  0.4374874E-012  0.5052884E+02  0.7816164E-02  0.1300439E+00
        -11   -1    0    0    0    0  0.00000000000E+00  0.00000000000E+00  0.45593999997E+02  0.45594000000E+02  0.51100000000E-03 0. -1.
         11   -1    0    0    0    0 -0.00000000000E+00 -0.00000000000E+00 -0.45593999997E+02  0.45594000000E+02  0.51100000000E-03 0.  1.
    9900012    2    1    2    0    0 -0.20017843846E+02  0.20549492317E+02 -0.28812701216E+02  0.50528837956E+02  0.29999933452E+02 0.  0.
         12    1    1    2    0    0  0.20017843846E+02 -0.20549492317E+02  0.28812701216E+02  0.40659162044E+02  0.00000000000E+00 0. -1.
         11    1    3    3    0    0 -0.90246096235E+01  0.50356129108E+01 -0.21307822497E+02  0.23681728739E+02  0.51100000000E-03 0. -1.
        -11    1    3    3    0    0 -0.99834680426E+01  0.14696620231E+02 -0.12475585894E+02  0.21709457018E+02  0.51100000000E-03 0.  1.
         12    1    3    3    0    0 -0.10097661795E+01  0.81725917533E+00  0.49707071749E+01  0.51376521987E+01  0.00000000000E+00 0. -1.
</event>
<event>
 7    1  0.4374874E-012  0.5052886E+02  0.7816164E-02  0.1300439E+00
        -11   -1    0    0    0    0  0.00000000000E+00  0.00000000000E+00  0.45593999997E+02  0.45594000000E+02  0.51100000000E-03 0. -1.
         11   -1    0    0    0    0 -0.00000000000E+00 -0.00000000000E+00 -0.45593999997E+02  0.45594000000E+02  0.51100000000E-03 0.  1.
    9900012    2    1    2    0    0 -0.51834429607E+01 -0.38801037607E+01 -0.40140283161E+02  0.50528860580E+02  0.30000002218E+02 0.  0.
         12    1    1    2    0    0  0.51834429607E+01  0.38801037607E+01  0.40140283161E+02  0.40659139420E+02  0.00000000000E+00 0. -1.
         11    1    3    3    0    0 -0.92728351370E+01 -0.76965989630E+01 -0.34814015096E+01  0.12543654324E+02  0.51100000000E-03 0. -1.
        -11    1    3    3    0    0 -0.15163719207E+01  0.27583648278E+01 -0.57585502122E+01  0.65626870360E+01  0.51100000000E-03 0.  1.
        -12    1    3    3    0    0  0.56057640970E+01  0.10581303745E+01 -0.30900331440E+02  0.31422519219E+02  0.00000000000E+00 0.  1.
</event>
<event>
 7    1  0.4374874E-012  0.5052885E+02  0.7816164E-02  0.1300439E+00
        -11   -1    0    0    0    0  0.00000000000E+00  0.00000000000E+00  0.45593999997E+02  0.45594000000E+02  0.51100000000E-03 0. -1.
         11   -1    0    0    0    0 -0.00000000000E+00 -0.00000000000E+00 -0.45593999997E+02  0.45594000000E+02  0.51100000000E-03 0.  1.
    9900012    2    1    2    0    0 -0.21590776637E+02  0.21746718846E+01 -0.34384240703E+02  0.50528845529E+02  0.29999956469E+02 0.  0.
         12    1    1    2    0    0  0.21590776637E+02 -0.21746718846E+01  0.34384240703E+02  0.40659154471E+02  0.00000000000E+00 0. -1.
         11    1    3    3    0    0  0.17759761123E+00  0.59962757024E+01 -0.54583310103E+01  0.81105018889E+01  0.51100000000E-03 0. -1.
        -11    1    3    3    0    0 -0.22502357712E+02 -0.29478569505E+01 -0.31947837962E+02  0.39188139965E+02  0.51100000000E-03 0.  1.
         12    1    3    3    0    0  0.73398346422E+00 -0.87374686732E+00  0.30219282695E+01  0.32302036747E+01  0.00000000000E+00 0. -1.
</event>
<event>
 7    1  0.4374874E-012  0.5052886E+02  0.7816164E-02  0.1300439E+00
        -11   -1    0    0    0    0  0.00000000000E+00  0.00000000000E+00  0.45593999997E+02  0.45594000000E+02  0.51100000000E-03 0. -1.
         11   -1    0    0    0    0 -0.00000000000E+00 -0.00000000000E+00 -0.45593999997E+02  0.45594000000E+02  0.51100000000E-03 0.  1.
    9900012    2    1    2    0    0 -0.37952516638E+01 -0.24065444955E+02 -0.32551748496E+02  0.50528857040E+02  0.29999991460E+02 0.  0.
         12    1    1    2    0    0  0.37952516638E+01  0.24065444955E+02  0.32551748496E+02  0.40659142960E+02  0.00000000000E+00 0. -1.
         11    1    3    3    0    0  0.36697653965E+00  0.19153937103E+01 -0.17751223700E+01  0.26371318768E+01  0.51100000000E-03 0. -1.
        -11    1    3    3    0    0 -0.14174464174E+02 -0.95959990774E+01 -0.17930324807E+02  0.24789013309E+02  0.51100000000E-03 0.  1.
        -12    1    3    3    0    0  0.10012235970E+02 -0.16384839588E+02 -0.12846301319E+02  0.23102711854E+02  0.00000000000E+00 0.  1.
</event>
<event>
 7    1  0.4374874E-012  0.5052882E+02  0.7816164E-02  0.1300439E+00
        -11   -1    0    0    0    0  0.00000000000E+00  0.00000000000E+00  0.45593999997E+02  0.45594000000E+02  0.51100000000E-03 0. -1.
         11   -1    0    0    0    0 -0.00000000000E+00 -0.00000000000E+00 -0.45593999997E+02  0.45594000000E+02  0.51100000000E-03 0.  1.
    9900012    2    1    2    0    0  0.15825662762E+01 -0.39912909308E+02  0.75910732267E+01  0.50528816066E+02  0.29999866913E+02 0.  0.
        -12    1    1    2    0    0 -0.15825662762E+01  0.39912909308E+02 -0.75910732267E+01  0.40659183934E+02  0.00000000000E+00 0.  1.
         11    1    3    3    0    0  0.17971333829E+01 -0.15718171504E+02 -0.38779404856E+01  0.16288923430E+02  0.51100000000E-03 0.  1.
        -11    1    3    3    0    0  0.81932064407E+01 -0.21696577912E+02  0.61944524471E+01  0.24005027936E+02  0.51100000000E-03 0. -1.
         12    1    3    3    0    0 -0.84077735474E+01 -0.24981598926E+01  0.52745612651E+01  0.10234864699E+02  0.00000000000E+00 0. -1.
</event>
<event>
 7    1  0.4374874E-012  0.5052886E+02  0.7816164E-02  0.1300439E+00
        -11   -1    0    0    0    0  0.00000000000E+00  0.00000000000E+00  0.45593999997E+02  0.45594000000E+02  0.51100000000E-03 0. -1.
         11   -1    0    0    0    0 -0.00000000000E+00 -0.00000000000E+00 -0.45593999997E+02  0.45594000000E+02  0.51100000000E-03 0.  1.
    9900012    2    1    2    0    0 -0.27483245279E+02  0.13877094060E+02  0.26556795488E+02  0.50528857151E+02  0.29999991797E+02 0.  0.
        -12    1    1    2    0    0  0.27483245279E+02 -0.13877094060E+02 -0.26556795488E+02  0.40659142849E+02  0.00000000000E+00 0.  1.
         11    1    3    3    0    0 -0.45657119259E+01 -0.20758321409E+01 -0.29147247611E+01  0.58008986513E+01  0.51100000000E-03 0. -1.
        -11    1    3    3    0    0 -0.63079361765E+01  0.50537226190E+01 -0.12135219839E+01  0.81732984151E+01  0.51100000000E-03 0.  1.
         12    1    3    3    0    0 -0.16609597176E+02  0.10899203582E+02  0.30685042233E+02  0.36554660085E+02  0.00000000000E+00 0. -1.
</event>
<event>
 7    1  0.4374874E-012  0.5052886E+02  0.7816164E-02  0.1300439E+00
        -11   -1    0    0    0    0  0.00000000000E+00  0.00000000000E+00  0.45593999997E+02  0.45594000000E+02  0.51100000000E-03 0. -1.
         11   -1    0    0    0    0 -0.00000000000E+00 -0.00000000000E+00 -0.45593999997E+02  0.45594000000E+02  0.51100000000E-03 0.  1.
    9900012    2    1    2    0    0 -0.54370102820E+01 -0.28390171372E+01 -0.40193840182E+02  0.50528857269E+02  0.29999992153E+02 0.  0.
         12    1    1    2    0    0  0.54370102820E+01  0.28390171372E+01  0.40193840182E+02  0.40659142731E+02  0.00000000000E+00 0. -1.
         11    1    3    3    0    0 -0.35229447818E+00  0.14789310670E+01  0.24102057739E+01  0.28496386848E+01  0.51100000000E-03 0. -1.
        -11    1    3    3    0    0  0.75615276569E+01 -0.16856239974E+01 -0.22370198626E+02  0.23673694592E+02  0.51100000000E-03 0.  1.
         12    1    3    3    0    0 -0.12646243461E+02 -0.26323242068E+01 -0.20233847329E+02  0.24005523992E+02  0.00000000000E+00 0. -1.
</event>
<event>
 7    1  0.4374874E-012  0.5052887E+02  0.7816164E-02  0.1300439E+00
        -11   -1    0    0    0    0  0.00000000000E+00  0.00000000000E+00  0.45593999997E+02  0.45594000000E+02  0.51100000000E-03 0. -1.
         11   -1    0    0    0    0 -0.00000000000E+00 -0.00000000000E+00 -0.45593999997E+02  0.45594000000E+02  0.51100000000E-03 0.  1.
    9900012    2    1    2    0    0 -0.19587000629E+02 -0.12384117258E+02 -0.33408805401E+02  0.50528865328E+02  0.30000016652E+02 0.  0.
         12    1    1    2    0    0  0.19587000629E+02  0.12384117258E+02  0.33408805401E+02  0.40659134672E+02  0.00000000000E+00 0. -1.
         11    1    3    3    0    0 -0.62933716601E+01 -0.40849492393E+01  0.63417293958E+00  0.75296422702E+01  0.51100000000E-03 0. -1.
        -11    1    3    3    0    0 -0.21692754914E+01  0.68852528361E+01 -0.70430353914E+01  0.10085475227E+02  0.51100000000E-03 0.  1.
        -12    1    3    3    0    0 -0.11124353478E+02 -0.15184420855E+02 -0.26999942949E+02  0.32913747831E+02  0.00000000000E+00 0.  1.
</event>
<event>
 7    1  0.4374874E-012  0.5052887E+02  0.7816164E-02  0.1300439E+00
        -11   -1    0    0    0    0  0.00000000000E+00  0.00000000000E+00  0.45593999997E+02  0.45594000000E+02  0.51100000000E-03 0. -1.
         11   -1    0    0    0    0 -0.00000000000E+00 -0.00000000000E+00 -0.45593999997E+02  0.45594000000E+02  0.51100000000E-03 0.  1.
    9900012    2    1    2    0    0  0.80565592528E+01  0.21952667027E+02 -0.33261651554E+02  0.50528865717E+02  0.30000017833E+02 0.  0.
         12    1    1    2    0    0 -0.80565592528E+01 -0.21952667027E+02  0.33261651554E+02  0.40659134283E+02  0.00000000000E+00 0. -1.
         11    1    3    3    0    0  0.55977567103E+01 -0.48925981461E+01 -0.57963592697E+01  0.94270980610E+01  0.51100000000E-03 0. -1.
        -11    1    3    3    0    0  0.68581604724E+01  0.74177430995E+01 -0.57085623215E+01  0.11603661568E+02  0.51100000000E-03 0.  1.
        -12    1    3    3    0    0 -0.43993579299E+01  0.19427522073E+02 -0.21756729962E+02  0.29498106088E+02  0.00000000000E+00 0.  1.
</event>
<event>
 7    1  0.4374874E-012  0.5052886E+02  0.7816164E-02  0.1300439E+00
        -11   -1    0    0    0    0  0.00000000000E+00  0.00000000000E+00  0.45593999997E+02  0.45594000000E+02  0.51100000000E-03 0. -1.
         11   -1    0    0    0    0 -0.00000000000E+00 -0.00000000000E+00 -0.45593999997E+02  0.45594000000E+02  0.51100000000E-03 0.  1.
    9900012    2    1    2    0    0  0.82314780202E+01 -0.21963257041E+02  0.33211802636E+02  0.50528859274E+02  0.29999998249E+02 0.  0.
        -12    1    1    2    0    0 -0.82314780202E+01  0.21963257041E+02 -0.33211802636E+02  0.40659140726E+02  0.00000000000E+00 0.  1.
         11    1    3    3    0    0  0.34197078796E+01 -0.54270105510E+01 -0.37870075885E+01  0.74490450554E+01  0.51100000000E-03 0. -1.
        -11    1    3    3    0    0  0.14404556703E+01 -0.41708655004E+00 -0.90613202887E+00  0.17521270625E+01  0.51100000000E-03 0.  1.
         12    1    3    3    0    0  0.33713144703E+01 -0.16119159940E+02  0.37904942254E+02  0.41327687156E+02  0.00000000000E+00 0. -1.
</event>
<event>
 7    1  0.4374874E-012  0.5052885E+02  0.7816164E-02  0.1300439E+00
        -11   -1    0    0    0    0  0.00000000000E+00  0.00000000000E+00  0.45593999997E+02  0.45594000000E+02  0.51100000000E-03 0. -1.
         11   -1    0    0    0    0 -0.00000000000E+00 -0.00000000000E+00 -0.45593999997E+02  0.45594000000E+02  0.51100000000E-03 0.  1.
    9900012    2    1    2    0    0  0.48718279529E+01 -0.28328125996E+02 -0.28756723596E+02  0.50528848730E+02  0.29999966199E+02 0.  0.
         12    1    1    2    0    0 -0.48718279529E+01  0.28328125996E+02  0.28756723596E+02  0.40659151270E+02  0.00000000000E+00 0. -1.
         11    1    3    3    0    0 -0.78318663028E+01 -0.11440405237E+02 -0.16225034139E+02  0.21341807207E+02  0.51100000000E-03 0. -1.
        -11    1    3    3    0    0  0.39230695982E+00  0.29168139809E+01 -0.22355417241E+01  0.36958565464E+01  0.51100000000E-03 0.  1.
        -12    1    3    3    0    0  0.12311387296E+02 -0.19804534739E+02 -0.10296147733E+02  0.25491184977E+02  0.00000000000E+00 0.  1.
</event>
<event>
 7    1  0.4374874E-012  0.5052886E+02  0.7816164E-02  0.1300439E+00
        -11   -1    0    0    0    0  0.00000000000E+00  0.00000000000E+00  0.45593999997E+02  0.45594000000E+02  0.51100000000E-03 0. -1.
         11   -1    0    0    0    0 -0.00000000000E+00 -0.00000000000E+00 -0.45593999997E+02  0.45594000000E+02  0.51100000000E-03 0.  1.
    9900012    2    1    2    0    0 -0.42817421205E+01  0.36961770456E+02  0.16390851617E+02  0.50528858254E+02  0.29999995147E+02 0.  0.
        -12    1    1    2    0    0  0.42817421205E+01 -0.36961770456E+02 -0.16390851617E+02  0.40659141746E+02  0.00000000000E+00 0.  1.
         11    1    3    3    0    0  0.16372575856E+01  0.56485095439E+01  0.94806882571E+01  0.11156599955E+02  0.51100000000E-03 0. -1.
        -11    1    3    3    0    0 -0.99290961853E+01  0.11301123224E+02  0.10898429581E+02  0.18576278012E+02  0.51100000000E-03 0.  1.
         12    1    3    3    0    0  0.40100964791E+01  0.20012137688E+02 -0.39882662213E+01  0.20795980286E+02  0.00000000000E+00 0. -1.
</event>
<event>
 7    1  0.4374874E-012  0.5052886E+02  0.7816164E-02  0.1300439E+00
        -11   -1    0    0    0    0  0.00000000000E+00  0.00000000000E+00  0.45593999997E+02  0.45594000000E+02  0.51100000000E-03 0. -1.
         11   -1    0    0    0    0 -0.00000000000E+00 -0.00000000000E+00 -0.45593999997E+02  0.45594000000E+02  0.51100000000E-03 0.  1.
    9900012    2    1    2    0    0 -0.75678360884E+01 -0.13424038564E+00 -0.39948412499E+02  0.50528858043E+02  0.29999994506E+02 0.  0.
         12    1    1    2    0    0  0.75678360884E+01  0.13424038564E+00  0.39948412499E+02  0.40659141957E+02  0.00000000000E+00 0. -1.
         11    1    3    3    0    0  0.76074378528E+01 -0.37741710046E+01 -0.18988425038E+02  0.20800907748E+02  0.51100000000E-03 0. -1.
        -11    1    3    3    0    0 -0.33489194710E+01 -0.20594932916E+01 -0.14638357434E+02  0.15157119874E+02  0.51100000000E-03 0.  1.
         12    1    3    3    0    0 -0.11826354470E+02  0.56994239106E+01 -0.63216300272E+01  0.14570830421E+02  0.00000000000E+00 0. -1.
</event>
<event>
 7    1  0.4374874E-012  0.5052887E+02  0.7816164E-02  0.1300439E+00
        -11   -1    0    0    0    0  0.00000000000E+00  0.00000000000E+00  0.45593999997E+02  0.45594000000E+02  0.51100000000E-03 0. -1.
         11   -1    0    0    0    0 -0.00000000000E+00 -0.00000000000E+00 -0.45593999997E+02  0.45594000000E+02  0.51100000000E-03 0.  1.
    9900012    2    1    2    0    0  0.19836502756E+01 -0.16022474009E+02  0.37316357230E+02  0.50528867462E+02  0.30000023138E+02 0.  0.
        -12    1    1    2    0    0 -0.19836502756E+01  0.16022474009E+02 -0.37316357230E+02  0.40659132538E+02  0.00000000000E+00 0.  1.
         11    1    3    3    0    0  0.24968958529E+01 -0.20596115215E+00 -0.46613442453E+00  0.25483701574E+01  0.51100000000E-03 0. -1.
        -11    1    3    3    0    0 -0.20747840717E+01 -0.65103558288E+00 -0.34172495335E+01  0.40504531734E+01  0.51100000000E-03 0.  1.
         12    1    3    3    0    0  0.15615384944E+01 -0.15165477274E+02  0.41199741188E+02  0.43930044131E+02  0.00000000000E+00 0. -1.
</event>
<event>
 7    1  0.4374874E-012  0.5052886E+02  0.7816164E-02  0.1300439E+00
        -11   -1    0    0    0    0  0.00000000000E+00  0.00000000000E+00  0.45593999997E+02  0.45594000000E+02  0.51100000000E-03 0. -1.
         11   -1    0    0    0    0 -0.00000000000E+00 -0.00000000000E+00 -0.45593999997E+02  0.45594000000E+02  0.51100000000E-03 0.  1.
    9900012    2    1    2    0    0 -0.78847755863E+01 -0.30175861124E+02  0.26084731744E+02  0.50528861903E+02  0.30000006241E+02 0.  0.
        -12    1    1    2    0    0  0.78847755863E+01  0.30175861124E+02 -0.26084731744E+02  0.40659138097E+02  0.00000000000E+00 0.  1.
         11    1    3    3    0    0 -0.42661586504E+01 -0.34331808667E+01 -0.16246284967E+01  0.57119399951E+01  0.51100000000E-03 0.  1.
        -11    1    3    3    0    0 -0.10449731316E+02 -0.25332452385E+02  0.17719719566E+02  0.32633088885E+02  0.51100000000E-03 0. -1.
        -12    1    3    3    0    0  0.68311143804E+01 -0.14102278726E+01  0.99896406743E+01  0.12183833023E+02  0.00000000000E+00 0.  1.
</event>
<event>
 7    1  0.4374874E-012  0.5052887E+02  0.7816164E-02  0.1300439E+00
        -11   -1    0    0    0    0  0.00000000000E+00  0.00000000000E+00  0.45593999997E+02  0.45594000000E+02  0.51100000000E-03 0. -1.
         11   -1    0    0    0    0 -0.00000000000E+00 -0.00000000000E+00 -0.45593999997E+02  0.45594000000E+02  0.51100000000E-03 0.  1.
    9900012    2    1    2    0    0 -0.31747497392E+01  0.10331995917E+02 -0.39196119728E+02  0.50528868464E+02  0.30000026184E+02 0.  0.
         12    1    1    2    0    0  0.31747497392E+01 -0.10331995917E+02  0.39196119728E+02  0.40659131536E+02  0.00000000000E+00 0. -1.
         11    1    3    3    0    0 -0.90383038120E+01  0.96094949150E+01 -0.61602245272E+01  0.14559591162E+02  0.51100000000E-03 0. -1.
        -11    1    3    3    0    0  0.28483059637E+01  0.13377417945E+01 -0.38110411999E+00  0.31698013475E+01  0.51100000000E-03 0.  1.
        -12    1    3    3    0    0  0.30152481092E+01 -0.61524079300E+00 -0.32654791081E+02  0.32799475955E+02  0.00000000000E+00 0.  1.
</event>
<event>
 7    1  0.4374874E-012  0.5052885E+02  0.7816164E-02  0.1300439E+00
        -11   -1    0    0    0    0  0.00000000000E+00  0.00000000000E+00  0.45593999997E+02  0.45594000000E+02  0.51100000000E-03 0. -1.
         11   -1    0    0    0    0 -0.00000000000E+00 -0.00000000000E+00 -0.45593999997E+02  0.45594000000E+02  0.51100000000E-03 0.  1.
    9900012    2    1    2    0    0  0.18731398714E+02  0.13079888789E+02 -0.33633575393E+02  0.50528853647E+02  0.29999981144E+02 0.  0.
         12    1    1    2    0    0 -0.18731398714E+02 -0.13079888789E+02  0.33633575393E+02  0.40659146353E+02  0.00000000000E+00 0. -1.
         11    1    3    3    0    0  0.18516326594E+02  0.36948689978E+01 -0.79159826058E+01  0.20473621769E+02  0.51100000000E-03 0. -1.
        -11    1    3    3    0    0  0.25689995555E+01 -0.24122224255E+01 -0.57912683327E+01  0.67791861538E+01  0.51100000000E-03 0.  1.
        -12    1    3    3    0    0 -0.23539274363E+01  0.11797242217E+02 -0.19926324454E+02  0.23276045724E+02  0.00000000000E+00 0.  1.
</event>
<event>
 7    1  0.4374874E-012  0.5052886E+02  0.7816164E-02  0.1300439E+00
        -11   -1    0    0    0    0  0.00000000000E+00  0.00000000000E+00  0.45593999997E+02  0.45594000000E+02  0.51100000000E-03 0. -1.
         11   -1    0    0    0    0 -0.00000000000E+00 -0.00000000000E+00 -0.45593999997E+02  0.45594000000E+02  0.51100000000E-03 0.  1.
    9900012    2    1    2    0    0 -0.29695733218E+02  0.15693769208E+02  0.22913641747E+02  0.50528856608E+02  0.29999990145E+02 0.  0.
        -12    1    1    2    0    0  0.29695733218E+02 -0.15693769208E+02 -0.22913641747E+02  0.40659143392E+02  0.00000000000E+00 0.  1.
         11    1    3    3    0    0 -0.14440809826E+02  0.18532385398E+02  0.77723114360E+01  0.24746618401E+02  0.51100000000E-03 0. -1.
        -11    1    3    3    0    0  0.19147931929E+01  0.30387625293E+00  0.55214675932E+01  0.58519550915E+01  0.51100000000E-03 0.  1.
        -12    1    3    3    0    0 -0.17169716584E+02 -0.31424924428E+01  0.96198627174E+01  0.19930283115E+02  0.00000000000E+00 0.  1.
</event>
<event>
 7    1  0.4374874E-012  0.5052885E+02  0.7816164E-02  0.1300439E+00
        -11   -1    0    0    0    0  0.00000000000E+00  0.00000000000E+00  0.45593999997E+02  0.45594000000E+02  0.51100000000E-03 0. -1.
         11   -1    0    0    0    0 -0.00000000000E+00 -0.00000000000E+00 -0.45593999997E+02  0.45594000000E+02  0.51100000000E-03 0.  1.
    9900012    2    1    2    0    0  0.23993576493E+02 -0.97121833103E+01  0.31355189758E+02  0.50528854137E+02  0.29999982633E+02 0.  0.
        -12    1    1    2    0    0 -0.23993576493E+02  0.97121833103E+01 -0.31355189758E+02  0.40659145863E+02  0.00000000000E+00 0.  1.
         11    1    3    3    0    0  0.10147253632E+01  0.48420440098E+01  0.95620048312E-01  0.49481512922E+01  0.51100000000E-03 0.  1.
        -11    1    3    3    0    0  0.16058797114E+02 -0.11266483122E+02  0.32359096071E+02  0.37840847051E+02  0.51100000000E-03 0. -1.
         12    1    3    3    0    0  0.69200540155E+01 -0.32877441978E+01 -0.10995263615E+01  0.77398557937E+01  0.00000000000E+00 0. -1.
</event>
<event>
 7    1  0.5060029E-012  0.5052886E+02  0.7816164E-02  0.1300439E+00
        -11   -1    0    0    0    0  0.00000000000E+00  0.00000000000E+00  0.45593999997E+02  0.45594000000E+02  0.51100000000E-03 0. -1.
         11   -1    0    0    0    0 -0.00000000000E+00 -0.00000000000E+00 -0.45593999997E+02  0.45594000000E+02  0.51100000000E-03 0.  1.
    9900012    2    1    2    0    0 -0.88531809510E+01  0.14025793376E+02 -0.37122282904E+02  0.50528861042E+02  0.30000003624E+02 0.  0.
         12    1    1    2    0    0  0.88531809510E+01 -0.14025793376E+02  0.37122282904E+02  0.40659138958E+02  0.00000000000E+00 0. -1.
         11    1    3    3    0    0 -0.84248360284E+00  0.10387090601E+02 -0.14018387838E+02  0.17467587916E+02  0.51100000000E-03 0. -1.
        -11    1    3    3    0    0 -0.10197483675E+02 -0.22786035381E+00 -0.25883771106E+02  0.27821038812E+02  0.51100000000E-03 0.  1.
         12    1    3    3    0    0  0.21867863269E+01  0.38665631293E+01  0.27798760397E+01  0.52402343143E+01  0.00000000000E+00 0. -1.
</event>
<event>
 7    1  0.4374874E-012  0.5052886E+02  0.7816164E-02  0.1300439E+00
        -11   -1    0    0    0    0  0.00000000000E+00  0.00000000000E+00  0.45593999997E+02  0.45594000000E+02  0.51100000000E-03 0. -1.
         11   -1    0    0    0    0 -0.00000000000E+00 -0.00000000000E+00 -0.45593999997E+02  0.45594000000E+02  0.51100000000E-03 0.  1.
    9900012    2    1    2    0    0  0.44888636445E+01 -0.11853174739E+02 -0.38633124359E+02  0.50528856551E+02  0.29999989974E+02 0.  0.
         12    1    1    2    0    0 -0.44888636445E+01  0.11853174739E+02  0.38633124359E+02  0.40659143449E+02  0.00000000000E+00 0. -1.
         11    1    3    3    0    0  0.96849388229E+01 -0.11224109542E+02 -0.11415263008E+02  0.18710609419E+02  0.51100000000E-03 0. -1.
        -11    1    3    3    0    0 -0.44743254434E+00  0.52327347261E+01 -0.22109993287E+01  0.56982652525E+01  0.51100000000E-03 0.  1.
        -12    1    3    3    0    0 -0.47486426341E+01 -0.58617999231E+01 -0.25006862023E+02  0.26119981880E+02  0.00000000000E+00 0.  1.
</event>
<event>
 7    1  0.4374874E-012  0.5052887E+02  0.7816164E-02  0.1300439E+00
        -11   -1    0    0    0    0  0.00000000000E+00  0.00000000000E+00  0.45593999997E+02  0.45594000000E+02  0.51100000000E-03 0. -1.
         11   -1    0    0    0    0 -0.00000000000E+00 -0.00000000000E+00 -0.45593999997E+02  0.45594000000E+02  0.51100000000E-03 0.  1.
    9900012    2    1    2    0    0 -0.32652575902E+02 -0.71351052371E+01  0.23153072548E+02  0.50528865624E+02  0.30000017552E+02 0.  0.
        -12    1    1    2    0    0  0.32652575902E+02  0.71351052371E+01 -0.23153072548E+02  0.40659134376E+02  0.00000000000E+00 0.  1.
         11    1    3    3    0    0 -0.43910160589E+01  0.18297997557E+01  0.10620375513E+02  0.11637077188E+02  0.51100000000E-03 0. -1.
        -11    1    3    3    0    0  0.30291366318E+01 -0.21913501218E-01 -0.15839672473E+01  0.34183477642E+01  0.51100000000E-03 0.  1.
         12    1    3    3    0    0 -0.31290696474E+02 -0.89429914915E+01  0.14116664283E+02  0.35473440672E+02  0.00000000000E+00 0. -1.
</event>
<event>
 7    1  0.4374874E-012  0.5052886E+02  0.7816164E-02  0.1300439E+00
        -11   -1    0    0    0    0  0.00000000000E+00  0.00000000000E+00  0.45593999997E+02  0.45594000000E+02  0.51100000000E-03 0. -1.
         11   -1    0    0    0    0 -0.00000000000E+00 -0.00000000000E+00 -0.45593999997E+02  0.45594000000E+02  0.51100000000E-03 0.  1.
    9900012    2    1    2    0    0 -0.24547895969E+02  0.44382332187E+01 -0.32107141875E+02  0.50528859945E+02  0.30000000288E+02 0.  0.
         12    1    1    2    0    0  0.24547895969E+02 -0.44382332187E+01  0.32107141875E+02  0.40659140055E+02  0.00000000000E+00 0. -1.
         11    1    3    3    0    0 -0.12153224925E+02 -0.18421815918E+00 -0.60707657342E+01  0.13586353789E+02  0.51100000000E-03 0. -1.
        -11    1    3    3    0    0 -0.10311252034E+02  0.13376249643E+02 -0.14144079296E+02  0.22029547258E+02  0.51100000000E-03 0.  1.
         12    1    3    3    0    0 -0.20834190107E+01 -0.87537982649E+01 -0.11892296845E+02  0.14912958898E+02  0.00000000000E+00 0. -1.
</event>
<event>
 7    1  0.4374874E-012  0.5052885E+02  0.7816164E-02  0.1300439E+00
        -11   -1    0    0    0    0  0.00000000000E+00  0.00000000000E+00  0.45593999997E+02  0.45594000000E+02  0.51100000000E-03 0. -1.
         11   -1    0    0    0    0 -0.00000000000E+00 -0.00000000000E+00 -0.45593999997E+02  0.45594000000E+02  0.51100000000E-03 0.  1.
    9900012    2    1    2    0    0  0.25156220770E+02  0.21351997128E+02 -0.23757587464E+02  0.50528853589E+02  0.29999980970E+02 0.  0.
         12    1    1    2    0    0 -0.25156220770E+02 -0.21351997128E+02  0.23757587464E+02  0.40659146411E+02  0.00000000000E+00 0. -1.
         11    1    3    3    0    0  0.16863576657E+02  0.10152590757E+01  0.15566595137E+01  0.16965675871E+02  0.51100000000E-03 0. -1.
        -11    1    3    3    0    0  0.19987915498E+01  0.37550774016E+01 -0.40535271690E+01  0.58759558135E+01  0.51100000000E-03 0.  1.
         12    1    3    3    0    0  0.62938525627E+01  0.16581660650E+02 -0.21260719809E+02  0.27687221904E+02  0.00000000000E+00 0. -1.
</event>
<event>
 7    1  0.4374874E-012  0.5052887E+02  0.7816164E-02  0.1300439E+00
        -11   -1    0    0    0    0  0.00000000000E+00  0.00000000000E+00  0.45593999997E+02  0.45594000000E+02  0.51100000000E-03 0. -1.
         11   -1    0    0    0    0 -0.00000000000E+00 -0.00000000000E+00 -0.45593999997E+02  0.45594000000E+02  0.51100000000E-03 0.  1.
    9900012    2    1    2    0    0 -0.18710304874E+02  0.34489890567E+02 -0.10655377289E+02  0.50528866647E+02  0.30000020661E+02 0.  0.
        -12    1    1    2    0    0  0.18710304874E+02 -0.34489890567E+02  0.10655377289E+02  0.40659133353E+02  0.00000000000E+00 0.  1.
         11    1    3    3    0    0 -0.82038822894E+01  0.27264049958E+02 -0.19923075894E+01  0.28541222723E+02  0.51100000000E-03 0. -1.
        -11    1    3    3    0    0 -0.38529123214E+01  0.35096555579E+01  0.44286719466E+01  0.68392800033E+01  0.51100000000E-03 0.  1.
         12    1    3    3    0    0 -0.66535102629E+01  0.37161850516E+01 -0.13091741647E+02  0.15148363921E+02  0.00000000000E+00 0. -1.
</event>
<event>
 7    1  0.4374874E-012  0.5052886E+02  0.7816164E-02  0.1300439E+00
        -11   -1    0    0    0    0  0.00000000000E+00  0.00000000000E+00  0.45593999997E+02  0.45594000000E+02  0.51100000000E-03 0. -1.
         11   -1    0    0    0    0 -0.00000000000E+00 -0.00000000000E+00 -0.45593999997E+02  0.45594000000E+02  0.51100000000E-03 0.  1.
    9900012    2    1    2    0    0  0.10896075134E+02  0.12153301893E+02 -0.37238932445E+02  0.50528864620E+02  0.30000014498E+02 0.  0.
         12    1    1    2    0    0 -0.10896075134E+02 -0.12153301893E+02  0.37238932445E+02  0.40659135380E+02  0.00000000000E+00 0. -1.
         11    1    3    3    0    0  0.30301040501E+01 -0.67197536490E+00 -0.15490948032E+02  0.15798814912E+02  0.51100000000E-03 0. -1.
        -11    1    3    3    0    0 -0.30756373746E+01  0.90412764635E+01 -0.21069378081E+02  0.23132723972E+02  0.51100000000E-03 0.  1.
         12    1    3    3    0    0  0.10941608459E+02  0.37840007939E+01 -0.67860633240E+00  0.11597325736E+02  0.00000000000E+00 0. -1.
</event>
<event>
 7    1  0.4374874E-012  0.5052886E+02  0.7816164E-02  0.1300439E+00
        -11   -1    0    0    0    0  0.00000000000E+00  0.00000000000E+00  0.45593999997E+02  0.45594000000E+02  0.51100000000E-03 0. -1.
         11   -1    0    0    0    0 -0.00000000000E+00 -0.00000000000E+00 -0.45593999997E+02  0.45594000000E+02  0.51100000000E-03 0.  1.
    9900012    2    1    2    0    0 -0.22891016194E+02 -0.10388917938E+02  0.31956806429E+02  0.50528859386E+02  0.29999998591E+02 0.  0.
        -12    1    1    2    0    0  0.22891016194E+02  0.10388917938E+02 -0.31956806429E+02  0.40659140614E+02  0.00000000000E+00 0.  1.
         11    1    3    3    0    0  0.16959535859E+01 -0.30557102983E+01  0.78038753448E+01  0.85506780229E+01  0.51100000000E-03 0. -1.
        -11    1    3    3    0    0 -0.41595788365E+01  0.23378471890E+00 -0.44031917693E+01  0.60617529981E+01  0.51100000000E-03 0.  1.
         12    1    3    3    0    0 -0.20427390943E+02 -0.75669923582E+01  0.28556122854E+02  0.35916428365E+02  0.00000000000E+00 0. -1.
</event>
<event>
 7    1  0.4374874E-012  0.5052887E+02  0.7816164E-02  0.1300439E+00
        -11   -1    0    0    0    0  0.00000000000E+00  0.00000000000E+00  0.45593999997E+02  0.45594000000E+02  0.51100000000E-03 0. -1.
         11   -1    0    0    0    0 -0.00000000000E+00 -0.00000000000E+00 -0.45593999997E+02  0.45594000000E+02  0.51100000000E-03 0.  1.
    9900012    2    1    2    0    0  0.38225384282E+02 -0.13612766586E+02 -0.25841071435E+01  0.50528867848E+02  0.30000024312E+02 0.  0.
        -12    1    1    2    0    0 -0.38225384282E+02  0.13612766586E+02  0.25841071435E+01  0.40659132152E+02  0.00000000000E+00 0.  1.
         11    1    3    3    0    0 -0.36156276077E+01 -0.11165606534E+01 -0.15144634295E+01  0.40759134474E+01  0.51100000000E-03 0. -1.
        -11    1    3    3    0    0  0.61312436868E+01 -0.70568664721E+01  0.36268950815E+01  0.10027256940E+02  0.51100000000E-03 0.  1.
         12    1    3    3    0    0  0.35709768202E+02 -0.54393394606E+01 -0.46965387954E+01  0.36425697461E+02  0.00000000000E+00 0. -1.
</event>
<event>
 7    1  0.4374874E-012  0.5052884E+02  0.7816164E-02  0.1300439E+00
        -11   -1    0    0    0    0  0.00000000000E+00  0.00000000000E+00  0.45593999997E+02  0.45594000000E+02  0.51100000000E-03 0. -1.
         11   -1    0    0    0    0 -0.00000000000E+00 -0.00000000000E+00 -0.45593999997E+02  0.45594000000E+02  0.51100000000E-03 0.  1.
    9900012    2    1    2    0    0 -0.28600457794E+02  0.87055742439E-01 -0.28899363924E+02  0.50528843591E+02  0.29999950578E+02 0.  0.
         12    1    1    2    0    0  0.28600457794E+02 -0.87055742439E-01  0.28899363924E+02  0.40659156409E+02  0.00000000000E+00 0. -1.
         11    1    3    3    0    0 -0.47215883654E+01  0.96018689997E+00  0.41821384002E+01  0.63800969769E+01  0.51100000000E-03 0. -1.
        -11    1    3    3    0    0 -0.10754705585E+02 -0.65490312120E+01 -0.70049882517E+01  0.14409141636E+02  0.51100000000E-03 0.  1.
        -12    1    3    3    0    0 -0.13124163843E+02  0.56759000544E+01 -0.26076514073E+02  0.29739604977E+02  0.00000000000E+00 0.  1.
</event>
<event>
 7    1  0.4374874E-012  0.5052879E+02  0.7816164E-02  0.1300439E+00
        -11   -1    0    0    0    0  0.00000000000E+00  0.00000000000E+00  0.45593999997E+02  0.45594000000E+02  0.51100000000E-03 0. -1.
         11   -1    0    0    0    0 -0.00000000000E+00 -0.00000000000E+00 -0.45593999997E+02  0.45594000000E+02  0.51100000000E-03 0.  1.
    9900012    2    1    2    0    0  0.57627562439E+01 -0.91600827139E+01  0.39192538206E+02  0.50528787933E+02  0.29999781401E+02 0.  0.
        -12    1    1    2    0    0 -0.57627562439E+01  0.91600827139E+01 -0.39192538206E+02  0.40659212067E+02  0.00000000000E+00 0.  1.
         11    1    3    3    0    0 -0.49953748265E+01 -0.33180223518E+00  0.11256100683E+02  0.12319239637E+02  0.51100000000E-03 0.  1.
        -11    1    3    3    0    0 -0.58988825890E+01  0.12293613405E+01  0.10378522944E+02  0.12000911793E+02  0.51100000000E-03 0. -1.
        -12    1    3    3    0    0  0.16657013659E+02 -0.10057641819E+02  0.17557914579E+02  0.26208636504E+02  0.00000000000E+00 0.  1.
</event>
<event>
 7    1  0.4374874E-012  0.5052887E+02  0.7816164E-02  0.1300439E+00
        -11   -1    0    0    0    0  0.00000000000E+00  0.00000000000E+00  0.45593999997E+02  0.45594000000E+02  0.51100000000E-03 0. -1.
         11   -1    0    0    0    0 -0.00000000000E+00 -0.00000000000E+00 -0.45593999997E+02  0.45594000000E+02  0.51100000000E-03 0.  1.
    9900012    2    1    2    0    0 -0.69757223232E+01  0.58595601716E+01 -0.39625364240E+02  0.50528872630E+02  0.30000038848E+02 0.  0.
         12    1    1    2    0    0  0.69757223232E+01 -0.58595601716E+01  0.39625364240E+02  0.40659127370E+02  0.00000000000E+00 0. -1.
         11    1    3    3    0    0 -0.12534602128E+01  0.40577607471E+01 -0.31167569718E+01  0.52678989235E+01  0.51100000000E-03 0. -1.
        -11    1    3    3    0    0 -0.30275432065E+01  0.39039898001E+01 -0.40041711114E+02  0.40345331619E+02  0.51100000000E-03 0.  1.
         12    1    3    3    0    0 -0.26947189039E+01 -0.21021903755E+01  0.35331038466E+01  0.49156420880E+01  0.00000000000E+00 0. -1.
</event>
<event>
 7    1  0.4374874E-012  0.5052886E+02  0.7816164E-02  0.1300439E+00
        -11   -1    0    0    0    0  0.00000000000E+00  0.00000000000E+00  0.45593999997E+02  0.45594000000E+02  0.51100000000E-03 0. -1.
         11   -1    0    0    0    0 -0.00000000000E+00 -0.00000000000E+00 -0.45593999997E+02  0.45594000000E+02  0.51100000000E-03 0.  1.
    9900012    2    1    2    0    0  0.30578557767E+02 -0.57968411067E+01 -0.26163226208E+02  0.50528856286E+02  0.29999989167E+02 0.  0.
         12    1    1    2    0    0 -0.30578557767E+02  0.57968411067E+01  0.26163226208E+02  0.40659143714E+02  0.00000000000E+00 0. -1.
         11    1    3    3    0    0 -0.88440593676E+00 -0.78388560228E-01 -0.27636438916E+01  0.29027653105E+01  0.51100000000E-03 0. -1.
        -11    1    3    3    0    0  0.34990816777E+02 -0.95305378989E+01 -0.19947070429E+02  0.41389298500E+02  0.51100000000E-03 0.  1.
         12    1    3    3    0    0 -0.35278530735E+01  0.38120853525E+01 -0.34525118876E+01  0.62367924750E+01  0.00000000000E+00 0. -1.
</event>
<event>
 7    1  0.4374874E-012  0.5052884E+02  0.7816164E-02  0.1300439E+00
        -11   -1    0    0    0    0  0.00000000000E+00  0.00000000000E+00  0.45593999997E+02  0.45594000000E+02  0.51100000000E-03 0. -1.
         11   -1    0    0    0    0 -0.00000000000E+00 -0.00000000000E+00 -0.45593999997E+02  0.45594000000E+02  0.51100000000E-03 0.  1.
    9900012    2    1    2    0    0  0.27484432889E+02  0.62798912533E+01 -0.29297374025E+02  0.50528841006E+02  0.29999942721E+02 0.  0.
         12    1    1    2    0    0 -0.27484432889E+02 -0.62798912533E+01  0.29297374025E+02  0.40659158994E+02  0.00000000000E+00 0. -1.
         11    1    3    3    0    0 -0.14823557329E+01 -0.29113648468E+01  0.26423589729E+01  0.42018430471E+01  0.51100000000E-03 0. -1.
        -11    1    3    3    0    0  0.15651353707E+02 -0.21595780767E+01 -0.12294058280E+02  0.20019303673E+02  0.51100000000E-03 0.  1.
        -12    1    3    3    0    0  0.13315434915E+02  0.11350834177E+02 -0.19645674718E+02  0.26307694285E+02  0.00000000000E+00 0.  1.
</event>
<event>
 7    1  0.4374874E-012  0.5052886E+02  0.7816164E-02  0.1300439E+00
        -11   -1    0    0    0    0  0.00000000000E+00  0.00000000000E+00  0.45593999997E+02  0.45594000000E+02  0.51100000000E-03 0. -1.
         11   -1    0    0    0    0 -0.00000000000E+00 -0.00000000000E+00 -0.45593999997E+02  0.45594000000E+02  0.51100000000E-03 0.  1.
    9900012    2    1    2    0    0 -0.83353799696E+01  0.28439153137E+02 -0.27837053030E+02  0.50528861891E+02  0.30000006204E+02 0.  0.
         12    1    1    2    0    0  0.83353799696E+01 -0.28439153137E+02  0.27837053030E+02  0.40659138109E+02  0.00000000000E+00 0. -1.
         11    1    3    3    0    0  0.46008218677E+01 -0.48139822625E+00 -0.16134020939E+01  0.48992216411E+01  0.51100000000E-03 0. -1.
        -11    1    3    3    0    0 -0.51672866736E+01  0.23471444437E+01 -0.14486730051E+02  0.15558768796E+02  0.51100000000E-03 0.  1.
        -12    1    3    3    0    0 -0.77689151637E+01  0.26573406920E+02 -0.11736920884E+02  0.30070871454E+02  0.00000000000E+00 0.  1.
</event>
<event>
 7    1  0.4374874E-012  0.5052885E+02  0.7816164E-02  0.1300439E+00
        -11   -1    0    0    0    0  0.00000000000E+00  0.00000000000E+00  0.45593999997E+02  0.45594000000E+02  0.51100000000E-03 0. -1.
         11   -1    0    0    0    0 -0.00000000000E+00 -0.00000000000E+00 -0.45593999997E+02  0.45594000000E+02  0.51100000000E-03 0.  1.
    9900012    2    1    2    0    0 -0.43315440887E+01 -0.22499323557E+02 -0.33588461767E+02  0.50528848526E+02  0.29999965579E+02 0.  0.
         12    1    1    2    0    0  0.43315440887E+01  0.22499323557E+02  0.33588461767E+02  0.40659151474E+02  0.00000000000E+00 0. -1.
         11    1    3    3    0    0 -0.76898196837E+00 -0.10266264777E+02 -0.56168966220E+00  0.10310335653E+02  0.51100000000E-03 0. -1.
        -11    1    3    3    0    0  0.32780550810E+01  0.16883188841E+01  0.47530234282E-01  0.36875906976E+01  0.51100000000E-03 0.  1.
        -12    1    3    3    0    0 -0.68406172013E+01 -0.13921377665E+02 -0.33074302339E+02  0.36530922175E+02  0.00000000000E+00 0.  1.
</event>
<event>
 7    1  0.4374874E-012  0.5052886E+02  0.7816164E-02  0.1300439E+00
        -11   -1    0    0    0    0  0.00000000000E+00  0.00000000000E+00  0.45593999997E+02  0.45594000000E+02  0.51100000000E-03 0. -1.
         11   -1    0    0    0    0 -0.00000000000E+00 -0.00000000000E+00 -0.45593999997E+02  0.45594000000E+02  0.51100000000E-03 0.  1.
    9900012    2    1    2    0    0  0.36659324142E+01  0.83641718175E+00  0.40484900192E+02  0.50528858374E+02  0.29999995514E+02 0.  0.
        -12    1    1    2    0    0 -0.36659324142E+01 -0.83641718175E+00 -0.40484900192E+02  0.40659141626E+02  0.00000000000E+00 0.  1.
         11    1    3    3    0    0  0.32492723684E+01 -0.38868035039E+01  0.73047341026E+01  0.88895530243E+01  0.51100000000E-03 0. -1.
        -11    1    3    3    0    0 -0.72774632966E+01 -0.52861980247E+01  0.39979083331E+01  0.98432023697E+01  0.51100000000E-03 0.  1.
         12    1    3    3    0    0  0.76941233425E+01  0.10009418710E+02  0.29182257757E+02  0.31796102980E+02  0.00000000000E+00 0. -1.
</event>
<event>
 7    1  0.4374874E-012  0.5052886E+02  0.7816164E-02  0.1300439E+00
        -11   -1    0    0    0    0  0.00000000000E+00  0.00000000000E+00  0.45593999997E+02  0.45594000000E+02  0.51100000000E-03 0. -1.
         11   -1    0    0    0    0 -0.00000000000E+00 -0.00000000000E+00 -0.45593999997E+02  0.45594000000E+02  0.51100000000E-03 0.  1.
    9900012    2    1    2    0    0 -0.54995491694E+01 -0.40093615141E+02 -0.39271712660E+01  0.50528859696E+02  0.29999999531E+02 0.  0.
         12    1    1    2    0    0  0.54995491694E+01  0.40093615141E+02  0.39271712660E+01  0.40659140304E+02  0.00000000000E+00 0. -1.
         11    1    3    3    0    0 -0.61761826215E+01 -0.14331239262E+02 -0.17547536711E+01  0.15703783342E+02  0.51100000000E-03 0.  1.
        -11    1    3    3    0    0 -0.47555574431E+01 -0.13121980201E+02  0.94163344750E+01  0.16836539021E+02  0.51100000000E-03 0. -1.
         12    1    3    3    0    0  0.54321908953E+01 -0.12640395678E+02 -0.11588752070E+02  0.17988537332E+02  0.00000000000E+00 0. -1.
</event>
<event>
 7    1  0.4374874E-012  0.5052888E+02  0.7816164E-02  0.1300439E+00
        -11   -1    0    0    0    0  0.00000000000E+00  0.00000000000E+00  0.45593999997E+02  0.45594000000E+02  0.51100000000E-03 0. -1.
         11   -1    0    0    0    0 -0.00000000000E+00 -0.00000000000E+00 -0.45593999997E+02  0.45594000000E+02  0.51100000000E-03 0.  1.
    9900012    2    1    2    0    0 -0.50975649201E+01 -0.36302088100E+02 -0.17587997134E+02  0.50528875418E+02  0.30000047322E+02 0.  0.
         12    1    1    2    0    0  0.50975649201E+01  0.36302088100E+02  0.17587997134E+02  0.40659124582E+02  0.00000000000E+00 0. -1.
         11    1    3    3    0    0  0.22069886758E+01 -0.81227413915E+01 -0.49777447268E+01  0.97789401038E+01  0.51100000000E-03 0. -1.
        -11    1    3    3    0    0 -0.15883127697E+02 -0.21754874368E+02 -0.13239618358E+02  0.30013926747E+02  0.51100000000E-03 0.  1.
         12    1    3    3    0    0  0.85785741014E+01 -0.64244723410E+01  0.62936595117E+00  0.10736008568E+02  0.00000000000E+00 0. -1.
</event>
<event>
 7    1  0.4374874E-012  0.5052885E+02  0.7816164E-02  0.1300439E+00
        -11   -1    0    0    0    0  0.00000000000E+00  0.00000000000E+00  0.45593999997E+02  0.45594000000E+02  0.51100000000E-03 0. -1.
         11   -1    0    0    0    0 -0.00000000000E+00 -0.00000000000E+00 -0.45593999997E+02  0.45594000000E+02  0.51100000000E-03 0.  1.
    9900012    2    1    2    0    0  0.29519027508E+01  0.62653743973E+01  0.40064915291E+02  0.50528854860E+02  0.29999984833E+02 0.  0.
        -12    1    1    2    0    0 -0.29519027508E+01 -0.62653743973E+01 -0.40064915291E+02  0.40659145140E+02  0.00000000000E+00 0.  1.
         11    1    3    3    0    0 -0.65512624622E+01 -0.34127237424E+01  0.95713603651E+01  0.12090354118E+02  0.51100000000E-03 0. -1.
        -11    1    3    3    0    0 -0.62914614237E+00  0.23743120966E+01 -0.22887596890E+01  0.33573209521E+01  0.51100000000E-03 0.  1.
        -12    1    3    3    0    0  0.10132311355E+02  0.73037860431E+01  0.32782314615E+02  0.35081179791E+02  0.00000000000E+00 0.  1.
</event>
<event>
 7    1  0.4374874E-012  0.5052888E+02  0.7816164E-02  0.1300439E+00
        -11   -1    0    0    0    0  0.00000000000E+00  0.00000000000E+00  0.45593999997E+02  0.45594000000E+02  0.51100000000E-03 0. -1.
         11   -1    0    0    0    0 -0.00000000000E+00 -0.00000000000E+00 -0.45593999997E+02  0.45594000000E+02  0.51100000000E-03 0.  1.
    9900012    2    1    2    0    0  0.10508387152E+02  0.14127013490E+02 -0.36649221713E+02  0.50528878479E+02  0.30000056625E+02 0.  0.
         12    1    1    2    0    0 -0.10508387152E+02 -0.14127013490E+02  0.36649221713E+02  0.40659121521E+02  0.00000000000E+00 0. -1.
         11    1    3    3    0    0  0.60017525562E+01  0.40698800119E+01 -0.78011756574E+00  0.72933902086E+01  0.51100000000E-03 0. -1.
        -11    1    3    3    0    0  0.10773515148E+02  0.12710312282E+02 -0.29677948880E+02  0.34035295165E+02  0.51100000000E-03 0.  1.
        -12    1    3    3    0    0 -0.62668805528E+01 -0.26531788046E+01 -0.61911552678E+01  0.92001931057E+01  0.00000000000E+00 0.  1.
</event>
<event>
 7    1  0.4374874E-012  0.5052882E+02  0.7816164E-02  0.1300439E+00
        -11   -1    0    0    0    0  0.00000000000E+00  0.00000000000E+00  0.45593999997E+02  0.45594000000E+02  0.51100000000E-03 0.  1.
         11   -1    0    0    0    0 -0.00000000000E+00 -0.00000000000E+00 -0.45593999997E+02  0.45594000000E+02  0.51100000000E-03 0. -1.
    9900012    2    1    2    0    0 -0.15712938933E+02  0.36018177036E+02  0.10438552915E+02  0.50528820054E+02  0.29999879035E+02 0.  0.
        -12    1    1    2    0    0  0.15712938933E+02 -0.36018177036E+02 -0.10438552915E+02  0.40659179946E+02  0.00000000000E+00 0.  1.
         11    1    3    3    0    0 -0.14993579962E+02  0.21035578986E+02  0.15361258112E+02  0.30054471787E+02  0.51100000000E-03 0. -1.
        -11    1    3    3    0    0 -0.33016336039E+01 -0.10899578998E+01 -0.17379678578E+01  0.38870715473E+01  0.51100000000E-03 0.  1.
         12    1    3    3    0    0  0.25822746323E+01  0.16072555950E+02 -0.31847373392E+01  0.16587276719E+02  0.00000000000E+00 0. -1.
</event>
<event>
 7    1  0.4374874E-012  0.5052886E+02  0.7816164E-02  0.1300439E+00
        -11   -1    0    0    0    0  0.00000000000E+00  0.00000000000E+00  0.45593999997E+02  0.45594000000E+02  0.51100000000E-03 0.  1.
         11   -1    0    0    0    0 -0.00000000000E+00 -0.00000000000E+00 -0.45593999997E+02  0.45594000000E+02  0.51100000000E-03 0. -1.
    9900012    2    1    2    0    0  0.11345790186E+01 -0.33975900314E+02  0.22305079525E+02  0.50528860261E+02  0.30000001249E+02 0.  0.
        -12    1    1    2    0    0 -0.11345790186E+01  0.33975900314E+02 -0.22305079525E+02  0.40659139739E+02  0.00000000000E+00 0.  1.
         11    1    3    3    0    0  0.11935916597E+01 -0.33320538167E+02  0.15619244817E+02  0.36819067529E+02  0.51100000000E-03 0. -1.
        -11    1    3    3    0    0 -0.18960357912E+01 -0.33373733618E+01  0.89565981159E+01  0.97444170041E+01  0.51100000000E-03 0.  1.
        -12    1    3    3    0    0  0.18370231501E+01  0.26820112139E+01 -0.22707634087E+01  0.39653757279E+01  0.00000000000E+00 0.  1.
</event>
<event>
 7    1  0.4374874E-012  0.5052886E+02  0.7816164E-02  0.1300439E+00
        -11   -1    0    0    0    0  0.00000000000E+00  0.00000000000E+00  0.45593999997E+02  0.45594000000E+02  0.51100000000E-03 0. -1.
         11   -1    0    0    0    0 -0.00000000000E+00 -0.00000000000E+00 -0.45593999997E+02  0.45594000000E+02  0.51100000000E-03 0.  1.
    9900012    2    1    2    0    0  0.10890760868E+02 -0.28796427939E+02 -0.26557907285E+02  0.50528863589E+02  0.30000011366E+02 0.  0.
         12    1    1    2    0    0 -0.10890760868E+02  0.28796427939E+02  0.26557907285E+02  0.40659136411E+02  0.00000000000E+00 0. -1.
         11    1    3    3    0    0  0.26893643252E+01 -0.13726627772E+01 -0.72637420968E+01  0.78663100043E+01  0.51100000000E-03 0. -1.
        -11    1    3    3    0    0 -0.36606448972E+01  0.17584928149E+01 -0.84013288017E+01  0.93313956051E+01  0.51100000000E-03 0.  1.
        -12    1    3    3    0    0  0.11862041440E+02 -0.29182257976E+02 -0.10892836386E+02  0.33331157980E+02  0.00000000000E+00 0.  1.
</event>
<event>
 7    1  0.4374874E-012  0.5052886E+02  0.7816164E-02  0.1300439E+00
        -11   -1    0    0    0    0  0.00000000000E+00  0.00000000000E+00  0.45593999997E+02  0.45594000000E+02  0.51100000000E-03 0. -1.
         11   -1    0    0    0    0 -0.00000000000E+00 -0.00000000000E+00 -0.45593999997E+02  0.45594000000E+02  0.51100000000E-03 0.  1.
    9900012    2    1    2    0    0 -0.20664490752E+02 -0.72646745991E+01  0.34254472298E+02  0.50528861451E+02  0.30000004868E+02 0.  0.
        -12    1    1    2    0    0  0.20664490752E+02  0.72646745991E+01 -0.34254472298E+02  0.40659138549E+02  0.00000000000E+00 0.  1.
         11    1    3    3    0    0 -0.52413723571E+01 -0.11978840502E+01  0.12977192060E+02  0.14046865287E+02  0.51100000000E-03 0. -1.
        -11    1    3    3    0    0 -0.13490041950E+00 -0.58755777187E+01  0.20330901362E+02  0.21163321150E+02  0.51100000000E-03 0.  1.
        -12    1    3    3    0    0 -0.15288217976E+02 -0.19121283015E+00  0.94637887682E+00  0.15318675014E+02  0.00000000000E+00 0.  1.
</event>
<event>
 7    1  0.4374874E-012  0.5052885E+02  0.7816164E-02  0.1300439E+00
        -11   -1    0    0    0    0  0.00000000000E+00  0.00000000000E+00  0.45593999997E+02  0.45594000000E+02  0.51100000000E-03 0. -1.
         11   -1    0    0    0    0 -0.00000000000E+00 -0.00000000000E+00 -0.45593999997E+02  0.45594000000E+02  0.51100000000E-03 0.  1.
    9900012    2    1    2    0    0 -0.16936749811E+02 -0.17036631260E+02  0.32803443173E+02  0.50528853638E+02  0.29999981119E+02 0.  0.
        -12    1    1    2    0    0  0.16936749811E+02  0.17036631260E+02 -0.32803443173E+02  0.40659146362E+02  0.00000000000E+00 0.  1.
         11    1    3    3    0    0  0.11360414639E+01 -0.14171565563E+02  0.82383511998E+01  0.16431503019E+02  0.51100000000E-03 0. -1.
        -11    1    3    3    0    0 -0.70822717864E+00  0.39713462180E+01  0.12292118082E+01  0.42171244290E+01  0.51100000000E-03 0.  1.
         12    1    3    3    0    0 -0.17364564096E+02 -0.68364119149E+01  0.23335880165E+02  0.29880226191E+02  0.00000000000E+00 0. -1.
</event>
<event>
 7    1  0.4374874E-012  0.5052886E+02  0.7816164E-02  0.1300439E+00
        -11   -1    0    0    0    0  0.00000000000E+00  0.00000000000E+00  0.45593999997E+02  0.45594000000E+02  0.51100000000E-03 0. -1.
         11   -1    0    0    0    0 -0.00000000000E+00 -0.00000000000E+00 -0.45593999997E+02  0.45594000000E+02  0.51100000000E-03 0.  1.
    9900012    2    1    2    0    0 -0.22536239871E+02 -0.20854172623E+02 -0.26653092087E+02  0.50528856612E+02  0.29999990156E+02 0.  0.
         12    1    1    2    0    0  0.22536239871E+02  0.20854172623E+02  0.26653092087E+02  0.40659143388E+02  0.00000000000E+00 0. -1.
         11    1    3    3    0    0 -0.53813477087E+01 -0.18450539401E+02 -0.67497223171E+01  0.20370077540E+02  0.51100000000E-03 0. -1.
        -11    1    3    3    0    0 -0.10670135933E+02 -0.70525503150E+01 -0.59979446234E+01  0.14126769154E+02  0.51100000000E-03 0.  1.
        -12    1    3    3    0    0 -0.64847562292E+01  0.46489170934E+01 -0.13905425146E+02  0.16032009917E+02  0.00000000000E+00 0.  1.
</event>
<event>
 7    1  0.4374874E-012  0.5052886E+02  0.7816164E-02  0.1300439E+00
        -11   -1    0    0    0    0  0.00000000000E+00  0.00000000000E+00  0.45593999997E+02  0.45594000000E+02  0.51100000000E-03 0. -1.
         11   -1    0    0    0    0 -0.00000000000E+00 -0.00000000000E+00 -0.45593999997E+02  0.45594000000E+02  0.51100000000E-03 0.  1.
    9900012    2    1    2    0    0 -0.12027687090E+02  0.26470504281E+02  0.28422041821E+02  0.50528864312E+02  0.30000013564E+02 0.  0.
        -12    1    1    2    0    0  0.12027687090E+02 -0.26470504281E+02 -0.28422041821E+02  0.40659135688E+02  0.00000000000E+00 0.  1.
         11    1    3    3    0    0 -0.19918836353E+01  0.29381062441E+02  0.21793651082E+02  0.36635742906E+02  0.51100000000E-03 0. -1.
        -11    1    3    3    0    0 -0.29985174378E-01 -0.21833673675E+00 -0.10014249206E+01  0.10253887916E+01  0.51100000000E-03 0.  1.
        -12    1    3    3    0    0 -0.10005818280E+02 -0.26922214227E+01  0.76298156596E+01  0.12867732615E+02  0.00000000000E+00 0.  1.
</event>
<event>
 7    1  0.4374874E-012  0.5052887E+02  0.7816164E-02  0.1300439E+00
        -11   -1    0    0    0    0  0.00000000000E+00  0.00000000000E+00  0.45593999997E+02  0.45594000000E+02  0.51100000000E-03 0. -1.
         11   -1    0    0    0    0 -0.00000000000E+00 -0.00000000000E+00 -0.45593999997E+02  0.45594000000E+02  0.51100000000E-03 0.  1.
    9900012    2    1    2    0    0 -0.73599381691E+01 -0.27140447849E+02  0.29366513502E+02  0.50528871694E+02  0.30000036001E+02 0.  0.
        -12    1    1    2    0    0  0.73599381691E+01  0.27140447849E+02 -0.29366513502E+02  0.40659128306E+02  0.00000000000E+00 0.  1.
         11    1    3    3    0    0 -0.93772278242E+01 -0.14005068960E+02  0.22284265569E+02  0.27940344494E+02  0.51100000000E-03 0. -1.
        -11    1    3    3    0    0 -0.35332388210E+01  0.20560002212E+01  0.47186155813E+01  0.62430959260E+01  0.51100000000E-03 0.  1.
        -12    1    3    3    0    0  0.55505284761E+01 -0.15191379110E+02  0.23636323522E+01  0.16345431274E+02  0.00000000000E+00 0.  1.
</event>
<event>
 7    1  0.4374874E-012  0.5052887E+02  0.7816164E-02  0.1300439E+00
        -11   -1    0    0    0    0  0.00000000000E+00  0.00000000000E+00  0.45593999997E+02  0.45594000000E+02  0.51100000000E-03 0. -1.
         11   -1    0    0    0    0 -0.00000000000E+00 -0.00000000000E+00 -0.45593999997E+02  0.45594000000E+02  0.51100000000E-03 0.  1.
    9900012    2    1    2    0    0  0.26597247417E+01 -0.32784095155E+02  0.23901753016E+02  0.50528870299E+02  0.30000031760E+02 0.  0.
        -12    1    1    2    0    0 -0.26597247417E+01  0.32784095155E+02 -0.23901753016E+02  0.40659129701E+02  0.00000000000E+00 0.  1.
         11    1    3    3    0    0  0.29787789275E+01  0.95349869297E+00  0.88057873339E+01  0.93447404719E+01  0.51100000000E-03 0. -1.
        -11    1    3    3    0    0 -0.19615360447E+01 -0.17400764996E+01 -0.33187077937E+01  0.42295758133E+01  0.51100000000E-03 0.  1.
         12    1    3    3    0    0  0.16424818590E+01 -0.31997517348E+02  0.18414673476E+02  0.36954554013E+02  0.00000000000E+00 0. -1.
</event>
<event>
 7    1  0.4374874E-012  0.5052886E+02  0.7816164E-02  0.1300439E+00
        -11   -1    0    0    0    0  0.00000000000E+00  0.00000000000E+00  0.45593999997E+02  0.45594000000E+02  0.51100000000E-03 0. -1.
         11   -1    0    0    0    0 -0.00000000000E+00 -0.00000000000E+00 -0.45593999997E+02  0.45594000000E+02  0.51100000000E-03 0.  1.
    9900012    2    1    2    0    0 -0.79338616989E+00 -0.66565901683E+01  0.40102694252E+02  0.50528859077E+02  0.29999997651E+02 0.  0.
        -12    1    1    2    0    0  0.79338616989E+00  0.66565901683E+01 -0.40102694252E+02  0.40659140923E+02  0.00000000000E+00 0.  1.
         11    1    3    3    0    0  0.60062264773E+00  0.20156770838E+01  0.26330434941E+02  0.26414304952E+02  0.51100000000E-03 0. -1.
        -11    1    3    3    0    0  0.81754060709E+01 -0.47106989495E+01  0.63785388387E+01  0.11389192552E+02  0.51100000000E-03 0.  1.
        -12    1    3    3    0    0 -0.95694148885E+01 -0.39615683027E+01  0.73937204726E+01  0.12725361573E+02  0.00000000000E+00 0.  1.
</event>
<event>
 7    1  0.4374874E-012  0.5052886E+02  0.7816164E-02  0.1300439E+00
        -11   -1    0    0    0    0  0.00000000000E+00  0.00000000000E+00  0.45593999997E+02  0.45594000000E+02  0.51100000000E-03 0. -1.
         11   -1    0    0    0    0 -0.00000000000E+00 -0.00000000000E+00 -0.45593999997E+02  0.45594000000E+02  0.51100000000E-03 0.  1.
    9900012    2    1    2    0    0 -0.25487963086E+02  0.77368085734E+01 -0.30719234632E+02  0.50528857787E+02  0.29999993728E+02 0.  0.
         12    1    1    2    0    0  0.25487963086E+02 -0.77368085734E+01  0.30719234632E+02  0.40659142213E+02  0.00000000000E+00 0. -1.
         11    1    3    3    0    0 -0.32819989767E+01  0.87209743638E+01 -0.10883131046E+02  0.14327227672E+02  0.51100000000E-03 0. -1.
        -11    1    3    3    0    0 -0.11619581521E+01 -0.22624115548E+01 -0.14134462268E+02  0.14361464990E+02  0.51100000000E-03 0.  1.
        -12    1    3    3    0    0 -0.21044005957E+02  0.12782457645E+01 -0.57016413171E+01  0.21840165124E+02  0.00000000000E+00 0.  1.
</event>
<event>
 7    1  0.4374874E-012  0.5052887E+02  0.7816164E-02  0.1300439E+00
        -11   -1    0    0    0    0  0.00000000000E+00  0.00000000000E+00  0.45593999997E+02  0.45594000000E+02  0.51100000000E-03 0.  1.
         11   -1    0    0    0    0 -0.00000000000E+00 -0.00000000000E+00 -0.45593999997E+02  0.45594000000E+02  0.51100000000E-03 0. -1.
    9900012    2    1    2    0    0 -0.31687791888E+02  0.23823041909E+02 -0.90283710581E+01  0.50528868621E+02  0.30000026661E+02 0.  0.
         12    1    1    2    0    0  0.31687791888E+02 -0.23823041909E+02  0.90283710581E+01  0.40659131379E+02  0.00000000000E+00 0. -1.
         11    1    3    3    0    0 -0.44826133535E+01 -0.25067328606E+01 -0.11841251780E+01  0.52706436808E+01  0.51100000000E-03 0. -1.
        -11    1    3    3    0    0 -0.46690555417E+00  0.59642519928E+01  0.63936331251E+01  0.87560748871E+01  0.51100000000E-03 0.  1.
         12    1    3    3    0    0 -0.26738272980E+02  0.20365522777E+02 -0.14237879005E+02  0.36502150053E+02  0.00000000000E+00 0. -1.
</event>
<event>
 7    1  0.4374874E-012  0.5052886E+02  0.7816164E-02  0.1300439E+00
        -11   -1    0    0    0    0  0.00000000000E+00  0.00000000000E+00  0.45593999997E+02  0.45594000000E+02  0.51100000000E-03 0. -1.
         11   -1    0    0    0    0 -0.00000000000E+00 -0.00000000000E+00 -0.45593999997E+02  0.45594000000E+02  0.51100000000E-03 0.  1.
    9900012    2    1    2    0    0  0.10246686644E+02 -0.29709268239E+02  0.25797880734E+02  0.50528857647E+02  0.29999993304E+02 0.  0.
        -12    1    1    2    0    0 -0.10246686644E+02  0.29709268239E+02 -0.25797880734E+02  0.40659142353E+02  0.00000000000E+00 0.  1.
         11    1    3    3    0    0  0.13728687858E+02 -0.19309544946E+02  0.68615874703E+01  0.24666105879E+02  0.51100000000E-03 0. -1.
        -11    1    3    3    0    0  0.35673123247E+01 -0.94558554233E+01  0.13730421516E+02  0.17048853166E+02  0.51100000000E-03 0.  1.
        -12    1    3    3    0    0 -0.70493135386E+01 -0.94386786945E+00  0.52058717482E+01  0.88138986027E+01  0.00000000000E+00 0.  1.
</event>
<event>
 7    1  0.4374874E-012  0.5052887E+02  0.7816164E-02  0.1300439E+00
        -11   -1    0    0    0    0  0.00000000000E+00  0.00000000000E+00  0.45593999997E+02  0.45594000000E+02  0.51100000000E-03 0. -1.
         11   -1    0    0    0    0 -0.00000000000E+00 -0.00000000000E+00 -0.45593999997E+02  0.45594000000E+02  0.51100000000E-03 0.  1.
    9900012    2    1    2    0    0 -0.27988318478E+02  0.20826100770E+02  0.20882820229E+02  0.50528872793E+02  0.30000039342E+02 0.  0.
        -12    1    1    2    0    0  0.27988318478E+02 -0.20826100770E+02 -0.20882820229E+02  0.40659127207E+02  0.00000000000E+00 0.  1.
         11    1    3    3    0    0 -0.16266699995E+02  0.17612987769E+02  0.73777620908E+01  0.25084940514E+02  0.51100000000E-03 0. -1.
        -11    1    3    3    0    0 -0.81043169297E+01 -0.11317965367E+01 -0.24296142720E+01  0.85360378438E+01  0.51100000000E-03 0.  1.
        -12    1    3    3    0    0 -0.36173015534E+01  0.43449095374E+01  0.15934672410E+02  0.16907894435E+02  0.00000000000E+00 0.  1.
</event>
<event>
 7    1  0.4374874E-012  0.5052886E+02  0.7816164E-02  0.1300439E+00
        -11   -1    0    0    0    0  0.00000000000E+00  0.00000000000E+00  0.45593999997E+02  0.45594000000E+02  0.51100000000E-03 0.  1.
         11   -1    0    0    0    0 -0.00000000000E+00 -0.00000000000E+00 -0.45593999997E+02  0.45594000000E+02  0.51100000000E-03 0. -1.
    9900012    2    1    2    0    0 -0.13916486418E+02 -0.33487665058E+02  0.18386772723E+02  0.50528859374E+02  0.29999998554E+02 0.  0.
         12    1    1    2    0    0  0.13916486418E+02  0.33487665058E+02 -0.18386772723E+02  0.40659140626E+02  0.00000000000E+00 0. -1.
         11    1    3    3    0    0 -0.63686930196E+01 -0.34019156056E+01  0.26593936897E+00  0.72252338769E+01  0.51100000000E-03 0. -1.
        -11    1    3    3    0    0 -0.44307890512E+01 -0.12403316877E+02 -0.49489946222E+01  0.14070064292E+02  0.51100000000E-03 0.  1.
        -12    1    3    3    0    0 -0.31170043469E+01 -0.17682432576E+02  0.23069827976E+02  0.29233561205E+02  0.00000000000E+00 0.  1.
</event>
<event>
 7    1  0.4374874E-012  0.5052896E+02  0.7816164E-02  0.1300438E+00
        -11   -1    0    0    0    0  0.00000000000E+00  0.00000000000E+00  0.45593999997E+02  0.45594000000E+02  0.51100000000E-03 0. -1.
         11   -1    0    0    0    0 -0.00000000000E+00 -0.00000000000E+00 -0.45593999997E+02  0.45594000000E+02  0.51100000000E-03 0.  1.
    9900012    2    1    2    0    0  0.20385716483E+02  0.42010593599E+00 -0.35176750529E+02  0.50528957915E+02  0.30000298077E+02 0.  0.
         12    1    1    2    0    0 -0.20385716483E+02 -0.42010593599E+00  0.35176750529E+02  0.40659042085E+02  0.00000000000E+00 0. -1.
         11    1    3    3    0    0 -0.96407288644E+00 -0.12403961588E+01  0.19405229232E+01  0.24967275858E+01  0.51100000000E-03 0. -1.
        -11    1    3    3    0    0 -0.31994216253E+00  0.16056588937E+01 -0.20904982366E+02  0.20968995957E+02  0.51100000000E-03 0.  1.
        -12    1    3    3    0    0  0.21669731532E+02  0.54843201091E-01 -0.16212291086E+02  0.27063234372E+02  0.00000000000E+00 0.  1.
</event>
<event>
 7    1  0.4374874E-012  0.5052886E+02  0.7816164E-02  0.1300439E+00
        -11   -1    0    0    0    0  0.00000000000E+00  0.00000000000E+00  0.45593999997E+02  0.45594000000E+02  0.51100000000E-03 0. -1.
         11   -1    0    0    0    0 -0.00000000000E+00 -0.00000000000E+00 -0.45593999997E+02  0.45594000000E+02  0.51100000000E-03 0.  1.
    9900012    2    1    2    0    0  0.20499229342E+02 -0.16810086841E+02 -0.30828045208E+02  0.50528858413E+02  0.29999995633E+02 0.  0.
         12    1    1    2    0    0 -0.20499229342E+02  0.16810086841E+02  0.30828045208E+02  0.40659141587E+02  0.00000000000E+00 0. -1.
         11    1    3    3    0    0  0.64576219167E+01  0.56196818906E+00 -0.22597241525E+02  0.23508551930E+02  0.51100000000E-03 0. -1.
        -11    1    3    3    0    0 -0.70876580799E+00 -0.61543779799E+01 -0.55088982176E+01  0.82901554342E+01  0.51100000000E-03 0.  1.
         12    1    3    3    0    0  0.14750373234E+02 -0.11217677050E+02 -0.27219054652E+01  0.18730151049E+02  0.00000000000E+00 0. -1.
</event>
<event>
 7    1  0.4374874E-012  0.5052885E+02  0.7816164E-02  0.1300439E+00
        -11   -1    0    0    0    0  0.00000000000E+00  0.00000000000E+00  0.45593999997E+02  0.45594000000E+02  0.51100000000E-03 0. -1.
         11   -1    0    0    0    0 -0.00000000000E+00 -0.00000000000E+00 -0.45593999997E+02  0.45594000000E+02  0.51100000000E-03 0.  1.
    9900012    2    1    2    0    0 -0.33859622972E+02 -0.15910607419E+02  0.15923083420E+02  0.50528854880E+02  0.29999984894E+02 0.  0.
        -12    1    1    2    0    0  0.33859622972E+02  0.15910607419E+02 -0.15923083420E+02  0.40659145120E+02  0.00000000000E+00 0.  1.
         11    1    3    3    0    0 -0.25053693562E+01 -0.54173520496E+01  0.13886186841E+02  0.15114587790E+02  0.51100000000E-03 0. -1.
        -11    1    3    3    0    0 -0.43935912147E+01  0.26148844717E+01  0.18442752973E+01  0.54353119686E+01  0.51100000000E-03 0.  1.
        -12    1    3    3    0    0 -0.26960662401E+02 -0.13108139841E+02  0.19262128235E+00  0.29978955121E+02  0.00000000000E+00 0.  1.
</event>
<event>
 7    1  0.4374874E-012  0.5052885E+02  0.7816164E-02  0.1300439E+00
        -11   -1    0    0    0    0  0.00000000000E+00  0.00000000000E+00  0.45593999997E+02  0.45594000000E+02  0.51100000000E-03 0. -1.
         11   -1    0    0    0    0 -0.00000000000E+00 -0.00000000000E+00 -0.45593999997E+02  0.45594000000E+02  0.51100000000E-03 0.  1.
    9900012    2    1    2    0    0 -0.54070145792E+01  0.40172692782E+02  0.31757301377E+01  0.50528852027E+02  0.29999976221E+02 0.  0.
        -12    1    1    2    0    0  0.54070145792E+01 -0.40172692782E+02 -0.31757301377E+01  0.40659147973E+02  0.00000000000E+00 0.  1.
         11    1    3    3    0    0 -0.29101617322E+01  0.48330916562E+01  0.54299503438E+01  0.78302092732E+01  0.51100000000E-03 0. -1.
        -11    1    3    3    0    0 -0.10292122663E+02  0.28551524803E+02 -0.72713778801E+01  0.31208817568E+02  0.51100000000E-03 0.  1.
        -12    1    3    3    0    0  0.77952698161E+01  0.67880763228E+01  0.50171576740E+01  0.11489825186E+02  0.00000000000E+00 0.  1.
</event>
<event>
 7    1  0.4374874E-012  0.5052886E+02  0.7816164E-02  0.1300439E+00
        -11   -1    0    0    0    0  0.00000000000E+00  0.00000000000E+00  0.45593999997E+02  0.45594000000E+02  0.51100000000E-03 0. -1.
         11   -1    0    0    0    0 -0.00000000000E+00 -0.00000000000E+00 -0.45593999997E+02  0.45594000000E+02  0.51100000000E-03 0.  1.
    9900012    2    1    2    0    0  0.11386237212E+02  0.12664941929E+02  0.36920436374E+02  0.50528858666E+02  0.29999996402E+02 0.  0.
        -12    1    1    2    0    0 -0.11386237212E+02 -0.12664941929E+02 -0.36920436374E+02  0.40659141334E+02  0.00000000000E+00 0.  1.
         11    1    3    3    0    0 -0.11347879703E+00  0.11233713631E+02  0.22822890459E+02  0.25438033111E+02  0.51100000000E-03 0. -1.
        -11    1    3    3    0    0  0.52457858453E+01  0.44154631842E+01 -0.23459179174E+01  0.72469245478E+01  0.51100000000E-03 0.  1.
         12    1    3    3    0    0  0.62539301640E+01 -0.29842348858E+01  0.16443463832E+02  0.17843901007E+02  0.00000000000E+00 0. -1.
</event>
<event>
 7    1  0.4374874E-012  0.5052885E+02  0.7816164E-02  0.1300439E+00
        -11   -1    0    0    0    0  0.00000000000E+00  0.00000000000E+00  0.45593999997E+02  0.45594000000E+02  0.51100000000E-03 0. -1.
         11   -1    0    0    0    0 -0.00000000000E+00 -0.00000000000E+00 -0.45593999997E+02  0.45594000000E+02  0.51100000000E-03 0.  1.
    9900012    2    1    2    0    0 -0.16855570432E+02 -0.25024947080E+02 -0.27254507520E+02  0.50528850832E+02  0.29999972588E+02 0.  0.
         12    1    1    2    0    0  0.16855570432E+02  0.25024947080E+02  0.27254507520E+02  0.40659149168E+02  0.00000000000E+00 0. -1.
         11    1    3    3    0    0 -0.11265631200E+01 -0.10192218111E+02  0.31754453489E+01  0.10734705767E+02  0.51100000000E-03 0. -1.
        -11    1    3    3    0    0 -0.33072207152E+01 -0.12115521692E+02 -0.11759021335E+02  0.17204596994E+02  0.51100000000E-03 0.  1.
         12    1    3    3    0    0 -0.12421786597E+02 -0.27172072766E+01 -0.18670931534E+02  0.22589548070E+02  0.00000000000E+00 0. -1.
</event>
<event>
 7    1  0.4374874E-012  0.5052891E+02  0.7816164E-02  0.1300439E+00
        -11   -1    0    0    0    0  0.00000000000E+00  0.00000000000E+00  0.45593999997E+02  0.45594000000E+02  0.51100000000E-03 0. -1.
         11   -1    0    0    0    0 -0.00000000000E+00 -0.00000000000E+00 -0.45593999997E+02  0.45594000000E+02  0.51100000000E-03 0.  1.
    9900012    2    1    2    0    0  0.16996007360E+02  0.13211148719E+02  0.34492935667E+02  0.50528913346E+02  0.30000162605E+02 0.  0.
        -12    1    1    2    0    0 -0.16996007360E+02 -0.13211148719E+02 -0.34492935667E+02  0.40659086654E+02  0.00000000000E+00 0.  1.
         11    1    3    3    0    0 -0.18335919770E+01  0.26982129322E+01  0.75083772290E+00  0.33475618162E+01  0.51100000000E-03 0.  1.
        -11    1    3    3    0    0  0.11614460468E+01 -0.75912924396E+01  0.76603139489E+01  0.10846985198E+02  0.51100000000E-03 0. -1.
         12    1    3    3    0    0  0.17668153290E+02  0.18104228226E+02  0.26081783995E+02  0.36334366332E+02  0.00000000000E+00 0. -1.
</event>
<event>
 7    1  0.4374874E-012  0.5052886E+02  0.7816164E-02  0.1300439E+00
        -11   -1    0    0    0    0  0.00000000000E+00  0.00000000000E+00  0.45593999997E+02  0.45594000000E+02  0.51100000000E-03 0. -1.
         11   -1    0    0    0    0 -0.00000000000E+00 -0.00000000000E+00 -0.45593999997E+02  0.45594000000E+02  0.51100000000E-03 0.  1.
    9900012    2    1    2    0    0  0.13682937077E+02  0.48197610160E+01  0.37983063750E+02  0.50528855947E+02  0.29999988136E+02 0.  0.
        -12    1    1    2    0    0 -0.13682937077E+02 -0.48197610160E+01 -0.37983063750E+02  0.40659144053E+02  0.00000000000E+00 0.  1.
         11    1    3    3    0    0 -0.26271491644E+01  0.40672496052E+01  0.26912354305E+01  0.55396011126E+01  0.51100000000E-03 0. -1.
        -11    1    3    3    0    0 -0.19354971715E+01 -0.25418709883E+01  0.21865703492E+02  0.22097878787E+02  0.51100000000E-03 0.  1.
        -12    1    3    3    0    0  0.18245583413E+02  0.32943823990E+01  0.13426124828E+02  0.22891376048E+02  0.00000000000E+00 0.  1.
</event>
<event>
 7    1  0.4374874E-012  0.5052886E+02  0.7816164E-02  0.1300439E+00
        -11   -1    0    0    0    0  0.00000000000E+00  0.00000000000E+00  0.45593999997E+02  0.45594000000E+02  0.51100000000E-03 0. -1.
         11   -1    0    0    0    0 -0.00000000000E+00 -0.00000000000E+00 -0.45593999997E+02  0.45594000000E+02  0.51100000000E-03 0.  1.
    9900012    2    1    2    0    0  0.14144171482E+02  0.19695276058E+02  0.32637466856E+02  0.50528859223E+02  0.29999998094E+02 0.  0.
        -12    1    1    2    0    0 -0.14144171482E+02 -0.19695276058E+02 -0.32637466856E+02  0.40659140777E+02  0.00000000000E+00 0.  1.
         11    1    3    3    0    0 -0.18757962945E+01  0.30742136441E+01  0.93928295026E+01  0.10059555040E+02  0.51100000000E-03 0. -1.
        -11    1    3    3    0    0  0.14921318008E+02  0.15610319873E+02  0.28071635232E+02  0.35416726592E+02  0.51100000000E-03 0.  1.
        -12    1    3    3    0    0  0.10986497682E+01  0.10107425411E+01 -0.48269978784E+01  0.50525775912E+01  0.00000000000E+00 0.  1.
</event>
<event>
 7    1  0.4374874E-012  0.5052887E+02  0.7816164E-02  0.1300439E+00
        -11   -1    0    0    0    0  0.00000000000E+00  0.00000000000E+00  0.45593999997E+02  0.45594000000E+02  0.51100000000E-03 0. -1.
         11   -1    0    0    0    0 -0.00000000000E+00 -0.00000000000E+00 -0.45593999997E+02  0.45594000000E+02  0.51100000000E-03 0.  1.
    9900012    2    1    2    0    0  0.19908342530E+02  0.77735893394E+00 -0.35443174145E+02  0.50528868398E+02  0.30000025981E+02 0.  0.
         12    1    1    2    0    0 -0.19908342530E+02 -0.77735893394E+00  0.35443174145E+02  0.40659131602E+02  0.00000000000E+00 0. -1.
         11    1    3    3    0    0  0.89687371059E+01 -0.11300731668E+02 -0.21124967479E+02  0.25581419678E+02  0.51100000000E-03 0. -1.
        -11    1    3    3    0    0 -0.54926999768E+00  0.13548643687E+01 -0.77963931393E+01  0.79322822209E+01  0.51100000000E-03 0.  1.
        -12    1    3    3    0    0  0.11488875421E+02  0.10723226233E+02 -0.65218135266E+01  0.17015166498E+02  0.00000000000E+00 0.  1.
</event>
<event>
 7    1  0.4374874E-012  0.5052886E+02  0.7816164E-02  0.1300439E+00
        -11   -1    0    0    0    0  0.00000000000E+00  0.00000000000E+00  0.45593999997E+02  0.45594000000E+02  0.51100000000E-03 0. -1.
         11   -1    0    0    0    0 -0.00000000000E+00 -0.00000000000E+00 -0.45593999997E+02  0.45594000000E+02  0.51100000000E-03 0.  1.
    9900012    2    1    2    0    0  0.13350607606E+02  0.26197691771E+00 -0.38403888668E+02  0.50528855639E+02  0.29999987199E+02 0.  0.
         12    1    1    2    0    0 -0.13350607606E+02 -0.26197691771E+00  0.38403888668E+02  0.40659144361E+02  0.00000000000E+00 0. -1.
         11    1    3    3    0    0 -0.80329540083E+01 -0.42414660640E+01 -0.10694277610E+02  0.14031605693E+02  0.51100000000E-03 0. -1.
        -11    1    3    3    0    0  0.27762642935E+01  0.22779260945E+01 -0.10338884887E+02  0.10944822141E+02  0.51100000000E-03 0.  1.
        -12    1    3    3    0    0  0.18607297320E+02  0.22255168873E+01 -0.17370726171E+02  0.25552427804E+02  0.00000000000E+00 0.  1.
</event>
<event>
 7    1  0.4737142E-012  0.5052887E+02  0.7816164E-02  0.1300439E+00
        -11   -1    0    0    0    0  0.00000000000E+00  0.00000000000E+00  0.45593999997E+02  0.45594000000E+02  0.51100000000E-03 0.  1.
         11   -1    0    0    0    0 -0.00000000000E+00 -0.00000000000E+00 -0.45593999997E+02  0.45594000000E+02  0.51100000000E-03 0. -1.
    9900012    2    1    2    0    0  0.35990947813E+01 -0.28578648818E+02 -0.28696204202E+02  0.50528870802E+02  0.30000033291E+02 0.  0.
         12    1    1    2    0    0 -0.35990947813E+01  0.28578648818E+02  0.28696204202E+02  0.40659129198E+02  0.00000000000E+00 0. -1.
         11    1    3    3    0    0  0.64999970200E+01 -0.50861918035E+01  0.13063928445E+01  0.83561935621E+01  0.51100000000E-03 0. -1.
        -11    1    3    3    0    0  0.57873766601E+01 -0.15606427117E+02 -0.23378149220E+02  0.28698295371E+02  0.51100000000E-03 0.  1.
         12    1    3    3    0    0 -0.86882788987E+01 -0.78860298970E+01 -0.66244478268E+01  0.13474381870E+02  0.00000000000E+00 0. -1.
</event>
<event>
 7    1  0.4374874E-012  0.5052886E+02  0.7816164E-02  0.1300439E+00
        -11   -1    0    0    0    0  0.00000000000E+00  0.00000000000E+00  0.45593999997E+02  0.45594000000E+02  0.51100000000E-03 0. -1.
         11   -1    0    0    0    0 -0.00000000000E+00 -0.00000000000E+00 -0.45593999997E+02  0.45594000000E+02  0.51100000000E-03 0.  1.
    9900012    2    1    2    0    0 -0.28617137598E+02 -0.23272039974E+01 -0.28789052131E+02  0.50528856313E+02  0.29999989248E+02 0.  0.
         12    1    1    2    0    0  0.28617137598E+02  0.23272039974E+01  0.28789052131E+02  0.40659143687E+02  0.00000000000E+00 0. -1.
         11    1    3    3    0    0 -0.16132998273E+01 -0.93426561794E+01 -0.18422702315E+02  0.20719167977E+02  0.51100000000E-03 0. -1.
        -11    1    3    3    0    0 -0.49122583083E+01  0.64750825260E+00 -0.16619655055E+01  0.52260576181E+01  0.51100000000E-03 0.  1.
        -12    1    3    3    0    0 -0.22091579462E+02  0.63679439294E+01 -0.87043843113E+01  0.24583630718E+02  0.00000000000E+00 0.  1.
</event>
<event>
 7    1  0.4374874E-012  0.5052884E+02  0.7816164E-02  0.1300439E+00
        -11   -1    0    0    0    0  0.00000000000E+00  0.00000000000E+00  0.45593999997E+02  0.45594000000E+02  0.51100000000E-03 0. -1.
         11   -1    0    0    0    0 -0.00000000000E+00 -0.00000000000E+00 -0.45593999997E+02  0.45594000000E+02  0.51100000000E-03 0.  1.
    9900012    2    1    2    0    0 -0.73092377652E+01 -0.18686010704E+02 -0.35363471183E+02  0.50528843013E+02  0.29999948823E+02 0.  0.
         12    1    1    2    0    0  0.73092377652E+01  0.18686010704E+02  0.35363471183E+02  0.40659156987E+02  0.00000000000E+00 0. -1.
         11    1    3    3    0    0 -0.86982411090E+01 -0.17182565862E+02 -0.23914823128E+02  0.30705353498E+02  0.51100000000E-03 0. -1.
        -11    1    3    3    0    0  0.11829270140E+01 -0.63933117045E+01  0.87794067736E+00  0.65608330999E+01  0.51100000000E-03 0.  1.
         12    1    3    3    0    0  0.20607632970E+00  0.48898668619E+01 -0.12326588733E+02  0.13262656415E+02  0.00000000000E+00 0. -1.
</event>
<event>
 7    1  0.4374874E-012  0.5052886E+02  0.7816164E-02  0.1300439E+00
        -11   -1    0    0    0    0  0.00000000000E+00  0.00000000000E+00  0.45593999997E+02  0.45594000000E+02  0.51100000000E-03 0. -1.
         11   -1    0    0    0    0 -0.00000000000E+00 -0.00000000000E+00 -0.45593999997E+02  0.45594000000E+02  0.51100000000E-03 0.  1.
    9900012    2    1    2    0    0  0.23803713686E+02  0.11666544933E+02  0.30829222546E+02  0.50528855657E+02  0.29999987256E+02 0.  0.
        -12    1    1    2    0    0 -0.23803713686E+02 -0.11666544933E+02 -0.30829222546E+02  0.40659144343E+02  0.00000000000E+00 0.  1.
         11    1    3    3    0    0  0.15408744809E+02  0.80273077662E+01  0.52197185125E+01  0.18141459372E+02  0.51100000000E-03 0. -1.
        -11    1    3    3    0    0  0.10703647122E+02  0.24810422627E+01  0.58269188839E+01  0.12436905417E+02  0.51100000000E-03 0.  1.
        -12    1    3    3    0    0 -0.23086782447E+01  0.11581949043E+01  0.19782585149E+02  0.19950490868E+02  0.00000000000E+00 0.  1.
</event>
<event>
 7    1  0.4374874E-012  0.5052887E+02  0.7816164E-02  0.1300439E+00
        -11   -1    0    0    0    0  0.00000000000E+00  0.00000000000E+00  0.45593999997E+02  0.45594000000E+02  0.51100000000E-03 0. -1.
         11   -1    0    0    0    0 -0.00000000000E+00 -0.00000000000E+00 -0.45593999997E+02  0.45594000000E+02  0.51100000000E-03 0.  1.
    9900012    2    1    2    0    0  0.31397141660E+02 -0.20032608878E+02 -0.16311937067E+02  0.50528865555E+02  0.30000017342E+02 0.  0.
         12    1    1    2    0    0 -0.31397141660E+02  0.20032608878E+02  0.16311937067E+02  0.40659134445E+02  0.00000000000E+00 0. -1.
         11    1    3    3    0    0  0.15701114044E+02 -0.67664991987E+01 -0.43311551291E+01  0.17637159597E+02  0.51100000000E-03 0. -1.
        -11    1    3    3    0    0  0.27530705406E+01  0.53546433225E+01 -0.77653385639E+01  0.98260920912E+01  0.51100000000E-03 0.  1.
         12    1    3    3    0    0  0.12942957076E+02 -0.18620753002E+02 -0.42154433744E+01  0.23065613867E+02  0.00000000000E+00 0. -1.
</event>
<event>
 7    1  0.4374874E-012  0.5052886E+02  0.7816164E-02  0.1300439E+00
        -11   -1    0    0    0    0  0.00000000000E+00  0.00000000000E+00  0.45593999997E+02  0.45594000000E+02  0.51100000000E-03 0. -1.
         11   -1    0    0    0    0 -0.00000000000E+00 -0.00000000000E+00 -0.45593999997E+02  0.45594000000E+02  0.51100000000E-03 0.  1.
    9900012    2    1    2    0    0  0.79323433339E+01  0.20437203765E+00  0.39877337925E+02  0.50528856887E+02  0.29999990993E+02 0.  0.
        -12    1    1    2    0    0 -0.79323433339E+01 -0.20437203765E+00 -0.39877337925E+02  0.40659143113E+02  0.00000000000E+00 0.  1.
         11    1    3    3    0    0  0.63000765704E+01 -0.58271615418E+01  0.13343012268E+02  0.15864512381E+02  0.51100000000E-03 0. -1.
        -11    1    3    3    0    0  0.23596044699E+01  0.13005605003E+01 -0.34065680123E+01  0.43432587711E+01  0.51100000000E-03 0.  1.
        -12    1    3    3    0    0 -0.72733770634E+00  0.47309730792E+01  0.29940893670E+02  0.30321085735E+02  0.00000000000E+00 0.  1.
</event>
<event>
 7    1  0.4374874E-012  0.5052885E+02  0.7816164E-02  0.1300439E+00
        -11   -1    0    0    0    0  0.00000000000E+00  0.00000000000E+00  0.45593999997E+02  0.45594000000E+02  0.51100000000E-03 0.  1.
         11   -1    0    0    0    0 -0.00000000000E+00 -0.00000000000E+00 -0.45593999997E+02  0.45594000000E+02  0.51100000000E-03 0. -1.
    9900012    2    1    2    0    0 -0.24152465477E+01  0.40585538814E+02  0.38335363674E+00  0.50528851746E+02  0.29999975367E+02 0.  0.
         12    1    1    2    0    0  0.24152465477E+01 -0.40585538814E+02 -0.38335363674E+00  0.40659148254E+02  0.00000000000E+00 0. -1.
         11    1    3    3    0    0  0.57222652007E+00  0.55483566560E+01 -0.62807204636E+01  0.83999496770E+01  0.51100000000E-03 0. -1.
        -11    1    3    3    0    0  0.71258515830E+01  0.36599895869E+01  0.42638051644E+01  0.90748729633E+01  0.51100000000E-03 0.  1.
         12    1    3    3    0    0 -0.10113324651E+02  0.31377192571E+02  0.24002689360E+01  0.33054029106E+02  0.00000000000E+00 0. -1.
</event>
<event>
 7    1  0.4374874E-012  0.5052886E+02  0.7816164E-02  0.1300439E+00
        -11   -1    0    0    0    0  0.00000000000E+00  0.00000000000E+00  0.45593999997E+02  0.45594000000E+02  0.51100000000E-03 0. -1.
         11   -1    0    0    0    0 -0.00000000000E+00 -0.00000000000E+00 -0.45593999997E+02  0.45594000000E+02  0.51100000000E-03 0.  1.
    9900012    2    1    2    0    0 -0.31450299393E+01  0.32077552107E+02 -0.24785173856E+02  0.50528863197E+02  0.30000010173E+02 0.  0.
         12    1    1    2    0    0  0.31450299393E+01 -0.32077552107E+02  0.24785173856E+02  0.40659136803E+02  0.00000000000E+00 0. -1.
         11    1    3    3    0    0  0.58972007484E+01  0.30861022879E+01 -0.42285862488E+01  0.78855529878E+01  0.51100000000E-03 0. -1.
        -11    1    3    3    0    0 -0.19624586590E+01  0.10699634034E+02 -0.20296071489E+02  0.23027460360E+02  0.51100000000E-03 0.  1.
        -12    1    3    3    0    0 -0.70797720286E+01  0.18291815784E+02 -0.26051611841E+00  0.19615849849E+02  0.00000000000E+00 0.  1.
</event>
<event>
 7    1  0.4374874E-012  0.5052891E+02  0.7816164E-02  0.1300439E+00
        -11   -1    0    0    0    0  0.00000000000E+00  0.00000000000E+00  0.45593999997E+02  0.45594000000E+02  0.51100000000E-03 0. -1.
         11   -1    0    0    0    0 -0.00000000000E+00 -0.00000000000E+00 -0.45593999997E+02  0.45594000000E+02  0.51100000000E-03 0.  1.
    9900012    2    1    2    0    0 -0.21718727243E+02 -0.16032950050E+02  0.30404002968E+02  0.50528905115E+02  0.30000137587E+02 0.  0.
        -12    1    1    2    0    0  0.21718727243E+02  0.16032950050E+02 -0.30404002968E+02  0.40659094885E+02  0.00000000000E+00 0.  1.
         11    1    3    3    0    0 -0.12730143534E+02 -0.15296172058E+02  0.11868178508E+02  0.23170737912E+02  0.51100000000E-03 0. -1.
        -11    1    3    3    0    0  0.54955884410E+01 -0.72814377014E+00  0.39851865754E+01  0.68274005276E+01  0.51100000000E-03 0.  1.
         12    1    3    3    0    0 -0.14484172150E+02 -0.86342220573E-02  0.14550637885E+02  0.20530766675E+02  0.00000000000E+00 0. -1.
</event>
<event>
 7    1  0.4374874E-012  0.5052886E+02  0.7816164E-02  0.1300439E+00
        -11   -1    0    0    0    0  0.00000000000E+00  0.00000000000E+00  0.45593999997E+02  0.45594000000E+02  0.51100000000E-03 0. -1.
         11   -1    0    0    0    0 -0.00000000000E+00 -0.00000000000E+00 -0.45593999997E+02  0.45594000000E+02  0.51100000000E-03 0.  1.
    9900012    2    1    2    0    0 -0.34030848462E+02  0.85108242259E+01 -0.20558042200E+02  0.50528857423E+02  0.29999992622E+02 0.  0.
         12    1    1    2    0    0  0.34030848462E+02 -0.85108242259E+01  0.20558042200E+02  0.40659142577E+02  0.00000000000E+00 0. -1.
         11    1    3    3    0    0 -0.67697173900E+01  0.14324071520E-01  0.73630201124E+00  0.68096563520E+01  0.51100000000E-03 0. -1.
        -11    1    3    3    0    0  0.16839145552E+01 -0.54884927653E+01 -0.53007331504E+01  0.78138910446E+01  0.51100000000E-03 0.  1.
        -12    1    3    3    0    0 -0.28945045627E+02  0.13984992920E+02 -0.15993611061E+02  0.35905310026E+02  0.00000000000E+00 0.  1.
</event>
<event>
 7    1  0.4374874E-012  0.5052884E+02  0.7816164E-02  0.1300439E+00
        -11   -1    0    0    0    0  0.00000000000E+00  0.00000000000E+00  0.45593999997E+02  0.45594000000E+02  0.51100000000E-03 0. -1.
         11   -1    0    0    0    0 -0.00000000000E+00 -0.00000000000E+00 -0.45593999997E+02  0.45594000000E+02  0.51100000000E-03 0.  1.
    9900012    2    1    2    0    0 -0.42383475808E+01  0.32803785179E+02 -0.23645622886E+02  0.50528838745E+02  0.29999935849E+02 0.  0.
         12    1    1    2    0    0  0.42383475808E+01 -0.32803785179E+02  0.23645622886E+02  0.40659161255E+02  0.00000000000E+00 0. -1.
         11    1    3    3    0    0 -0.11477964104E+02  0.62407525874E+01 -0.38900226616E+01  0.13631688428E+02  0.51100000000E-03 0. -1.
        -11    1    3    3    0    0 -0.77766132412E+00  0.12210042101E+02 -0.14944266418E+01  0.12325712819E+02  0.51100000000E-03 0.  1.
         12    1    3    3    0    0  0.80172778474E+01  0.14352990491E+02 -0.18261173582E+02  0.24571437498E+02  0.00000000000E+00 0. -1.
</event>
<event>
 7    1  0.4374874E-012  0.5052887E+02  0.7816164E-02  0.1300439E+00
        -11   -1    0    0    0    0  0.00000000000E+00  0.00000000000E+00  0.45593999997E+02  0.45594000000E+02  0.51100000000E-03 0.  1.
         11   -1    0    0    0    0 -0.00000000000E+00 -0.00000000000E+00 -0.45593999997E+02  0.45594000000E+02  0.51100000000E-03 0. -1.
    9900012    2    1    2    0    0  0.30336997254E+02 -0.11510125669E+02 -0.24502017133E+02  0.50528865247E+02  0.30000016405E+02 0.  0.
         12    1    1    2    0    0 -0.30336997254E+02  0.11510125669E+02  0.24502017133E+02  0.40659134753E+02  0.00000000000E+00 0. -1.
         11    1    3    3    0    0  0.87273454229E+01 -0.10793235914E+02 -0.60734594108E+01  0.15150822061E+02  0.51100000000E-03 0. -1.
        -11    1    3    3    0    0  0.24398233521E+02 -0.20810357342E+01 -0.10096883979E+02  0.26486818892E+02  0.51100000000E-03 0.  1.
         12    1    3    3    0    0 -0.27885816901E+01  0.13641459793E+01 -0.83316737434E+01  0.88912242948E+01  0.00000000000E+00 0. -1.
</event>
<event>
 7    1  0.4374874E-012  0.5052886E+02  0.7816164E-02  0.1300439E+00
        -11   -1    0    0    0    0  0.00000000000E+00  0.00000000000E+00  0.45593999997E+02  0.45594000000E+02  0.51100000000E-03 0. -1.
         11   -1    0    0    0    0 -0.00000000000E+00 -0.00000000000E+00 -0.45593999997E+02  0.45594000000E+02  0.51100000000E-03 0.  1.
    9900012    2    1    2    0    0 -0.12890808920E+02  0.98149201131E+01 -0.37291556824E+02  0.50528858079E+02  0.29999994617E+02 0.  0.
         12    1    1    2    0    0  0.12890808920E+02 -0.98149201131E+01  0.37291556824E+02  0.40659141921E+02  0.00000000000E+00 0. -1.
         11    1    3    3    0    0  0.19559132545E+01  0.48640465094E+01 -0.15163670709E+02  0.16044358969E+02  0.51100000000E-03 0. -1.
        -11    1    3    3    0    0  0.26176235773E+01  0.53385448176E+01  0.42109134386E+00  0.59606486345E+01  0.51100000000E-03 0.  1.
        -12    1    3    3    0    0 -0.17464345752E+02 -0.38767121398E+00 -0.22548977459E+02  0.28523850475E+02  0.00000000000E+00 0.  1.
</event>
<event>
 7    1  0.4374874E-012  0.5052888E+02  0.7816164E-02  0.1300439E+00
        -11   -1    0    0    0    0  0.00000000000E+00  0.00000000000E+00  0.45593999997E+02  0.45594000000E+02  0.51100000000E-03 0. -1.
         11   -1    0    0    0    0 -0.00000000000E+00 -0.00000000000E+00 -0.45593999997E+02  0.45594000000E+02  0.51100000000E-03 0.  1.
    9900012    2    1    2    0    0  0.12928496533E+02 -0.18657166783E+02  0.33733188921E+02  0.50528881345E+02  0.30000065338E+02 0.  0.
        -12    1    1    2    0    0 -0.12928496533E+02  0.18657166783E+02 -0.33733188921E+02  0.40659118655E+02  0.00000000000E+00 0.  1.
         11    1    3    3    0    0  0.61413711174E+01 -0.51425079478E+01  0.20558450735E+01  0.82697234792E+01  0.51100000000E-03 0. -1.
        -11    1    3    3    0    0  0.92195819389E+01 -0.68286821573E+01  0.18823358226E+01  0.11626468920E+02  0.51100000000E-03 0.  1.
         12    1    3    3    0    0 -0.24324565229E+01 -0.66859766775E+01  0.29795008025E+02  0.30632688946E+02  0.00000000000E+00 0. -1.
</event>
<event>
 7    1  0.4374874E-012  0.5052886E+02  0.7816164E-02  0.1300439E+00
        -11   -1    0    0    0    0  0.00000000000E+00  0.00000000000E+00  0.45593999997E+02  0.45594000000E+02  0.51100000000E-03 0. -1.
         11   -1    0    0    0    0 -0.00000000000E+00 -0.00000000000E+00 -0.45593999997E+02  0.45594000000E+02  0.51100000000E-03 0.  1.
    9900012    2    1    2    0    0  0.14000326320E+02  0.14125736801E+02  0.35462934735E+02  0.50528864283E+02  0.30000013475E+02 0.  0.
        -12    1    1    2    0    0 -0.14000326320E+02 -0.14125736801E+02 -0.35462934735E+02  0.40659135717E+02  0.00000000000E+00 0.  1.
         11    1    3    3    0    0  0.13896862815E+02  0.73381547545E+01  0.17270898947E+02  0.23350701531E+02  0.51100000000E-03 0. -1.
        -11    1    3    3    0    0 -0.52451756770E+00 -0.64048728420E+01  0.31374972395E+01  0.71513218351E+01  0.51100000000E-03 0.  1.
         12    1    3    3    0    0  0.62798107218E+00  0.13192454888E+02  0.15054538548E+02  0.20026840917E+02  0.00000000000E+00 0. -1.
</event>
<event>
 7    1  0.4374874E-012  0.5052886E+02  0.7816164E-02  0.1300439E+00
        -11   -1    0    0    0    0  0.00000000000E+00  0.00000000000E+00  0.45593999997E+02  0.45594000000E+02  0.51100000000E-03 0. -1.
         11   -1    0    0    0    0 -0.00000000000E+00 -0.00000000000E+00 -0.45593999997E+02  0.45594000000E+02  0.51100000000E-03 0.  1.
    9900012    2    1    2    0    0  0.74222066752E+01 -0.27938632602E+01  0.39878200020E+02  0.50528860060E+02  0.30000000639E+02 0.  0.
        -12    1    1    2    0    0 -0.74222066752E+01  0.27938632602E+01 -0.39878200020E+02  0.40659139940E+02  0.00000000000E+00 0.  1.
         11    1    3    3    0    0  0.61522814880E+00 -0.76987430791E+01  0.71893625455E+01  0.10551591574E+02  0.51100000000E-03 0. -1.
        -11    1    3    3    0    0 -0.20966855907E+01 -0.43030243025E+01  0.24064097218E+02  0.24535543275E+02  0.51100000000E-03 0.  1.
        -12    1    3    3    0    0  0.89036641171E+01  0.92079041213E+01  0.86247402558E+01  0.15441725211E+02  0.00000000000E+00 0.  1.
</event>
<event>
 7    1  0.4374874E-012  0.5052888E+02  0.7816164E-02  0.1300439E+00
        -11   -1    0    0    0    0  0.00000000000E+00  0.00000000000E+00  0.45593999997E+02  0.45594000000E+02  0.51100000000E-03 0. -1.
         11   -1    0    0    0    0 -0.00000000000E+00 -0.00000000000E+00 -0.45593999997E+02  0.45594000000E+02  0.51100000000E-03 0.  1.
    9900012    2    1    2    0    0 -0.14445867409E+01  0.31999104272E+02  0.25042656928E+02  0.50528878378E+02  0.30000056319E+02 0.  0.
        -12    1    1    2    0    0  0.14445867409E+01 -0.31999104272E+02 -0.25042656928E+02  0.40659121622E+02  0.00000000000E+00 0.  1.
         11    1    3    3    0    0  0.64870192912E+01  0.69040564044E+01  0.20458522427E+01  0.96919000087E+01  0.51100000000E-03 0. -1.
        -11    1    3    3    0    0 -0.11008071580E+02  0.31675893061E+01  0.60536020865E+01  0.12955977787E+02  0.51100000000E-03 0.  1.
         12    1    3    3    0    0  0.30764655479E+01  0.21927458561E+02  0.16943202599E+02  0.27881000583E+02  0.00000000000E+00 0. -1.
</event>
<event>
 7    1  0.4374874E-012  0.5052886E+02  0.7816164E-02  0.1300439E+00
        -11   -1    0    0    0    0  0.00000000000E+00  0.00000000000E+00  0.45593999997E+02  0.45594000000E+02  0.51100000000E-03 0. -1.
         11   -1    0    0    0    0 -0.00000000000E+00 -0.00000000000E+00 -0.45593999997E+02  0.45594000000E+02  0.51100000000E-03 0.  1.
    9900012    2    1    2    0    0 -0.43664000742E+01 -0.52879919837E+01 -0.40076643507E+02  0.50528860024E+02  0.30000000529E+02 0.  0.
         12    1    1    2    0    0  0.43664000742E+01  0.52879919837E+01  0.40076643507E+02  0.40659139976E+02  0.00000000000E+00 0. -1.
         11    1    3    3    0    0 -0.86223123940E+00  0.31406560642E+00  0.37858340440E+01  0.38954614086E+01  0.51100000000E-03 0. -1.
        -11    1    3    3    0    0  0.16641173633E+01 -0.89376899336E+01 -0.19640596567E+02  0.21642657455E+02  0.51100000000E-03 0.  1.
        -12    1    3    3    0    0 -0.51682861981E+01  0.33356323436E+01 -0.24221880983E+02  0.24990741160E+02  0.00000000000E+00 0.  1.
</event>
<event>
 7    1  0.4374874E-012  0.5052887E+02  0.7816164E-02  0.1300439E+00
        -11   -1    0    0    0    0  0.00000000000E+00  0.00000000000E+00  0.45593999997E+02  0.45594000000E+02  0.51100000000E-03 0. -1.
         11   -1    0    0    0    0 -0.00000000000E+00 -0.00000000000E+00 -0.45593999997E+02  0.45594000000E+02  0.51100000000E-03 0.  1.
    9900012    2    1    2    0    0 -0.10389427421E+02  0.73284485007E+01 -0.38620180289E+02  0.50528872057E+02  0.30000037103E+02 0.  0.
         12    1    1    2    0    0  0.10389427421E+02 -0.73284485007E+01  0.38620180289E+02  0.40659127943E+02  0.00000000000E+00 0. -1.
         11    1    3    3    0    0 -0.59062954520E+01  0.11590026408E+01 -0.42220188533E+01  0.73520783828E+01  0.51100000000E-03 0. -1.
        -11    1    3    3    0    0 -0.78995326083E+01  0.14524049598E+02 -0.26216237142E+02  0.30994220789E+02  0.51100000000E-03 0.  1.
         12    1    3    3    0    0  0.34164006394E+01 -0.83546037382E+01 -0.81819242933E+01  0.12182572885E+02  0.00000000000E+00 0. -1.
</event>
<event>
 7    1  0.4374874E-012  0.5052886E+02  0.7816164E-02  0.1300439E+00
        -11   -1    0    0    0    0  0.00000000000E+00  0.00000000000E+00  0.45593999997E+02  0.45594000000E+02  0.51100000000E-03 0. -1.
         11   -1    0    0    0    0 -0.00000000000E+00 -0.00000000000E+00 -0.45593999997E+02  0.45594000000E+02  0.51100000000E-03 0.  1.
    9900012    2    1    2    0    0  0.23849371688E+02  0.25234800971E+02  0.21156035578E+02  0.50528861405E+02  0.30000004726E+02 0.  0.
        -12    1    1    2    0    0 -0.23849371688E+02 -0.25234800971E+02 -0.21156035578E+02  0.40659138595E+02  0.00000000000E+00 0.  1.
         11    1    3    3    0    0  0.13043943852E+02  0.37090894667E+01  0.18181681704E+02  0.22682049417E+02  0.51100000000E-03 0. -1.
        -11    1    3    3    0    0  0.89323968459E+01  0.54234516603E+01 -0.24850532228E+01  0.10741370076E+02  0.51100000000E-03 0.  1.
         12    1    3    3    0    0  0.18730309901E+01  0.16102259844E+02  0.54594070960E+01  0.17105441912E+02  0.00000000000E+00 0. -1.
</event>
<event>
 7    1  0.4374874E-012  0.5052890E+02  0.7816164E-02  0.1300439E+00
        -11   -1    0    0    0    0  0.00000000000E+00  0.00000000000E+00  0.45593999997E+02  0.45594000000E+02  0.51100000000E-03 0. -1.
         11   -1    0    0    0    0 -0.00000000000E+00 -0.00000000000E+00 -0.45593999997E+02  0.45594000000E+02  0.51100000000E-03 0.  1.
    9900012    2    1    2    0    0 -0.67487022769E+00 -0.24980590177E+01  0.40576680231E+02  0.50528896133E+02  0.30000110286E+02 0.  0.
        -12    1    1    2    0    0  0.67487022769E+00  0.24980590177E+01 -0.40576680231E+02  0.40659103867E+02  0.00000000000E+00 0.  1.
         11    1    3    3    0    0 -0.23673620440E+01 -0.69577549316E+01  0.32091495241E+01  0.80195634335E+01  0.51100000000E-03 0.  1.
        -11    1    3    3    0    0 -0.37343037107E+01  0.18600961609E+01  0.36124965635E+02  0.36365067363E+02  0.51100000000E-03 0. -1.
         12    1    3    3    0    0  0.54267955270E+01  0.25995997530E+01  0.12425650719E+01  0.61442653365E+01  0.00000000000E+00 0. -1.
</event>
<event>
 7    1  0.4374874E-012  0.5052886E+02  0.7816164E-02  0.1300439E+00
        -11   -1    0    0    0    0  0.00000000000E+00  0.00000000000E+00  0.45593999997E+02  0.45594000000E+02  0.51100000000E-03 0. -1.
         11   -1    0    0    0    0 -0.00000000000E+00 -0.00000000000E+00 -0.45593999997E+02  0.45594000000E+02  0.51100000000E-03 0.  1.
    9900012    2    1    2    0    0 -0.82204263953E+01  0.28473534472E+02 -0.27836092094E+02  0.50528860824E+02  0.30000002960E+02 0.  0.
         12    1    1    2    0    0  0.82204263953E+01 -0.28473534472E+02  0.27836092094E+02  0.40659139176E+02  0.00000000000E+00 0. -1.
         11    1    3    3    0    0  0.21984072488E+01  0.16399570327E+02 -0.22012206084E+02  0.27537540164E+02  0.51100000000E-03 0. -1.
        -11    1    3    3    0    0 -0.20318455479E+01 -0.31726142018E+01 -0.39999362970E+01  0.54948492104E+01  0.51100000000E-03 0.  1.
         12    1    3    3    0    0 -0.83869880961E+01  0.15246578347E+02 -0.18239497130E+01  0.17496471449E+02  0.00000000000E+00 0. -1.
</event>
<event>
 7    1  0.4374874E-012  0.5052886E+02  0.7816164E-02  0.1300439E+00
        -11   -1    0    0    0    0  0.00000000000E+00  0.00000000000E+00  0.45593999997E+02  0.45594000000E+02  0.51100000000E-03 0. -1.
         11   -1    0    0    0    0 -0.00000000000E+00 -0.00000000000E+00 -0.45593999997E+02  0.45594000000E+02  0.51100000000E-03 0.  1.
    9900012    2    1    2    0    0 -0.86433757387E+01  0.31619455312E+01 -0.39603780605E+02  0.50528864717E+02  0.30000014794E+02 0.  0.
         12    1    1    2    0    0  0.86433757387E+01 -0.31619455312E+01  0.39603780605E+02  0.40659135283E+02  0.00000000000E+00 0. -1.
         11    1    3    3    0    0 -0.18373850179E+00 -0.50551387801E+01 -0.19090112868E+00  0.50620777775E+01  0.51100000000E-03 0. -1.
        -11    1    3    3    0    0 -0.10214391218E+02 -0.33949609006E+01 -0.21559657961E+02  0.24097269537E+02  0.51100000000E-03 0.  1.
         12    1    3    3    0    0  0.17547539813E+01  0.11612045212E+02 -0.17853221516E+02  0.21369517403E+02  0.00000000000E+00 0. -1.
</event>
<event>
 7    1  0.4374874E-012  0.5052885E+02  0.7816164E-02  0.1300439E+00
        -11   -1    0    0    0    0  0.00000000000E+00  0.00000000000E+00  0.45593999997E+02  0.45594000000E+02  0.51100000000E-03 0. -1.
         11   -1    0    0    0    0 -0.00000000000E+00 -0.00000000000E+00 -0.45593999997E+02  0.45594000000E+02  0.51100000000E-03 0.  1.
    9900012    2    1    2    0    0 -0.29217338378E+02 -0.18840553605E+01  0.28212837736E+02  0.50528846792E+02  0.29999960309E+02 0.  0.
        -12    1    1    2    0    0  0.29217338378E+02  0.18840553605E+01 -0.28212837736E+02  0.40659153208E+02  0.00000000000E+00 0.  1.
         11    1    3    3    0    0 -0.18358882771E+02 -0.68846045596E+01  0.58083383430E+01  0.20449526917E+02  0.51100000000E-03 0. -1.
        -11    1    3    3    0    0 -0.14061653698E+02  0.32579714750E+01  0.22131652142E+02  0.26422613604E+02  0.51100000000E-03 0.  1.
        -12    1    3    3    0    0  0.32031980911E+01  0.17425777242E+01  0.27284725086E+00  0.36567062717E+01  0.00000000000E+00 0.  1.
</event>
<event>
 7    1  0.4374874E-012  0.5052887E+02  0.7816164E-02  0.1300439E+00
        -11   -1    0    0    0    0  0.00000000000E+00  0.00000000000E+00  0.45593999997E+02  0.45594000000E+02  0.51100000000E-03 0. -1.
         11   -1    0    0    0    0 -0.00000000000E+00 -0.00000000000E+00 -0.45593999997E+02  0.45594000000E+02  0.51100000000E-03 0.  1.
    9900012    2    1    2    0    0 -0.14013513657E+02 -0.36753020621E+01 -0.37990501769E+02  0.50528872674E+02  0.30000038979E+02 0.  0.
         12    1    1    2    0    0  0.14013513657E+02  0.36753020621E+01  0.37990501769E+02  0.40659127326E+02  0.00000000000E+00 0. -1.
         11    1    3    3    0    0  0.38209300062E+00  0.19857581863E+01 -0.48654280170E+01  0.52689297476E+01  0.51100000000E-03 0. -1.
        -11    1    3    3    0    0  0.12917582778E+01  0.91391773851E+01 -0.11057596554E+02  0.14403598319E+02  0.51100000000E-03 0.  1.
        -12    1    3    3    0    0 -0.15687364935E+02 -0.14800237633E+02 -0.22067477198E+02  0.30856344607E+02  0.00000000000E+00 0.  1.
</event>
<event>
 7    1  0.4374874E-012  0.5052886E+02  0.7816164E-02  0.1300439E+00
        -11   -1    0    0    0    0  0.00000000000E+00  0.00000000000E+00  0.45593999997E+02  0.45594000000E+02  0.51100000000E-03 0. -1.
         11   -1    0    0    0    0 -0.00000000000E+00 -0.00000000000E+00 -0.45593999997E+02  0.45594000000E+02  0.51100000000E-03 0.  1.
    9900012    2    1    2    0    0  0.15466558967E+02  0.16574973727E+02  0.33752353597E+02  0.50528861130E+02  0.30000003890E+02 0.  0.
        -12    1    1    2    0    0 -0.15466558967E+02 -0.16574973727E+02 -0.33752353597E+02  0.40659138870E+02  0.00000000000E+00 0.  1.
         11    1    3    3    0    0  0.17725138937E+02  0.14557399957E+01  0.16844506313E+02  0.24495655175E+02  0.51100000000E-03 0. -1.
        -11    1    3    3    0    0  0.16781552197E+01  0.10460610291E+02  0.16885527348E+02  0.19933931040E+02  0.51100000000E-03 0.  1.
        -12    1    3    3    0    0 -0.39367351896E+01  0.46586234401E+01  0.22319936004E-01  0.60992749150E+01  0.00000000000E+00 0.  1.
</event>
<event>
 7    1  0.4374874E-012  0.5052886E+02  0.7816164E-02  0.1300439E+00
        -11   -1    0    0    0    0  0.00000000000E+00  0.00000000000E+00  0.45593999997E+02  0.45594000000E+02  0.51100000000E-03 0. -1.
         11   -1    0    0    0    0 -0.00000000000E+00 -0.00000000000E+00 -0.45593999997E+02  0.45594000000E+02  0.51100000000E-03 0.  1.
    9900012    2    1    2    0    0  0.31707436097E+02 -0.23573478599E+02 -0.95966112618E+01  0.50528863944E+02  0.30000012443E+02 0.  0.
         12    1    1    2    0    0 -0.31707436097E+02  0.23573478599E+02  0.95966112618E+01  0.40659136056E+02  0.00000000000E+00 0. -1.
         11    1    3    3    0    0  0.44995867045E+01  0.12610924161E+01 -0.12211142888E+01  0.48298814645E+01  0.51100000000E-03 0. -1.
        -11    1    3    3    0    0  0.92093813522E+01 -0.65140217130E+00 -0.12212941166E+02  0.15309897513E+02  0.51100000000E-03 0.  1.
         12    1    3    3    0    0  0.17998468041E+02 -0.24183168844E+02  0.38374441928E+01  0.30389084966E+02  0.00000000000E+00 0. -1.
</event>
<event>
 7    1  0.4374874E-012  0.5052886E+02  0.7816164E-02  0.1300439E+00
        -11   -1    0    0    0    0  0.00000000000E+00  0.00000000000E+00  0.45593999997E+02  0.45594000000E+02  0.51100000000E-03 0. -1.
         11   -1    0    0    0    0 -0.00000000000E+00 -0.00000000000E+00 -0.45593999997E+02  0.45594000000E+02  0.51100000000E-03 0.  1.
    9900012    2    1    2    0    0 -0.88249893607E+01 -0.31069663635E+02 -0.24697386495E+02  0.50528864061E+02  0.30000012801E+02 0.  0.
         12    1    1    2    0    0  0.88249893607E+01  0.31069663635E+02  0.24697386495E+02  0.40659135939E+02  0.00000000000E+00 0. -1.
         11    1    3    3    0    0 -0.81231426079E+01 -0.92407176647E+01 -0.83108777161E+01  0.14847457609E+02  0.51100000000E-03 0. -1.
        -11    1    3    3    0    0 -0.18084415593E+01 -0.26495045120E+02 -0.15663040805E+02  0.30831618905E+02  0.51100000000E-03 0.  1.
         12    1    3    3    0    0  0.11065948065E+01  0.46660991497E+01 -0.72346797367E+00  0.48497875469E+01  0.00000000000E+00 0. -1.
</event>
<event>
 7    1  0.4374874E-012  0.5052887E+02  0.7816164E-02  0.1300439E+00
        -11   -1    0    0    0    0  0.00000000000E+00  0.00000000000E+00  0.45593999997E+02  0.45594000000E+02  0.51100000000E-03 0. -1.
         11   -1    0    0    0    0 -0.00000000000E+00 -0.00000000000E+00 -0.45593999997E+02  0.45594000000E+02  0.51100000000E-03 0.  1.
    9900012    2    1    2    0    0 -0.17389284430E+02 -0.67138615379E+01  0.36134496305E+02  0.50528868517E+02  0.30000026345E+02 0.  0.
        -12    1    1    2    0    0  0.17389284430E+02  0.67138615379E+01 -0.36134496305E+02  0.40659131483E+02  0.00000000000E+00 0.  1.
         11    1    3    3    0    0 -0.76951613066E+01  0.23852583341E+01  0.13993598184E+02  0.16147004529E+02  0.51100000000E-03 0. -1.
        -11    1    3    3    0    0 -0.46220373324E+01  0.62058610483E+01  0.10122272725E+01  0.78038801096E+01  0.51100000000E-03 0.  1.
        -12    1    3    3    0    0 -0.50720857906E+01 -0.15304980920E+02  0.21128670849E+02  0.26577983879E+02  0.00000000000E+00 0.  1.
</event>
<event>
 7    1  0.4374874E-012  0.5052886E+02  0.7816164E-02  0.1300439E+00
        -11   -1    0    0    0    0  0.00000000000E+00  0.00000000000E+00  0.45593999997E+02  0.45594000000E+02  0.51100000000E-03 0. -1.
         11   -1    0    0    0    0 -0.00000000000E+00 -0.00000000000E+00 -0.45593999997E+02  0.45594000000E+02  0.51100000000E-03 0.  1.
    9900012    2    1    2    0    0  0.26632630639E+02  0.98422224775E+01 -0.29103257862E+02  0.50528856179E+02  0.29999988842E+02 0.  0.
         12    1    1    2    0    0 -0.26632630639E+02 -0.98422224775E+01  0.29103257862E+02  0.40659143821E+02  0.00000000000E+00 0. -1.
         11    1    3    3    0    0  0.44278119567E+01 -0.24458454900E+01 -0.17778668885E+02  0.18484283770E+02  0.51100000000E-03 0. -1.
        -11    1    3    3    0    0 -0.64139395995E+00  0.44447159523E+01  0.14506309520E+01  0.47192389777E+01  0.51100000000E-03 0.  1.
        -12    1    3    3    0    0  0.22846212642E+02  0.78433520152E+01 -0.12775219929E+02  0.27325333432E+02  0.00000000000E+00 0.  1.
</event>
<event>
 7    1  0.4374874E-012  0.5052882E+02  0.7816164E-02  0.1300439E+00
        -11   -1    0    0    0    0  0.00000000000E+00  0.00000000000E+00  0.45593999997E+02  0.45594000000E+02  0.51100000000E-03 0. -1.
         11   -1    0    0    0    0 -0.00000000000E+00 -0.00000000000E+00 -0.45593999997E+02  0.45594000000E+02  0.51100000000E-03 0.  1.
    9900012    2    1    2    0    0 -0.27084434381E+02 -0.60363356393E+01 -0.29718086084E+02  0.50528824231E+02  0.29999891733E+02 0.  0.
         12    1    1    2    0    0  0.27084434381E+02  0.60363356393E+01  0.29718086084E+02  0.40659175769E+02  0.00000000000E+00 0. -1.
         11    1    3    3    0    0 -0.11311457060E+02 -0.17128548885E+01 -0.46037754581E+01  0.12331978001E+02  0.51100000000E-03 0. -1.
        -11    1    3    3    0    0 -0.17085507884E+02  0.50415075833E+01 -0.21853105678E+02  0.28193786663E+02  0.51100000000E-03 0.  1.
        -12    1    3    3    0    0  0.13125305635E+01 -0.93649883342E+01 -0.32612049485E+01  0.10003059567E+02  0.00000000000E+00 0.  1.
</event>
<event>
 7    1  0.4374874E-012  0.5052886E+02  0.7816164E-02  0.1300439E+00
        -11   -1    0    0    0    0  0.00000000000E+00  0.00000000000E+00  0.45593999997E+02  0.45594000000E+02  0.51100000000E-03 0. -1.
         11   -1    0    0    0    0 -0.00000000000E+00 -0.00000000000E+00 -0.45593999997E+02  0.45594000000E+02  0.51100000000E-03 0.  1.
    9900012    2    1    2    0    0 -0.16986435412E+02  0.11878569191E+02 -0.34978941022E+02  0.50528859465E+02  0.29999998829E+02 0.  0.
         12    1    1    2    0    0  0.16986435412E+02 -0.11878569191E+02  0.34978941022E+02  0.40659140535E+02  0.00000000000E+00 0. -1.
         11    1    3    3    0    0  0.66665219505E+01  0.60839950284E+01 -0.13634647827E+02  0.16351181365E+02  0.51100000000E-03 0. -1.
        -11    1    3    3    0    0 -0.12044124115E+02  0.82924973725E+01 -0.13818966353E+02  0.20119400332E+02  0.51100000000E-03 0.  1.
        -12    1    3    3    0    0 -0.11608833247E+02 -0.24979232096E+01 -0.75253268422E+01  0.14058277768E+02  0.00000000000E+00 0.  1.
</event>
<event>
 7    1  0.4374874E-012  0.5052885E+02  0.7816164E-02  0.1300439E+00
        -11   -1    0    0    0    0  0.00000000000E+00  0.00000000000E+00  0.45593999997E+02  0.45594000000E+02  0.51100000000E-03 0.  1.
         11   -1    0    0    0    0 -0.00000000000E+00 -0.00000000000E+00 -0.45593999997E+02  0.45594000000E+02  0.51100000000E-03 0. -1.
    9900012    2    1    2    0    0 -0.17024666493E+02 -0.35846563086E+02 -0.88516121392E+01  0.50528851070E+02  0.29999973313E+02 0.  0.
        -12    1    1    2    0    0  0.17024666493E+02  0.35846563086E+02  0.88516121392E+01  0.40659148930E+02  0.00000000000E+00 0.  1.
         11    1    3    3    0    0 -0.70336016129E+01 -0.11192161207E+02 -0.79057606647E+01  0.15402502267E+02  0.51100000000E-03 0. -1.
        -11    1    3    3    0    0 -0.17427311138E+02 -0.17351060938E+02  0.54047133107E+00  0.24598020219E+02  0.51100000000E-03 0.  1.
        -12    1    3    3    0    0  0.74362462576E+01 -0.73033409402E+01 -0.14863228055E+01  0.10528328584E+02  0.00000000000E+00 0.  1.
</event>
<event>
 7    1  0.4374874E-012  0.5052885E+02  0.7816164E-02  0.1300439E+00
        -11   -1    0    0    0    0  0.00000000000E+00  0.00000000000E+00  0.45593999997E+02  0.45594000000E+02  0.51100000000E-03 0. -1.
         11   -1    0    0    0    0 -0.00000000000E+00 -0.00000000000E+00 -0.45593999997E+02  0.45594000000E+02  0.51100000000E-03 0.  1.
    9900012    2    1    2    0    0 -0.25908648231E+02 -0.54414941776E+01  0.30859331167E+02  0.50528853033E+02  0.29999979279E+02 0.  0.
        -12    1    1    2    0    0  0.25908648231E+02  0.54414941776E+01 -0.30859331167E+02  0.40659146967E+02  0.00000000000E+00 0.  1.
         11    1    3    3    0    0 -0.77368951925E+01  0.85704357980E+01  0.74273122489E+01  0.13728688375E+02  0.51100000000E-03 0. -1.
        -11    1    3    3    0    0 -0.18488659481E+02 -0.63181001921E+01  0.11721322884E+02  0.22784607301E+02  0.51100000000E-03 0.  1.
        -12    1    3    3    0    0  0.31690644320E+00 -0.76938297835E+01  0.11710696034E+02  0.14015557357E+02  0.00000000000E+00 0.  1.
</event>
<event>
 7    1  0.4374874E-012  0.5052885E+02  0.7816164E-02  0.1300439E+00
        -11   -1    0    0    0    0  0.00000000000E+00  0.00000000000E+00  0.45593999997E+02  0.45594000000E+02  0.51100000000E-03 0. -1.
         11   -1    0    0    0    0 -0.00000000000E+00 -0.00000000000E+00 -0.45593999997E+02  0.45594000000E+02  0.51100000000E-03 0.  1.
    9900012    2    1    2    0    0 -0.49680770897E-01 -0.24383622368E+02 -0.32536177297E+02  0.50528851693E+02  0.29999975205E+02 0.  0.
         12    1    1    2    0    0  0.49680770897E-01  0.24383622368E+02  0.32536177297E+02  0.40659148307E+02  0.00000000000E+00 0. -1.
         11    1    3    3    0    0  0.16899178780E+01 -0.49318443532E+01 -0.11455474444E+01  0.53377139645E+01  0.51100000000E-03 0. -1.
        -11    1    3    3    0    0 -0.82850259516E+00 -0.24514074076E+02 -0.16825097724E+02  0.29744077697E+02  0.51100000000E-03 0.  1.
        -12    1    3    3    0    0 -0.91109605376E+00  0.50622960607E+01 -0.14565532128E+02  0.15447060031E+02  0.00000000000E+00 0.  1.
</event>
<event>
 7    1  0.4374874E-012  0.5052886E+02  0.7816164E-02  0.1300439E+00
        -11   -1    0    0    0    0  0.00000000000E+00  0.00000000000E+00  0.45593999997E+02  0.45594000000E+02  0.51100000000E-03 0.  1.
         11   -1    0    0    0    0 -0.00000000000E+00 -0.00000000000E+00 -0.45593999997E+02  0.45594000000E+02  0.51100000000E-03 0. -1.
    9900012    2    1    2    0    0 -0.36602873581E+01  0.36822996132E+02 -0.16847405241E+02  0.50528858211E+02  0.29999995018E+02 0.  0.
         12    1    1    2    0    0  0.36602873581E+01 -0.36822996132E+02  0.16847405241E+02  0.40659141789E+02  0.00000000000E+00 0. -1.
         11    1    3    3    0    0 -0.64265028789E+00  0.13241971005E+01 -0.36983765052E+01  0.39805133324E+01  0.51100000000E-03 0. -1.
        -11    1    3    3    0    0 -0.13624039124E+02  0.16733675268E+02 -0.55905202826E+00  0.21585709844E+02  0.51100000000E-03 0.  1.
        -12    1    3    3    0    0  0.10606402054E+02  0.18765123763E+02 -0.12589976708E+02  0.24962635035E+02  0.00000000000E+00 0.  1.
</event>
<event>
 7    1  0.5136513E-012  0.5052885E+02  0.7816164E-02  0.1300439E+00
        -11   -1    0    0    0    0  0.00000000000E+00  0.00000000000E+00  0.45593999997E+02  0.45594000000E+02  0.51100000000E-03 0. -1.
         11   -1    0    0    0    0 -0.00000000000E+00 -0.00000000000E+00 -0.45593999997E+02  0.45594000000E+02  0.51100000000E-03 0.  1.
    9900012    2    1    2    0    0 -0.42670089574E+01  0.28093554533E+02 -0.29081111901E+02  0.50528852922E+02  0.29999978940E+02 0.  0.
         12    1    1    2    0    0  0.42670089574E+01 -0.28093554533E+02  0.29081111901E+02  0.40659147078E+02  0.00000000000E+00 0. -1.
         11    1    3    3    0    0  0.10179145384E+01  0.50255800857E+01 -0.17465922243E+02  0.18203050438E+02  0.51100000000E-03 0. -1.
        -11    1    3    3    0    0  0.21478669614E+00  0.23695058494E+02 -0.12384591149E+02  0.26737240481E+02  0.51100000000E-03 0.  1.
         12    1    3    3    0    0 -0.54997101920E+01 -0.62708404678E+00  0.76940149070E+00  0.55885620021E+01  0.00000000000E+00 0. -1.
</event>
<event>
 7    1  0.4374874E-012  0.5052883E+02  0.7816164E-02  0.1300439E+00
        -11   -1    0    0    0    0  0.00000000000E+00  0.00000000000E+00  0.45593999997E+02  0.45594000000E+02  0.51100000000E-03 0.  1.
         11   -1    0    0    0    0 -0.00000000000E+00 -0.00000000000E+00 -0.45593999997E+02  0.45594000000E+02  0.51100000000E-03 0. -1.
    9900012    2    1    2    0    0  0.18687806800E+02 -0.32918332581E+02 -0.14843094305E+02  0.50528828938E+02  0.29999906040E+02 0.  0.
         12    1    1    2    0    0 -0.18687806800E+02  0.32918332581E+02  0.14843094305E+02  0.40659171062E+02  0.00000000000E+00 0. -1.
         11    1    3    3    0    0  0.61544171333E+01 -0.25933722990E+01  0.34798189865E+01  0.75307085040E+01  0.51100000000E-03 0.  1.
        -11    1    3    3    0    0  0.64918803581E+01 -0.97429280244E+00 -0.98860241561E+01  0.11867064967E+02  0.51100000000E-03 0. -1.
         12    1    3    3    0    0  0.60415093087E+01 -0.29350667480E+02 -0.84368891350E+01  0.31131055467E+02  0.00000000000E+00 0. -1.
</event>
<event>
 7    1  0.4374874E-012  0.5052877E+02  0.7816164E-02  0.1300439E+00
        -11   -1    0    0    0    0  0.00000000000E+00  0.00000000000E+00  0.45593999997E+02  0.45594000000E+02  0.51100000000E-03 0.  1.
         11   -1    0    0    0    0 -0.00000000000E+00 -0.00000000000E+00 -0.45593999997E+02  0.45594000000E+02  0.51100000000E-03 0. -1.
    9900012    2    1    2    0    0 -0.28415028189E+02 -0.25158129697E+02  0.14588624810E+02  0.50528766231E+02  0.29999715434E+02 0.  0.
         12    1    1    2    0    0  0.28415028189E+02  0.25158129697E+02 -0.14588624810E+02  0.40659233769E+02  0.00000000000E+00 0. -1.
         11    1    3    3    0    0 -0.25938163111E+02 -0.28846784785E+02  0.16919164391E+02  0.42322374956E+02  0.51100000000E-03 0.  1.
        -11    1    3    3    0    0  0.17702012790E+01 -0.39937168069E+00 -0.12748449022E+01  0.22177330978E+01  0.51100000000E-03 0. -1.
        -12    1    3    3    0    0 -0.42470663575E+01  0.40880267685E+01 -0.10556946789E+01  0.59886581769E+01  0.00000000000E+00 0.  1.
</event>
<event>
 7    1  0.4374874E-012  0.5052887E+02  0.7816164E-02  0.1300439E+00
        -11   -1    0    0    0    0  0.00000000000E+00  0.00000000000E+00  0.45593999997E+02  0.45594000000E+02  0.51100000000E-03 0. -1.
         11   -1    0    0    0    0 -0.00000000000E+00 -0.00000000000E+00 -0.45593999997E+02  0.45594000000E+02  0.51100000000E-03 0.  1.
    9900012    2    1    2    0    0 -0.17040661282E+02  0.58358725867E+01 -0.36451658014E+02  0.50528869196E+02  0.30000028408E+02 0.  0.
         12    1    1    2    0    0  0.17040661282E+02 -0.58358725867E+01  0.36451658014E+02  0.40659130804E+02  0.00000000000E+00 0. -1.
         11    1    3    3    0    0 -0.14335806790E+02  0.63923087752E+00 -0.73470666640E+01  0.16121518578E+02  0.51100000000E-03 0. -1.
        -11    1    3    3    0    0 -0.33606907365E+01  0.39824223446E+00  0.12956592758E+01  0.36237511399E+01  0.51100000000E-03 0.  1.
         12    1    3    3    0    0  0.65583624440E+00  0.47983994747E+01 -0.30400250626E+02  0.30783599478E+02  0.00000000000E+00 0. -1.
</event>
<event>
 7    1  0.4374874E-012  0.5052885E+02  0.7816164E-02  0.1300439E+00
        -11   -1    0    0    0    0  0.00000000000E+00  0.00000000000E+00  0.45593999997E+02  0.45594000000E+02  0.51100000000E-03 0. -1.
         11   -1    0    0    0    0 -0.00000000000E+00 -0.00000000000E+00 -0.45593999997E+02  0.45594000000E+02  0.51100000000E-03 0.  1.
    9900012    2    1    2    0    0 -0.27899881549E+01 -0.64597513109E+01 -0.40045652124E+02  0.50528847587E+02  0.29999962726E+02 0.  0.
         12    1    1    2    0    0  0.27899881549E+01  0.64597513109E+01  0.40045652124E+02  0.40659152413E+02  0.00000000000E+00 0. -1.
         11    1    3    3    0    0  0.42844199219E+01  0.68726154256E+01 -0.73514100628E+01  0.10937656377E+02  0.51100000000E-03 0. -1.
        -11    1    3    3    0    0 -0.75637519751E+01  0.11291883243E+01 -0.88155513258E+01  0.11670447963E+02  0.51100000000E-03 0.  1.
         12    1    3    3    0    0  0.48934389823E+00 -0.14461555061E+02 -0.23878690735E+02  0.27920743247E+02  0.00000000000E+00 0. -1.
</event>
<event>
 7    1  0.4374874E-012  0.5052886E+02  0.7816164E-02  0.1300439E+00
        -11   -1    0    0    0    0  0.00000000000E+00  0.00000000000E+00  0.45593999997E+02  0.45594000000E+02  0.51100000000E-03 0. -1.
         11   -1    0    0    0    0 -0.00000000000E+00 -0.00000000000E+00 -0.45593999997E+02  0.45594000000E+02  0.51100000000E-03 0.  1.
    9900012    2    1    2    0    0  0.97647483888E+01 -0.80155638834E+01  0.38646681065E+02  0.50528861632E+02  0.30000005418E+02 0.  0.
        -12    1    1    2    0    0 -0.97647483888E+01  0.80155638834E+01 -0.38646681065E+02  0.40659138368E+02  0.00000000000E+00 0.  1.
         11    1    3    3    0    0  0.52982049614E+01 -0.12172278760E+02  0.15906861415E+02  0.20718677235E+02  0.51100000000E-03 0. -1.
        -11    1    3    3    0    0  0.13902251422E+01 -0.70965826859E+01  0.59471988551E+01  0.93628727561E+01  0.51100000000E-03 0.  1.
        -12    1    3    3    0    0  0.30763182852E+01  0.11253297562E+02  0.16792620794E+02  0.20447311641E+02  0.00000000000E+00 0.  1.
</event>
<event>
 7    1  0.4374874E-012  0.5052887E+02  0.7816164E-02  0.1300439E+00
        -11   -1    0    0    0    0  0.00000000000E+00  0.00000000000E+00  0.45593999997E+02  0.45594000000E+02  0.51100000000E-03 0. -1.
         11   -1    0    0    0    0 -0.00000000000E+00 -0.00000000000E+00 -0.45593999997E+02  0.45594000000E+02  0.51100000000E-03 0.  1.
    9900012    2    1    2    0    0  0.47891863541E+00 -0.39024476034E+02 -0.11402885491E+02  0.50528869534E+02  0.30000029434E+02 0.  0.
         12    1    1    2    0    0 -0.47891863541E+00  0.39024476034E+02  0.11402885491E+02  0.40659130466E+02  0.00000000000E+00 0. -1.
         11    1    3    3    0    0 -0.97644037614E+01 -0.17289504554E+02  0.20281750156E+01  0.19959560183E+02  0.51100000000E-03 0. -1.
        -11    1    3    3    0    0  0.82495099387E+01 -0.10931929446E+02 -0.64268830702E+00  0.13710380891E+02  0.51100000000E-03 0.  1.
         12    1    3    3    0    0  0.19938124581E+01 -0.10803042033E+02 -0.12788372200E+02  0.16858928460E+02  0.00000000000E+00 0. -1.
</event>
<event>
 7    1  0.4374874E-012  0.5052885E+02  0.7816164E-02  0.1300439E+00
        -11   -1    0    0    0    0  0.00000000000E+00  0.00000000000E+00  0.45593999997E+02  0.45594000000E+02  0.51100000000E-03 0. -1.
         11   -1    0    0    0    0 -0.00000000000E+00 -0.00000000000E+00 -0.45593999997E+02  0.45594000000E+02  0.51100000000E-03 0.  1.
    9900012    2    1    2    0    0  0.39740564527E+02  0.73735520469E+01 -0.44141440904E+01  0.50528850885E+02  0.29999972749E+02 0.  0.
         12    1    1    2    0    0 -0.39740564527E+02 -0.73735520469E+01  0.44141440904E+01  0.40659149115E+02  0.00000000000E+00 0. -1.
         11    1    3    3    0    0  0.25214247308E+02  0.84877091579E+01  0.66555947391E+01  0.27424376303E+02  0.51100000000E-03 0. -1.
        -11    1    3    3    0    0  0.12837560116E+02 -0.14724686858E+01 -0.10801323190E+01  0.12966796052E+02  0.51100000000E-03 0.  1.
         12    1    3    3    0    0  0.16887571038E+01  0.35831157481E+00 -0.99896065105E+01  0.10137678530E+02  0.00000000000E+00 0. -1.
</event>
<event>
 7    1  0.4374874E-012  0.5052886E+02  0.7816164E-02  0.1300439E+00
        -11   -1    0    0    0    0  0.00000000000E+00  0.00000000000E+00  0.45593999997E+02  0.45594000000E+02  0.51100000000E-03 0. -1.
         11   -1    0    0    0    0 -0.00000000000E+00 -0.00000000000E+00 -0.45593999997E+02  0.45594000000E+02  0.51100000000E-03 0.  1.
    9900012    2    1    2    0    0  0.87526203507E+01  0.27296933127E+02 -0.28834606140E+02  0.50528862867E+02  0.30000009171E+02 0.  0.
         12    1    1    2    0    0 -0.87526203507E+01 -0.27296933127E+02  0.28834606140E+02  0.40659137133E+02  0.00000000000E+00 0. -1.
         11    1    3    3    0    0 -0.26938395098E+01  0.13782682855E+02 -0.20859012308E+02  0.25145924375E+02  0.51100000000E-03 0. -1.
        -11    1    3    3    0    0  0.83599395891E+01 -0.11567752790E+01 -0.57840541154E+01  0.10231422250E+02  0.51100000000E-03 0.  1.
        -12    1    3    3    0    0  0.30865202714E+01  0.14671025551E+02 -0.21915397169E+01  0.15151516242E+02  0.00000000000E+00 0.  1.
</event>
<event>
 7    1  0.4374874E-012  0.5052890E+02  0.7816164E-02  0.1300439E+00
        -11   -1    0    0    0    0  0.00000000000E+00  0.00000000000E+00  0.45593999997E+02  0.45594000000E+02  0.51100000000E-03 0. -1.
         11   -1    0    0    0    0 -0.00000000000E+00 -0.00000000000E+00 -0.45593999997E+02  0.45594000000E+02  0.51100000000E-03 0.  1.
    9900012    2    1    2    0    0  0.12172519495E+02 -0.21637362914E+02  0.32199632236E+02  0.50528904820E+02  0.30000136689E+02 0.  0.
        -12    1    1    2    0    0 -0.12172519495E+02  0.21637362914E+02 -0.32199632236E+02  0.40659095180E+02  0.00000000000E+00 0.  1.
         11    1    3    3    0    0  0.79448243899E+01 -0.52461378696E+01 -0.18148912175E+01  0.96920600249E+01  0.51100000000E-03 0. -1.
        -11    1    3    3    0    0 -0.23872957608E+01  0.18255699571E+01  0.28765033678E+01  0.41600671394E+01  0.51100000000E-03 0.  1.
         12    1    3    3    0    0  0.66149908658E+01 -0.18216795002E+02  0.31138020086E+02  0.36676777655E+02  0.00000000000E+00 0. -1.
</event>
<event>
 7    1  0.5373329E-012  0.5052887E+02  0.7816164E-02  0.1300439E+00
        -11   -1    0    0    0    0  0.00000000000E+00  0.00000000000E+00  0.45593999997E+02  0.45594000000E+02  0.51100000000E-03 0. -1.
         11   -1    0    0    0    0 -0.00000000000E+00 -0.00000000000E+00 -0.45593999997E+02  0.45594000000E+02  0.51100000000E-03 0.  1.
    9900012    2    1    2    0    0 -0.24108268179E+02 -0.79525601416E+01 -0.31760237097E+02  0.50528874728E+02  0.30000045224E+02 0.  0.
         12    1    1    2    0    0  0.24108268179E+02  0.79525601416E+01  0.31760237097E+02  0.40659125272E+02  0.00000000000E+00 0. -1.
         11    1    3    3    0    0 -0.20564290663E+01 -0.89145525699E+01 -0.14191136084E+02  0.16884504483E+02  0.51100000000E-03 0.  1.
        -11    1    3    3    0    0 -0.20715847328E+02 -0.42536836380E+01 -0.18598456350E+02  0.28162789881E+02  0.51100000000E-03 0. -1.
         12    1    3    3    0    0 -0.13359917847E+01  0.52156760662E+01  0.10293553373E+01  0.54815803640E+01  0.00000000000E+00 0. -1.
</event>
<event>
 7    1  0.4374874E-012  0.5052891E+02  0.7816164E-02  0.1300439E+00
        -11   -1    0    0    0    0  0.00000000000E+00  0.00000000000E+00  0.45593999997E+02  0.45594000000E+02  0.51100000000E-03 0.  1.
         11   -1    0    0    0    0 -0.00000000000E+00 -0.00000000000E+00 -0.45593999997E+02  0.45594000000E+02  0.51100000000E-03 0. -1.
    9900012    2    1    2    0    0  0.40015250311E+02 -0.71051194555E+01 -0.12077906772E+01  0.50528908295E+02  0.30000147253E+02 0.  0.
         12    1    1    2    0    0 -0.40015250311E+02  0.71051194555E+01  0.12077906772E+01  0.40659091705E+02  0.00000000000E+00 0. -1.
         11    1    3    3    0    0  0.74982832876E+01 -0.68669011321E+01 -0.66926145530E+01  0.12172496590E+02  0.51100000000E-03 0. -1.
        -11    1    3    3    0    0  0.27180724619E+02 -0.78626333956E+01  0.18169209638E+01  0.28353377167E+02  0.51100000000E-03 0.  1.
         12    1    3    3    0    0  0.53362424052E+01  0.76244150722E+01  0.36679029120E+01  0.10003034538E+02  0.00000000000E+00 0. -1.
</event>
<event>
 7    1  0.4374874E-012  0.5052886E+02  0.7816164E-02  0.1300439E+00
        -11   -1    0    0    0    0  0.00000000000E+00  0.00000000000E+00  0.45593999997E+02  0.45594000000E+02  0.51100000000E-03 0. -1.
         11   -1    0    0    0    0 -0.00000000000E+00 -0.00000000000E+00 -0.45593999997E+02  0.45594000000E+02  0.51100000000E-03 0.  1.
    9900012    2    1    2    0    0 -0.18504847645E+02  0.36191913229E+02 -0.93883535648E+00  0.50528863495E+02  0.30000011080E+02 0.  0.
        -12    1    1    2    0    0  0.18504847645E+02 -0.36191913229E+02  0.93883535648E+00  0.40659136505E+02  0.00000000000E+00 0.  1.
         11    1    3    3    0    0 -0.43809623832E+01  0.24860693716E+02 -0.70814295936E+01  0.26218191562E+02  0.51100000000E-03 0. -1.
        -11    1    3    3    0    0 -0.17194529448E+01  0.10390380812E+02  0.22313062152E+00  0.10534055220E+02  0.51100000000E-03 0.  1.
        -12    1    3    3    0    0 -0.12404432317E+02  0.94083870113E+00  0.59194636156E+01  0.13776616713E+02  0.00000000000E+00 0.  1.
</event>
<event>
 7    1  0.4374874E-012  0.5052876E+02  0.7816164E-02  0.1300439E+00
        -11   -1    0    0    0    0  0.00000000000E+00  0.00000000000E+00  0.45593999997E+02  0.45594000000E+02  0.51100000000E-03 0. -1.
         11   -1    0    0    0    0 -0.00000000000E+00 -0.00000000000E+00 -0.45593999997E+02  0.45594000000E+02  0.51100000000E-03 0.  1.
    9900012    2    1    2    0    0  0.14374644248E+02  0.36189122975E+01 -0.37860893719E+02  0.50528755089E+02  0.29999681568E+02 0.  0.
         12    1    1    2    0    0 -0.14374644248E+02 -0.36189122975E+01  0.37860893719E+02  0.40659244911E+02  0.00000000000E+00 0. -1.
         11    1    3    3    0    0  0.42009945172E+01  0.69364018657E+01  0.12188859772E+01  0.82004700513E+01  0.51100000000E-03 0. -1.
        -11    1    3    3    0    0  0.72012574593E+01  0.93261898665E+00 -0.79406288037E+01  0.10760179981E+02  0.51100000000E-03 0.  1.
        -12    1    3    3    0    0  0.29723922714E+01 -0.42501085548E+01 -0.31139150893E+02  0.31568105057E+02  0.00000000000E+00 0.  1.
</event>
<event>
 7    1  0.4374874E-012  0.5052887E+02  0.7816164E-02  0.1300439E+00
        -11   -1    0    0    0    0  0.00000000000E+00  0.00000000000E+00  0.45593999997E+02  0.45594000000E+02  0.51100000000E-03 0. -1.
         11   -1    0    0    0    0 -0.00000000000E+00 -0.00000000000E+00 -0.45593999997E+02  0.45594000000E+02  0.51100000000E-03 0.  1.
    9900012    2    1    2    0    0 -0.66545200299E+01 -0.62651970667E+01 -0.39618549908E+02  0.50528870300E+02  0.30000031765E+02 0.  0.
         12    1    1    2    0    0  0.66545200299E+01  0.62651970667E+01  0.39618549908E+02  0.40659129700E+02  0.00000000000E+00 0. -1.
         11    1    3    3    0    0  0.51802517746E+01 -0.26871094083E+01 -0.57729689392E+01  0.82086988040E+01  0.51100000000E-03 0. -1.
        -11    1    3    3    0    0 -0.18502791447E+01  0.90217238147E+01 -0.10389358566E+02  0.13883580417E+02  0.51100000000E-03 0.  1.
        -12    1    3    3    0    0 -0.99844926599E+01 -0.12599811473E+02 -0.23456222403E+02  0.28436591080E+02  0.00000000000E+00 0.  1.
</event>
<event>
 7    1  0.4374874E-012  0.5052889E+02  0.7816164E-02  0.1300439E+00
        -11   -1    0    0    0    0  0.00000000000E+00  0.00000000000E+00  0.45593999997E+02  0.45594000000E+02  0.51100000000E-03 0. -1.
         11   -1    0    0    0    0 -0.00000000000E+00 -0.00000000000E+00 -0.45593999997E+02  0.45594000000E+02  0.51100000000E-03 0.  1.
    9900012    2    1    2    0    0 -0.19018127272E+02 -0.89328579549E+01 -0.34809172183E+02  0.50528885594E+02  0.30000078253E+02 0.  0.
         12    1    1    2    0    0  0.19018127272E+02  0.89328579549E+01  0.34809172183E+02  0.40659114406E+02  0.00000000000E+00 0. -1.
         11    1    3    3    0    0 -0.11014383590E+02 -0.87737372130E+01 -0.22279984581E+02  0.26357026080E+02  0.51100000000E-03 0. -1.
        -11    1    3    3    0    0 -0.48866979312E+01  0.27782271216E+01 -0.17044999453E+02  0.17947990673E+02  0.51100000000E-03 0.  1.
         12    1    3    3    0    0 -0.31170457501E+01 -0.29373478635E+01  0.45158118509E+01  0.62238688412E+01  0.00000000000E+00 0. -1.
</event>
<event>
 7    1  0.4374874E-012  0.5052885E+02  0.7816164E-02  0.1300439E+00
        -11   -1    0    0    0    0  0.00000000000E+00  0.00000000000E+00  0.45593999997E+02  0.45594000000E+02  0.51100000000E-03 0. -1.
         11   -1    0    0    0    0 -0.00000000000E+00 -0.00000000000E+00 -0.45593999997E+02  0.45594000000E+02  0.51100000000E-03 0.  1.
    9900012    2    1    2    0    0 -0.62625673471E+01  0.25193037112E+02  0.31293086625E+02  0.50528854176E+02  0.29999982752E+02 0.  0.
        -12    1    1    2    0    0  0.62625673471E+01 -0.25193037112E+02 -0.31293086625E+02  0.40659145824E+02  0.00000000000E+00 0.  1.
         11    1    3    3    0    0 -0.78214450798E+01  0.10175859768E+02 -0.94380725034E+00  0.12869106323E+02  0.51100000000E-03 0. -1.
        -11    1    3    3    0    0  0.25921429560E+01 -0.42998305563E+00  0.10273007411E+01  0.28212475266E+01  0.51100000000E-03 0.  1.
         12    1    3    3    0    0 -0.10332652232E+01  0.15447160399E+02  0.31209593134E+02  0.34838500326E+02  0.00000000000E+00 0. -1.
</event>
<event>
 7    1  0.4374874E-012  0.5052885E+02  0.7816164E-02  0.1300439E+00
        -11   -1    0    0    0    0  0.00000000000E+00  0.00000000000E+00  0.45593999997E+02  0.45594000000E+02  0.51100000000E-03 0. -1.
         11   -1    0    0    0    0 -0.00000000000E+00 -0.00000000000E+00 -0.45593999997E+02  0.45594000000E+02  0.51100000000E-03 0.  1.
    9900012    2    1    2    0    0 -0.63718455302E+01 -0.39895902061E+02 -0.45697723983E+01  0.50528852979E+02  0.29999979116E+02 0.  0.
         12    1    1    2    0    0  0.63718455302E+01  0.39895902061E+02  0.45697723983E+01  0.40659147021E+02  0.00000000000E+00 0. -1.
         11    1    3    3    0    0 -0.72665407866E+01 -0.16692691598E+02  0.64090020261E+01  0.19300877571E+02  0.51100000000E-03 0. -1.
        -11    1    3    3    0    0  0.16687281903E+01 -0.24284771432E+02 -0.46768690133E+01  0.24787252396E+02  0.51100000000E-03 0.  1.
         12    1    3    3    0    0 -0.77403293391E+00  0.10815609695E+01 -0.63019054112E+01  0.64407230126E+01  0.00000000000E+00 0. -1.
</event>
<event>
 7    1  0.4374874E-012  0.5052886E+02  0.7816164E-02  0.1300439E+00
        -11   -1    0    0    0    0  0.00000000000E+00  0.00000000000E+00  0.45593999997E+02  0.45594000000E+02  0.51100000000E-03 0. -1.
         11   -1    0    0    0    0 -0.00000000000E+00 -0.00000000000E+00 -0.45593999997E+02  0.45594000000E+02  0.51100000000E-03 0.  1.
    9900012    2    1    2    0    0  0.25468912924E+01 -0.23655925634E+02 -0.32970840080E+02  0.50528858735E+02  0.29999996611E+02 0.  0.
         12    1    1    2    0    0 -0.25468912924E+01  0.23655925634E+02  0.32970840080E+02  0.40659141265E+02  0.00000000000E+00 0. -1.
         11    1    3    3    0    0 -0.28578451550E+01  0.14103384052E+01 -0.79300497740E+01  0.85464626031E+01  0.51100000000E-03 0. -1.
        -11    1    3    3    0    0 -0.57309291281E+01 -0.21110896527E+02 -0.16590222807E+02  0.27454489503E+02  0.51100000000E-03 0.  1.
         12    1    3    3    0    0  0.11135665576E+02 -0.39553675121E+01 -0.84505674990E+01  0.14527906629E+02  0.00000000000E+00 0. -1.
</event>
<event>
 7    1  0.4374874E-012  0.5052888E+02  0.7816164E-02  0.1300439E+00
        -11   -1    0    0    0    0  0.00000000000E+00  0.00000000000E+00  0.45593999997E+02  0.45594000000E+02  0.51100000000E-03 0. -1.
         11   -1    0    0    0    0 -0.00000000000E+00 -0.00000000000E+00 -0.45593999997E+02  0.45594000000E+02  0.51100000000E-03 0.  1.
    9900012    2    1    2    0    0 -0.21566281553E+02 -0.15956640181E+02  0.30552332535E+02  0.50528881844E+02  0.30000066854E+02 0.  0.
        -12    1    1    2    0    0  0.21566281553E+02  0.15956640181E+02 -0.30552332535E+02  0.40659118156E+02  0.00000000000E+00 0.  1.
         11    1    3    3    0    0 -0.70629115798E+01  0.33807840037E+01  0.45507244162E+01  0.90566833574E+01  0.51100000000E-03 0. -1.
        -11    1    3    3    0    0  0.28314945777E+01  0.90605073656E+00  0.98948567915E+01  0.10331818846E+02  0.51100000000E-03 0.  1.
         12    1    3    3    0    0 -0.17334864551E+02 -0.20243474921E+02  0.16106751327E+02  0.31140379641E+02  0.00000000000E+00 0. -1.
</event>
<event>
 7    1  0.4374874E-012  0.5052886E+02  0.7816164E-02  0.1300439E+00
        -11   -1    0    0    0    0  0.00000000000E+00  0.00000000000E+00  0.45593999997E+02  0.45594000000E+02  0.51100000000E-03 0.  1.
         11   -1    0    0    0    0 -0.00000000000E+00 -0.00000000000E+00 -0.45593999997E+02  0.45594000000E+02  0.51100000000E-03 0. -1.
    9900012    2    1    2    0    0 -0.10746278632E+02  0.19396079048E+02  0.34080427563E+02  0.50528856751E+02  0.29999990580E+02 0.  0.
        -12    1    1    2    0    0  0.10746278632E+02 -0.19396079048E+02 -0.34080427563E+02  0.40659143249E+02  0.00000000000E+00 0.  1.
         11    1    3    3    0    0 -0.95231843789E+01  0.87282095707E+01  0.14967578362E+02  0.19771218610E+02  0.51100000000E-03 0.  1.
        -11    1    3    3    0    0  0.97207080704E+01  0.27212416128E+01  0.52022810826E+01  0.11356101885E+02  0.51100000000E-03 0. -1.
         12    1    3    3    0    0 -0.10943802324E+02  0.79466278646E+01  0.13910568118E+02  0.19401536256E+02  0.00000000000E+00 0. -1.
</event>
<event>
 7    1  0.4374874E-012  0.5052880E+02  0.7816164E-02  0.1300439E+00
        -11   -1    0    0    0    0  0.00000000000E+00  0.00000000000E+00  0.45593999997E+02  0.45594000000E+02  0.51100000000E-03 0.  1.
         11   -1    0    0    0    0 -0.00000000000E+00 -0.00000000000E+00 -0.45593999997E+02  0.45594000000E+02  0.51100000000E-03 0. -1.
    9900012    2    1    2    0    0 -0.34791476680E+02  0.66134432340E+01  0.19974634209E+02  0.50528800637E+02  0.29999820017E+02 0.  0.
        -12    1    1    2    0    0  0.34791476680E+02 -0.66134432340E+01 -0.19974634209E+02  0.40659199363E+02  0.00000000000E+00 0.  1.
         11    1    3    3    0    0 -0.13132407766E+02  0.73116408604E+01  0.21021757917E+01  0.15176935432E+02  0.51100000000E-03 0. -1.
        -11    1    3    3    0    0  0.41561939822E+01  0.17685240629E+01  0.19403220489E+01  0.49159409774E+01  0.51100000000E-03 0.  1.
        -12    1    3    3    0    0 -0.25815262897E+02 -0.24667216893E+01  0.15932136369E+02  0.30435924228E+02  0.00000000000E+00 0.  1.
</event>
<event>
 7    1  0.4374874E-012  0.5052886E+02  0.7816164E-02  0.1300439E+00
        -11   -1    0    0    0    0  0.00000000000E+00  0.00000000000E+00  0.45593999997E+02  0.45594000000E+02  0.51100000000E-03 0. -1.
         11   -1    0    0    0    0 -0.00000000000E+00 -0.00000000000E+00 -0.45593999997E+02  0.45594000000E+02  0.51100000000E-03 0.  1.
    9900012    2    1    2    0    0  0.22419273675E+02 -0.14720725797E+02 -0.30558828505E+02  0.50528860810E+02  0.30000002918E+02 0.  0.
         12    1    1    2    0    0 -0.22419273675E+02  0.14720725797E+02  0.30558828505E+02  0.40659139190E+02  0.00000000000E+00 0. -1.
         11    1    3    3    0    0  0.18889229098E+02 -0.12278452739E+02 -0.30471508362E+02  0.37895596046E+02  0.51100000000E-03 0. -1.
        -11    1    3    3    0    0  0.58426582049E+01 -0.55524513463E+01 -0.20097242627E+01  0.83069466547E+01  0.51100000000E-03 0.  1.
         12    1    3    3    0    0 -0.23126136282E+01  0.31101782891E+01  0.19224041192E+01  0.43263181091E+01  0.00000000000E+00 0. -1.
</event>
<event>
 7    1  0.4374874E-012  0.5052886E+02  0.7816164E-02  0.1300439E+00
        -11   -1    0    0    0    0  0.00000000000E+00  0.00000000000E+00  0.45593999997E+02  0.45594000000E+02  0.51100000000E-03 0. -1.
         11   -1    0    0    0    0 -0.00000000000E+00 -0.00000000000E+00 -0.45593999997E+02  0.45594000000E+02  0.51100000000E-03 0.  1.
    9900012    2    1    2    0    0 -0.61448480117E+01 -0.70963999915E-01 -0.40192058359E+02  0.50528858984E+02  0.29999997369E+02 0.  0.
         12    1    1    2    0    0  0.61448480117E+01  0.70963999915E-01  0.40192058359E+02  0.40659141016E+02  0.00000000000E+00 0. -1.
         11    1    3    3    0    0  0.17165426680E+01  0.40875005226E+01 -0.62922748034E+01  0.76972009013E+01  0.51100000000E-03 0. -1.
        -11    1    3    3    0    0 -0.45169956412E+01 -0.69264235720E+01 -0.36729993679E+02  0.37649316449E+02  0.51100000000E-03 0.  1.
         12    1    3    3    0    0 -0.33443950385E+01  0.27679590495E+01  0.28302101234E+01  0.51823416344E+01  0.00000000000E+00 0. -1.
</event>
<event>
 7    1  0.4374874E-012  0.5052886E+02  0.7816164E-02  0.1300439E+00
        -11   -1    0    0    0    0  0.00000000000E+00  0.00000000000E+00  0.45593999997E+02  0.45594000000E+02  0.51100000000E-03 0.  1.
         11   -1    0    0    0    0 -0.00000000000E+00 -0.00000000000E+00 -0.45593999997E+02  0.45594000000E+02  0.51100000000E-03 0. -1.
    9900012    2    1    2    0    0  0.26806951686E+02  0.68309817175E+01 -0.29797489794E+02  0.50528863660E+02  0.30000011581E+02 0.  0.
         12    1    1    2    0    0 -0.26806951686E+02 -0.68309817175E+01  0.29797489794E+02  0.40659136340E+02  0.00000000000E+00 0. -1.
         11    1    3    3    0    0  0.12140268269E+02  0.12425820419E+02 -0.29893456533E+02  0.34574642015E+02  0.51100000000E-03 0. -1.
        -11    1    3    3    0    0  0.37892029120E+01 -0.25696591541E+00 -0.45510786111E+00  0.38250769425E+01  0.51100000000E-03 0.  1.
        -12    1    3    3    0    0  0.10877480505E+02 -0.53378727858E+01  0.55107460005E+00  0.12129144703E+02  0.00000000000E+00 0.  1.
</event>
<event>
 7    1  0.4374874E-012  0.5052886E+02  0.7816164E-02  0.1300439E+00
        -11   -1    0    0    0    0  0.00000000000E+00  0.00000000000E+00  0.45593999997E+02  0.45594000000E+02  0.51100000000E-03 0. -1.
         11   -1    0    0    0    0 -0.00000000000E+00 -0.00000000000E+00 -0.45593999997E+02  0.45594000000E+02  0.51100000000E-03 0.  1.
    9900012    2    1    2    0    0  0.31834650545E+02 -0.37753201246E+01  0.25009345201E+02  0.50528863699E+02  0.30000011698E+02 0.  0.
        -12    1    1    2    0    0 -0.31834650545E+02  0.37753201246E+01 -0.25009345201E+02  0.40659136301E+02  0.00000000000E+00 0.  1.
         11    1    3    3    0    0  0.28692405691E+02 -0.73971241745E+01  0.20044102773E+02  0.35773420952E+02  0.51100000000E-03 0. -1.
        -11    1    3    3    0    0  0.55068883103E+01 -0.24250792060E+01 -0.80287853789E+00  0.60705388743E+01  0.51100000000E-03 0.  1.
        -12    1    3    3    0    0 -0.23646434561E+01  0.60468832559E+01  0.57681209665E+01  0.86849038722E+01  0.00000000000E+00 0.  1.
</event>
<event>
 7    1  0.4374874E-012  0.5052898E+02  0.7816164E-02  0.1300438E+00
        -11   -1    0    0    0    0  0.00000000000E+00  0.00000000000E+00  0.45593999997E+02  0.45594000000E+02  0.51100000000E-03 0.  1.
         11   -1    0    0    0    0 -0.00000000000E+00 -0.00000000000E+00 -0.45593999997E+02  0.45594000000E+02  0.51100000000E-03 0. -1.
    9900012    2    1    2    0    0 -0.36690923861E+02 -0.16758045638E+02  0.51088128288E+01  0.50528979403E+02  0.30000363392E+02 0.  0.
        -12    1    1    2    0    0  0.36690923861E+02  0.16758045638E+02 -0.51088128288E+01  0.40659020597E+02  0.00000000000E+00 0.  1.
         11    1    3    3    0    0 -0.25597458607E+02 -0.19460526438E+02  0.75166153921E+00  0.32163752451E+02  0.51100000000E-03 0. -1.
        -11    1    3    3    0    0 -0.90472090470E+00 -0.49018301492E+01  0.22867552157E+01  0.54841324204E+01  0.51100000000E-03 0.  1.
         12    1    3    3    0    0 -0.10188744349E+02  0.76043109497E+01  0.20703960739E+01  0.12881094531E+02  0.00000000000E+00 0. -1.
</event>
<event>
 7    1  0.4374874E-012  0.5052886E+02  0.7816164E-02  0.1300439E+00
        -11   -1    0    0    0    0  0.00000000000E+00  0.00000000000E+00  0.45593999997E+02  0.45594000000E+02  0.51100000000E-03 0.  1.
         11   -1    0    0    0    0 -0.00000000000E+00 -0.00000000000E+00 -0.45593999997E+02  0.45594000000E+02  0.51100000000E-03 0. -1.
    9900012    2    1    2    0    0 -0.25878875429E+02  0.30667871004E+02  0.65521699674E+01  0.50528862815E+02  0.30000009012E+02 0.  0.
         12    1    1    2    0    0  0.25878875429E+02 -0.30667871004E+02 -0.65521699674E+01  0.40659137185E+02  0.00000000000E+00 0. -1.
         11    1    3    3    0    0 -0.22805033089E+02  0.16147859112E+02  0.75548834996E+01  0.28946487750E+02  0.51100000000E-03 0. -1.
        -11    1    3    3    0    0 -0.75005939841E+01  0.14121314474E+02  0.21492904951E+01  0.16133501866E+02  0.51100000000E-03 0.  1.
         12    1    3    3    0    0  0.44267516440E+01  0.39869741793E+00 -0.31520040273E+01  0.54488731988E+01  0.00000000000E+00 0. -1.
</event>
<event>
 7    1  0.4374874E-012  0.5052884E+02  0.7816164E-02  0.1300439E+00
        -11   -1    0    0    0    0  0.00000000000E+00  0.00000000000E+00  0.45593999997E+02  0.45594000000E+02  0.51100000000E-03 0. -1.
         11   -1    0    0    0    0 -0.00000000000E+00 -0.00000000000E+00 -0.45593999997E+02  0.45594000000E+02  0.51100000000E-03 0.  1.
    9900012    2    1    2    0    0  0.63901770875E+00  0.28511907863E+02  0.28979824836E+02  0.50528837673E+02  0.29999932592E+02 0.  0.
        -12    1    1    2    0    0 -0.63901770875E+00 -0.28511907863E+02 -0.28979824836E+02  0.40659162327E+02  0.00000000000E+00 0.  1.
         11    1    3    3    0    0  0.47013047608E+00 -0.50935207542E+01  0.88818449399E+01  0.10249494921E+02  0.51100000000E-03 0.  1.
        -11    1    3    3    0    0  0.30311159099E+01  0.19289480171E+02  0.72402494494E+01  0.20825295227E+02  0.51100000000E-03 0. -1.
        -12    1    3    3    0    0 -0.28622286773E+01  0.14315948446E+02  0.12857730446E+02  0.19454047526E+02  0.00000000000E+00 0.  1.
</event>
<event>
 7    1  0.4374874E-012  0.5052887E+02  0.7816164E-02  0.1300439E+00
        -11   -1    0    0    0    0  0.00000000000E+00  0.00000000000E+00  0.45593999997E+02  0.45594000000E+02  0.51100000000E-03 0. -1.
         11   -1    0    0    0    0 -0.00000000000E+00 -0.00000000000E+00 -0.45593999997E+02  0.45594000000E+02  0.51100000000E-03 0.  1.
    9900012    2    1    2    0    0  0.10550237078E+02 -0.11931528912E+02 -0.37409839496E+02  0.50528868484E+02  0.30000026243E+02 0.  0.
         12    1    1    2    0    0 -0.10550237078E+02  0.11931528912E+02  0.37409839496E+02  0.40659131516E+02  0.00000000000E+00 0. -1.
         11    1    3    3    0    0 -0.25222292739E+01  0.31362373744E+01  0.24091676744E+01  0.46905985250E+01  0.51100000000E-03 0. -1.
        -11    1    3    3    0    0  0.12158278948E+01 -0.94707459828E+01 -0.15337851429E+02  0.18067178907E+02  0.51100000000E-03 0.  1.
        -12    1    3    3    0    0  0.11856638457E+02 -0.55970203035E+01 -0.24481155741E+02  0.27771091051E+02  0.00000000000E+00 0.  1.
</event>
<event>
 7    1  0.4374874E-012  0.5052885E+02  0.7816164E-02  0.1300439E+00
        -11   -1    0    0    0    0  0.00000000000E+00  0.00000000000E+00  0.45593999997E+02  0.45594000000E+02  0.51100000000E-03 0. -1.
         11   -1    0    0    0    0 -0.00000000000E+00 -0.00000000000E+00 -0.45593999997E+02  0.45594000000E+02  0.51100000000E-03 0.  1.
    9900012    2    1    2    0    0  0.18782980583E+02 -0.11424683643E+02 -0.34202960150E+02  0.50528852949E+02  0.29999979024E+02 0.  0.
         12    1    1    2    0    0 -0.18782980583E+02  0.11424683643E+02  0.34202960150E+02  0.40659147051E+02  0.00000000000E+00 0. -1.
         11    1    3    3    0    0  0.32955178986E+01  0.28783888163E+01 -0.13829591858E+02  0.14505280819E+02  0.51100000000E-03 0. -1.
        -11    1    3    3    0    0  0.49197177121E+01 -0.11361609931E+02 -0.21690461892E+02  0.24975306604E+02  0.51100000000E-03 0.  1.
         12    1    3    3    0    0  0.10567744972E+02 -0.29414625282E+01  0.13170936011E+01  0.11048265527E+02  0.00000000000E+00 0. -1.
</event>
<event>
 7    1  0.4374874E-012  0.5052886E+02  0.7816164E-02  0.1300439E+00
        -11   -1    0    0    0    0  0.00000000000E+00  0.00000000000E+00  0.45593999997E+02  0.45594000000E+02  0.51100000000E-03 0. -1.
         11   -1    0    0    0    0 -0.00000000000E+00 -0.00000000000E+00 -0.45593999997E+02  0.45594000000E+02  0.51100000000E-03 0.  1.
    9900012    2    1    2    0    0 -0.99183763347E+01 -0.42674622252E+01  0.39199242454E+02  0.50528855494E+02  0.29999986760E+02 0.  0.
        -12    1    1    2    0    0  0.99183763347E+01  0.42674622252E+01 -0.39199242454E+02  0.40659144506E+02  0.00000000000E+00 0.  1.
         11    1    3    3    0    0  0.10254464410E+01  0.74532494204E+01  0.20501061146E+02  0.21837948066E+02  0.51100000000E-03 0. -1.
        -11    1    3    3    0    0  0.13351069628E+01  0.96312735899E+00 -0.12395683100E+01  0.20607413152E+01  0.51100000000E-03 0.  1.
         12    1    3    3    0    0 -0.12278929738E+02 -0.12683839005E+02  0.19937749618E+02  0.26630166114E+02  0.00000000000E+00 0. -1.
</event>
<event>
 7    1  0.4374874E-012  0.5052883E+02  0.7816164E-02  0.1300439E+00
        -11   -1    0    0    0    0  0.00000000000E+00  0.00000000000E+00  0.45593999997E+02  0.45594000000E+02  0.51100000000E-03 0. -1.
         11   -1    0    0    0    0 -0.00000000000E+00 -0.00000000000E+00 -0.45593999997E+02  0.45594000000E+02  0.51100000000E-03 0.  1.
    9900012    2    1    2    0    0  0.35896788614E+01  0.20929586334E+02  0.34673256082E+02  0.50528830484E+02  0.29999910738E+02 0.  0.
        -12    1    1    2    0    0 -0.35896788614E+01 -0.20929586334E+02 -0.34673256082E+02  0.40659169516E+02  0.00000000000E+00 0.  1.
         11    1    3    3    0    0 -0.26495390279E+01  0.17022019353E+02  0.48034135035E+01  0.17884126522E+02  0.51100000000E-03 0.  1.
        -11    1    3    3    0    0 -0.61781002188E+00  0.52874413774E+01  0.18894134724E+02  0.19629749177E+02  0.51100000000E-03 0. -1.
        -12    1    3    3    0    0  0.68570279112E+01 -0.13798743962E+01  0.10975707854E+02  0.13014954784E+02  0.00000000000E+00 0.  1.
</event>
<event>
 7    1  0.4374874E-012  0.5052885E+02  0.7816164E-02  0.1300439E+00
        -11   -1    0    0    0    0  0.00000000000E+00  0.00000000000E+00  0.45593999997E+02  0.45594000000E+02  0.51100000000E-03 0. -1.
         11   -1    0    0    0    0 -0.00000000000E+00 -0.00000000000E+00 -0.45593999997E+02  0.45594000000E+02  0.51100000000E-03 0.  1.
    9900012    2    1    2    0    0 -0.12704639852E+02 -0.23350490569E+02 -0.30765452644E+02  0.50528851460E+02  0.29999974499E+02 0.  0.
         12    1    1    2    0    0  0.12704639852E+02  0.23350490569E+02  0.30765452644E+02  0.40659148540E+02  0.00000000000E+00 0. -1.
         11    1    3    3    0    0 -0.10290614606E+02 -0.67975569739E+01 -0.29514233081E+00  0.12336557017E+02  0.51100000000E-03 0. -1.
        -11    1    3    3    0    0 -0.88644315239E+01 -0.81098823647E+01 -0.12660280750E+02  0.17453682910E+02  0.51100000000E-03 0.  1.
        -12    1    3    3    0    0  0.64504062784E+01 -0.84430512301E+01 -0.17810029564E+02  0.20738611533E+02  0.00000000000E+00 0.  1.
</event>
<event>
 7    1  0.4374874E-012  0.5052885E+02  0.7816164E-02  0.1300439E+00
        -11   -1    0    0    0    0  0.00000000000E+00  0.00000000000E+00  0.45593999997E+02  0.45594000000E+02  0.51100000000E-03 0. -1.
         11   -1    0    0    0    0 -0.00000000000E+00 -0.00000000000E+00 -0.45593999997E+02  0.45594000000E+02  0.51100000000E-03 0.  1.
    9900012    2    1    2    0    0  0.26919668574E+02  0.16601370968E+02  0.25551767189E+02  0.50528845057E+02  0.29999955036E+02 0.  0.
        -12    1    1    2    0    0 -0.26919668574E+02 -0.16601370968E+02 -0.25551767189E+02  0.40659154943E+02  0.00000000000E+00 0.  1.
         11    1    3    3    0    0  0.20981019753E+02  0.16960037587E+02  0.42989533252E+01  0.27318987258E+02  0.51100000000E-03 0. -1.
        -11    1    3    3    0    0  0.52922552373E+01  0.21548133270E+01  0.88211060466E+01  0.10510142631E+02  0.51100000000E-03 0.  1.
        -12    1    3    3    0    0  0.64639358330E+00 -0.25134799462E+01  0.12431707817E+02  0.12699715169E+02  0.00000000000E+00 0.  1.
</event>
<event>
 7    1  0.4374874E-012  0.5052886E+02  0.7816164E-02  0.1300439E+00
        -11   -1    0    0    0    0  0.00000000000E+00  0.00000000000E+00  0.45593999997E+02  0.45594000000E+02  0.51100000000E-03 0. -1.
         11   -1    0    0    0    0 -0.00000000000E+00 -0.00000000000E+00 -0.45593999997E+02  0.45594000000E+02  0.51100000000E-03 0.  1.
    9900012    2    1    2    0    0 -0.25535454260E+02 -0.27598249028E+02 -0.15473951535E+02  0.50528856505E+02  0.29999989832E+02 0.  0.
         12    1    1    2    0    0  0.25535454260E+02  0.27598249028E+02  0.15473951535E+02  0.40659143495E+02  0.00000000000E+00 0. -1.
         11    1    3    3    0    0 -0.82696253913E+01  0.17672856046E+00  0.29013186281E+01  0.87655910890E+01  0.51100000000E-03 0. -1.
        -11    1    3    3    0    0 -0.78769643548E+01 -0.21017828884E+01  0.10616546423E+01  0.82213848954E+01  0.51100000000E-03 0.  1.
        -12    1    3    3    0    0 -0.93888645140E+01 -0.25673194700E+02 -0.19436924805E+02  0.33541880520E+02  0.00000000000E+00 0.  1.
</event>
<event>
 7    1  0.4374874E-012  0.5052887E+02  0.7816164E-02  0.1300439E+00
        -11   -1    0    0    0    0  0.00000000000E+00  0.00000000000E+00  0.45593999997E+02  0.45594000000E+02  0.51100000000E-03 0. -1.
         11   -1    0    0    0    0 -0.00000000000E+00 -0.00000000000E+00 -0.45593999997E+02  0.45594000000E+02  0.51100000000E-03 0.  1.
    9900012    2    1    2    0    0 -0.18240621302E+02  0.62914693267E+01  0.35789136929E+02  0.50528866046E+02  0.30000018833E+02 0.  0.
        -12    1    1    2    0    0  0.18240621302E+02 -0.62914693267E+01 -0.35789136929E+02  0.40659133954E+02  0.00000000000E+00 0.  1.
         11    1    3    3    0    0 -0.14522284682E+02  0.45995232421E+01  0.20534368359E+02  0.25567804962E+02  0.51100000000E-03 0. -1.
        -11    1    3    3    0    0  0.14970113851E+01  0.37850429301E+01  0.18176890920E+02  0.18627049065E+02  0.51100000000E-03 0.  1.
        -12    1    3    3    0    0 -0.52153480057E+01 -0.20930968455E+01 -0.29221223503E+01  0.63340120189E+01  0.00000000000E+00 0.  1.
</event>
<event>
 7    1  0.4374874E-012  0.5052885E+02  0.7816164E-02  0.1300439E+00
        -11   -1    0    0    0    0  0.00000000000E+00  0.00000000000E+00  0.45593999997E+02  0.45594000000E+02  0.51100000000E-03 0. -1.
         11   -1    0    0    0    0 -0.00000000000E+00 -0.00000000000E+00 -0.45593999997E+02  0.45594000000E+02  0.51100000000E-03 0.  1.
    9900012    2    1    2    0    0  0.18311042260E+01  0.23416591977E+01 -0.40550343379E+02  0.50528847787E+02  0.29999963334E+02 0.  0.
         12    1    1    2    0    0 -0.18311042260E+01 -0.23416591977E+01  0.40550343379E+02  0.40659152213E+02  0.00000000000E+00 0. -1.
         11    1    3    3    0    0 -0.48609582285E+01  0.36060375319E+01 -0.35157213808E+00  0.60626747240E+01  0.51100000000E-03 0. -1.
        -11    1    3    3    0    0  0.25087564438E+00 -0.89415659492E+01 -0.17499357546E+02  0.19653041877E+02  0.51100000000E-03 0.  1.
        -12    1    3    3    0    0  0.64411868101E+01  0.76771876150E+01 -0.22699413695E+02  0.24813131187E+02  0.00000000000E+00 0.  1.
</event>
<event>
 7    1  0.4374874E-012  0.5052888E+02  0.7816164E-02  0.1300439E+00
        -11   -1    0    0    0    0  0.00000000000E+00  0.00000000000E+00  0.45593999997E+02  0.45594000000E+02  0.51100000000E-03 0. -1.
         11   -1    0    0    0    0 -0.00000000000E+00 -0.00000000000E+00 -0.45593999997E+02  0.45594000000E+02  0.51100000000E-03 0.  1.
    9900012    2    1    2    0    0 -0.14022174521E+02 -0.29074070792E+02  0.24723288054E+02  0.50528881184E+02  0.30000064846E+02 0.  0.
        -12    1    1    2    0    0  0.14022174521E+02  0.29074070792E+02 -0.24723288054E+02  0.40659118816E+02  0.00000000000E+00 0.  1.
         11    1    3    3    0    0 -0.56361538758E+01 -0.53452054507E+01  0.11300526346E+02  0.13712743991E+02  0.51100000000E-03 0. -1.
        -11    1    3    3    0    0 -0.51488120448E+01 -0.92510398706E+00 -0.50650786850E+01  0.72815592565E+01  0.51100000000E-03 0.  1.
         12    1    3    3    0    0 -0.32372085999E+01 -0.22803761354E+02  0.18487840394E+02  0.29534577936E+02  0.00000000000E+00 0. -1.
</event>
<event>
 7    1  0.4374874E-012  0.5052884E+02  0.7816164E-02  0.1300439E+00
        -11   -1    0    0    0    0  0.00000000000E+00  0.00000000000E+00  0.45593999997E+02  0.45594000000E+02  0.51100000000E-03 0. -1.
         11   -1    0    0    0    0 -0.00000000000E+00 -0.00000000000E+00 -0.45593999997E+02  0.45594000000E+02  0.51100000000E-03 0.  1.
    9900012    2    1    2    0    0 -0.14272181110E+02 -0.16329332104E+02 -0.34392221001E+02  0.50528842286E+02  0.29999946612E+02 0.  0.
         12    1    1    2    0    0  0.14272181110E+02  0.16329332104E+02  0.34392221001E+02  0.40659157714E+02  0.00000000000E+00 0. -1.
         11    1    3    3    0    0 -0.57106623751E+01 -0.16193085806E+01  0.20811964191E+01  0.62900877448E+01  0.51100000000E-03 0. -1.
        -11    1    3    3    0    0  0.18064720704E+00  0.16592643529E+01  0.13246758704E+01  0.21308585192E+01  0.51100000000E-03 0.  1.
        -12    1    3    3    0    0 -0.87421659420E+01 -0.16369287877E+02 -0.37798093291E+02  0.42107896022E+02  0.00000000000E+00 0.  1.
</event>
<event>
 7    1  0.4374874E-012  0.5052885E+02  0.7816164E-02  0.1300439E+00
        -11   -1    0    0    0    0  0.00000000000E+00  0.00000000000E+00  0.45593999997E+02  0.45594000000E+02  0.51100000000E-03 0.  1.
         11   -1    0    0    0    0 -0.00000000000E+00 -0.00000000000E+00 -0.45593999997E+02  0.45594000000E+02  0.51100000000E-03 0. -1.
    9900012    2    1    2    0    0  0.18531640129E+02 -0.34664689287E+02 -0.10397313918E+02  0.50528849666E+02  0.29999969043E+02 0.  0.
         12    1    1    2    0    0 -0.18531640129E+02  0.34664689287E+02  0.10397313918E+02  0.40659150334E+02  0.00000000000E+00 0. -1.
         11    1    3    3    0    0  0.11632840738E+02 -0.49081704743E+01  0.48565681198E+01  0.13527726165E+02  0.51100000000E-03 0. -1.
        -11    1    3    3    0    0 -0.21155432159E+01 -0.54935628326E+01 -0.83433945610E+01  0.10211120837E+02  0.51100000000E-03 0.  1.
        -12    1    3    3    0    0  0.90143426069E+01 -0.24262955980E+02 -0.69104874767E+01  0.26790002663E+02  0.00000000000E+00 0.  1.
</event>
<event>
 7    1  0.4374874E-012  0.5052886E+02  0.7816164E-02  0.1300439E+00
        -11   -1    0    0    0    0  0.00000000000E+00  0.00000000000E+00  0.45593999997E+02  0.45594000000E+02  0.51100000000E-03 0. -1.
         11   -1    0    0    0    0 -0.00000000000E+00 -0.00000000000E+00 -0.45593999997E+02  0.45594000000E+02  0.51100000000E-03 0.  1.
    9900012    2    1    2    0    0  0.52992082569E+01 -0.19518707145E+02  0.35271861364E+02  0.50528859074E+02  0.29999997642E+02 0.  0.
        -12    1    1    2    0    0 -0.52992082569E+01  0.19518707145E+02 -0.35271861364E+02  0.40659140926E+02  0.00000000000E+00 0.  1.
         11    1    3    3    0    0  0.10751291767E+02 -0.58505007016E+01  0.24239841930E+02  0.27154899561E+02  0.51100000000E-03 0. -1.
        -11    1    3    3    0    0 -0.53695348585E+01  0.56538048311E+00  0.64700782065E+01  0.84269491482E+01  0.51100000000E-03 0.  1.
        -12    1    3    3    0    0 -0.82548651601E-01 -0.14233586927E+02  0.45619412269E+01  0.14947010365E+02  0.00000000000E+00 0.  1.
</event>
<event>
 7    1  0.4374874E-012  0.5052886E+02  0.7816164E-02  0.1300439E+00
        -11   -1    0    0    0    0  0.00000000000E+00  0.00000000000E+00  0.45593999997E+02  0.45594000000E+02  0.51100000000E-03 0. -1.
         11   -1    0    0    0    0 -0.00000000000E+00 -0.00000000000E+00 -0.45593999997E+02  0.45594000000E+02  0.51100000000E-03 0.  1.
    9900012    2    1    2    0    0  0.31852342497E+02  0.18259650646E+02 -0.17469376477E+02  0.50528859838E+02  0.29999999963E+02 0.  0.
         12    1    1    2    0    0 -0.31852342497E+02 -0.18259650646E+02  0.17469376477E+02  0.40659140162E+02  0.00000000000E+00 0. -1.
         11    1    3    3    0    0  0.41756910261E+01  0.26138206949E+01  0.27801660944E+00  0.49341410262E+01  0.51100000000E-03 0. -1.
        -11    1    3    3    0    0  0.25622365293E+02  0.18110924730E+02 -0.41813120645E+01  0.31654297790E+02  0.51100000000E-03 0.  1.
         12    1    3    3    0    0  0.20542861780E+01 -0.24650947782E+01 -0.13566081022E+02  0.13940421021E+02  0.00000000000E+00 0. -1.
</event>
<event>
 7    1  0.4374874E-012  0.5052884E+02  0.7816164E-02  0.1300439E+00
        -11   -1    0    0    0    0  0.00000000000E+00  0.00000000000E+00  0.45593999997E+02  0.45594000000E+02  0.51100000000E-03 0. -1.
         11   -1    0    0    0    0 -0.00000000000E+00 -0.00000000000E+00 -0.45593999997E+02  0.45594000000E+02  0.51100000000E-03 0.  1.
    9900012    2    1    2    0    0 -0.29247087737E+02 -0.13715072063E+02 -0.24691534244E+02  0.50528841055E+02  0.29999942871E+02 0.  0.
         12    1    1    2    0    0  0.29247087737E+02  0.13715072063E+02  0.24691534244E+02  0.40659158945E+02  0.00000000000E+00 0. -1.
         11    1    3    3    0    0 -0.42667725969E+01  0.63762339704E+01 -0.17370286771E+01  0.78663191471E+01  0.51100000000E-03 0. -1.
        -11    1    3    3    0    0 -0.21011127090E+01 -0.95356945900E+01 -0.21775784290E+01  0.10004298776E+02  0.51100000000E-03 0.  1.
        -12    1    3    3    0    0 -0.22879202431E+02 -0.10555611443E+02 -0.20776927138E+02  0.32658223132E+02  0.00000000000E+00 0.  1.
</event>
<event>
 7    1  0.4374874E-012  0.5052886E+02  0.7816164E-02  0.1300439E+00
        -11   -1    0    0    0    0  0.00000000000E+00  0.00000000000E+00  0.45593999997E+02  0.45594000000E+02  0.51100000000E-03 0. -1.
         11   -1    0    0    0    0 -0.00000000000E+00 -0.00000000000E+00 -0.45593999997E+02  0.45594000000E+02  0.51100000000E-03 0.  1.
    9900012    2    1    2    0    0  0.83930116658E+01  0.30779995074E+02 -0.25205448552E+02  0.50528863533E+02  0.30000011194E+02 0.  0.
         12    1    1    2    0    0 -0.83930116658E+01 -0.30779995074E+02  0.25205448552E+02  0.40659136467E+02  0.00000000000E+00 0. -1.
         11    1    3    3    0    0  0.31693128719E+01  0.13328172244E+02 -0.24428887691E+02  0.28008128704E+02  0.51100000000E-03 0. -1.
        -11    1    3    3    0    0 -0.38266779191E+01  0.75642771557E+01 -0.28789313613E+01  0.89526531726E+01  0.51100000000E-03 0.  1.
         12    1    3    3    0    0  0.90503767129E+01  0.98875456742E+01  0.21023704996E+01  0.13568081656E+02  0.00000000000E+00 0. -1.
</event>
<event>
 7    1  0.4846520E-012  0.5052890E+02  0.7816164E-02  0.1300439E+00
        -11   -1    0    0    0    0  0.00000000000E+00  0.00000000000E+00  0.45593999997E+02  0.45594000000E+02  0.51100000000E-03 0. -1.
         11   -1    0    0    0    0 -0.00000000000E+00 -0.00000000000E+00 -0.45593999997E+02  0.45594000000E+02  0.51100000000E-03 0.  1.
    9900012    2    1    2    0    0  0.33354908328E+02  0.59576293047E+00 -0.23243448617E+02  0.50528895895E+02  0.30000109562E+02 0.  0.
         12    1    1    2    0    0 -0.33354908328E+02 -0.59576293047E+00  0.23243448617E+02  0.40659104105E+02  0.00000000000E+00 0. -1.
         11    1    3    3    0    0  0.29273789076E+01 -0.61479663284E+01  0.11321280166E+01  0.69028074977E+01  0.51100000000E-03 0. -1.
        -11    1    3    3    0    0  0.28884981719E+02 -0.13760672419E+00 -0.17477857139E+02  0.33761466126E+02  0.51100000000E-03 0.  1.
         12    1    3    3    0    0  0.15425477006E+01  0.68813359831E+01 -0.68977194953E+01  0.98646222714E+01  0.00000000000E+00 0. -1.
</event>
<event>
 7    1  0.4374874E-012  0.5052885E+02  0.7816164E-02  0.1300439E+00
        -11   -1    0    0    0    0  0.00000000000E+00  0.00000000000E+00  0.45593999997E+02  0.45594000000E+02  0.51100000000E-03 0. -1.
         11   -1    0    0    0    0 -0.00000000000E+00 -0.00000000000E+00 -0.45593999997E+02  0.45594000000E+02  0.51100000000E-03 0.  1.
    9900012    2    1    2    0    0  0.46309876561E+01 -0.14353379769E+02  0.37758457998E+02  0.50528847182E+02  0.29999961496E+02 0.  0.
        -12    1    1    2    0    0 -0.46309876561E+01  0.14353379769E+02 -0.37758457998E+02  0.40659152818E+02  0.00000000000E+00 0.  1.
         11    1    3    3    0    0  0.57839741663E+01 -0.87846939729E+01  0.20750648405E+02  0.23264019748E+02  0.51100000000E-03 0. -1.
        -11    1    3    3    0    0 -0.58046204182E+01 -0.11345020524E+02  0.62384229839E+01  0.14188764233E+02  0.51100000000E-03 0.  1.
        -12    1    3    3    0    0  0.46516339080E+01  0.57763347275E+01  0.10769386609E+02  0.13076063200E+02  0.00000000000E+00 0.  1.
</event>
<event>
 7    1  0.4374874E-012  0.5052886E+02  0.7816164E-02  0.1300439E+00
        -11   -1    0    0    0    0  0.00000000000E+00  0.00000000000E+00  0.45593999997E+02  0.45594000000E+02  0.51100000000E-03 0. -1.
         11   -1    0    0    0    0 -0.00000000000E+00 -0.00000000000E+00 -0.45593999997E+02  0.45594000000E+02  0.51100000000E-03 0.  1.
    9900012    2    1    2    0    0  0.29477445382E+02 -0.16374545031E+02  0.22718279169E+02  0.50528859335E+02  0.29999998435E+02 0.  0.
        -12    1    1    2    0    0 -0.29477445382E+02  0.16374545031E+02 -0.22718279169E+02  0.40659140665E+02  0.00000000000E+00 0.  1.
         11    1    3    3    0    0  0.23291239331E+02 -0.12102612130E+02  0.19563401832E+02  0.32736550543E+02  0.51100000000E-03 0. -1.
        -11    1    3    3    0    0  0.10128016535E+02  0.79991370753E+00 -0.89466276961E+00  0.10198872615E+02  0.51100000000E-03 0.  1.
         12    1    3    3    0    0 -0.39418104840E+01 -0.50718466085E+01  0.40495401060E+01  0.75934361775E+01  0.00000000000E+00 0. -1.
</event>
<event>
 7    1  0.4374874E-012  0.5052886E+02  0.7816164E-02  0.1300439E+00
        -11   -1    0    0    0    0  0.00000000000E+00  0.00000000000E+00  0.45593999997E+02  0.45594000000E+02  0.51100000000E-03 0. -1.
         11   -1    0    0    0    0 -0.00000000000E+00 -0.00000000000E+00 -0.45593999997E+02  0.45594000000E+02  0.51100000000E-03 0.  1.
    9900012    2    1    2    0    0  0.23951888117E+02 -0.36680790182E+01 -0.32649928215E+02  0.50528861292E+02  0.30000004383E+02 0.  0.
         12    1    1    2    0    0 -0.23951888117E+02  0.36680790182E+01  0.32649928215E+02  0.40659138708E+02  0.00000000000E+00 0. -1.
         11    1    3    3    0    0  0.10927396105E+02  0.18460745253E+01 -0.25933493884E+00  0.11085270933E+02  0.51100000000E-03 0. -1.
        -11    1    3    3    0    0  0.17321892478E+02 -0.31846201769E+01 -0.24902194668E+02  0.30500968251E+02  0.51100000000E-03 0.  1.
         12    1    3    3    0    0 -0.42974004655E+01 -0.23295333666E+01 -0.74883986079E+01  0.89426221086E+01  0.00000000000E+00 0. -1.
</event>
<event>
 7    1  0.4374874E-012  0.5052886E+02  0.7816164E-02  0.1300439E+00
        -11   -1    0    0    0    0  0.00000000000E+00  0.00000000000E+00  0.45593999997E+02  0.45594000000E+02  0.51100000000E-03 0. -1.
         11   -1    0    0    0    0 -0.00000000000E+00 -0.00000000000E+00 -0.45593999997E+02  0.45594000000E+02  0.51100000000E-03 0.  1.
    9900012    2    1    2    0    0  0.13897762294E+02 -0.23958179675E+02  0.29766141762E+02  0.50528863690E+02  0.30000011671E+02 0.  0.
        -12    1    1    2    0    0 -0.13897762294E+02  0.23958179675E+02 -0.29766141762E+02  0.40659136310E+02  0.00000000000E+00 0.  1.
         11    1    3    3    0    0  0.47874838401E+01 -0.17949277850E+02  0.50829045627E+01  0.19259607886E+02  0.51100000000E-03 0. -1.
        -11    1    3    3    0    0  0.42276834830E+01  0.77131595081E+00 -0.87005067209E+00  0.43846578386E+01  0.51100000000E-03 0.  1.
         12    1    3    3    0    0  0.48825949709E+01 -0.67802177757E+01  0.25553287871E+02  0.26884597966E+02  0.00000000000E+00 0. -1.
</event>
<event>
 7    1  0.4374874E-012  0.5052885E+02  0.7816164E-02  0.1300439E+00
        -11   -1    0    0    0    0  0.00000000000E+00  0.00000000000E+00  0.45593999997E+02  0.45594000000E+02  0.51100000000E-03 0. -1.
         11   -1    0    0    0    0 -0.00000000000E+00 -0.00000000000E+00 -0.45593999997E+02  0.45594000000E+02  0.51100000000E-03 0.  1.
    9900012    2    1    2    0    0 -0.11769814014E+02 -0.40347997157E+01  0.38708628814E+02  0.50528854961E+02  0.29999985138E+02 0.  0.
        -12    1    1    2    0    0  0.11769814014E+02  0.40347997157E+01 -0.38708628814E+02  0.40659145039E+02  0.00000000000E+00 0.  1.
         11    1    3    3    0    0 -0.10645567499E+02  0.42437056009E+00  0.15608705227E+02  0.18898144799E+02  0.51100000000E-03 0. -1.
        -11    1    3    3    0    0 -0.71791473910E+01 -0.13717275164E+01 -0.24841977731E+00  0.73132418453E+01  0.51100000000E-03 0.  1.
         12    1    3    3    0    0  0.60549008760E+01 -0.30874427594E+01  0.23348343365E+02  0.24317468316E+02  0.00000000000E+00 0. -1.
</event>
<event>
 7    1  0.4374874E-012  0.5052883E+02  0.7816164E-02  0.1300439E+00
        -11   -1    0    0    0    0  0.00000000000E+00  0.00000000000E+00  0.45593999997E+02  0.45594000000E+02  0.51100000000E-03 0. -1.
         11   -1    0    0    0    0 -0.00000000000E+00 -0.00000000000E+00 -0.45593999997E+02  0.45594000000E+02  0.51100000000E-03 0.  1.
    9900012    2    1    2    0    0 -0.29535201636E+02  0.11677363179E+02  0.25386595268E+02  0.50528829254E+02  0.29999906999E+02 0.  0.
        -12    1    1    2    0    0  0.29535201636E+02 -0.11677363179E+02 -0.25386595268E+02  0.40659170746E+02  0.00000000000E+00 0.  1.
         11    1    3    3    0    0 -0.19103155017E+02  0.91298709459E+01  0.43850159660E+01  0.21622059115E+02  0.51100000000E-03 0. -1.
        -11    1    3    3    0    0 -0.74543098103E+01  0.64713324861E+01  0.31103423534E+01  0.10349836168E+02  0.51100000000E-03 0.  1.
        -12    1    3    3    0    0 -0.29777368091E+01 -0.39238402535E+01  0.17891236948E+02  0.18556933970E+02  0.00000000000E+00 0.  1.
</event>
<event>
 7    1  0.4374874E-012  0.5052886E+02  0.7816164E-02  0.1300439E+00
        -11   -1    0    0    0    0  0.00000000000E+00  0.00000000000E+00  0.45593999997E+02  0.45594000000E+02  0.51100000000E-03 0. -1.
         11   -1    0    0    0    0 -0.00000000000E+00 -0.00000000000E+00 -0.45593999997E+02  0.45594000000E+02  0.51100000000E-03 0.  1.
    9900012    2    1    2    0    0 -0.71413529237E+01 -0.33583292736E+02 -0.21779094610E+02  0.50528862840E+02  0.30000009087E+02 0.  0.
         12    1    1    2    0    0  0.71413529237E+01  0.33583292736E+02  0.21779094610E+02  0.40659137160E+02  0.00000000000E+00 0. -1.
         11    1    3    3    0    0  0.26222579244E+01 -0.52852754159E+00  0.64874153215E+00  0.27525340726E+01  0.51100000000E-03 0. -1.
        -11    1    3    3    0    0  0.24194137751E+01 -0.79171056934E+01  0.41129889609E+01  0.92439604082E+01  0.51100000000E-03 0.  1.
        -12    1    3    3    0    0 -0.12183024623E+02 -0.25137659501E+02 -0.26540825103E+02  0.38532368359E+02  0.00000000000E+00 0.  1.
</event>
<event>
 7    1  0.4374874E-012  0.5052886E+02  0.7816164E-02  0.1300439E+00
        -11   -1    0    0    0    0  0.00000000000E+00  0.00000000000E+00  0.45593999997E+02  0.45594000000E+02  0.51100000000E-03 0. -1.
         11   -1    0    0    0    0 -0.00000000000E+00 -0.00000000000E+00 -0.45593999997E+02  0.45594000000E+02  0.51100000000E-03 0.  1.
    9900012    2    1    2    0    0 -0.27870249154E+01  0.25995962120E+02 -0.31138532064E+02  0.50528859164E+02  0.29999997916E+02 0.  0.
         12    1    1    2    0    0  0.27870249154E+01 -0.25995962120E+02  0.31138532064E+02  0.40659140836E+02  0.00000000000E+00 0. -1.
         11    1    3    3    0    0  0.90280748849E+01  0.14825458742E+02 -0.19048108747E+02  0.25770735537E+02  0.51100000000E-03 0. -1.
        -11    1    3    3    0    0 -0.55786725404E+01  0.55367928160E+01 -0.14076650077E+02  0.16122336668E+02  0.51100000000E-03 0.  1.
         12    1    3    3    0    0 -0.62364272599E+01  0.56337105615E+01  0.19862267595E+01  0.86357869588E+01  0.00000000000E+00 0. -1.
</event>
<event>
 7    1  0.4374874E-012  0.5052886E+02  0.7816164E-02  0.1300439E+00
        -11   -1    0    0    0    0  0.00000000000E+00  0.00000000000E+00  0.45593999997E+02  0.45594000000E+02  0.51100000000E-03 0.  1.
         11   -1    0    0    0    0 -0.00000000000E+00 -0.00000000000E+00 -0.45593999997E+02  0.45594000000E+02  0.51100000000E-03 0. -1.
    9900012    2    1    2    0    0 -0.23694220930E+02  0.31206018095E+02  0.10859751481E+02  0.50528857448E+02  0.29999992699E+02 0.  0.
        -12    1    1    2    0    0  0.23694220930E+02 -0.31206018095E+02 -0.10859751481E+02  0.40659142552E+02  0.00000000000E+00 0.  1.
         11    1    3    3    0    0 -0.65258044886E+01  0.52561132818E+01 -0.33723356222E+01  0.90324691455E+01  0.51100000000E-03 0. -1.
        -11    1    3    3    0    0 -0.21749669135E+02  0.25659873329E+02  0.96126483373E+01  0.34983999415E+02  0.51100000000E-03 0.  1.
        -12    1    3    3    0    0  0.45812526941E+01  0.29003148448E+00  0.46194387661E+01  0.65123888876E+01  0.00000000000E+00 0.  1.
</event>
<event>
 7    1  0.4374874E-012  0.5052886E+02  0.7816164E-02  0.1300439E+00
        -11   -1    0    0    0    0  0.00000000000E+00  0.00000000000E+00  0.45593999997E+02  0.45594000000E+02  0.51100000000E-03 0. -1.
         11   -1    0    0    0    0 -0.00000000000E+00 -0.00000000000E+00 -0.45593999997E+02  0.45594000000E+02  0.51100000000E-03 0.  1.
    9900012    2    1    2    0    0 -0.69353318760E+00  0.23595963803E+02 -0.33104609694E+02  0.50528859834E+02  0.29999999951E+02 0.  0.
         12    1    1    2    0    0  0.69353318760E+00 -0.23595963803E+02  0.33104609694E+02  0.40659140166E+02  0.00000000000E+00 0. -1.
         11    1    3    3    0    0  0.80471285491E+01  0.12144240670E+02 -0.63631604052E+01  0.15897442245E+02  0.51100000000E-03 0. -1.
        -11    1    3    3    0    0  0.10083291076E+00  0.12029422398E+02 -0.98136565864E+01  0.15524980720E+02  0.51100000000E-03 0.  1.
         12    1    3    3    0    0 -0.88414946474E+01 -0.57769926464E+00 -0.16927792702E+02  0.19106436869E+02  0.00000000000E+00 0. -1.
</event>
<event>
 7    1  0.4374874E-012  0.5052888E+02  0.7816164E-02  0.1300439E+00
        -11   -1    0    0    0    0  0.00000000000E+00  0.00000000000E+00  0.45593999997E+02  0.45594000000E+02  0.51100000000E-03 0. -1.
         11   -1    0    0    0    0 -0.00000000000E+00 -0.00000000000E+00 -0.45593999997E+02  0.45594000000E+02  0.51100000000E-03 0.  1.
    9900012    2    1    2    0    0 -0.19184977542E+02 -0.15323235139E+02  0.32408314219E+02  0.50528883815E+02  0.30000072845E+02 0.  0.
        -12    1    1    2    0    0  0.19184977542E+02  0.15323235139E+02 -0.32408314219E+02  0.40659116185E+02  0.00000000000E+00 0.  1.
         11    1    3    3    0    0 -0.10453361997E+01 -0.21310296579E+00  0.65344991632E+01  0.66210135341E+01  0.51100000000E-03 0.  1.
        -11    1    3    3    0    0  0.15080136883E+01 -0.14970188648E+02  0.67543660870E+01  0.16492486621E+02  0.51100000000E-03 0. -1.
         12    1    3    3    0    0 -0.19647655030E+02 -0.13994352509E+00  0.19119448969E+02  0.27415383661E+02  0.00000000000E+00 0. -1.
</event>
<event>
 7    1  0.4374874E-012  0.5052886E+02  0.7816164E-02  0.1300439E+00
        -11   -1    0    0    0    0  0.00000000000E+00  0.00000000000E+00  0.45593999997E+02  0.45594000000E+02  0.51100000000E-03 0. -1.
         11   -1    0    0    0    0 -0.00000000000E+00 -0.00000000000E+00 -0.45593999997E+02  0.45594000000E+02  0.51100000000E-03 0.  1.
    9900012    2    1    2    0    0  0.19904782048E+01 -0.41013683575E+01  0.40402748843E+02  0.50528864003E+02  0.30000012624E+02 0.  0.
        -12    1    1    2    0    0 -0.19904782048E+01  0.41013683575E+01 -0.40402748843E+02  0.40659135997E+02  0.00000000000E+00 0.  1.
         11    1    3    3    0    0  0.64730033585E+00 -0.96183330584E+01  0.22521813302E+02  0.24498232655E+02  0.51100000000E-03 0. -1.
        -11    1    3    3    0    0 -0.65564430566E+01  0.42741913797E+00  0.14713676563E+02  0.16114028389E+02  0.51100000000E-03 0.  1.
         12    1    3    3    0    0  0.78996209256E+01  0.50895455629E+01  0.31672589783E+01  0.99166029587E+01  0.00000000000E+00 0. -1.
</event>
<event>
 7    1  0.4374874E-012  0.5052886E+02  0.7816164E-02  0.1300439E+00
        -11   -1    0    0    0    0  0.00000000000E+00  0.00000000000E+00  0.45593999997E+02  0.45594000000E+02  0.51100000000E-03 0. -1.
         11   -1    0    0    0    0 -0.00000000000E+00 -0.00000000000E+00 -0.45593999997E+02  0.45594000000E+02  0.51100000000E-03 0.  1.
    9900012    2    1    2    0    0  0.94704870198E+01 -0.10892281857E+02  0.38010969872E+02  0.50528858850E+02  0.29999996961E+02 0.  0.
        -12    1    1    2    0    0 -0.94704870198E+01  0.10892281857E+02 -0.38010969872E+02  0.40659141150E+02  0.00000000000E+00 0.  1.
         11    1    3    3    0    0 -0.65374105930E+01  0.30944293261E+01  0.20855883281E+02  0.22074444451E+02  0.51100000000E-03 0. -1.
        -11    1    3    3    0    0  0.10969620453E+02 -0.58237564407E+01  0.61614156811E+01  0.13864045420E+02  0.51100000000E-03 0.  1.
        -12    1    3    3    0    0  0.50382771599E+01 -0.81629547427E+01  0.10993670910E+02  0.14590368979E+02  0.00000000000E+00 0.  1.
</event>
<event>
 7    1  0.4374874E-012  0.5052886E+02  0.7816164E-02  0.1300439E+00
        -11   -1    0    0    0    0  0.00000000000E+00  0.00000000000E+00  0.45593999997E+02  0.45594000000E+02  0.51100000000E-03 0. -1.
         11   -1    0    0    0    0 -0.00000000000E+00 -0.00000000000E+00 -0.45593999997E+02  0.45594000000E+02  0.51100000000E-03 0.  1.
    9900012    2    1    2    0    0 -0.13665452681E+02  0.11179688357E+02 -0.36625610143E+02  0.50528863916E+02  0.30000012360E+02 0.  0.
         12    1    1    2    0    0  0.13665452681E+02 -0.11179688357E+02  0.36625610143E+02  0.40659136084E+02  0.00000000000E+00 0. -1.
         11    1    3    3    0    0 -0.12398228013E+01  0.53986674675E+01 -0.22895619033E+01  0.59937354775E+01  0.51100000000E-03 0. -1.
        -11    1    3    3    0    0 -0.13787163698E+02 -0.22452607779E+01 -0.62685608621E+01  0.15310843684E+02  0.51100000000E-03 0.  1.
        -12    1    3    3    0    0  0.13615338179E+01  0.80262816673E+01 -0.28067487377E+02  0.29224284755E+02  0.00000000000E+00 0.  1.
</event>
<event>
 7    1  0.4374874E-012  0.5052886E+02  0.7816164E-02  0.1300439E+00
        -11   -1    0    0    0    0  0.00000000000E+00  0.00000000000E+00  0.45593999997E+02  0.45594000000E+02  0.51100000000E-03 0. -1.
         11   -1    0    0    0    0 -0.00000000000E+00 -0.00000000000E+00 -0.45593999997E+02  0.45594000000E+02  0.51100000000E-03 0.  1.
    9900012    2    1    2    0    0  0.18546122652E+01 -0.14011638876E+02 -0.38123486301E+02  0.50528858120E+02  0.29999994742E+02 0.  0.
         12    1    1    2    0    0 -0.18546122652E+01  0.14011638876E+02  0.38123486301E+02  0.40659141880E+02  0.00000000000E+00 0. -1.
         11    1    3    3    0    0  0.17924349152E+00 -0.10103530339E+02 -0.11506498565E+02  0.15313816083E+02  0.51100000000E-03 0. -1.
        -11    1    3    3    0    0  0.11263871221E+02 -0.54945095093E+01 -0.10295989823E+02  0.16219489398E+02  0.51100000000E-03 0.  1.
         12    1    3    3    0    0 -0.95885024468E+01  0.15864009715E+01 -0.16320997913E+02  0.18995552640E+02  0.00000000000E+00 0. -1.
</event>
<event>
 7    1  0.4374874E-012  0.5052887E+02  0.7816164E-02  0.1300439E+00
        -11   -1    0    0    0    0  0.00000000000E+00  0.00000000000E+00  0.45593999997E+02  0.45594000000E+02  0.51100000000E-03 0.  1.
         11   -1    0    0    0    0 -0.00000000000E+00 -0.00000000000E+00 -0.45593999997E+02  0.45594000000E+02  0.51100000000E-03 0. -1.
    9900012    2    1    2    0    0  0.13897082981E+02 -0.37125129614E+02 -0.90421821651E+01  0.50528865448E+02  0.30000017015E+02 0.  0.
        -12    1    1    2    0    0 -0.13897082981E+02  0.37125129614E+02  0.90421821651E+01  0.40659134552E+02  0.00000000000E+00 0.  1.
         11    1    3    3    0    0  0.17450938469E+02 -0.28038743376E+02 -0.62335213978E+01  0.33608974587E+02  0.51100000000E-03 0. -1.
        -11    1    3    3    0    0  0.32893317105E+01 -0.35131461934E+01  0.36023677374E+01  0.60115682525E+01  0.51100000000E-03 0.  1.
        -12    1    3    3    0    0 -0.68431871988E+01 -0.55732400449E+01 -0.64110285047E+01  0.10908322608E+02  0.00000000000E+00 0.  1.
</event>
<event>
 7    1  0.4374874E-012  0.5052889E+02  0.7816164E-02  0.1300439E+00
        -11   -1    0    0    0    0  0.00000000000E+00  0.00000000000E+00  0.45593999997E+02  0.45594000000E+02  0.51100000000E-03 0. -1.
         11   -1    0    0    0    0 -0.00000000000E+00 -0.00000000000E+00 -0.45593999997E+02  0.45594000000E+02  0.51100000000E-03 0.  1.
    9900012    2    1    2    0    0  0.50346171328E-01 -0.18150212415E+02  0.36383106754E+02  0.50528890289E+02  0.30000092521E+02 0.  0.
        -12    1    1    2    0    0 -0.50346171328E-01  0.18150212415E+02 -0.36383106754E+02  0.40659109711E+02  0.00000000000E+00 0.  1.
         11    1    3    3    0    0  0.30303221260E+01 -0.98639974224E+01  0.29325010702E+02  0.31087578714E+02  0.51100000000E-03 0. -1.
        -11    1    3    3    0    0 -0.87143923824E+01 -0.81178130964E+01  0.67651183895E+01  0.13696946782E+02  0.51100000000E-03 0.  1.
         12    1    3    3    0    0  0.57344164277E+01 -0.16840189640E+00  0.29297766249E+00  0.57443647930E+01  0.00000000000E+00 0. -1.
</event>
<event>
 7    1  0.4374874E-012  0.5052886E+02  0.7816164E-02  0.1300439E+00
        -11   -1    0    0    0    0  0.00000000000E+00  0.00000000000E+00  0.45593999997E+02  0.45594000000E+02  0.51100000000E-03 0. -1.
         11   -1    0    0    0    0 -0.00000000000E+00 -0.00000000000E+00 -0.45593999997E+02  0.45594000000E+02  0.51100000000E-03 0.  1.
    9900012    2    1    2    0    0  0.15288177615E+02  0.90812999662E+01  0.36564558374E+02  0.50528864336E+02  0.30000013635E+02 0.  0.
        -12    1    1    2    0    0 -0.15288177615E+02 -0.90812999662E+01 -0.36564558374E+02  0.40659135664E+02  0.00000000000E+00 0.  1.
         11    1    3    3    0    0  0.70299012285E+01  0.55029046382E+01  0.96464584728E+01  0.13143653680E+02  0.51100000000E-03 0. -1.
        -11    1    3    3    0    0  0.13271375716E+02 -0.51806477709E+01  0.21869625892E+02  0.26100748297E+02  0.51100000000E-03 0.  1.
        -12    1    3    3    0    0 -0.50130993302E+01  0.87590430988E+01  0.50484740093E+01  0.11284462359E+02  0.00000000000E+00 0.  1.
</event>
<event>
 7    1  0.4374874E-012  0.5052887E+02  0.7816164E-02  0.1300439E+00
        -11   -1    0    0    0    0  0.00000000000E+00  0.00000000000E+00  0.45593999997E+02  0.45594000000E+02  0.51100000000E-03 0.  1.
         11   -1    0    0    0    0 -0.00000000000E+00 -0.00000000000E+00 -0.45593999997E+02  0.45594000000E+02  0.51100000000E-03 0. -1.
    9900012    2    1    2    0    0 -0.11681191177E+01  0.39725682452E+02 -0.85831634320E+01  0.50528867655E+02  0.30000023725E+02 0.  0.
         12    1    1    2    0    0  0.11681191177E+01 -0.39725682452E+02  0.85831634320E+01  0.40659132345E+02  0.00000000000E+00 0. -1.
         11    1    3    3    0    0 -0.27434160888E+01  0.31458300127E+02 -0.13744058619E+02  0.34439078477E+02  0.51100000000E-03 0.  1.
        -11    1    3    3    0    0  0.39565012171E+01  0.59884647594E+01 -0.26191333643E+01  0.76403842768E+01  0.51100000000E-03 0. -1.
        -12    1    3    3    0    0 -0.23812042459E+01  0.22789175651E+01  0.77800285516E+01  0.84494049017E+01  0.00000000000E+00 0.  1.
</event>
<event>
 7    1  0.4374874E-012  0.5052886E+02  0.7816164E-02  0.1300439E+00
        -11   -1    0    0    0    0  0.00000000000E+00  0.00000000000E+00  0.45593999997E+02  0.45594000000E+02  0.51100000000E-03 0.  1.
         11   -1    0    0    0    0 -0.00000000000E+00 -0.00000000000E+00 -0.45593999997E+02  0.45594000000E+02  0.51100000000E-03 0. -1.
    9900012    2    1    2    0    0  0.64936706764E+01  0.39228525399E+02  0.84924001516E+01  0.50528858050E+02  0.29999994528E+02 0.  0.
         12    1    1    2    0    0 -0.64936706764E+01 -0.39228525399E+02 -0.84924001516E+01  0.40659141950E+02  0.00000000000E+00 0. -1.
         11    1    3    3    0    0 -0.15883428979E+01 -0.28374881013E+00  0.54080733698E+01  0.56436339696E+01  0.51100000000E-03 0. -1.
        -11    1    3    3    0    0  0.11430350136E+02  0.11232893833E+02  0.35069749300E+01  0.16405172401E+02  0.51100000000E-03 0.  1.
        -12    1    3    3    0    0 -0.33483365616E+01  0.28279380376E+02 -0.42264814822E+00  0.28480051679E+02  0.00000000000E+00 0.  1.
</event>
<event>
 7    1  0.4374874E-012  0.5052885E+02  0.7816164E-02  0.1300439E+00
        -11   -1    0    0    0    0  0.00000000000E+00  0.00000000000E+00  0.45593999997E+02  0.45594000000E+02  0.51100000000E-03 0. -1.
         11   -1    0    0    0    0 -0.00000000000E+00 -0.00000000000E+00 -0.45593999997E+02  0.45594000000E+02  0.51100000000E-03 0.  1.
    9900012    2    1    2    0    0 -0.34382079839E+02 -0.91911544060E+01  0.19661183883E+02  0.50528845003E+02  0.29999954872E+02 0.  0.
        -12    1    1    2    0    0  0.34382079839E+02  0.91911544060E+01 -0.19661183883E+02  0.40659154997E+02  0.00000000000E+00 0.  1.
         11    1    3    3    0    0 -0.55030047866E+01  0.63271748773E+01 -0.31549273982E+01  0.89593398618E+01  0.51100000000E-03 0. -1.
        -11    1    3    3    0    0  0.70314535766E-01 -0.14616554718E+01 -0.78559672769E+00  0.16608863091E+01  0.51100000000E-03 0.  1.
         12    1    3    3    0    0 -0.28949389588E+02 -0.14056673811E+02  0.23601708008E+02  0.39908618832E+02  0.00000000000E+00 0. -1.
</event>
<event>
 7    1  0.5530837E-012  0.5052886E+02  0.7816164E-02  0.1300439E+00
        -11   -1    0    0    0    0  0.00000000000E+00  0.00000000000E+00  0.45593999997E+02  0.45594000000E+02  0.51100000000E-03 0. -1.
         11   -1    0    0    0    0 -0.00000000000E+00 -0.00000000000E+00 -0.45593999997E+02  0.45594000000E+02  0.51100000000E-03 0.  1.
    9900012    2    1    2    0    0  0.17738680181E+02  0.14452532031E+02 -0.33609960649E+02  0.50528856975E+02  0.29999991262E+02 0.  0.
         12    1    1    2    0    0 -0.17738680181E+02 -0.14452532031E+02  0.33609960649E+02  0.40659143025E+02  0.00000000000E+00 0. -1.
         11    1    3    3    0    0  0.26616932795E+01  0.80688414735E+01 -0.23986251184E+02  0.25446631603E+02  0.51100000000E-03 0. -1.
        -11    1    3    3    0    0  0.11391475534E+02  0.16836179515E+01 -0.13665641490E+02  0.17870367703E+02  0.51100000000E-03 0.  1.
         12    1    3    3    0    0  0.36855113677E+01  0.47000726057E+01  0.40419320249E+01  0.72118576687E+01  0.00000000000E+00 0. -1.
</event>
<event>
 7    1  0.4374874E-012  0.5052887E+02  0.7816164E-02  0.1300439E+00
        -11   -1    0    0    0    0  0.00000000000E+00  0.00000000000E+00  0.45593999997E+02  0.45594000000E+02  0.51100000000E-03 0. -1.
         11   -1    0    0    0    0 -0.00000000000E+00 -0.00000000000E+00 -0.45593999997E+02  0.45594000000E+02  0.51100000000E-03 0.  1.
    9900012    2    1    2    0    0  0.32069929302E+02 -0.17600289040E+02 -0.17745836110E+02  0.50528865246E+02  0.30000016401E+02 0.  0.
         12    1    1    2    0    0 -0.32069929302E+02  0.17600289040E+02  0.17745836110E+02  0.40659134754E+02  0.00000000000E+00 0. -1.
         11    1    3    3    0    0  0.16668624637E+01 -0.77066289712E+01  0.30453853244E+01  0.84525104323E+01  0.51100000000E-03 0.  1.
        -11    1    3    3    0    0  0.62365740998E+00  0.11692416127E+01 -0.75398761624E+01  0.76554429865E+01  0.51100000000E-03 0. -1.
        -12    1    3    3    0    0  0.29779409428E+02 -0.11062901682E+02 -0.13251345272E+02  0.34420911827E+02  0.00000000000E+00 0.  1.
</event>
<event>
 7    1  0.4374874E-012  0.5052886E+02  0.7816164E-02  0.1300439E+00
        -11   -1    0    0    0    0  0.00000000000E+00  0.00000000000E+00  0.45593999997E+02  0.45594000000E+02  0.51100000000E-03 0. -1.
         11   -1    0    0    0    0 -0.00000000000E+00 -0.00000000000E+00 -0.45593999997E+02  0.45594000000E+02  0.51100000000E-03 0.  1.
    9900012    2    1    2    0    0  0.23652662505E+02  0.28540090246E+02 -0.16708691750E+02  0.50528861115E+02  0.30000003846E+02 0.  0.
         12    1    1    2    0    0 -0.23652662505E+02 -0.28540090246E+02  0.16708691750E+02  0.40659138885E+02  0.00000000000E+00 0. -1.
         11    1    3    3    0    0  0.16932318195E+02  0.14537440845E+02  0.65770402427E+00  0.22326512504E+02  0.51100000000E-03 0. -1.
        -11    1    3    3    0    0 -0.27453509935E+01 -0.33966941387E+00  0.11001916150E+01  0.29770369899E+01  0.51100000000E-03 0.  1.
        -12    1    3    3    0    0  0.94656953037E+01  0.14342318815E+02 -0.18466587389E+02  0.25225311621E+02  0.00000000000E+00 0.  1.
</event>
<event>
 7    1  0.4374874E-012  0.5052885E+02  0.7816164E-02  0.1300439E+00
        -11   -1    0    0    0    0  0.00000000000E+00  0.00000000000E+00  0.45593999997E+02  0.45594000000E+02  0.51100000000E-03 0. -1.
         11   -1    0    0    0    0 -0.00000000000E+00 -0.00000000000E+00 -0.45593999997E+02  0.45594000000E+02  0.51100000000E-03 0.  1.
    9900012    2    1    2    0    0 -0.17395432143E+01 -0.17268037219E+02 -0.36768942696E+02  0.50528852604E+02  0.29999977976E+02 0.  0.
         12    1    1    2    0    0  0.17395432143E+01  0.17268037219E+02  0.36768942696E+02  0.40659147396E+02  0.00000000000E+00 0. -1.
         11    1    3    3    0    0  0.23236053248E+01 -0.14747336219E+02 -0.16615926633E+02  0.22337683080E+02  0.51100000000E-03 0. -1.
        -11    1    3    3    0    0  0.67754423904E+01 -0.34386601239E+01 -0.36586148242E+01  0.84330579108E+01  0.51100000000E-03 0.  1.
        -12    1    3    3    0    0 -0.10838590930E+02  0.91795912410E+00 -0.16494401238E+02  0.19758111613E+02  0.00000000000E+00 0.  1.
</event>
<event>
 7    1  0.4374874E-012  0.5052886E+02  0.7816164E-02  0.1300439E+00
        -11   -1    0    0    0    0  0.00000000000E+00  0.00000000000E+00  0.45593999997E+02  0.45594000000E+02  0.51100000000E-03 0.  1.
         11   -1    0    0    0    0 -0.00000000000E+00 -0.00000000000E+00 -0.45593999997E+02  0.45594000000E+02  0.51100000000E-03 0. -1.
    9900012    2    1    2    0    0 -0.34303880096E+02 -0.10893649477E+01  0.21799605407E+02  0.50528859557E+02  0.29999999110E+02 0.  0.
        -12    1    1    2    0    0  0.34303880096E+02  0.10893649477E+01 -0.21799605407E+02  0.40659140443E+02  0.00000000000E+00 0.  1.
         11    1    3    3    0    0 -0.21192866214E+02 -0.10178906670E+02  0.35326972423E+00  0.23513241357E+02  0.51100000000E-03 0. -1.
        -11    1    3    3    0    0 -0.64728762452E+01  0.28756336585E+01  0.70879405787E+01  0.10020294294E+02  0.51100000000E-03 0.  1.
        -12    1    3    3    0    0 -0.66381376373E+01  0.62139080643E+01  0.14358395104E+02  0.16995323907E+02  0.00000000000E+00 0.  1.
</event>
<event>
 7    1  0.4374874E-012  0.5052886E+02  0.7816164E-02  0.1300439E+00
        -11   -1    0    0    0    0  0.00000000000E+00  0.00000000000E+00  0.45593999997E+02  0.45594000000E+02  0.51100000000E-03 0.  1.
         11   -1    0    0    0    0 -0.00000000000E+00 -0.00000000000E+00 -0.45593999997E+02  0.45594000000E+02  0.51100000000E-03 0. -1.
    9900012    2    1    2    0    0 -0.21338185638E+01  0.36860750747E+02  0.17026369815E+02  0.50528863310E+02  0.30000010517E+02 0.  0.
        -12    1    1    2    0    0  0.21338185638E+01 -0.36860750747E+02 -0.17026369815E+02  0.40659136690E+02  0.00000000000E+00 0.  1.
         11    1    3    3    0    0  0.40809404621E+01  0.79038264686E+01  0.74609301616E+01  0.11609910725E+02  0.51100000000E-03 0. -1.
        -11    1    3    3    0    0  0.64478645021E+01  0.19588279396E+02  0.10496500239E+02  0.23139839322E+02  0.51100000000E-03 0.  1.
         12    1    3    3    0    0 -0.12662623528E+02  0.93686448824E+01 -0.93106058550E+00  0.15779113263E+02  0.00000000000E+00 0. -1.
</event>
<event>
 7    1  0.4374874E-012  0.5052886E+02  0.7816164E-02  0.1300439E+00
        -11   -1    0    0    0    0  0.00000000000E+00  0.00000000000E+00  0.45593999997E+02  0.45594000000E+02  0.51100000000E-03 0. -1.
         11   -1    0    0    0    0 -0.00000000000E+00 -0.00000000000E+00 -0.45593999997E+02  0.45594000000E+02  0.51100000000E-03 0.  1.
    9900012    2    1    2    0    0  0.92255863719E+01 -0.29077609553E+02 -0.26880225151E+02  0.50528864183E+02  0.30000013170E+02 0.  0.
         12    1    1    2    0    0 -0.92255863719E+01  0.29077609553E+02  0.26880225151E+02  0.40659135817E+02  0.00000000000E+00 0. -1.
         11    1    3    3    0    0  0.12167713270E+02 -0.27871570123E+01 -0.33490901084E+01  0.12924314112E+02  0.51100000000E-03 0. -1.
        -11    1    3    3    0    0  0.22041507672E+00 -0.20837146676E+02 -0.10968024566E+02  0.23548520708E+02  0.51100000000E-03 0.  1.
        -12    1    3    3    0    0 -0.31625419752E+01 -0.54533058650E+01 -0.12563110476E+02  0.14056029363E+02  0.00000000000E+00 0.  1.
</event>
<event>
 7    1  0.4374874E-012  0.5052887E+02  0.7816164E-02  0.1300439E+00
        -11   -1    0    0    0    0  0.00000000000E+00  0.00000000000E+00  0.45593999997E+02  0.45594000000E+02  0.51100000000E-03 0. -1.
         11   -1    0    0    0    0 -0.00000000000E+00 -0.00000000000E+00 -0.45593999997E+02  0.45594000000E+02  0.51100000000E-03 0.  1.
    9900012    2    1    2    0    0 -0.98131762355E+01 -0.33143547004E+02  0.21409624114E+02  0.50528866456E+02  0.30000020081E+02 0.  0.
        -12    1    1    2    0    0  0.98131762355E+01  0.33143547004E+02 -0.21409624114E+02  0.40659133544E+02  0.00000000000E+00 0.  1.
         11    1    3    3    0    0 -0.47935306358E+01 -0.70870286485E+01  0.85187842786E+01  0.12073673710E+02  0.51100000000E-03 0. -1.
        -11    1    3    3    0    0 -0.13196651840E+02 -0.23890737786E+02  0.12411295815E+02  0.29982648913E+02  0.51100000000E-03 0.  1.
         12    1    3    3    0    0  0.81770062406E+01 -0.21657805688E+01  0.47954402051E+00  0.84725438328E+01  0.00000000000E+00 0. -1.
</event>
<event>
 7    1  0.4374874E-012  0.5052886E+02  0.7816164E-02  0.1300439E+00
        -11   -1    0    0    0    0  0.00000000000E+00  0.00000000000E+00  0.45593999997E+02  0.45594000000E+02  0.51100000000E-03 0. -1.
         11   -1    0    0    0    0 -0.00000000000E+00 -0.00000000000E+00 -0.45593999997E+02  0.45594000000E+02  0.51100000000E-03 0.  1.
    9900012    2    1    2    0    0  0.22765635520E+02 -0.76817591804E+01 -0.32800642544E+02  0.50528859134E+02  0.29999997822E+02 0.  0.
         12    1    1    2    0    0 -0.22765635520E+02  0.76817591804E+01  0.32800642544E+02  0.40659140866E+02  0.00000000000E+00 0. -1.
         11    1    3    3    0    0 -0.24525952218E-01 -0.20955254496E+01  0.36463636274E+01  0.42056861981E+01  0.51100000000E-03 0. -1.
        -11    1    3    3    0    0 -0.59302676674E+00  0.23840667954E+01 -0.20907282474E+00  0.24655966698E+01  0.51100000000E-03 0.  1.
        -12    1    3    3    0    0  0.23383188239E+02 -0.79703005261E+01 -0.36237933346E+02  0.43857576266E+02  0.00000000000E+00 0.  1.
</event>
<event>
 7    1  0.4374874E-012  0.5052885E+02  0.7816164E-02  0.1300439E+00
        -11   -1    0    0    0    0  0.00000000000E+00  0.00000000000E+00  0.45593999997E+02  0.45594000000E+02  0.51100000000E-03 0. -1.
         11   -1    0    0    0    0 -0.00000000000E+00 -0.00000000000E+00 -0.45593999997E+02  0.45594000000E+02  0.51100000000E-03 0.  1.
    9900012    2    1    2    0    0 -0.17804666067E+02 -0.27524267048E+02  0.24053587326E+02  0.50528850064E+02  0.29999970253E+02 0.  0.
        -12    1    1    2    0    0  0.17804666067E+02  0.27524267048E+02 -0.24053587326E+02  0.40659149936E+02  0.00000000000E+00 0.  1.
         11    1    3    3    0    0 -0.66577576774E+01 -0.14873068708E+02  0.23437493165E+02  0.28545577525E+02  0.51100000000E-03 0. -1.
        -11    1    3    3    0    0  0.16033857216E+01  0.11039084161E+01  0.24602193016E+01  0.31372183278E+01  0.51100000000E-03 0.  1.
        -12    1    3    3    0    0 -0.12750294111E+02 -0.13755106756E+02 -0.18441251407E+01  0.18846054211E+02  0.00000000000E+00 0.  1.
</event>
<event>
 7    1  0.4374874E-012  0.5052886E+02  0.7816164E-02  0.1300439E+00
        -11   -1    0    0    0    0  0.00000000000E+00  0.00000000000E+00  0.45593999997E+02  0.45594000000E+02  0.51100000000E-03 0. -1.
         11   -1    0    0    0    0 -0.00000000000E+00 -0.00000000000E+00 -0.45593999997E+02  0.45594000000E+02  0.51100000000E-03 0.  1.
    9900012    2    1    2    0    0 -0.19965077373E+02  0.84441486245E+01 -0.34398510100E+02  0.50528862557E+02  0.30000008228E+02 0.  0.
         12    1    1    2    0    0  0.19965077373E+02 -0.84441486245E+01  0.34398510100E+02  0.40659137443E+02  0.00000000000E+00 0. -1.
         11    1    3    3    0    0  0.31986785689E+01 -0.48573767825E+01 -0.47381851011E+01  0.75017366061E+01  0.51100000000E-03 0. -1.
        -11    1    3    3    0    0  0.14743109376E+00  0.53124040737E+01 -0.10656892285E+02  0.11908514870E+02  0.51100000000E-03 0.  1.
         12    1    3    3    0    0 -0.23311187036E+02  0.79891213333E+01 -0.19003432714E+02  0.31118611081E+02  0.00000000000E+00 0. -1.
</event>
<event>
 7    1  0.4374874E-012  0.5052890E+02  0.7816164E-02  0.1300439E+00
        -11   -1    0    0    0    0  0.00000000000E+00  0.00000000000E+00  0.45593999997E+02  0.45594000000E+02  0.51100000000E-03 0. -1.
         11   -1    0    0    0    0 -0.00000000000E+00 -0.00000000000E+00 -0.45593999997E+02  0.45594000000E+02  0.51100000000E-03 0.  1.
    9900012    2    1    2    0    0  0.34229215801E+02 -0.16148888921E+01  0.21884129473E+02  0.50528902576E+02  0.30000129871E+02 0.  0.
        -12    1    1    2    0    0 -0.34229215801E+02  0.16148888921E+01 -0.21884129473E+02  0.40659097424E+02  0.00000000000E+00 0.  1.
         11    1    3    3    0    0  0.34609381110E+01 -0.97187063681E+01  0.12310737193E+02  0.16061930039E+02  0.51100000000E-03 0. -1.
        -11    1    3    3    0    0  0.11377248129E+01  0.27811924026E+01  0.79069167133E+00  0.31071920620E+01  0.51100000000E-03 0.  1.
         12    1    3    3    0    0  0.29630552877E+02  0.53226250734E+01  0.87827006092E+01  0.31359780476E+02  0.00000000000E+00 0. -1.
</event>
<event>
 7    1  0.4374874E-012  0.5052886E+02  0.7816164E-02  0.1300439E+00
        -11   -1    0    0    0    0  0.00000000000E+00  0.00000000000E+00  0.45593999997E+02  0.45594000000E+02  0.51100000000E-03 0. -1.
         11   -1    0    0    0    0 -0.00000000000E+00 -0.00000000000E+00 -0.45593999997E+02  0.45594000000E+02  0.51100000000E-03 0.  1.
    9900012    2    1    2    0    0  0.28310382834E+02 -0.36609937067E+01 -0.28953149814E+02  0.50528861602E+02  0.30000005325E+02 0.  0.
         12    1    1    2    0    0 -0.28310382834E+02  0.36609937067E+01  0.28953149814E+02  0.40659138398E+02  0.00000000000E+00 0. -1.
         11    1    3    3    0    0 -0.57262884549E-01 -0.43482933559E+01 -0.77396058735E+01  0.88776367061E+01  0.51100000000E-03 0. -1.
        -11    1    3    3    0    0 -0.46233855053E+00  0.53952153604E+01  0.22025737456E+00  0.54194666981E+01  0.51100000000E-03 0.  1.
        -12    1    3    3    0    0  0.28829984269E+02 -0.47079157111E+01 -0.21433801315E+02  0.36231758198E+02  0.00000000000E+00 0.  1.
</event>
<event>
 7    1  0.4374874E-012  0.5052886E+02  0.7816164E-02  0.1300439E+00
        -11   -1    0    0    0    0  0.00000000000E+00  0.00000000000E+00  0.45593999997E+02  0.45594000000E+02  0.51100000000E-03 0. -1.
         11   -1    0    0    0    0 -0.00000000000E+00 -0.00000000000E+00 -0.45593999997E+02  0.45594000000E+02  0.51100000000E-03 0.  1.
    9900012    2    1    2    0    0 -0.26392422220E+02  0.87546622222E+01 -0.29664141658E+02  0.50528863738E+02  0.30000011817E+02 0.  0.
         12    1    1    2    0    0  0.26392422220E+02 -0.87546622222E+01  0.29664141658E+02  0.40659136262E+02  0.00000000000E+00 0. -1.
         11    1    3    3    0    0 -0.81648885473E+01  0.12647960274E+01  0.20358392464E+01  0.85093922038E+01  0.51100000000E-03 0. -1.
        -11    1    3    3    0    0 -0.77444950129E+01 -0.64484264089E+01 -0.10255474914E+02  0.14378253445E+02  0.51100000000E-03 0.  1.
         12    1    3    3    0    0 -0.10483038660E+02  0.13938292604E+02 -0.21444505991E+02  0.27641218089E+02  0.00000000000E+00 0. -1.
</event>
<event>
 7    1  0.4374874E-012  0.5052885E+02  0.7816164E-02  0.1300439E+00
        -11   -1    0    0    0    0  0.00000000000E+00  0.00000000000E+00  0.45593999997E+02  0.45594000000E+02  0.51100000000E-03 0.  1.
         11   -1    0    0    0    0 -0.00000000000E+00 -0.00000000000E+00 -0.45593999997E+02  0.45594000000E+02  0.51100000000E-03 0. -1.
    9900012    2    1    2    0    0  0.38124588326E+02  0.11727018375E+02 -0.78841126193E+01  0.50528850639E+02  0.29999972001E+02 0.  0.
         12    1    1    2    0    0 -0.38124588326E+02 -0.11727018375E+02  0.78841126193E+01  0.40659149361E+02  0.00000000000E+00 0. -1.
         11    1    3    3    0    0  0.17119133548E+02 -0.56872855435E+01 -0.85741193695E+00  0.18059487971E+02  0.51100000000E-03 0. -1.
        -11    1    3    3    0    0  0.48046400002E+01 -0.65911637249E+00 -0.66047503337E+01  0.81940055623E+01  0.51100000000E-03 0.  1.
        -12    1    3    3    0    0  0.16200814778E+02  0.18073420291E+02 -0.42195034871E+00  0.24275357105E+02  0.00000000000E+00 0.  1.
</event>
<event>
 7    1  0.4374874E-012  0.5052888E+02  0.7816164E-02  0.1300439E+00
        -11   -1    0    0    0    0  0.00000000000E+00  0.00000000000E+00  0.45593999997E+02  0.45594000000E+02  0.51100000000E-03 0. -1.
         11   -1    0    0    0    0 -0.00000000000E+00 -0.00000000000E+00 -0.45593999997E+02  0.45594000000E+02  0.51100000000E-03 0.  1.
    9900012    2    1    2    0    0  0.79735555460E+01 -0.35471571704E+02 -0.18203125066E+02  0.50528883564E+02  0.30000072081E+02 0.  0.
         12    1    1    2    0    0 -0.79735555460E+01  0.35471571704E+02  0.18203125066E+02  0.40659116436E+02  0.00000000000E+00 0. -1.
         11    1    3    3    0    0 -0.13258726159E+01  0.20148497518E+01 -0.60316811766E+00  0.24862360618E+01  0.51100000000E-03 0. -1.
        -11    1    3    3    0    0  0.34030801665E+01 -0.10555118442E+02 -0.17206236299E+02  0.20470614251E+02  0.51100000000E-03 0.  1.
         12    1    3    3    0    0  0.58963479954E+01 -0.26931303013E+02 -0.39372064894E+00  0.27572033252E+02  0.00000000000E+00 0. -1.
</event>
<event>
 7    1  0.4374874E-012  0.5052887E+02  0.7816164E-02  0.1300439E+00
        -11   -1    0    0    0    0  0.00000000000E+00  0.00000000000E+00  0.45593999997E+02  0.45594000000E+02  0.51100000000E-03 0. -1.
         11   -1    0    0    0    0 -0.00000000000E+00 -0.00000000000E+00 -0.45593999997E+02  0.45594000000E+02  0.51100000000E-03 0.  1.
    9900012    2    1    2    0    0 -0.14344383864E+02  0.35680147836E+01  0.37877079720E+02  0.50528865159E+02  0.30000016136E+02 0.  0.
        -12    1    1    2    0    0  0.14344383864E+02 -0.35680147836E+01 -0.37877079720E+02  0.40659134841E+02  0.00000000000E+00 0.  1.
         11    1    3    3    0    0  0.87447177973E+00 -0.12392011652E+01  0.58362189027E+01  0.60300722851E+01  0.51100000000E-03 0. -1.
        -11    1    3    3    0    0 -0.70752432087E+01 -0.26693686880E+01 -0.27091048543E+01  0.80326735915E+01  0.51100000000E-03 0.  1.
         12    1    3    3    0    0 -0.81436124351E+01  0.74765846368E+01  0.34749965672E+02  0.36466119282E+02  0.00000000000E+00 0. -1.
</event>
<event>
 7    1  0.4374874E-012  0.5052894E+02  0.7816164E-02  0.1300439E+00
        -11   -1    0    0    0    0  0.00000000000E+00  0.00000000000E+00  0.45593999997E+02  0.45594000000E+02  0.51100000000E-03 0.  1.
         11   -1    0    0    0    0 -0.00000000000E+00 -0.00000000000E+00 -0.45593999997E+02  0.45594000000E+02  0.51100000000E-03 0. -1.
    9900012    2    1    2    0    0  0.24919768021E+02 -0.25559264055E+02  0.19465063384E+02  0.50528935699E+02  0.30000230550E+02 0.  0.
        -12    1    1    2    0    0 -0.24919768021E+02  0.25559264055E+02 -0.19465063384E+02  0.40659064301E+02  0.00000000000E+00 0.  1.
         11    1    3    3    0    0  0.24415886904E+02 -0.13750303617E+02  0.14255729606E+02  0.31439341751E+02  0.51100000000E-03 0. -1.
        -11    1    3    3    0    0 -0.19640588558E+00 -0.39379014160E+01  0.93651480281E+01  0.10161281449E+02  0.51100000000E-03 0.  1.
         12    1    3    3    0    0  0.70028700280E+00 -0.78710590216E+01 -0.41558142496E+01  0.89283124993E+01  0.00000000000E+00 0. -1.
</event>
<event>
 7    1  0.4374874E-012  0.5052888E+02  0.7816164E-02  0.1300439E+00
        -11   -1    0    0    0    0  0.00000000000E+00  0.00000000000E+00  0.45593999997E+02  0.45594000000E+02  0.51100000000E-03 0.  1.
         11   -1    0    0    0    0 -0.00000000000E+00 -0.00000000000E+00 -0.45593999997E+02  0.45594000000E+02  0.51100000000E-03 0. -1.
    9900012    2    1    2    0    0  0.30978777952E+02 -0.26169449240E+02 -0.29393133662E+01  0.50528876547E+02  0.30000050753E+02 0.  0.
         12    1    1    2    0    0 -0.30978777952E+02  0.26169449240E+02  0.29393133662E+01  0.40659123453E+02  0.00000000000E+00 0. -1.
         11    1    3    3    0    0  0.57889954052E+01 -0.17348900530E+02 -0.86935787668E+00  0.18309904445E+02  0.51100000000E-03 0. -1.
        -11    1    3    3    0    0  0.99407145886E+01 -0.62972576532E+01 -0.94488611008E+01  0.15091528645E+02  0.51100000000E-03 0.  1.
        -12    1    3    3    0    0  0.15249067958E+02 -0.25232910558E+01  0.73789056113E+01  0.17127443457E+02  0.00000000000E+00 0.  1.
</event>
<event>
 7    1  0.4374874E-012  0.5052886E+02  0.7816164E-02  0.1300439E+00
        -11   -1    0    0    0    0  0.00000000000E+00  0.00000000000E+00  0.45593999997E+02  0.45594000000E+02  0.51100000000E-03 0. -1.
         11   -1    0    0    0    0 -0.00000000000E+00 -0.00000000000E+00 -0.45593999997E+02  0.45594000000E+02  0.51100000000E-03 0.  1.
    9900012    2    1    2    0    0 -0.36749629440E+02 -0.14643957289E+02 -0.93906719081E+01  0.50528862430E+02  0.30000007843E+02 0.  0.
         12    1    1    2    0    0  0.36749629440E+02  0.14643957289E+02  0.93906719081E+01  0.40659137570E+02  0.00000000000E+00 0. -1.
         11    1    3    3    0    0 -0.10198852314E+02 -0.18238140534E+02 -0.84045927155E+01  0.22522955793E+02  0.51100000000E-03 0. -1.
        -11    1    3    3    0    0 -0.20666167441E+01  0.14378293577E+01 -0.22749854027E+01  0.33932015667E+01  0.51100000000E-03 0.  1.
         12    1    3    3    0    0 -0.24484160382E+02  0.21563538877E+01  0.12889062101E+01  0.24612705071E+02  0.00000000000E+00 0. -1.
</event>
<event>
 7    1  0.4374874E-012  0.5052883E+02  0.7816164E-02  0.1300439E+00
        -11   -1    0    0    0    0  0.00000000000E+00  0.00000000000E+00  0.45593999997E+02  0.45594000000E+02  0.51100000000E-03 0. -1.
         11   -1    0    0    0    0 -0.00000000000E+00 -0.00000000000E+00 -0.45593999997E+02  0.45594000000E+02  0.51100000000E-03 0.  1.
    9900012    2    1    2    0    0 -0.38089702248E+02 -0.42632546956E+01 -0.13570830410E+02  0.50528828883E+02  0.29999905872E+02 0.  0.
         12    1    1    2    0    0  0.38089702248E+02  0.42632546956E+01  0.13570830410E+02  0.40659171117E+02  0.00000000000E+00 0. -1.
         11    1    3    3    0    0 -0.99986075266E+01 -0.65666347244E+01 -0.23117954200E+01  0.12183482359E+02  0.51100000000E-03 0. -1.
        -11    1    3    3    0    0 -0.31840117263E+02  0.13398136137E+01 -0.12571107944E+02  0.34258151191E+02  0.51100000000E-03 0.  1.
         12    1    3    3    0    0  0.37490225415E+01  0.96356641508E+00  0.13120729539E+01  0.40871953329E+01  0.00000000000E+00 0. -1.
</event>
<event>
 7    1  0.4374874E-012  0.5052882E+02  0.7816164E-02  0.1300439E+00
        -11   -1    0    0    0    0  0.00000000000E+00  0.00000000000E+00  0.45593999997E+02  0.45594000000E+02  0.51100000000E-03 0. -1.
         11   -1    0    0    0    0 -0.00000000000E+00 -0.00000000000E+00 -0.45593999997E+02  0.45594000000E+02  0.51100000000E-03 0.  1.
    9900012    2    1    2    0    0  0.29695512835E+02  0.12628680979E+02 -0.24735845642E+02  0.50528817452E+02  0.29999871127E+02 0.  0.
         12    1    1    2    0    0 -0.29695512835E+02 -0.12628680979E+02  0.24735845642E+02  0.40659182548E+02  0.00000000000E+00 0. -1.
         11    1    3    3    0    0  0.30239707294E+01 -0.18163691518E+01  0.24557783807E+01  0.42981907338E+01  0.51100000000E-03 0. -1.
        -11    1    3    3    0    0  0.25534955355E+02  0.12900216304E+02 -0.12174097007E+02  0.31091126770E+02  0.51100000000E-03 0.  1.
        -12    1    3    3    0    0  0.11365867515E+01  0.15448338268E+01 -0.15017527016E+02  0.15139499948E+02  0.00000000000E+00 0.  1.
</event>
<event>
 7    1  0.4374874E-012  0.5052884E+02  0.7816164E-02  0.1300439E+00
        -11   -1    0    0    0    0  0.00000000000E+00  0.00000000000E+00  0.45593999997E+02  0.45594000000E+02  0.51100000000E-03 0. -1.
         11   -1    0    0    0    0 -0.00000000000E+00 -0.00000000000E+00 -0.45593999997E+02  0.45594000000E+02  0.51100000000E-03 0.  1.
    9900012    2    1    2    0    0 -0.27013745042E+02 -0.18170851906E+02 -0.24356626928E+02  0.50528836759E+02  0.29999929813E+02 0.  0.
         12    1    1    2    0    0  0.27013745042E+02  0.18170851906E+02  0.24356626928E+02  0.40659163241E+02  0.00000000000E+00 0. -1.
         11    1    3    3    0    0 -0.88957725571E+01  0.33053252015E+01 -0.50873991882E+00  0.95036182921E+01  0.51100000000E-03 0. -1.
        -11    1    3    3    0    0 -0.20392077927E+02 -0.12468422103E+02 -0.15150579071E+02  0.28299089002E+02  0.51100000000E-03 0.  1.
        -12    1    3    3    0    0  0.22741054423E+01 -0.90077550046E+01 -0.86973079381E+01  0.12726129465E+02  0.00000000000E+00 0.  1.
</event>
<event>
 7    1  0.4374874E-012  0.5052887E+02  0.7816164E-02  0.1300439E+00
        -11   -1    0    0    0    0  0.00000000000E+00  0.00000000000E+00  0.45593999997E+02  0.45594000000E+02  0.51100000000E-03 0. -1.
         11   -1    0    0    0    0 -0.00000000000E+00 -0.00000000000E+00 -0.45593999997E+02  0.45594000000E+02  0.51100000000E-03 0.  1.
    9900012    2    1    2    0    0  0.76990263908E+01 -0.13925742053E+02 -0.37416085162E+02  0.50528871530E+02  0.30000035501E+02 0.  0.
         12    1    1    2    0    0 -0.76990263908E+01  0.13925742053E+02  0.37416085162E+02  0.40659128470E+02  0.00000000000E+00 0. -1.
         11    1    3    3    0    0  0.15239063648E+01 -0.12652640478E+01  0.65661021987E+00  0.20867009755E+01  0.51100000000E-03 0. -1.
        -11    1    3    3    0    0  0.33653634943E+01  0.49019067530E+01 -0.26647784712E+02  0.27303091246E+02  0.51100000000E-03 0.  1.
        -12    1    3    3    0    0  0.28097565317E+01 -0.17562384759E+02 -0.11424910671E+02  0.21139079308E+02  0.00000000000E+00 0.  1.
</event>
<event>
 7    1  0.4374874E-012  0.5052886E+02  0.7816164E-02  0.1300439E+00
        -11   -1    0    0    0    0  0.00000000000E+00  0.00000000000E+00  0.45593999997E+02  0.45594000000E+02  0.51100000000E-03 0. -1.
         11   -1    0    0    0    0 -0.00000000000E+00 -0.00000000000E+00 -0.45593999997E+02  0.45594000000E+02  0.51100000000E-03 0.  1.
    9900012    2    1    2    0    0  0.19772560679E+02  0.32869691232E+02 -0.13483131908E+02  0.50528860763E+02  0.30000002774E+02 0.  0.
         12    1    1    2    0    0 -0.19772560679E+02 -0.32869691232E+02  0.13483131908E+02  0.40659139237E+02  0.00000000000E+00 0. -1.
         11    1    3    3    0    0 -0.41549774351E+01  0.23711084768E+01  0.94966259095E+00  0.48772791793E+01  0.51100000000E-03 0. -1.
        -11    1    3    3    0    0  0.87911483477E+01  0.24186151830E+02 -0.35709551560E+01  0.25980876633E+02  0.51100000000E-03 0.  1.
         12    1    3    3    0    0  0.15136389767E+02  0.63124309251E+01 -0.10861839343E+02  0.19670704951E+02  0.00000000000E+00 0. -1.
</event>
<event>
 7    1  0.4374874E-012  0.5052886E+02  0.7816164E-02  0.1300439E+00
        -11   -1    0    0    0    0  0.00000000000E+00  0.00000000000E+00  0.45593999997E+02  0.45594000000E+02  0.51100000000E-03 0. -1.
         11   -1    0    0    0    0 -0.00000000000E+00 -0.00000000000E+00 -0.45593999997E+02  0.45594000000E+02  0.51100000000E-03 0.  1.
    9900012    2    1    2    0    0 -0.86678309957E+01  0.25014022790E+02 -0.30859889823E+02  0.50528862894E+02  0.30000009252E+02 0.  0.
         12    1    1    2    0    0  0.86678309957E+01 -0.25014022790E+02  0.30859889823E+02  0.40659137106E+02  0.00000000000E+00 0. -1.
         11    1    3    3    0    0  0.52591879277E+01  0.44384874245E+01  0.19240740947E+01  0.71457182745E+01  0.51100000000E-03 0. -1.
        -11    1    3    3    0    0 -0.57379223827E+01 -0.14181491480E+00 -0.40483189807E+01  0.70237277546E+01  0.51100000000E-03 0.  1.
        -12    1    3    3    0    0 -0.81890965406E+01  0.20717350281E+02 -0.28735644937E+02  0.36359416865E+02  0.00000000000E+00 0.  1.
</event>
<event>
 7    1  0.4374874E-012  0.5052886E+02  0.7816164E-02  0.1300439E+00
        -11   -1    0    0    0    0  0.00000000000E+00  0.00000000000E+00  0.45593999997E+02  0.45594000000E+02  0.51100000000E-03 0.  1.
         11   -1    0    0    0    0 -0.00000000000E+00 -0.00000000000E+00 -0.45593999997E+02  0.45594000000E+02  0.51100000000E-03 0. -1.
    9900012    2    1    2    0    0 -0.22718107218E+02  0.33160920144E+02 -0.61161016794E+01  0.50528859329E+02  0.29999998416E+02 0.  0.
         12    1    1    2    0    0  0.22718107218E+02 -0.33160920144E+02  0.61161016794E+01  0.40659140671E+02  0.00000000000E+00 0. -1.
         11    1    3    3    0    0 -0.32154338016E+01  0.13142396541E+02  0.82382097608E+01  0.15840760768E+02  0.51100000000E-03 0. -1.
        -11    1    3    3    0    0 -0.21281807242E+01 -0.22103961028E+01 -0.29514480194E+01  0.42574698822E+01  0.51100000000E-03 0.  1.
        -12    1    3    3    0    0 -0.17374492692E+02  0.22228919706E+02 -0.11402863421E+02  0.30430628679E+02  0.00000000000E+00 0.  1.
</event>
<event>
 7    1  0.6851362E-012  0.5052888E+02  0.7816164E-02  0.1300439E+00
        -11   -1    0    0    0    0  0.00000000000E+00  0.00000000000E+00  0.45593999997E+02  0.45594000000E+02  0.51100000000E-03 0. -1.
         11   -1    0    0    0    0 -0.00000000000E+00 -0.00000000000E+00 -0.45593999997E+02  0.45594000000E+02  0.51100000000E-03 0.  1.
    9900012    2    1    2    0    0 -0.27788360689E+02 -0.43450925442E+01 -0.29361394462E+02  0.50528876746E+02  0.30000051357E+02 0.  0.
         12    1    1    2    0    0  0.27788360689E+02  0.43450925442E+01  0.29361394462E+02  0.40659123254E+02  0.00000000000E+00 0. -1.
         11    1    3    3    0    0 -0.18299334355E+01 -0.70591021151E+01 -0.14870527760E+02  0.16562372268E+02  0.51100000000E-03 0. -1.
        -11    1    3    3    0    0 -0.12993229563E+02 -0.44594392827E+01 -0.13268505009E+02  0.19098791549E+02  0.51100000000E-03 0.  1.
         12    1    3    3    0    0 -0.12965197691E+02  0.71734488537E+01 -0.12223616938E+01  0.14867712929E+02  0.00000000000E+00 0. -1.
</event>
<event>
 7    1  0.4374874E-012  0.5052882E+02  0.7816164E-02  0.1300439E+00
        -11   -1    0    0    0    0  0.00000000000E+00  0.00000000000E+00  0.45593999997E+02  0.45594000000E+02  0.51100000000E-03 0. -1.
         11   -1    0    0    0    0 -0.00000000000E+00 -0.00000000000E+00 -0.45593999997E+02  0.45594000000E+02  0.51100000000E-03 0.  1.
    9900012    2    1    2    0    0  0.13261233012E+02  0.85313067911E+01 -0.37476999222E+02  0.50528819398E+02  0.29999877041E+02 0.  0.
         12    1    1    2    0    0 -0.13261233012E+02 -0.85313067911E+01  0.37476999222E+02  0.40659180602E+02  0.00000000000E+00 0. -1.
         11    1    3    3    0    0  0.20971557175E+01  0.95761062952E+01 -0.13316344554E+02  0.16535564896E+02  0.51100000000E-03 0. -1.
        -11    1    3    3    0    0  0.63841097166E+01  0.95555732186E+01 -0.76751930587E+01  0.13819349665E+02  0.51100000000E-03 0.  1.
         12    1    3    3    0    0  0.47799675781E+01 -0.10600372723E+02 -0.16485461609E+02  0.20173904837E+02  0.00000000000E+00 0. -1.
</event>
<event>
 7    1  0.4374874E-012  0.5052886E+02  0.7816164E-02  0.1300439E+00
        -11   -1    0    0    0    0  0.00000000000E+00  0.00000000000E+00  0.45593999997E+02  0.45594000000E+02  0.51100000000E-03 0. -1.
         11   -1    0    0    0    0 -0.00000000000E+00 -0.00000000000E+00 -0.45593999997E+02  0.45594000000E+02  0.51100000000E-03 0.  1.
    9900012    2    1    2    0    0 -0.73899423363E+01  0.20420158101E+02  0.34373994482E+02  0.50528860791E+02  0.30000002860E+02 0.  0.
        -12    1    1    2    0    0  0.73899423363E+01 -0.20420158101E+02 -0.34373994482E+02  0.40659139209E+02  0.00000000000E+00 0.  1.
         11    1    3    3    0    0 -0.27655224417E+01  0.10286824536E+02  0.20268183297E+02  0.22896858471E+02  0.51100000000E-03 0. -1.
        -11    1    3    3    0    0 -0.10319759458E+02 -0.87393224231E+00  0.10445151472E+02  0.14709261789E+02  0.51100000000E-03 0.  1.
        -12    1    3    3    0    0  0.56953395635E+01  0.11007265808E+02  0.36606597117E+01  0.12922740531E+02  0.00000000000E+00 0.  1.
</event>
<event>
 7    1  0.4374874E-012  0.5052889E+02  0.7816164E-02  0.1300439E+00
        -11   -1    0    0    0    0  0.00000000000E+00  0.00000000000E+00  0.45593999997E+02  0.45594000000E+02  0.51100000000E-03 0. -1.
         11   -1    0    0    0    0 -0.00000000000E+00 -0.00000000000E+00 -0.45593999997E+02  0.45594000000E+02  0.51100000000E-03 0.  1.
    9900012    2    1    2    0    0 -0.11406884506E+02  0.23076410474E+02  0.31472613250E+02  0.50528891312E+02  0.30000095633E+02 0.  0.
        -12    1    1    2    0    0  0.11406884506E+02 -0.23076410474E+02 -0.31472613250E+02  0.40659108688E+02  0.00000000000E+00 0.  1.
         11    1    3    3    0    0 -0.49786219240E+01 -0.51776572672E-01  0.34731359436E+01  0.60705873373E+01  0.51100000000E-03 0. -1.
        -11    1    3    3    0    0  0.32365613291E+01  0.14841972084E+00  0.16833420925E+02  0.17142386588E+02  0.51100000000E-03 0.  1.
         12    1    3    3    0    0 -0.96648239116E+01  0.22979767326E+02  0.11166056382E+02  0.27315917387E+02  0.00000000000E+00 0. -1.
</event>
<event>
 7    1  0.4374874E-012  0.5052886E+02  0.7816164E-02  0.1300439E+00
        -11   -1    0    0    0    0  0.00000000000E+00  0.00000000000E+00  0.45593999997E+02  0.45594000000E+02  0.51100000000E-03 0. -1.
         11   -1    0    0    0    0 -0.00000000000E+00 -0.00000000000E+00 -0.45593999997E+02  0.45594000000E+02  0.51100000000E-03 0.  1.
    9900012    2    1    2    0    0 -0.60643176514E+01  0.81991886483E+01  0.39359408437E+02  0.50528859877E+02  0.30000000082E+02 0.  0.
        -12    1    1    2    0    0  0.60643176514E+01 -0.81991886483E+01 -0.39359408437E+02  0.40659140123E+02  0.00000000000E+00 0.  1.
         11    1    3    3    0    0  0.93507981377E+00 -0.75596545475E+01  0.84276334215E+01  0.11359918859E+02  0.51100000000E-03 0.  1.
        -11    1    3    3    0    0  0.23162981167E+01  0.59678041790E+01  0.22138381243E+02  0.23045343305E+02  0.51100000000E-03 0. -1.
        -12    1    3    3    0    0 -0.93156955818E+01  0.97910390168E+01  0.87933937717E+01  0.16123597713E+02  0.00000000000E+00 0.  1.
</event>
<event>
 7    1  0.4374874E-012  0.5052886E+02  0.7816164E-02  0.1300439E+00
        -11   -1    0    0    0    0  0.00000000000E+00  0.00000000000E+00  0.45593999997E+02  0.45594000000E+02  0.51100000000E-03 0. -1.
         11   -1    0    0    0    0 -0.00000000000E+00 -0.00000000000E+00 -0.45593999997E+02  0.45594000000E+02  0.51100000000E-03 0.  1.
    9900012    2    1    2    0    0  0.46306158228E+01  0.18849590054E+02 -0.35726969339E+02  0.50528856056E+02  0.29999988468E+02 0.  0.
         12    1    1    2    0    0 -0.46306158228E+01 -0.18849590054E+02  0.35726969339E+02  0.40659143944E+02  0.00000000000E+00 0. -1.
         11    1    3    3    0    0  0.36035567727E+01 -0.82129683957E+00  0.13222613110E+00  0.36983285310E+01  0.51100000000E-03 0. -1.
        -11    1    3    3    0    0  0.87118769644E+01  0.22788244825E+01 -0.20490304035E+02  0.22381742581E+02  0.51100000000E-03 0.  1.
        -12    1    3    3    0    0 -0.76848179143E+01  0.17392062411E+02 -0.15368891435E+02  0.24448784944E+02  0.00000000000E+00 0.  1.
</event>
<event>
 7    1  0.4374874E-012  0.5052889E+02  0.7816164E-02  0.1300439E+00
        -11   -1    0    0    0    0  0.00000000000E+00  0.00000000000E+00  0.45593999997E+02  0.45594000000E+02  0.51100000000E-03 0. -1.
         11   -1    0    0    0    0 -0.00000000000E+00 -0.00000000000E+00 -0.45593999997E+02  0.45594000000E+02  0.51100000000E-03 0.  1.
    9900012    2    1    2    0    0 -0.20657994254E+02 -0.25135495420E+02 -0.24384785401E+02  0.50528885208E+02  0.30000077080E+02 0.  0.
         12    1    1    2    0    0  0.20657994254E+02  0.25135495420E+02  0.24384785401E+02  0.40659114792E+02  0.00000000000E+00 0. -1.
         11    1    3    3    0    0 -0.13354820065E+02 -0.17509658905E+01  0.36441906106E+00  0.13474045496E+02  0.51100000000E-03 0. -1.
        -11    1    3    3    0    0 -0.74947445158E+01 -0.12597842883E+02 -0.69066596101E+01  0.16204283011E+02  0.51100000000E-03 0.  1.
        -12    1    3    3    0    0  0.19157032653E+00 -0.10786686646E+02 -0.17842544852E+02  0.20850556702E+02  0.00000000000E+00 0.  1.
</event>
<event>
 7    1  0.4374874E-012  0.5052886E+02  0.7816164E-02  0.1300439E+00
        -11   -1    0    0    0    0  0.00000000000E+00  0.00000000000E+00  0.45593999997E+02  0.45594000000E+02  0.51100000000E-03 0. -1.
         11   -1    0    0    0    0 -0.00000000000E+00 -0.00000000000E+00 -0.45593999997E+02  0.45594000000E+02  0.51100000000E-03 0.  1.
    9900012    2    1    2    0    0  0.37215485680E+02  0.58028478535E+01  0.15313391982E+02  0.50528863369E+02  0.30000010697E+02 0.  0.
        -12    1    1    2    0    0 -0.37215485680E+02 -0.58028478535E+01 -0.15313391982E+02  0.40659136631E+02  0.00000000000E+00 0.  1.
         11    1    3    3    0    0  0.28731412337E+01  0.68226774019E+01  0.83073935076E+00  0.74494292137E+01  0.51100000000E-03 0. -1.
        -11    1    3    3    0    0  0.15279347765E+02 -0.79883976243E+01  0.14886043814E+02  0.22778658113E+02  0.51100000000E-03 0.  1.
         12    1    3    3    0    0  0.19062996681E+02  0.69685680759E+01 -0.40339118260E+00  0.20300776043E+02  0.00000000000E+00 0. -1.
</event>
<event>
 7    1  0.4374874E-012  0.5052886E+02  0.7816164E-02  0.1300439E+00
        -11   -1    0    0    0    0  0.00000000000E+00  0.00000000000E+00  0.45593999997E+02  0.45594000000E+02  0.51100000000E-03 0. -1.
         11   -1    0    0    0    0 -0.00000000000E+00 -0.00000000000E+00 -0.45593999997E+02  0.45594000000E+02  0.51100000000E-03 0.  1.
    9900012    2    1    2    0    0 -0.94368633057E+01  0.83972310868E+01 -0.38647092809E+02  0.50528860049E+02  0.30000000604E+02 0.  0.
         12    1    1    2    0    0  0.94368633057E+01 -0.83972310868E+01  0.38647092809E+02  0.40659139951E+02  0.00000000000E+00 0. -1.
         11    1    3    3    0    0 -0.21104032651E+01  0.12569554226E+02 -0.30219043979E+02  0.32796922335E+02  0.51100000000E-03 0. -1.
        -11    1    3    3    0    0  0.22148773791E+01 -0.13854442912E+01 -0.72694422000E+01  0.77246312435E+01  0.51100000000E-03 0.  1.
         12    1    3    3    0    0 -0.95413374197E+01 -0.27868788475E+01 -0.11586066304E+01  0.10007306470E+02  0.00000000000E+00 0. -1.
</event>
<event>
 7    1  0.4374874E-012  0.5052885E+02  0.7816164E-02  0.1300439E+00
        -11   -1    0    0    0    0  0.00000000000E+00  0.00000000000E+00  0.45593999997E+02  0.45594000000E+02  0.51100000000E-03 0. -1.
         11   -1    0    0    0    0 -0.00000000000E+00 -0.00000000000E+00 -0.45593999997E+02  0.45594000000E+02  0.51100000000E-03 0.  1.
    9900012    2    1    2    0    0 -0.22518152896E+02 -0.26021936357E+02  0.21655433648E+02  0.50528853574E+02  0.29999980922E+02 0.  0.
        -12    1    1    2    0    0  0.22518152896E+02  0.26021936357E+02 -0.21655433648E+02  0.40659146426E+02  0.00000000000E+00 0.  1.
         11    1    3    3    0    0 -0.12922909084E+02 -0.74997403233E+01  0.14807972669E+02  0.21036248214E+02  0.51100000000E-03 0. -1.
        -11    1    3    3    0    0  0.56445542403E+01 -0.53715437916E+01  0.50452562222E+01  0.92827305188E+01  0.51100000000E-03 0.  1.
         12    1    3    3    0    0 -0.15239798053E+02 -0.13150652243E+02  0.18022047569E+01  0.20209874841E+02  0.00000000000E+00 0. -1.
</event>
<event>
 7    1  0.4374874E-012  0.5052886E+02  0.7816164E-02  0.1300439E+00
        -11   -1    0    0    0    0  0.00000000000E+00  0.00000000000E+00  0.45593999997E+02  0.45594000000E+02  0.51100000000E-03 0. -1.
         11   -1    0    0    0    0 -0.00000000000E+00 -0.00000000000E+00 -0.45593999997E+02  0.45594000000E+02  0.51100000000E-03 0.  1.
    9900012    2    1    2    0    0 -0.23990593164E+01 -0.25014597847E+02  0.31963726008E+02  0.50528863617E+02  0.30000011450E+02 0.  0.
        -12    1    1    2    0    0  0.23990593164E+01  0.25014597847E+02 -0.31963726008E+02  0.40659136383E+02  0.00000000000E+00 0.  1.
         11    1    3    3    0    0 -0.52470547772E+01  0.94592541447E+00 -0.38232932985E+00  0.53453283063E+01  0.51100000000E-03 0. -1.
        -11    1    3    3    0    0  0.88978635772E+01 -0.65913838109E+01  0.91517836978E+01  0.14365704365E+02  0.51100000000E-03 0.  1.
         12    1    3    3    0    0 -0.60498681164E+01 -0.19369139451E+02  0.23194271640E+02  0.30817830946E+02  0.00000000000E+00 0. -1.
</event>
<event>
 7    1  0.4374874E-012  0.5052886E+02  0.7816164E-02  0.1300439E+00
        -11   -1    0    0    0    0  0.00000000000E+00  0.00000000000E+00  0.45593999997E+02  0.45594000000E+02  0.51100000000E-03 0. -1.
         11   -1    0    0    0    0 -0.00000000000E+00 -0.00000000000E+00 -0.45593999997E+02  0.45594000000E+02  0.51100000000E-03 0.  1.
    9900012    2    1    2    0    0  0.20307639457E+00 -0.58209156675E+01  0.40239799192E+02  0.50528859106E+02  0.29999997740E+02 0.  0.
        -12    1    1    2    0    0 -0.20307639457E+00  0.58209156675E+01 -0.40239799192E+02  0.40659140894E+02  0.00000000000E+00 0.  1.
         11    1    3    3    0    0 -0.73195272087E+01 -0.92042192638E+01  0.22312155702E+02  0.25221526979E+02  0.51100000000E-03 0. -1.
        -11    1    3    3    0    0 -0.35013499368E+01  0.41685785188E+01  0.10973336469E+02  0.12249514756E+02  0.51100000000E-03 0.  1.
        -12    1    3    3    0    0  0.11023953540E+02 -0.78527492242E+00  0.69543070205E+01  0.13057817371E+02  0.00000000000E+00 0.  1.
</event>
<event>
 7    1  0.4374874E-012  0.5052886E+02  0.7816164E-02  0.1300439E+00
        -11   -1    0    0    0    0  0.00000000000E+00  0.00000000000E+00  0.45593999997E+02  0.45594000000E+02  0.51100000000E-03 0. -1.
         11   -1    0    0    0    0 -0.00000000000E+00 -0.00000000000E+00 -0.45593999997E+02  0.45594000000E+02  0.51100000000E-03 0.  1.
    9900012    2    1    2    0    0 -0.19022459375E+02  0.14714129105E+02 -0.32784235513E+02  0.50528860140E+02  0.30000000882E+02 0.  0.
         12    1    1    2    0    0  0.19022459375E+02 -0.14714129105E+02  0.32784235513E+02  0.40659139860E+02  0.00000000000E+00 0. -1.
         11    1    3    3    0    0 -0.10612337499E+02 -0.14347542196E+01 -0.72064607777E+00  0.10733105697E+02  0.51100000000E-03 0. -1.
        -11    1    3    3    0    0 -0.11337638537E+02  0.57712567146E+01 -0.15851669733E+02  0.20325473801E+02  0.51100000000E-03 0.  1.
        -12    1    3    3    0    0  0.29275166613E+01  0.10377626610E+02 -0.16211919702E+02  0.19470280642E+02  0.00000000000E+00 0.  1.
</event>
<event>
 7    1  0.4374874E-012  0.5052886E+02  0.7816164E-02  0.1300439E+00
        -11   -1    0    0    0    0  0.00000000000E+00  0.00000000000E+00  0.45593999997E+02  0.45594000000E+02  0.51100000000E-03 0. -1.
         11   -1    0    0    0    0 -0.00000000000E+00 -0.00000000000E+00 -0.45593999997E+02  0.45594000000E+02  0.51100000000E-03 0.  1.
    9900012    2    1    2    0    0  0.26364479125E+02  0.12065901427E+01  0.30929336551E+02  0.50528862297E+02  0.30000007437E+02 0.  0.
        -12    1    1    2    0    0 -0.26364479125E+02 -0.12065901427E+01 -0.30929336551E+02  0.40659137703E+02  0.00000000000E+00 0.  1.
         11    1    3    3    0    0  0.11653269990E+02 -0.63959826693E+01  0.17828804255E+02  0.22239009807E+02  0.51100000000E-03 0. -1.
        -11    1    3    3    0    0 -0.95188200372E+00  0.23400693162E+00 -0.39039030667E+01  0.40250836027E+01  0.51100000000E-03 0.  1.
         12    1    3    3    0    0  0.15663091139E+02  0.73685658804E+01  0.17004435362E+02  0.24264768887E+02  0.00000000000E+00 0. -1.
</event>
<event>
 7    1  0.4374874E-012  0.5052886E+02  0.7816164E-02  0.1300439E+00
        -11   -1    0    0    0    0  0.00000000000E+00  0.00000000000E+00  0.45593999997E+02  0.45594000000E+02  0.51100000000E-03 0. -1.
         11   -1    0    0    0    0 -0.00000000000E+00 -0.00000000000E+00 -0.45593999997E+02  0.45594000000E+02  0.51100000000E-03 0.  1.
    9900012    2    1    2    0    0  0.11854052806E+02 -0.24707319699E+02 -0.30036569244E+02  0.50528859496E+02  0.29999998923E+02 0.  0.
         12    1    1    2    0    0 -0.11854052806E+02  0.24707319699E+02  0.30036569244E+02  0.40659140504E+02  0.00000000000E+00 0. -1.
         11    1    3    3    0    0  0.49930586869E+01 -0.15359392023E+01 -0.10143125019E+02  0.11409326435E+02  0.51100000000E-03 0. -1.
        -11    1    3    3    0    0  0.10237159356E+02 -0.68355051156E+00 -0.99785011228E+01  0.14312133240E+02  0.51100000000E-03 0.  1.
         12    1    3    3    0    0 -0.33761652366E+01 -0.22487829985E+02 -0.99149431018E+01  0.24807399820E+02  0.00000000000E+00 0. -1.
</event>
<event>
 7    1  0.4374874E-012  0.5052886E+02  0.7816164E-02  0.1300439E+00
        -11   -1    0    0    0    0  0.00000000000E+00  0.00000000000E+00  0.45593999997E+02  0.45594000000E+02  0.51100000000E-03 0. -1.
         11   -1    0    0    0    0 -0.00000000000E+00 -0.00000000000E+00 -0.45593999997E+02  0.45594000000E+02  0.51100000000E-03 0.  1.
    9900012    2    1    2    0    0  0.93573743539E+01  0.10150485408E+02 -0.38243599662E+02  0.50528859282E+02  0.29999998274E+02 0.  0.
         12    1    1    2    0    0 -0.93573743539E+01 -0.10150485408E+02  0.38243599662E+02  0.40659140718E+02  0.00000000000E+00 0. -1.
         11    1    3    3    0    0 -0.41063960766E+01 -0.47650874519E+01 -0.42136148497E+01  0.75712018547E+01  0.51100000000E-03 0. -1.
        -11    1    3    3    0    0  0.10568276660E+02  0.15174685985E+02 -0.35249143924E+02  0.39805297561E+02  0.51100000000E-03 0.  1.
         12    1    3    3    0    0  0.28954937701E+01 -0.25911312560E+00  0.12191591119E+01  0.31523598660E+01  0.00000000000E+00 0. -1.
</event>
<event>
 7    1  0.4374874E-012  0.5052886E+02  0.7816164E-02  0.1300439E+00
        -11   -1    0    0    0    0  0.00000000000E+00  0.00000000000E+00  0.45593999997E+02  0.45594000000E+02  0.51100000000E-03 0.  1.
         11   -1    0    0    0    0 -0.00000000000E+00 -0.00000000000E+00 -0.45593999997E+02  0.45594000000E+02  0.51100000000E-03 0. -1.
    9900012    2    1    2    0    0  0.37882223996E+02 -0.57741203344E+01 -0.13592727639E+02  0.50528860742E+02  0.30000002711E+02 0.  0.
         12    1    1    2    0    0 -0.37882223996E+02  0.57741203344E+01  0.13592727639E+02  0.40659139258E+02  0.00000000000E+00 0. -1.
         11    1    3    3    0    0  0.69389340735E+01 -0.85980019886E+01 -0.14414110084E+01  0.11142356583E+02  0.51100000000E-03 0. -1.
        -11    1    3    3    0    0  0.29082952664E+02  0.40783487751E+01 -0.24954312354E+01  0.29473347989E+02  0.51100000000E-03 0.  1.
         12    1    3    3    0    0  0.18603372587E+01 -0.12544671209E+01 -0.96558853952E+01  0.99131561694E+01  0.00000000000E+00 0. -1.
</event>
<event>
 7    1  0.4374874E-012  0.5052886E+02  0.7816164E-02  0.1300439E+00
        -11   -1    0    0    0    0  0.00000000000E+00  0.00000000000E+00  0.45593999997E+02  0.45594000000E+02  0.51100000000E-03 0. -1.
         11   -1    0    0    0    0 -0.00000000000E+00 -0.00000000000E+00 -0.45593999997E+02  0.45594000000E+02  0.51100000000E-03 0.  1.
    9900012    2    1    2    0    0  0.34348298105E+02 -0.99087049647E+01 -0.19369512589E+02  0.50528855460E+02  0.29999986656E+02 0.  0.
         12    1    1    2    0    0 -0.34348298105E+02  0.99087049647E+01  0.19369512589E+02  0.40659144540E+02  0.00000000000E+00 0. -1.
         11    1    3    3    0    0  0.17428814590E+02 -0.88734388612E+01 -0.13481618244E+01  0.19604056616E+02  0.51100000000E-03 0. -1.
        -11    1    3    3    0    0  0.16464303646E+02 -0.78749897885E+01 -0.13713930577E+02  0.22828943270E+02  0.51100000000E-03 0.  1.
         12    1    3    3    0    0  0.45517986940E+00  0.68397236851E+01 -0.43074201874E+01  0.80958555738E+01  0.00000000000E+00 0. -1.
</event>
<event>
 7    1  0.4374874E-012  0.5052886E+02  0.7816164E-02  0.1300439E+00
        -11   -1    0    0    0    0  0.00000000000E+00  0.00000000000E+00  0.45593999997E+02  0.45594000000E+02  0.51100000000E-03 0. -1.
         11   -1    0    0    0    0 -0.00000000000E+00 -0.00000000000E+00 -0.45593999997E+02  0.45594000000E+02  0.51100000000E-03 0.  1.
    9900012    2    1    2    0    0 -0.12688851686E+02  0.28281680985E+02  0.26311687234E+02  0.50528864230E+02  0.30000013314E+02 0.  0.
        -12    1    1    2    0    0  0.12688851686E+02 -0.28281680985E+02 -0.26311687234E+02  0.40659135770E+02  0.00000000000E+00 0.  1.
         11    1    3    3    0    0 -0.12041086918E+02  0.31215759660E+01  0.91428797178E+01  0.15437754386E+02  0.51100000000E-03 0. -1.
        -11    1    3    3    0    0 -0.45518411465E+01  0.23637195622E+02  0.86162810779E+01  0.25567099456E+02  0.51100000000E-03 0.  1.
        -12    1    3    3    0    0  0.39040763787E+01  0.15229093963E+01  0.85525264386E+01  0.95240103886E+01  0.00000000000E+00 0.  1.
</event>
<event>
 7    1  0.4374874E-012  0.5052886E+02  0.7816164E-02  0.1300439E+00
        -11   -1    0    0    0    0  0.00000000000E+00  0.00000000000E+00  0.45593999997E+02  0.45594000000E+02  0.51100000000E-03 0. -1.
         11   -1    0    0    0    0 -0.00000000000E+00 -0.00000000000E+00 -0.45593999997E+02  0.45594000000E+02  0.51100000000E-03 0.  1.
    9900012    2    1    2    0    0 -0.23727543077E+02 -0.20444204579E+02 -0.25926899154E+02  0.50528857103E+02  0.29999991651E+02 0.  0.
         12    1    1    2    0    0  0.23727543077E+02  0.20444204579E+02  0.25926899154E+02  0.40659142897E+02  0.00000000000E+00 0. -1.
         11    1    3    3    0    0 -0.57363614057E+01 -0.59871034380E+01 -0.78993047649E+00  0.83291800421E+01  0.51100000000E-03 0. -1.
        -11    1    3    3    0    0 -0.22051325534E+02 -0.17139415052E+02 -0.24751403882E+02  0.37318259612E+02  0.51100000000E-03 0.  1.
        -12    1    3    3    0    0  0.40601438620E+01  0.26823139110E+01 -0.38556479555E+00  0.48814174487E+01  0.00000000000E+00 0.  1.
</event>
<event>
 7    1  0.4374874E-012  0.5052886E+02  0.7816164E-02  0.1300439E+00
        -11   -1    0    0    0    0  0.00000000000E+00  0.00000000000E+00  0.45593999997E+02  0.45594000000E+02  0.51100000000E-03 0. -1.
         11   -1    0    0    0    0 -0.00000000000E+00 -0.00000000000E+00 -0.45593999997E+02  0.45594000000E+02  0.51100000000E-03 0.  1.
    9900012    2    1    2    0    0  0.16145593081E+02  0.18580616082E+02 -0.32361179341E+02  0.50528863287E+02  0.30000010446E+02 0.  0.
         12    1    1    2    0    0 -0.16145593081E+02 -0.18580616082E+02  0.32361179341E+02  0.40659136713E+02  0.00000000000E+00 0. -1.
         11    1    3    3    0    0  0.56955567921E+01 -0.41077805276E+01 -0.52453617585E+01  0.87651040082E+01  0.51100000000E-03 0. -1.
        -11    1    3    3    0    0 -0.25237562422E+01  0.21460875031E+01 -0.13524641632E+02  0.13924473731E+02  0.51100000000E-03 0.  1.
         12    1    3    3    0    0  0.12973792531E+02  0.20542309107E+02 -0.13591175951E+02  0.27839285547E+02  0.00000000000E+00 0. -1.
</event>
<event>
 7    1  0.4374874E-012  0.5052888E+02  0.7816164E-02  0.1300439E+00
        -11   -1    0    0    0    0  0.00000000000E+00  0.00000000000E+00  0.45593999997E+02  0.45594000000E+02  0.51100000000E-03 0. -1.
         11   -1    0    0    0    0 -0.00000000000E+00 -0.00000000000E+00 -0.45593999997E+02  0.45594000000E+02  0.51100000000E-03 0.  1.
    9900012    2    1    2    0    0  0.29442491856E+02 -0.21634424065E+02 -0.17839706666E+02  0.50528883369E+02  0.30000071487E+02 0.  0.
         12    1    1    2    0    0 -0.29442491856E+02  0.21634424065E+02  0.17839706666E+02  0.40659116631E+02  0.00000000000E+00 0. -1.
         11    1    3    3    0    0  0.96261176029E+01 -0.12559316362E+00 -0.95507040231E+01  0.13560747079E+02  0.51100000000E-03 0. -1.
        -11    1    3    3    0    0  0.81183420516E+01 -0.12285175611E+02 -0.14648558435E+02  0.20770490653E+02  0.51100000000E-03 0.  1.
        -12    1    3    3    0    0  0.11698032202E+02 -0.92236552898E+01  0.63595557923E+01  0.16197645637E+02  0.00000000000E+00 0.  1.
</event>
<event>
 7    1  0.4374874E-012  0.5052887E+02  0.7816164E-02  0.1300439E+00
        -11   -1    0    0    0    0  0.00000000000E+00  0.00000000000E+00  0.45593999997E+02  0.45594000000E+02  0.51100000000E-03 0.  1.
         11   -1    0    0    0    0 -0.00000000000E+00 -0.00000000000E+00 -0.45593999997E+02  0.45594000000E+02  0.51100000000E-03 0. -1.
    9900012    2    1    2    0    0  0.64204976232E+01 -0.38959604157E+02  0.97000819724E+01  0.50528866511E+02  0.30000020246E+02 0.  0.
        -12    1    1    2    0    0 -0.64204976232E+01  0.38959604157E+02 -0.97000819724E+01  0.40659133489E+02  0.00000000000E+00 0.  1.
         11    1    3    3    0    0  0.48435857242E+00 -0.16131610802E+01 -0.66368939200E+01  0.68472807058E+01  0.51100000000E-03 0. -1.
        -11    1    3    3    0    0 -0.13479796563E+01 -0.52956020009E+01  0.81445140366E+01  0.98078315065E+01  0.51100000000E-03 0.  1.
         12    1    3    3    0    0  0.72841187071E+01 -0.32050841076E+02  0.81924618558E+01  0.33873754299E+02  0.00000000000E+00 0. -1.
</event>
<event>
 7    1  0.4374874E-012  0.5052886E+02  0.7816164E-02  0.1300439E+00
        -11   -1    0    0    0    0  0.00000000000E+00  0.00000000000E+00  0.45593999997E+02  0.45594000000E+02  0.51100000000E-03 0. -1.
         11   -1    0    0    0    0 -0.00000000000E+00 -0.00000000000E+00 -0.45593999997E+02  0.45594000000E+02  0.51100000000E-03 0.  1.
    9900012    2    1    2    0    0  0.22685318136E+01  0.74802753100E+01  0.39900690512E+02  0.50528857625E+02  0.29999993238E+02 0.  0.
        -12    1    1    2    0    0 -0.22685318136E+01 -0.74802753100E+01 -0.39900690512E+02  0.40659142375E+02  0.00000000000E+00 0.  1.
         11    1    3    3    0    0  0.52165535162E+01 -0.57559341479E+01  0.18809424598E+02  0.20350372539E+02  0.51100000000E-03 0. -1.
        -11    1    3    3    0    0  0.70450392738E+01  0.51071466871E+01  0.83375407802E+01  0.12051145679E+02  0.51100000000E-03 0.  1.
        -12    1    3    3    0    0 -0.99930609764E+01  0.81290627708E+01  0.12753725134E+02  0.18127339408E+02  0.00000000000E+00 0.  1.
</event>
<event>
 7    1  0.4374874E-012  0.5052887E+02  0.7816164E-02  0.1300439E+00
        -11   -1    0    0    0    0  0.00000000000E+00  0.00000000000E+00  0.45593999997E+02  0.45594000000E+02  0.51100000000E-03 0. -1.
         11   -1    0    0    0    0 -0.00000000000E+00 -0.00000000000E+00 -0.45593999997E+02  0.45594000000E+02  0.51100000000E-03 0.  1.
    9900012    2    1    2    0    0 -0.23453392550E+02 -0.24185678627E+02 -0.22763050980E+02  0.50528866184E+02  0.30000019252E+02 0.  0.
         12    1    1    2    0    0  0.23453392550E+02  0.24185678627E+02  0.22763050980E+02  0.40659133816E+02  0.00000000000E+00 0. -1.
         11    1    3    3    0    0 -0.98695969308E+00 -0.17162537391E+02 -0.64055808104E+01  0.18345523838E+02  0.51100000000E-03 0. -1.
        -11    1    3    3    0    0 -0.10689445611E+00  0.24593330964E+01  0.63468811068E+00  0.25421595077E+01  0.51100000000E-03 0.  1.
        -12    1    3    3    0    0 -0.22359538401E+02 -0.94824743330E+01 -0.16992158280E+02  0.29641182838E+02  0.00000000000E+00 0.  1.
</event>
<event>
 7    1  0.4374874E-012  0.5052886E+02  0.7816164E-02  0.1300439E+00
        -11   -1    0    0    0    0  0.00000000000E+00  0.00000000000E+00  0.45593999997E+02  0.45594000000E+02  0.51100000000E-03 0. -1.
         11   -1    0    0    0    0 -0.00000000000E+00 -0.00000000000E+00 -0.45593999997E+02  0.45594000000E+02  0.51100000000E-03 0.  1.
    9900012    2    1    2    0    0  0.16627999598E+02  0.17789015034E+02 -0.32561119263E+02  0.50528856943E+02  0.29999991163E+02 0.  0.
         12    1    1    2    0    0 -0.16627999598E+02 -0.17789015034E+02  0.32561119263E+02  0.40659143057E+02  0.00000000000E+00 0. -1.
         11    1    3    3    0    0  0.12416503511E+02  0.67537389925E+01 -0.70237554147E+01  0.15783399197E+02  0.51100000000E-03 0. -1.
        -11    1    3    3    0    0  0.66329352534E+01 -0.33915550164E+01 -0.14898611036E+02  0.16657343322E+02  0.51100000000E-03 0.  1.
        -12    1    3    3    0    0 -0.24214391662E+01  0.14426831057E+02 -0.10638752813E+02  0.18088114424E+02  0.00000000000E+00 0.  1.
</event>
<event>
 7    1  0.4374874E-012  0.5052886E+02  0.7816164E-02  0.1300439E+00
        -11   -1    0    0    0    0  0.00000000000E+00  0.00000000000E+00  0.45593999997E+02  0.45594000000E+02  0.51100000000E-03 0. -1.
         11   -1    0    0    0    0 -0.00000000000E+00 -0.00000000000E+00 -0.45593999997E+02  0.45594000000E+02  0.51100000000E-03 0.  1.
    9900012    2    1    2    0    0 -0.29971143402E+02  0.12697540186E+01  0.27446018024E+02  0.50528860591E+02  0.30000002252E+02 0.  0.
        -12    1    1    2    0    0  0.29971143402E+02 -0.12697540186E+01 -0.27446018024E+02  0.40659139409E+02  0.00000000000E+00 0.  1.
         11    1    3    3    0    0 -0.10787956696E+02 -0.10819829348E+02  0.84425552011E+00  0.15302335914E+02  0.51100000000E-03 0. -1.
        -11    1    3    3    0    0 -0.89986701831E+00  0.12559780781E+01  0.35585091703E+01  0.38794625091E+01  0.51100000000E-03 0.  1.
         12    1    3    3    0    0 -0.18283319688E+02  0.10833605288E+02  0.23043253334E+02  0.31347062168E+02  0.00000000000E+00 0. -1.
</event>
<event>
 7    1  0.4374874E-012  0.5052885E+02  0.7816164E-02  0.1300439E+00
        -11   -1    0    0    0    0  0.00000000000E+00  0.00000000000E+00  0.45593999997E+02  0.45594000000E+02  0.51100000000E-03 0. -1.
         11   -1    0    0    0    0 -0.00000000000E+00 -0.00000000000E+00 -0.45593999997E+02  0.45594000000E+02  0.51100000000E-03 0.  1.
    9900012    2    1    2    0    0 -0.16944086388E+01 -0.12947973295E+02 -0.38505130889E+02  0.50528854192E+02  0.29999982801E+02 0.  0.
         12    1    1    2    0    0  0.16944086388E+01  0.12947973295E+02  0.38505130889E+02  0.40659145808E+02  0.00000000000E+00 0. -1.
         11    1    3    3    0    0 -0.10350582502E+02 -0.10832483303E+02 -0.10188334486E+02  0.18118482621E+02  0.51100000000E-03 0. -1.
        -11    1    3    3    0    0 -0.22723331510E+01  0.26621057577E+01 -0.95810184122E+01  0.10200304853E+02  0.51100000000E-03 0.  1.
        -12    1    3    3    0    0  0.10928507014E+02 -0.47775957500E+01 -0.18735777990E+02  0.22210066717E+02  0.00000000000E+00 0.  1.
</event>
<event>
 7    1  0.4374874E-012  0.5052888E+02  0.7816164E-02  0.1300439E+00
        -11   -1    0    0    0    0  0.00000000000E+00  0.00000000000E+00  0.45593999997E+02  0.45594000000E+02  0.51100000000E-03 0. -1.
         11   -1    0    0    0    0 -0.00000000000E+00 -0.00000000000E+00 -0.45593999997E+02  0.45594000000E+02  0.51100000000E-03 0.  1.
    9900012    2    1    2    0    0 -0.31895685146E+00 -0.38500953186E+02 -0.13066706770E+02  0.50528881029E+02  0.30000064375E+02 0.  0.
         12    1    1    2    0    0  0.31895685146E+00  0.38500953186E+02  0.13066706770E+02  0.40659118971E+02  0.00000000000E+00 0. -1.
         11    1    3    3    0    0 -0.32258700712E-01  0.15399176681E+01 -0.32521773595E+01  0.35984781348E+01  0.51100000000E-03 0. -1.
        -11    1    3    3    0    0 -0.79766274527E+01 -0.17164806540E+02  0.36767157579E+01  0.19281478369E+02  0.51100000000E-03 0.  1.
        -12    1    3    3    0    0  0.76899293019E+01 -0.22876064315E+02 -0.13491245168E+02  0.27648924525E+02  0.00000000000E+00 0.  1.
</event>
<event>
 7    1  0.4374874E-012  0.5052888E+02  0.7816164E-02  0.1300439E+00
        -11   -1    0    0    0    0  0.00000000000E+00  0.00000000000E+00  0.45593999997E+02  0.45594000000E+02  0.51100000000E-03 0. -1.
         11   -1    0    0    0    0 -0.00000000000E+00 -0.00000000000E+00 -0.45593999997E+02  0.45594000000E+02  0.51100000000E-03 0.  1.
    9900012    2    1    2    0    0  0.33755663187E+02 -0.22113715253E+02 -0.49701987549E+01  0.50528879557E+02  0.30000059902E+02 0.  0.
         12    1    1    2    0    0 -0.33755663187E+02  0.22113715253E+02  0.49701987549E+01  0.40659120443E+02  0.00000000000E+00 0. -1.
         11    1    3    3    0    0  0.26767306841E+02 -0.27792854221E+01 -0.19257751660E+01  0.26980025079E+02  0.51100000000E-03 0.  1.
        -11    1    3    3    0    0  0.95793657782E+01 -0.11345739011E+02 -0.30074687093E+01  0.15150409589E+02  0.51100000000E-03 0. -1.
         12    1    3    3    0    0 -0.25910094323E+01 -0.79886908204E+01 -0.36954879620E-01  0.83984448897E+01  0.00000000000E+00 0. -1.
</event>
<event>
 7    1  0.6778730E-012  0.5052886E+02  0.7816164E-02  0.1300439E+00
        -11   -1    0    0    0    0  0.00000000000E+00  0.00000000000E+00  0.45593999997E+02  0.45594000000E+02  0.51100000000E-03 0. -1.
         11   -1    0    0    0    0 -0.00000000000E+00 -0.00000000000E+00 -0.45593999997E+02  0.45594000000E+02  0.51100000000E-03 0.  1.
    9900012    2    1    2    0    0  0.86470954527E+01 -0.32581473659E+02 -0.22734134461E+02  0.50528861357E+02  0.30000004580E+02 0.  0.
         12    1    1    2    0    0 -0.86470954527E+01  0.32581473659E+02  0.22734134461E+02  0.40659138643E+02  0.00000000000E+00 0. -1.
         11    1    3    3    0    0 -0.63078221385E+01 -0.45488790300E+01 -0.70614569771E+01  0.10504527379E+02  0.51100000000E-03 0. -1.
        -11    1    3    3    0    0  0.43859099090E+01 -0.51772590928E+01 -0.13048437376E+02  0.14707206929E+02  0.51100000000E-03 0.  1.
         12    1    3    3    0    0  0.10569007682E+02 -0.22855335536E+02 -0.26242401074E+01  0.25317127048E+02  0.00000000000E+00 0. -1.
</event>
<event>
 7    1  0.4374874E-012  0.5052885E+02  0.7816164E-02  0.1300439E+00
        -11   -1    0    0    0    0  0.00000000000E+00  0.00000000000E+00  0.45593999997E+02  0.45594000000E+02  0.51100000000E-03 0. -1.
         11   -1    0    0    0    0 -0.00000000000E+00 -0.00000000000E+00 -0.45593999997E+02  0.45594000000E+02  0.51100000000E-03 0.  1.
    9900012    2    1    2    0    0 -0.37768941575E+02  0.90039862581E+01  0.12066565512E+02  0.50528847039E+02  0.29999961059E+02 0.  0.
        -12    1    1    2    0    0  0.37768941575E+02 -0.90039862581E+01 -0.12066565512E+02  0.40659152961E+02  0.00000000000E+00 0.  1.
         11    1    3    3    0    0 -0.13077018215E+02  0.77346074840E+01 -0.84425135175E+00  0.15216613254E+02  0.51100000000E-03 0. -1.
        -11    1    3    3    0    0  0.13420380617E+01  0.29971767776E+01 -0.32509791720E+01  0.46209307107E+01  0.51100000000E-03 0.  1.
        -12    1    3    3    0    0 -0.26033961422E+02 -0.17277980035E+01  0.16161796036E+02  0.30691303074E+02  0.00000000000E+00 0.  1.
</event>
<event>
 7    1  0.4374874E-012  0.5052886E+02  0.7816164E-02  0.1300439E+00
        -11   -1    0    0    0    0  0.00000000000E+00  0.00000000000E+00  0.45593999997E+02  0.45594000000E+02  0.51100000000E-03 0. -1.
         11   -1    0    0    0    0 -0.00000000000E+00 -0.00000000000E+00 -0.45593999997E+02  0.45594000000E+02  0.51100000000E-03 0.  1.
    9900012    2    1    2    0    0  0.29205111477E+02 -0.52365595168E+01 -0.27799385263E+02  0.50528856957E+02  0.29999991208E+02 0.  0.
         12    1    1    2    0    0 -0.29205111477E+02  0.52365595168E+01  0.27799385263E+02  0.40659143043E+02  0.00000000000E+00 0. -1.
         11    1    3    3    0    0  0.81301277477E+01 -0.87503806322E+00  0.30022120714E+01  0.87107948196E+01  0.51100000000E-03 0. -1.
        -11    1    3    3    0    0  0.43715253345E+01  0.59686276615E+01 -0.14563205179E+02  0.16334677691E+02  0.51100000000E-03 0.  1.
        -12    1    3    3    0    0  0.16703458395E+02 -0.10330149115E+02 -0.16238392155E+02  0.25483384447E+02  0.00000000000E+00 0.  1.
</event>
<event>
 7    1  0.4374874E-012  0.5052886E+02  0.7816164E-02  0.1300439E+00
        -11   -1    0    0    0    0  0.00000000000E+00  0.00000000000E+00  0.45593999997E+02  0.45594000000E+02  0.51100000000E-03 0. -1.
         11   -1    0    0    0    0 -0.00000000000E+00 -0.00000000000E+00 -0.45593999997E+02  0.45594000000E+02  0.51100000000E-03 0.  1.
    9900012    2    1    2    0    0 -0.25533867584E+02 -0.17317164088E+02 -0.26482130897E+02  0.50528858068E+02  0.29999994583E+02 0.  0.
         12    1    1    2    0    0  0.25533867584E+02  0.17317164088E+02  0.26482130897E+02  0.40659141932E+02  0.00000000000E+00 0. -1.
         11    1    3    3    0    0 -0.35129573644E+01  0.43284015918E+01 -0.14992566580E+02  0.15995405050E+02  0.51100000000E-03 0. -1.
        -11    1    3    3    0    0 -0.43424072469E+00 -0.77596179036E+00 -0.32907643772E+01  0.34087845567E+01  0.51100000000E-03 0.  1.
        -12    1    3    3    0    0 -0.21586669495E+02 -0.20869603889E+02 -0.81987999391E+01  0.31124668461E+02  0.00000000000E+00 0.  1.
</event>
<event>
 7    1  0.5131060E-012  0.5052886E+02  0.7816164E-02  0.1300439E+00
        -11   -1    0    0    0    0  0.00000000000E+00  0.00000000000E+00  0.45593999997E+02  0.45594000000E+02  0.51100000000E-03 0. -1.
         11   -1    0    0    0    0 -0.00000000000E+00 -0.00000000000E+00 -0.45593999997E+02  0.45594000000E+02  0.51100000000E-03 0.  1.
    9900012    2    1    2    0    0  0.55273286545E+01 -0.11138776702E+02 -0.38711005352E+02  0.50528860267E+02  0.30000001267E+02 0.  0.
         12    1    1    2    0    0 -0.55273286545E+01  0.11138776702E+02  0.38711005352E+02  0.40659139733E+02  0.00000000000E+00 0. -1.
         11    1    3    3    0    0  0.17559518831E+01  0.42990171654E+01  0.53550206163E+00  0.46745778765E+01  0.51100000000E-03 0. -1.
        -11    1    3    3    0    0  0.62756117918E+01 -0.91838542775E-01 -0.20812545997E+02  0.21738302805E+02  0.51100000000E-03 0.  1.
        -12    1    3    3    0    0 -0.25042350204E+01 -0.15345955325E+02 -0.18433961417E+02  0.24115979586E+02  0.00000000000E+00 0.  1.
</event>
<event>
 7    1  0.4374874E-012  0.5052886E+02  0.7816164E-02  0.1300439E+00
        -11   -1    0    0    0    0  0.00000000000E+00  0.00000000000E+00  0.45593999997E+02  0.45594000000E+02  0.51100000000E-03 0.  1.
         11   -1    0    0    0    0 -0.00000000000E+00 -0.00000000000E+00 -0.45593999997E+02  0.45594000000E+02  0.51100000000E-03 0. -1.
    9900012    2    1    2    0    0  0.17024795819E+02 -0.17187824520E+02  0.32678744388E+02  0.50528864259E+02  0.30000013401E+02 0.  0.
        -12    1    1    2    0    0 -0.17024795819E+02  0.17187824520E+02 -0.32678744388E+02  0.40659135741E+02  0.00000000000E+00 0.  1.
         11    1    3    3    0    0 -0.59013445145E+01 -0.79545531622E+01  0.14642654699E+02  0.17677899196E+02  0.51100000000E-03 0. -1.
        -11    1    3    3    0    0  0.80557131962E+01 -0.96407396275E+01  0.88447310792E+01  0.15364492956E+02  0.51100000000E-03 0.  1.
        -12    1    3    3    0    0  0.14870427138E+02  0.40746826928E+00  0.91913586096E+01  0.17486472107E+02  0.00000000000E+00 0.  1.
</event>
<event>
 7    1  0.4374874E-012  0.5052888E+02  0.7816164E-02  0.1300439E+00
        -11   -1    0    0    0    0  0.00000000000E+00  0.00000000000E+00  0.45593999997E+02  0.45594000000E+02  0.51100000000E-03 0. -1.
         11   -1    0    0    0    0 -0.00000000000E+00 -0.00000000000E+00 -0.45593999997E+02  0.45594000000E+02  0.51100000000E-03 0.  1.
    9900012    2    1    2    0    0 -0.16594323481E+02 -0.15531842869E+02 -0.33712822000E+02  0.50528879475E+02  0.30000059651E+02 0.  0.
         12    1    1    2    0    0  0.16594323481E+02  0.15531842869E+02  0.33712822000E+02  0.40659120525E+02  0.00000000000E+00 0. -1.
         11    1    3    3    0    0  0.10747094321E+01 -0.31869959816E+01 -0.33075536465E+01  0.47171872060E+01  0.51100000000E-03 0. -1.
        -11    1    3    3    0    0 -0.22204857033E+01 -0.14856711179E+02 -0.25162806695E+02  0.29305618315E+02  0.51100000000E-03 0.  1.
        -12    1    3    3    0    0 -0.15448547210E+02  0.25118642922E+01 -0.52424616588E+01  0.16506073954E+02  0.00000000000E+00 0.  1.
</event>
<event>
 7    1  0.4374874E-012  0.5052886E+02  0.7816164E-02  0.1300439E+00
        -11   -1    0    0    0    0  0.00000000000E+00  0.00000000000E+00  0.45593999997E+02  0.45594000000E+02  0.51100000000E-03 0. -1.
         11   -1    0    0    0    0 -0.00000000000E+00 -0.00000000000E+00 -0.45593999997E+02  0.45594000000E+02  0.51100000000E-03 0.  1.
    9900012    2    1    2    0    0  0.19029289777E+02  0.31113761447E+01  0.35796245495E+02  0.50528859300E+02  0.29999998329E+02 0.  0.
        -12    1    1    2    0    0 -0.19029289777E+02 -0.31113761447E+01 -0.35796245495E+02  0.40659140700E+02  0.00000000000E+00 0.  1.
         11    1    3    3    0    0  0.56076097092E+01 -0.55896858508E+01  0.82770815052E+00  0.79608401319E+01  0.51100000000E-03 0. -1.
        -11    1    3    3    0    0  0.16048799236E+02  0.68993796558E+01  0.17197265601E+02  0.24513493039E+02  0.51100000000E-03 0.  1.
         12    1    3    3    0    0 -0.26271191685E+01  0.18016823397E+01  0.17771271744E+02  0.18054526130E+02  0.00000000000E+00 0. -1.
</event>
<event>
 7    1  0.4374874E-012  0.5052885E+02  0.7816164E-02  0.1300439E+00
        -11   -1    0    0    0    0  0.00000000000E+00  0.00000000000E+00  0.45593999997E+02  0.45594000000E+02  0.51100000000E-03 0. -1.
         11   -1    0    0    0    0 -0.00000000000E+00 -0.00000000000E+00 -0.45593999997E+02  0.45594000000E+02  0.51100000000E-03 0.  1.
    9900012    2    1    2    0    0 -0.34267222756E+02  0.12060773620E+02  0.18260927047E+02  0.50528852538E+02  0.29999977775E+02 0.  0.
        -12    1    1    2    0    0  0.34267222756E+02 -0.12060773620E+02 -0.18260927047E+02  0.40659147462E+02  0.00000000000E+00 0.  1.
         11    1    3    3    0    0 -0.98994416428E+00  0.14369646103E+01 -0.21963514075E+01  0.28051410849E+01  0.51100000000E-03 0. -1.
        -11    1    3    3    0    0 -0.16987501651E+02 -0.62903461240E+01  0.15229330570E+02  0.23665928602E+02  0.51100000000E-03 0.  1.
         12    1    3    3    0    0 -0.16289776940E+02  0.16914155134E+02  0.52279478842E+01  0.24057782852E+02  0.00000000000E+00 0. -1.
</event>
<event>
 7    1  0.4374874E-012  0.5052882E+02  0.7816164E-02  0.1300439E+00
        -11   -1    0    0    0    0  0.00000000000E+00  0.00000000000E+00  0.45593999997E+02  0.45594000000E+02  0.51100000000E-03 0. -1.
         11   -1    0    0    0    0 -0.00000000000E+00 -0.00000000000E+00 -0.45593999997E+02  0.45594000000E+02  0.51100000000E-03 0.  1.
    9900012    2    1    2    0    0  0.19775387103E+02  0.14723989506E+02  0.32331206818E+02  0.50528822237E+02  0.29999885672E+02 0.  0.
        -12    1    1    2    0    0 -0.19775387103E+02 -0.14723989506E+02 -0.32331206818E+02  0.40659177763E+02  0.00000000000E+00 0.  1.
         11    1    3    3    0    0 -0.37071345168E+00 -0.75340600134E+00  0.41995608994E+01  0.42826815286E+01  0.51100000000E-03 0. -1.
        -11    1    3    3    0    0  0.17357821265E+02 -0.12697544996E+01  0.61225641176E+01  0.18449716182E+02  0.51100000000E-03 0.  1.
         12    1    3    3    0    0  0.27882792896E+01  0.16747150007E+02  0.22009081801E+02  0.27796424527E+02  0.00000000000E+00 0. -1.
</event>
<event>
 7    1  0.4374874E-012  0.5052887E+02  0.7816164E-02  0.1300439E+00
        -11   -1    0    0    0    0  0.00000000000E+00  0.00000000000E+00  0.45593999997E+02  0.45594000000E+02  0.51100000000E-03 0. -1.
         11   -1    0    0    0    0 -0.00000000000E+00 -0.00000000000E+00 -0.45593999997E+02  0.45594000000E+02  0.51100000000E-03 0.  1.
    9900012    2    1    2    0    0 -0.31554356534E+02  0.20090658892E+02 -0.15932750876E+02  0.50528873823E+02  0.30000042473E+02 0.  0.
         12    1    1    2    0    0  0.31554356534E+02 -0.20090658892E+02  0.15932750876E+02  0.40659126177E+02  0.00000000000E+00 0. -1.
         11    1    3    3    0    0 -0.10667066763E+02  0.17832125673E+02 -0.71536524722E+01  0.21976027014E+02  0.51100000000E-03 0. -1.
        -11    1    3    3    0    0 -0.93984057428E+01  0.44121576366E+01 -0.12533869804E+02  0.16275597010E+02  0.51100000000E-03 0.  1.
         12    1    3    3    0    0 -0.11488884029E+02 -0.21536244184E+01  0.37547714009E+01  0.12277249799E+02  0.00000000000E+00 0. -1.
</event>
<event>
 7    1  0.4374874E-012  0.5052887E+02  0.7816164E-02  0.1300439E+00
        -11   -1    0    0    0    0  0.00000000000E+00  0.00000000000E+00  0.45593999997E+02  0.45594000000E+02  0.51100000000E-03 0. -1.
         11   -1    0    0    0    0 -0.00000000000E+00 -0.00000000000E+00 -0.45593999997E+02  0.45594000000E+02  0.51100000000E-03 0.  1.
    9900012    2    1    2    0    0  0.14781631965E+01 -0.46104496174E+01 -0.40369832702E+02  0.50528873048E+02  0.30000040116E+02 0.  0.
         12    1    1    2    0    0 -0.14781631965E+01  0.46104496174E+01  0.40369832702E+02  0.40659126952E+02  0.00000000000E+00 0. -1.
         11    1    3    3    0    0  0.87449614659E+01 -0.90923014753E+00 -0.39995974260E+01  0.96590802012E+01  0.51100000000E-03 0. -1.
        -11    1    3    3    0    0 -0.12405127860E+01 -0.39799758862E+01 -0.34208292842E+02  0.34461375183E+02  0.51100000000E-03 0.  1.
        -12    1    3    3    0    0 -0.60262854834E+01  0.27875641640E+00 -0.21619424340E+01  0.64084176639E+01  0.00000000000E+00 0.  1.
</event>
<event>
 7    1  0.4374874E-012  0.5052886E+02  0.7816164E-02  0.1300439E+00
        -11   -1    0    0    0    0  0.00000000000E+00  0.00000000000E+00  0.45593999997E+02  0.45594000000E+02  0.51100000000E-03 0.  1.
         11   -1    0    0    0    0 -0.00000000000E+00 -0.00000000000E+00 -0.45593999997E+02  0.45594000000E+02  0.51100000000E-03 0. -1.
    9900012    2    1    2    0    0  0.22149625424E+02 -0.33745809580E+02 -0.48765018750E+01  0.50528857840E+02  0.29999993891E+02 0.  0.
        -12    1    1    2    0    0 -0.22149625424E+02  0.33745809580E+02  0.48765018750E+01  0.40659142160E+02  0.00000000000E+00 0.  1.
         11    1    3    3    0    0  0.15019417205E+00 -0.15910094599E+02  0.23176491291E+01  0.16078717803E+02  0.51100000000E-03 0. -1.
        -11    1    3    3    0    0  0.13944901130E+02 -0.11028270347E+02  0.48628497413E+01  0.18431774799E+02  0.51100000000E-03 0.  1.
         12    1    3    3    0    0  0.80545301219E+01 -0.68074446344E+01 -0.12057000745E+02  0.16018365238E+02  0.00000000000E+00 0. -1.
</event>
<event>
 7    1  0.4374874E-012  0.5052874E+02  0.7816164E-02  0.1300439E+00
        -11   -1    0    0    0    0  0.00000000000E+00  0.00000000000E+00  0.45593999997E+02  0.45594000000E+02  0.51100000000E-03 0. -1.
         11   -1    0    0    0    0 -0.00000000000E+00 -0.00000000000E+00 -0.45593999997E+02  0.45594000000E+02  0.51100000000E-03 0.  1.
    9900012    2    1    2    0    0 -0.11144485908E+02 -0.18059451060E+01 -0.39060398129E+02  0.50528736531E+02  0.29999625157E+02 0.  0.
         12    1    1    2    0    0  0.11144485908E+02  0.18059451060E+01  0.39060398129E+02  0.40659263469E+02  0.00000000000E+00 0. -1.
         11    1    3    3    0    0  0.64184033210E+01 -0.55455200012E+01 -0.15355028048E+02  0.17542108764E+02  0.51100000000E-03 0. -1.
        -11    1    3    3    0    0  0.74514515130E-01  0.10250736243E+01  0.16722997513E+01  0.19628843745E+01  0.51100000000E-03 0.  1.
        -12    1    3    3    0    0 -0.17637403744E+02  0.27145012708E+01 -0.25377669832E+02  0.31023743392E+02  0.00000000000E+00 0.  1.
</event>
<event>
 7    1  0.4374874E-012  0.5052886E+02  0.7816164E-02  0.1300439E+00
        -11   -1    0    0    0    0  0.00000000000E+00  0.00000000000E+00  0.45593999997E+02  0.45594000000E+02  0.51100000000E-03 0. -1.
         11   -1    0    0    0    0 -0.00000000000E+00 -0.00000000000E+00 -0.45593999997E+02  0.45594000000E+02  0.51100000000E-03 0.  1.
    9900012    2    1    2    0    0 -0.26474141636E+01  0.21653284174E+01 -0.40515038398E+02  0.50528858527E+02  0.29999995980E+02 0.  0.
         12    1    1    2    0    0  0.26474141636E+01 -0.21653284174E+01  0.40515038398E+02  0.40659141473E+02  0.00000000000E+00 0. -1.
         11    1    3    3    0    0  0.39765760702E+00 -0.70113828967E+01 -0.41350547956E+01  0.81496196304E+01  0.51100000000E-03 0. -1.
        -11    1    3    3    0    0  0.70205848601E+01  0.41271469043E+01 -0.64115931879E+01  0.10364867622E+02  0.51100000000E-03 0.  1.
        -12    1    3    3    0    0 -0.10065656631E+02  0.50495644098E+01 -0.29968390414E+02  0.32014371275E+02  0.00000000000E+00 0.  1.
</event>
<event>
 7    1  0.4374874E-012  0.5052890E+02  0.7816164E-02  0.1300439E+00
        -11   -1    0    0    0    0  0.00000000000E+00  0.00000000000E+00  0.45593999997E+02  0.45594000000E+02  0.51100000000E-03 0.  1.
         11   -1    0    0    0    0 -0.00000000000E+00 -0.00000000000E+00 -0.45593999997E+02  0.45594000000E+02  0.51100000000E-03 0. -1.
    9900012    2    1    2    0    0 -0.37727416526E+02 -0.96118998999E+01  0.11722442821E+02  0.50528902087E+02  0.30000128383E+02 0.  0.
        -12    1    1    2    0    0  0.37727416526E+02  0.96118998999E+01 -0.11722442821E+02  0.40659097913E+02  0.00000000000E+00 0.  1.
         11    1    3    3    0    0 -0.78202605581E+01 -0.11341553253E+02 -0.20029317576E+01  0.13921172410E+02  0.51100000000E-03 0. -1.
        -11    1    3    3    0    0 -0.79045530325E+01 -0.42934192476E+01  0.10073429860E+02  0.13505161861E+02  0.51100000000E-03 0.  1.
         12    1    3    3    0    0 -0.22002602935E+02  0.60230726004E+01  0.36519447186E+01  0.23102567816E+02  0.00000000000E+00 0. -1.
</event>
<event>
 7    1  0.4374874E-012  0.5052884E+02  0.7816164E-02  0.1300439E+00
        -11   -1    0    0    0    0  0.00000000000E+00  0.00000000000E+00  0.45593999997E+02  0.45594000000E+02  0.51100000000E-03 0.  1.
         11   -1    0    0    0    0 -0.00000000000E+00 -0.00000000000E+00 -0.45593999997E+02  0.45594000000E+02  0.51100000000E-03 0. -1.
    9900012    2    1    2    0    0  0.37846796982E+02  0.39594338834E+01  0.14321674428E+02  0.50528837233E+02  0.29999931255E+02 0.  0.
        -12    1    1    2    0    0 -0.37846796982E+02 -0.39594338834E+01 -0.14321674428E+02  0.40659162767E+02  0.00000000000E+00 0.  1.
         11    1    3    3    0    0  0.33030153265E+02  0.22003651843E+01  0.69644149201E+01  0.33828031381E+02  0.51100000000E-03 0. -1.
        -11    1    3    3    0    0  0.22616474526E+01  0.74306159188E+01  0.70228013868E+01  0.10471334285E+02  0.51100000000E-03 0.  1.
         12    1    3    3    0    0  0.25549962641E+01 -0.56715472197E+01  0.33445812120E+00  0.62294715675E+01  0.00000000000E+00 0. -1.
</event>
<event>
 7    1  0.4374874E-012  0.5052886E+02  0.7816164E-02  0.1300439E+00
        -11   -1    0    0    0    0  0.00000000000E+00  0.00000000000E+00  0.45593999997E+02  0.45594000000E+02  0.51100000000E-03 0. -1.
         11   -1    0    0    0    0 -0.00000000000E+00 -0.00000000000E+00 -0.45593999997E+02  0.45594000000E+02  0.51100000000E-03 0.  1.
    9900012    2    1    2    0    0  0.13118908507E+02  0.14027428273E+02  0.35837005499E+02  0.50528862435E+02  0.30000007858E+02 0.  0.
        -12    1    1    2    0    0 -0.13118908507E+02 -0.14027428273E+02 -0.35837005499E+02  0.40659137565E+02  0.00000000000E+00 0.  1.
         11    1    3    3    0    0 -0.10426821603E+01 -0.19845176644E+01 -0.61896597679E+00  0.23256430486E+01  0.51100000000E-03 0. -1.
        -11    1    3    3    0    0  0.15365426557E+02  0.20809787307E+01  0.10518523261E+02  0.18736758994E+02  0.51100000000E-03 0.  1.
         12    1    3    3    0    0 -0.12038358896E+01  0.13930967207E+02  0.25937448215E+02  0.29466460393E+02  0.00000000000E+00 0. -1.
</event>
<event>
 7    1  0.4374874E-012  0.5052886E+02  0.7816164E-02  0.1300439E+00
        -11   -1    0    0    0    0  0.00000000000E+00  0.00000000000E+00  0.45593999997E+02  0.45594000000E+02  0.51100000000E-03 0. -1.
         11   -1    0    0    0    0 -0.00000000000E+00 -0.00000000000E+00 -0.45593999997E+02  0.45594000000E+02  0.51100000000E-03 0.  1.
    9900012    2    1    2    0    0 -0.15745367414E+02  0.19018828176E+02  0.32303765280E+02  0.50528859927E+02  0.30000000236E+02 0.  0.
        -12    1    1    2    0    0  0.15745367414E+02 -0.19018828176E+02 -0.32303765280E+02  0.40659140073E+02  0.00000000000E+00 0.  1.
         11    1    3    3    0    0 -0.15114118258E+02  0.42413349186E+01  0.77874577410E+01  0.17523412651E+02  0.51100000000E-03 0. -1.
        -11    1    3    3    0    0 -0.37399660496E+01  0.16560497528E+02  0.14362556285E+02  0.22237815714E+02  0.51100000000E-03 0.  1.
        -12    1    3    3    0    0  0.31087168936E+01 -0.17830042701E+01  0.10153751253E+02  0.10767631563E+02  0.00000000000E+00 0.  1.
</event>
<event>
 7    1  0.4374874E-012  0.5052887E+02  0.7816164E-02  0.1300439E+00
        -11   -1    0    0    0    0  0.00000000000E+00  0.00000000000E+00  0.45593999997E+02  0.45594000000E+02  0.51100000000E-03 0.  1.
         11   -1    0    0    0    0 -0.00000000000E+00 -0.00000000000E+00 -0.45593999997E+02  0.45594000000E+02  0.51100000000E-03 0. -1.
    9900012    2    1    2    0    0 -0.11782530082E+02  0.38859899368E+02  0.20604430715E+01  0.50528865483E+02  0.30000017121E+02 0.  0.
         12    1    1    2    0    0  0.11782530082E+02 -0.38859899368E+02 -0.20604430715E+01  0.40659134517E+02  0.00000000000E+00 0. -1.
         11    1    3    3    0    0 -0.78844225213E+01  0.92968108119E+01 -0.13169031289E+01  0.12260874515E+02  0.51100000000E-03 0. -1.
        -11    1    3    3    0    0  0.22250952212E+01  0.23744508432E+02 -0.70310149219E+01  0.24863384736E+02  0.51100000000E-03 0.  1.
         12    1    3    3    0    0 -0.61232027815E+01  0.58185801241E+01  0.10408361122E+02  0.13404606231E+02  0.00000000000E+00 0. -1.
</event>
<event>
 7    1  0.4374874E-012  0.5052886E+02  0.7816164E-02  0.1300439E+00
        -11   -1    0    0    0    0  0.00000000000E+00  0.00000000000E+00  0.45593999997E+02  0.45594000000E+02  0.51100000000E-03 0. -1.
         11   -1    0    0    0    0 -0.00000000000E+00 -0.00000000000E+00 -0.45593999997E+02  0.45594000000E+02  0.51100000000E-03 0.  1.
    9900012    2    1    2    0    0 -0.79695450490E+01  0.33401335177E+02  0.21771607141E+02  0.50528859363E+02  0.29999998520E+02 0.  0.
        -12    1    1    2    0    0  0.79695450490E+01 -0.33401335177E+02 -0.21771607141E+02  0.40659140637E+02  0.00000000000E+00 0.  1.
         11    1    3    3    0    0 -0.57821615709E+01  0.29194813301E+00  0.80714023231E+00  0.58455198024E+01  0.51100000000E-03 0. -1.
        -11    1    3    3    0    0 -0.71500166592E+01  0.10284631447E+02  0.16802238976E+02  0.20957376198E+02  0.51100000000E-03 0.  1.
         12    1    3    3    0    0  0.49626331812E+01  0.22824755596E+02  0.41622279320E+01  0.23725963362E+02  0.00000000000E+00 0. -1.
</event>
<event>
 7    1  0.4374874E-012  0.5052883E+02  0.7816164E-02  0.1300439E+00
        -11   -1    0    0    0    0  0.00000000000E+00  0.00000000000E+00  0.45593999997E+02  0.45594000000E+02  0.51100000000E-03 0.  1.
         11   -1    0    0    0    0 -0.00000000000E+00 -0.00000000000E+00 -0.45593999997E+02  0.45594000000E+02  0.51100000000E-03 0. -1.
    9900012    2    1    2    0    0  0.38977534405E+02 -0.52060642160E+01  0.10335238206E+02  0.50528825860E+02  0.29999896685E+02 0.  0.
         12    1    1    2    0    0 -0.38977534405E+02  0.52060642160E+01 -0.10335238206E+02  0.40659174140E+02  0.00000000000E+00 0. -1.
         11    1    3    3    0    0  0.69496732171E+01 -0.78197740437E+01 -0.40036652016E+01  0.11201614135E+02  0.51100000000E-03 0. -1.
        -11    1    3    3    0    0  0.15352437069E+02  0.11638044551E+01 -0.24842041924E+01  0.15595609494E+02  0.51100000000E-03 0.  1.
         12    1    3    3    0    0  0.16675424119E+02  0.14499053725E+01  0.16823107600E+02  0.23731602231E+02  0.00000000000E+00 0. -1.
</event>
<event>
 7    1  0.4374874E-012  0.5052886E+02  0.7816164E-02  0.1300439E+00
        -11   -1    0    0    0    0  0.00000000000E+00  0.00000000000E+00  0.45593999997E+02  0.45594000000E+02  0.51100000000E-03 0. -1.
         11   -1    0    0    0    0 -0.00000000000E+00 -0.00000000000E+00 -0.45593999997E+02  0.45594000000E+02  0.51100000000E-03 0.  1.
    9900012    2    1    2    0    0  0.34072282291E+02  0.18494646857E+02 -0.12255327325E+02  0.50528862888E+02  0.30000009234E+02 0.  0.
         12    1    1    2    0    0 -0.34072282291E+02 -0.18494646857E+02  0.12255327325E+02  0.40659137112E+02  0.00000000000E+00 0. -1.
         11    1    3    3    0    0  0.12925946070E+02  0.44901444415E+01  0.55576330854E+01  0.14769182939E+02  0.51100000000E-03 0. -1.
        -11    1    3    3    0    0 -0.21059935231E+01 -0.12948038749E+01  0.38861180895E+00  0.25025477404E+01  0.51100000000E-03 0.  1.
        -12    1    3    3    0    0  0.23252329743E+02  0.15299306290E+02 -0.18201572219E+02  0.33257132208E+02  0.00000000000E+00 0.  1.
</event>
<event>
 7    1  0.4374874E-012  0.5052886E+02  0.7816164E-02  0.1300439E+00
        -11   -1    0    0    0    0  0.00000000000E+00  0.00000000000E+00  0.45593999997E+02  0.45594000000E+02  0.51100000000E-03 0.  1.
         11   -1    0    0    0    0 -0.00000000000E+00 -0.00000000000E+00 -0.45593999997E+02  0.45594000000E+02  0.51100000000E-03 0. -1.
    9900012    2    1    2    0    0 -0.30033489102E+02  0.26376151744E+02 -0.74467090278E+01  0.50528864202E+02  0.30000013229E+02 0.  0.
        -12    1    1    2    0    0  0.30033489102E+02 -0.26376151744E+02  0.74467090278E+01  0.40659135798E+02  0.00000000000E+00 0.  1.
         11    1    3    3    0    0 -0.31061105226E+02  0.29373812891E+02 -0.70232779505E+01  0.43323660684E+02  0.51100000000E-03 0. -1.
        -11    1    3    3    0    0  0.23881577239E-01  0.10526594091E+01  0.20854696607E+01  0.23362033576E+01  0.51100000000E-03 0.  1.
        -12    1    3    3    0    0  0.10037345467E+01 -0.40503205562E+01 -0.25089007380E+01  0.48690001604E+01  0.00000000000E+00 0.  1.
</event>
<event>
 7    1  0.4374874E-012  0.5052886E+02  0.7816164E-02  0.1300439E+00
        -11   -1    0    0    0    0  0.00000000000E+00  0.00000000000E+00  0.45593999997E+02  0.45594000000E+02  0.51100000000E-03 0. -1.
         11   -1    0    0    0    0 -0.00000000000E+00 -0.00000000000E+00 -0.45593999997E+02  0.45594000000E+02  0.51100000000E-03 0.  1.
    9900012    2    1    2    0    0 -0.21420747770E+02  0.36985094520E+01  0.34360411892E+02  0.50528864340E+02  0.30000013648E+02 0.  0.
        -12    1    1    2    0    0  0.21420747770E+02 -0.36985094520E+01 -0.34360411892E+02  0.40659135660E+02  0.00000000000E+00 0.  1.
         11    1    3    3    0    0 -0.89558448397E+01 -0.18310841873E+01  0.32154463013E+01  0.96901558951E+01  0.51100000000E-03 0. -1.
        -11    1    3    3    0    0 -0.94610242659E+01  0.12355789062E+02  0.10203326014E+02  0.18608717461E+02  0.51100000000E-03 0.  1.
        -12    1    3    3    0    0 -0.30038786649E+01 -0.68261954232E+01  0.20941639577E+02  0.22229990984E+02  0.00000000000E+00 0.  1.
</event>
<event>
 7    1  0.4374874E-012  0.5052884E+02  0.7816164E-02  0.1300439E+00
        -11   -1    0    0    0    0  0.00000000000E+00  0.00000000000E+00  0.45593999997E+02  0.45594000000E+02  0.51100000000E-03 0. -1.
         11   -1    0    0    0    0 -0.00000000000E+00 -0.00000000000E+00 -0.45593999997E+02  0.45594000000E+02  0.51100000000E-03 0.  1.
    9900012    2    1    2    0    0 -0.24900524145E+02 -0.26080106105E+02  0.18787200160E+02  0.50528844487E+02  0.29999953304E+02 0.  0.
        -12    1    1    2    0    0  0.24900524145E+02  0.26080106105E+02 -0.18787200160E+02  0.40659155513E+02  0.00000000000E+00 0.  1.
         11    1    3    3    0    0 -0.21447425724E+02 -0.14141766493E+02 -0.73739367578E+00  0.25700688307E+02  0.51100000000E-03 0.  1.
        -11    1    3    3    0    0  0.92611512370E+00  0.13636923253E+00  0.63861834047E+01  0.64544267391E+01  0.51100000000E-03 0. -1.
        -12    1    3    3    0    0 -0.43792135448E+01 -0.12074708844E+02  0.13138410431E+02  0.18373729442E+02  0.00000000000E+00 0.  1.
</event>
<event>
 7    1  0.4374874E-012  0.5052887E+02  0.7816164E-02  0.1300439E+00
        -11   -1    0    0    0    0  0.00000000000E+00  0.00000000000E+00  0.45593999997E+02  0.45594000000E+02  0.51100000000E-03 0. -1.
         11   -1    0    0    0    0 -0.00000000000E+00 -0.00000000000E+00 -0.45593999997E+02  0.45594000000E+02  0.51100000000E-03 0.  1.
    9900012    2    1    2    0    0 -0.29212817334E+02 -0.16623361560E+02  0.22878817326E+02  0.50528866606E+02  0.30000020536E+02 0.  0.
        -12    1    1    2    0    0  0.29212817334E+02  0.16623361560E+02 -0.22878817326E+02  0.40659133394E+02  0.00000000000E+00 0.  1.
         11    1    3    3    0    0 -0.35516058002E+01 -0.87018061906E+01  0.19094430932E+00  0.94006273583E+01  0.51100000000E-03 0. -1.
        -11    1    3    3    0    0 -0.14188637617E+02 -0.26430700389E+01 -0.80612880197E+00  0.14455210153E+02  0.51100000000E-03 0.  1.
         12    1    3    3    0    0 -0.11472573916E+02 -0.52784853302E+01  0.23494001818E+02  0.26673029095E+02  0.00000000000E+00 0. -1.
</event>
<event>
 7    1  0.4374874E-012  0.5052885E+02  0.7816164E-02  0.1300439E+00
        -11   -1    0    0    0    0  0.00000000000E+00  0.00000000000E+00  0.45593999997E+02  0.45594000000E+02  0.51100000000E-03 0. -1.
         11   -1    0    0    0    0 -0.00000000000E+00 -0.00000000000E+00 -0.45593999997E+02  0.45594000000E+02  0.51100000000E-03 0.  1.
    9900012    2    1    2    0    0 -0.34271822530E+02  0.19092939447E+02 -0.10680288893E+02  0.50528846946E+02  0.29999960777E+02 0.  0.
         12    1    1    2    0    0  0.34271822530E+02 -0.19092939447E+02  0.10680288893E+02  0.40659153054E+02  0.00000000000E+00 0. -1.
         11    1    3    3    0    0 -0.47848814504E+00  0.74020471669E+01  0.39234593088E+01  0.83912327088E+01  0.51100000000E-03 0. -1.
        -11    1    3    3    0    0 -0.13492079914E+02  0.13196540931E+02 -0.44571583897E+01  0.19392038936E+02  0.51100000000E-03 0.  1.
        -12    1    3    3    0    0 -0.20301254471E+02 -0.15056486504E+01 -0.10146589812E+02  0.22745575301E+02  0.00000000000E+00 0.  1.
</event>
<event>
 7    1  0.4374874E-012  0.5052887E+02  0.7816164E-02  0.1300439E+00
        -11   -1    0    0    0    0  0.00000000000E+00  0.00000000000E+00  0.45593999997E+02  0.45594000000E+02  0.51100000000E-03 0. -1.
         11   -1    0    0    0    0 -0.00000000000E+00 -0.00000000000E+00 -0.45593999997E+02  0.45594000000E+02  0.51100000000E-03 0.  1.
    9900012    2    1    2    0    0  0.27771832729E+01 -0.15886248392E+02 -0.37323976557E+02  0.50528869895E+02  0.30000030532E+02 0.  0.
         12    1    1    2    0    0 -0.27771832729E+01  0.15886248392E+02  0.37323976557E+02  0.40659130105E+02  0.00000000000E+00 0. -1.
         11    1    3    3    0    0  0.60625313847E+01 -0.46821023565E+01  0.10192368106E+01  0.77275619185E+01  0.51100000000E-03 0. -1.
        -11    1    3    3    0    0  0.26009820847E+01 -0.12401012956E+02 -0.21983489267E+02  0.25373687764E+02  0.51100000000E-03 0.  1.
         12    1    3    3    0    0 -0.58863301966E+01  0.11968669204E+01 -0.16359724100E+02  0.17427620212E+02  0.00000000000E+00 0. -1.
</event>
<event>
 7    1  0.4790332E-012  0.5052885E+02  0.7816164E-02  0.1300439E+00
        -11   -1    0    0    0    0  0.00000000000E+00  0.00000000000E+00  0.45593999997E+02  0.45594000000E+02  0.51100000000E-03 0. -1.
         11   -1    0    0    0    0 -0.00000000000E+00 -0.00000000000E+00 -0.45593999997E+02  0.45594000000E+02  0.51100000000E-03 0.  1.
    9900012    2    1    2    0    0  0.13622079584E+02 -0.10678043095E+02 -0.36791092120E+02  0.50528854462E+02  0.29999983623E+02 0.  0.
         12    1    1    2    0    0 -0.13622079584E+02  0.10678043095E+02  0.36791092120E+02  0.40659145538E+02  0.00000000000E+00 0. -1.
         11    1    3    3    0    0  0.70279562421E+01 -0.13631509340E+02 -0.23082593837E+02  0.27713107987E+02  0.51100000000E-03 0. -1.
        -11    1    3    3    0    0  0.65054429972E+01 -0.59557329934E+00 -0.16852005284E+02  0.18073892179E+02  0.51100000000E-03 0.  1.
         12    1    3    3    0    0  0.88680344263E-01  0.35490395445E+01  0.31435070015E+01  0.47418542956E+01  0.00000000000E+00 0. -1.
</event>
<event>
 7    1  0.4374874E-012  0.5052886E+02  0.7816164E-02  0.1300439E+00
        -11   -1    0    0    0    0  0.00000000000E+00  0.00000000000E+00  0.45593999997E+02  0.45594000000E+02  0.51100000000E-03 0.  1.
         11   -1    0    0    0    0 -0.00000000000E+00 -0.00000000000E+00 -0.45593999997E+02  0.45594000000E+02  0.51100000000E-03 0. -1.
    9900012    2    1    2    0    0  0.21536195265E+02 -0.19263507087E+02  0.28605513088E+02  0.50528858460E+02  0.29999995774E+02 0.  0.
        -12    1    1    2    0    0 -0.21536195265E+02  0.19263507087E+02 -0.28605513088E+02  0.40659141540E+02  0.00000000000E+00 0.  1.
         11    1    3    3    0    0  0.76296939277E+01  0.52896892285E+01  0.82214267771E+01  0.12401003995E+02  0.51100000000E-03 0. -1.
        -11    1    3    3    0    0 -0.11683654171E+01 -0.38987619686E+01  0.95038720662E+01  0.10338713999E+02  0.51100000000E-03 0.  1.
         12    1    3    3    0    0  0.15074866754E+02 -0.20654434347E+02  0.10880214245E+02  0.27789140466E+02  0.00000000000E+00 0. -1.
</event>
<event>
 7    1  0.4374874E-012  0.5052886E+02  0.7816164E-02  0.1300439E+00
        -11   -1    0    0    0    0  0.00000000000E+00  0.00000000000E+00  0.45593999997E+02  0.45594000000E+02  0.51100000000E-03 0. -1.
         11   -1    0    0    0    0 -0.00000000000E+00 -0.00000000000E+00 -0.45593999997E+02  0.45594000000E+02  0.51100000000E-03 0.  1.
    9900012    2    1    2    0    0 -0.23160024679E+01 -0.32867445847E+02 -0.23822944216E+02  0.50528861604E+02  0.30000005333E+02 0.  0.
         12    1    1    2    0    0  0.23160024679E+01  0.32867445847E+02  0.23822944216E+02  0.40659138396E+02  0.00000000000E+00 0. -1.
         11    1    3    3    0    0 -0.36308897418E+01 -0.16659416811E+02 -0.16721051106E+01  0.17132293033E+02  0.51100000000E-03 0. -1.
        -11    1    3    3    0    0 -0.68696218001E+01 -0.33803290218E+01 -0.14425795381E+02  0.16331622718E+02  0.51100000000E-03 0.  1.
         12    1    3    3    0    0  0.81845090739E+01 -0.12827700015E+02 -0.77250437248E+01  0.17064945854E+02  0.00000000000E+00 0. -1.
</event>
<event>
 7    1  0.4374874E-012  0.5052886E+02  0.7816164E-02  0.1300439E+00
        -11   -1    0    0    0    0  0.00000000000E+00  0.00000000000E+00  0.45593999997E+02  0.45594000000E+02  0.51100000000E-03 0.  1.
         11   -1    0    0    0    0 -0.00000000000E+00 -0.00000000000E+00 -0.45593999997E+02  0.45594000000E+02  0.51100000000E-03 0. -1.
    9900012    2    1    2    0    0  0.33191234206E+02 -0.16947324591E+02  0.16257183795E+02  0.50528857561E+02  0.29999993043E+02 0.  0.
        -12    1    1    2    0    0 -0.33191234206E+02  0.16947324591E+02 -0.16257183795E+02  0.40659142439E+02  0.00000000000E+00 0.  1.
         11    1    3    3    0    0  0.10483369739E+01 -0.74121142081E+01 -0.71203534644E+00  0.75196703412E+01  0.51100000000E-03 0. -1.
        -11    1    3    3    0    0  0.13982331657E+02  0.76703191297E+00  0.17135104488E+02  0.22129296026E+02  0.51100000000E-03 0.  1.
         12    1    3    3    0    0  0.18160565575E+02 -0.10302242296E+02 -0.16588534711E+00  0.20879891194E+02  0.00000000000E+00 0. -1.
</event>
<event>
 7    1  0.4374874E-012  0.5052888E+02  0.7816164E-02  0.1300439E+00
        -11   -1    0    0    0    0  0.00000000000E+00  0.00000000000E+00  0.45593999997E+02  0.45594000000E+02  0.51100000000E-03 0. -1.
         11   -1    0    0    0    0 -0.00000000000E+00 -0.00000000000E+00 -0.45593999997E+02  0.45594000000E+02  0.51100000000E-03 0.  1.
    9900012    2    1    2    0    0  0.60634517604E+01  0.37958146544E+02  0.13250558594E+02  0.50528884917E+02  0.30000076193E+02 0.  0.
        -12    1    1    2    0    0 -0.60634517604E+01 -0.37958146544E+02 -0.13250558594E+02  0.40659115083E+02  0.00000000000E+00 0.  1.
         11    1    3    3    0    0 -0.63022196519E+01  0.45174774883E+01 -0.43638899798E+01  0.88977025919E+01  0.51100000000E-03 0. -1.
        -11    1    3    3    0    0  0.15335278968E+01  0.28653702140E+00  0.38151932670E+01  0.41218334756E+01  0.51100000000E-03 0.  1.
         12    1    3    3    0    0  0.10832143515E+02  0.33154132034E+02  0.13799255307E+02  0.37509348849E+02  0.00000000000E+00 0. -1.
</event>
<event>
 7    1  0.4374874E-012  0.5052886E+02  0.7816164E-02  0.1300439E+00
        -11   -1    0    0    0    0  0.00000000000E+00  0.00000000000E+00  0.45593999997E+02  0.45594000000E+02  0.51100000000E-03 0. -1.
         11   -1    0    0    0    0 -0.00000000000E+00 -0.00000000000E+00 -0.45593999997E+02  0.45594000000E+02  0.51100000000E-03 0.  1.
    9900012    2    1    2    0    0 -0.13563760485E+02  0.57486528298E+01  0.37896474722E+02  0.50528863214E+02  0.30000010225E+02 0.  0.
        -12    1    1    2    0    0  0.13563760485E+02 -0.57486528298E+01 -0.37896474722E+02  0.40659136786E+02  0.00000000000E+00 0.  1.
         11    1    3    3    0    0  0.48348217432E+01 -0.50319190732E+01  0.71345420006E+01  0.99798497317E+01  0.51100000000E-03 0. -1.
        -11    1    3    3    0    0 -0.53494054547E+01 -0.18750325980E+01  0.11215759385E+01  0.57783924070E+01  0.51100000000E-03 0.  1.
         12    1    3    3    0    0 -0.13049176774E+02  0.12655604501E+02  0.29640356782E+02  0.34770621075E+02  0.00000000000E+00 0. -1.
</event>
<event>
 7    1  0.4374874E-012  0.5052885E+02  0.7816164E-02  0.1300439E+00
        -11   -1    0    0    0    0  0.00000000000E+00  0.00000000000E+00  0.45593999997E+02  0.45594000000E+02  0.51100000000E-03 0. -1.
         11   -1    0    0    0    0 -0.00000000000E+00 -0.00000000000E+00 -0.45593999997E+02  0.45594000000E+02  0.51100000000E-03 0.  1.
    9900012    2    1    2    0    0  0.41438433144E+01 -0.39648355091E+02 -0.80002022276E+01  0.50528846855E+02  0.29999960500E+02 0.  0.
         12    1    1    2    0    0 -0.41438433144E+01  0.39648355091E+02  0.80002022276E+01  0.40659153145E+02  0.00000000000E+00 0. -1.
         11    1    3    3    0    0 -0.12500114498E+01 -0.37697023095E+01  0.58344905134E+01  0.70579362380E+01  0.51100000000E-03 0. -1.
        -11    1    3    3    0    0  0.49697261674E+00 -0.53060831033E+01 -0.11192017569E+02  0.12396078300E+02  0.51100000000E-03 0.  1.
        -12    1    3    3    0    0  0.48968821475E+01 -0.30572569678E+02 -0.26426751715E+01  0.31074832317E+02  0.00000000000E+00 0.  1.
</event>
<event>
 7    1  0.4374874E-012  0.5052886E+02  0.7816164E-02  0.1300439E+00
        -11   -1    0    0    0    0  0.00000000000E+00  0.00000000000E+00  0.45593999997E+02  0.45594000000E+02  0.51100000000E-03 0. -1.
         11   -1    0    0    0    0 -0.00000000000E+00 -0.00000000000E+00 -0.45593999997E+02  0.45594000000E+02  0.51100000000E-03 0.  1.
    9900012    2    1    2    0    0 -0.20153482171E+02  0.20000140334E+02 -0.29103217521E+02  0.50528859244E+02  0.29999998157E+02 0.  0.
         12    1    1    2    0    0  0.20153482171E+02 -0.20000140334E+02  0.29103217521E+02  0.40659140756E+02  0.00000000000E+00 0. -1.
         11    1    3    3    0    0 -0.56136330695E+01  0.16611458948E+02 -0.95392886702E+01  0.19961249290E+02  0.51100000000E-03 0.  1.
        -11    1    3    3    0    0  0.29038173630E+01  0.51892021501E+01 -0.47083959563E+01  0.75847852293E+01  0.51100000000E-03 0. -1.
         12    1    3    3    0    0 -0.17443666464E+02 -0.18005207644E+01 -0.14855532894E+02  0.22982824724E+02  0.00000000000E+00 0. -1.
</event>
<event>
 7    1  0.4374874E-012  0.5052886E+02  0.7816164E-02  0.1300439E+00
        -11   -1    0    0    0    0  0.00000000000E+00  0.00000000000E+00  0.45593999997E+02  0.45594000000E+02  0.51100000000E-03 0. -1.
         11   -1    0    0    0    0 -0.00000000000E+00 -0.00000000000E+00 -0.45593999997E+02  0.45594000000E+02  0.51100000000E-03 0.  1.
    9900012    2    1    2    0    0 -0.60199020830E+00  0.32624724467E+02 -0.24257581241E+02  0.50528864662E+02  0.30000014627E+02 0.  0.
         12    1    1    2    0    0  0.60199020830E+00 -0.32624724467E+02  0.24257581241E+02  0.40659135338E+02  0.00000000000E+00 0. -1.
         11    1    3    3    0    0  0.47152365552E+00  0.59905945502E+01 -0.76885512091E+00  0.60581099429E+01  0.51100000000E-03 0.  1.
        -11    1    3    3    0    0 -0.50902960212E+01  0.26126702373E+02 -0.70429700590E+01  0.27533962991E+02  0.51100000000E-03 0. -1.
         12    1    3    3    0    0  0.40167821574E+01  0.50742754370E+00 -0.16445756061E+02  0.16936791728E+02  0.00000000000E+00 0. -1.
</event>
<event>
 7    1  0.4374874E-012  0.5052889E+02  0.7816164E-02  0.1300439E+00
        -11   -1    0    0    0    0  0.00000000000E+00  0.00000000000E+00  0.45593999997E+02  0.45594000000E+02  0.51100000000E-03 0. -1.
         11   -1    0    0    0    0 -0.00000000000E+00 -0.00000000000E+00 -0.45593999997E+02  0.45594000000E+02  0.51100000000E-03 0.  1.
    9900012    2    1    2    0    0 -0.50969203637E+01  0.27148881120E+02  0.29834933845E+02  0.50528885145E+02  0.30000076886E+02 0.  0.
        -12    1    1    2    0    0  0.50969203637E+01 -0.27148881120E+02 -0.29834933845E+02  0.40659114855E+02  0.00000000000E+00 0.  1.
         11    1    3    3    0    0  0.13664815381E+00  0.19304326055E+01  0.16375509680E+02  0.16489468163E+02  0.51100000000E-03 0. -1.
        -11    1    3    3    0    0  0.42306846945E+01  0.66722898301E+01 -0.19481798967E+01  0.81371708678E+01  0.51100000000E-03 0.  1.
         12    1    3    3    0    0 -0.94642532120E+01  0.18546158685E+02  0.15407604062E+02  0.25902246114E+02  0.00000000000E+00 0. -1.
</event>
<event>
 7    1  0.4374874E-012  0.5052883E+02  0.7816164E-02  0.1300439E+00
        -11   -1    0    0    0    0  0.00000000000E+00  0.00000000000E+00  0.45593999997E+02  0.45594000000E+02  0.51100000000E-03 0.  1.
         11   -1    0    0    0    0 -0.00000000000E+00 -0.00000000000E+00 -0.45593999997E+02  0.45594000000E+02  0.51100000000E-03 0. -1.
    9900012    2    1    2    0    0 -0.24464200723E+02 -0.30080975316E+02  0.12239522024E+02  0.50528830157E+02  0.29999909745E+02 0.  0.
         12    1    1    2    0    0  0.24464200723E+02  0.30080975316E+02 -0.12239522024E+02  0.40659169843E+02  0.00000000000E+00 0. -1.
         11    1    3    3    0    0  0.15593374895E+01 -0.71651383112E+01 -0.69318645097E+01  0.10090663321E+02  0.51100000000E-03 0. -1.
        -11    1    3    3    0    0 -0.88210635745E+01 -0.73348527703E+01  0.21895867364E+01  0.11679277293E+02  0.51100000000E-03 0.  1.
        -12    1    3    3    0    0 -0.17202474638E+02 -0.15580984234E+02  0.16981799797E+02  0.28758889543E+02  0.00000000000E+00 0.  1.
</event>
<event>
 7    1  0.4374874E-012  0.5052885E+02  0.7816164E-02  0.1300439E+00
        -11   -1    0    0    0    0  0.00000000000E+00  0.00000000000E+00  0.45593999997E+02  0.45594000000E+02  0.51100000000E-03 0. -1.
         11   -1    0    0    0    0 -0.00000000000E+00 -0.00000000000E+00 -0.45593999997E+02  0.45594000000E+02  0.51100000000E-03 0.  1.
    9900012    2    1    2    0    0  0.56256131735E+01 -0.83752605106E+01 -0.39387479754E+02  0.50528854982E+02  0.29999985204E+02 0.  0.
         12    1    1    2    0    0 -0.56256131735E+01  0.83752605106E+01  0.39387479754E+02  0.40659145018E+02  0.00000000000E+00 0. -1.
         11    1    3    3    0    0  0.39063425626E-02  0.79900154207E+01 -0.14427758816E+02  0.16492440280E+02  0.51100000000E-03 0. -1.
        -11    1    3    3    0    0  0.83526014521E+01 -0.47376067355E+01 -0.17479052635E+02  0.19943122871E+02  0.51100000000E-03 0.  1.
         12    1    3    3    0    0 -0.27308946211E+01 -0.11627669196E+02 -0.74806683032E+01  0.14093291831E+02  0.00000000000E+00 0. -1.
</event>
<event>
 7    1  0.4374874E-012  0.5052886E+02  0.7816164E-02  0.1300439E+00
        -11   -1    0    0    0    0  0.00000000000E+00  0.00000000000E+00  0.45593999997E+02  0.45594000000E+02  0.51100000000E-03 0.  1.
         11   -1    0    0    0    0 -0.00000000000E+00 -0.00000000000E+00 -0.45593999997E+02  0.45594000000E+02  0.51100000000E-03 0. -1.
    9900012    2    1    2    0    0 -0.31119197288E+02 -0.10844689380E+02 -0.23815000197E+02  0.50528856355E+02  0.29999989376E+02 0.  0.
         12    1    1    2    0    0  0.31119197288E+02  0.10844689380E+02  0.23815000197E+02  0.40659143645E+02  0.00000000000E+00 0. -1.
         11    1    3    3    0    0 -0.99410309181E+01 -0.27758156101E+00 -0.15170297288E+02  0.18139434040E+02  0.51100000000E-03 0. -1.
        -11    1    3    3    0    0 -0.21086580879E+02 -0.45212087392E+00 -0.61775171336E+01  0.21977489044E+02  0.51100000000E-03 0.  1.
        -12    1    3    3    0    0 -0.91585490499E-01 -0.10114986945E+02 -0.24671857756E+01  0.10411933271E+02  0.00000000000E+00 0.  1.
</event>
<event>
 7    1  0.4374874E-012  0.5052890E+02  0.7816164E-02  0.1300439E+00
        -11   -1    0    0    0    0  0.00000000000E+00  0.00000000000E+00  0.45593999997E+02  0.45594000000E+02  0.51100000000E-03 0. -1.
         11   -1    0    0    0    0 -0.00000000000E+00 -0.00000000000E+00 -0.45593999997E+02  0.45594000000E+02  0.51100000000E-03 0.  1.
    9900012    2    1    2    0    0  0.16187023795E+02  0.11021574717E+02  0.35632391208E+02  0.50528903210E+02  0.30000131796E+02 0.  0.
        -12    1    1    2    0    0 -0.16187023795E+02 -0.11021574717E+02 -0.35632391208E+02  0.40659096790E+02  0.00000000000E+00 0.  1.
         11    1    3    3    0    0  0.12234201520E+02 -0.58649331314E+01  0.11133102936E+02  0.17550473176E+02  0.51100000000E-03 0.  1.
        -11    1    3    3    0    0  0.36415031732E+01  0.18957220778E+01  0.14216039077E+02  0.14796961677E+02  0.51100000000E-03 0. -1.
         12    1    3    3    0    0  0.31131910211E+00  0.14990785770E+02  0.10283249195E+02  0.18181468357E+02  0.00000000000E+00 0. -1.
</event>
<event>
 7    1  0.4374874E-012  0.5052887E+02  0.7816164E-02  0.1300439E+00
        -11   -1    0    0    0    0  0.00000000000E+00  0.00000000000E+00  0.45593999997E+02  0.45594000000E+02  0.51100000000E-03 0. -1.
         11   -1    0    0    0    0 -0.00000000000E+00 -0.00000000000E+00 -0.45593999997E+02  0.45594000000E+02  0.51100000000E-03 0.  1.
    9900012    2    1    2    0    0 -0.62388089454E+01  0.34105585770E+02 -0.21237973458E+02  0.50528865302E+02  0.30000016572E+02 0.  0.
         12    1    1    2    0    0  0.62388089454E+01 -0.34105585770E+02  0.21237973458E+02  0.40659134698E+02  0.00000000000E+00 0. -1.
         11    1    3    3    0    0  0.29679302932E+01  0.20341247870E+00  0.15844140524E+01  0.33705125742E+01  0.51100000000E-03 0. -1.
        -11    1    3    3    0    0 -0.11697909321E+02  0.22999239619E+02 -0.52547436885E+01  0.26332839517E+02  0.51100000000E-03 0.  1.
         12    1    3    3    0    0  0.24911700828E+01  0.10902933673E+02 -0.17567643822E+02  0.20825513211E+02  0.00000000000E+00 0. -1.
</event>
<event>
 7    1  0.4374874E-012  0.5052886E+02  0.7816164E-02  0.1300439E+00
        -11   -1    0    0    0    0  0.00000000000E+00  0.00000000000E+00  0.45593999997E+02  0.45594000000E+02  0.51100000000E-03 0. -1.
         11   -1    0    0    0    0 -0.00000000000E+00 -0.00000000000E+00 -0.45593999997E+02  0.45594000000E+02  0.51100000000E-03 0.  1.
    9900012    2    1    2    0    0 -0.57195741356E+01 -0.39341761123E+02 -0.85251243861E+01  0.50528862744E+02  0.30000008798E+02 0.  0.
         12    1    1    2    0    0  0.57195741356E+01  0.39341761123E+02  0.85251243861E+01  0.40659137256E+02  0.00000000000E+00 0. -1.
         11    1    3    3    0    0 -0.65531020099E+01 -0.26912654774E+01  0.66061099902E+01  0.96864206643E+01  0.51100000000E-03 0. -1.
        -11    1    3    3    0    0  0.20747648335E-01 -0.25435699391E+02 -0.54688337449E+01  0.26016982469E+02  0.51100000000E-03 0.  1.
        -12    1    3    3    0    0  0.81278022604E+00 -0.11214796254E+02 -0.96624006314E+01  0.14825459611E+02  0.00000000000E+00 0.  1.
</event>
<event>
 7    1  0.4374874E-012  0.5052889E+02  0.7816164E-02  0.1300439E+00
        -11   -1    0    0    0    0  0.00000000000E+00  0.00000000000E+00  0.45593999997E+02  0.45594000000E+02  0.51100000000E-03 0. -1.
         11   -1    0    0    0    0 -0.00000000000E+00 -0.00000000000E+00 -0.45593999997E+02  0.45594000000E+02  0.51100000000E-03 0.  1.
    9900012    2    1    2    0    0  0.25153491430E+01  0.33054041874E+02  0.23542860987E+02  0.50528893161E+02  0.30000101251E+02 0.  0.
        -12    1    1    2    0    0 -0.25153491430E+01 -0.33054041874E+02 -0.23542860987E+02  0.40659106839E+02  0.00000000000E+00 0.  1.
         11    1    3    3    0    0 -0.80946138994E+00  0.20726694936E+02  0.15996279930E+02  0.26194123054E+02  0.51100000000E-03 0. -1.
        -11    1    3    3    0    0 -0.80944214091E+01  0.42110736150E+01  0.28655692969E+01  0.95636962831E+01  0.51100000000E-03 0.  1.
        -12    1    3    3    0    0  0.11419231942E+02  0.81162733235E+01  0.46810117602E+01  0.14771073824E+02  0.00000000000E+00 0.  1.
</event>
<event>
 7    1  0.4374874E-012  0.5052886E+02  0.7816164E-02  0.1300439E+00
        -11   -1    0    0    0    0  0.00000000000E+00  0.00000000000E+00  0.45593999997E+02  0.45594000000E+02  0.51100000000E-03 0. -1.
         11   -1    0    0    0    0 -0.00000000000E+00 -0.00000000000E+00 -0.45593999997E+02  0.45594000000E+02  0.51100000000E-03 0.  1.
    9900012    2    1    2    0    0 -0.17626102029E+02  0.25138549966E+02 -0.26655948012E+02  0.50528859188E+02  0.29999997989E+02 0.  0.
         12    1    1    2    0    0  0.17626102029E+02 -0.25138549966E+02  0.26655948012E+02  0.40659140812E+02  0.00000000000E+00 0. -1.
         11    1    3    3    0    0 -0.86794783900E+01  0.15009973496E+02 -0.37286977958E+01  0.17735158217E+02  0.51100000000E-03 0. -1.
        -11    1    3    3    0    0 -0.68304935767E+01  0.15890899018E+02 -0.16458342604E+02  0.23875790158E+02  0.51100000000E-03 0.  1.
         12    1    3    3    0    0 -0.21161300618E+01 -0.57623225480E+01 -0.64689076117E+01  0.89179108133E+01  0.00000000000E+00 0. -1.
</event>
<event>
 7    1  0.4374874E-012  0.5052889E+02  0.7816164E-02  0.1300439E+00
        -11   -1    0    0    0    0  0.00000000000E+00  0.00000000000E+00  0.45593999997E+02  0.45594000000E+02  0.51100000000E-03 0. -1.
         11   -1    0    0    0    0 -0.00000000000E+00 -0.00000000000E+00 -0.45593999997E+02  0.45594000000E+02  0.51100000000E-03 0.  1.
    9900012    2    1    2    0    0  0.14696096321E+02 -0.37317047426E+02 -0.66802837585E+01  0.50528887039E+02  0.30000082644E+02 0.  0.
         12    1    1    2    0    0 -0.14696096321E+02  0.37317047426E+02  0.66802837585E+01  0.40659112961E+02  0.00000000000E+00 0. -1.
         11    1    3    3    0    0  0.12201218389E+02 -0.80004854879E+01 -0.32819893483E+01  0.14954897277E+02  0.51100000000E-03 0. -1.
        -11    1    3    3    0    0  0.54491247336E+01 -0.30664728758E+02 -0.39028871755E+00  0.31147566129E+02  0.51100000000E-03 0.  1.
         12    1    3    3    0    0 -0.29542468012E+01  0.13481668203E+01 -0.30080056927E+01  0.44264236337E+01  0.00000000000E+00 0. -1.
</event>
<event>
 7    1  0.4374874E-012  0.5052886E+02  0.7816164E-02  0.1300439E+00
        -11   -1    0    0    0    0  0.00000000000E+00  0.00000000000E+00  0.45593999997E+02  0.45594000000E+02  0.51100000000E-03 0. -1.
         11   -1    0    0    0    0 -0.00000000000E+00 -0.00000000000E+00 -0.45593999997E+02  0.45594000000E+02  0.51100000000E-03 0.  1.
    9900012    2    1    2    0    0 -0.28245426552E+02 -0.18844227278E+02 -0.22366416270E+02  0.50528860812E+02  0.30000002923E+02 0.  0.
         12    1    1    2    0    0  0.28245426552E+02  0.18844227278E+02  0.22366416270E+02  0.40659139188E+02  0.00000000000E+00 0. -1.
         11    1    3    3    0    0 -0.26822834968E+00 -0.47129710189E+00 -0.68116856960E+01  0.68332371310E+01  0.51100000000E-03 0. -1.
        -11    1    3    3    0    0 -0.48665870155E+01 -0.14297691434E+02  0.74742514681E+00  0.15121715979E+02  0.51100000000E-03 0.  1.
         12    1    3    3    0    0 -0.23110611187E+02 -0.40752387418E+01 -0.16302155720E+02  0.28573907702E+02  0.00000000000E+00 0. -1.
</event>
<event>
 7    1  0.4374874E-012  0.5052887E+02  0.7816164E-02  0.1300439E+00
        -11   -1    0    0    0    0  0.00000000000E+00  0.00000000000E+00  0.45593999997E+02  0.45594000000E+02  0.51100000000E-03 0. -1.
         11   -1    0    0    0    0 -0.00000000000E+00 -0.00000000000E+00 -0.45593999997E+02  0.45594000000E+02  0.51100000000E-03 0.  1.
    9900012    2    1    2    0    0 -0.18496103737E+02  0.33033812214E+02 -0.14826536591E+02  0.50528870765E+02  0.30000033177E+02 0.  0.
         12    1    1    2    0    0  0.18496103737E+02 -0.33033812214E+02  0.14826536591E+02  0.40659129235E+02  0.00000000000E+00 0. -1.
         11    1    3    3    0    0  0.86653243981E+00  0.21927317907E+02 -0.83313270050E+01  0.23472732244E+02  0.51100000000E-03 0. -1.
        -11    1    3    3    0    0 -0.10598675007E+01  0.24159802628E+01 -0.62603808166E+01  0.67935740211E+01  0.51100000000E-03 0.  1.
        -12    1    3    3    0    0 -0.18302768676E+02  0.86905140443E+01 -0.23482876984E+00  0.20262564500E+02  0.00000000000E+00 0.  1.
</event>
<event>
 7    1  0.4374874E-012  0.5052886E+02  0.7816164E-02  0.1300439E+00
        -11   -1    0    0    0    0  0.00000000000E+00  0.00000000000E+00  0.45593999997E+02  0.45594000000E+02  0.51100000000E-03 0. -1.
         11   -1    0    0    0    0 -0.00000000000E+00 -0.00000000000E+00 -0.45593999997E+02  0.45594000000E+02  0.51100000000E-03 0.  1.
    9900012    2    1    2    0    0 -0.82381755205E+01  0.27905466860E+02  0.28400407663E+02  0.50528858691E+02  0.29999996477E+02 0.  0.
        -12    1    1    2    0    0  0.82381755205E+01 -0.27905466860E+02 -0.28400407663E+02  0.40659141309E+02  0.00000000000E+00 0.  1.
         11    1    3    3    0    0 -0.17396334850E+01 -0.11438701518E+01  0.82035114795E+01  0.84635905171E+01  0.51100000000E-03 0. -1.
        -11    1    3    3    0    0 -0.46635999080E+00  0.11489032598E+01 -0.42842715687E+01  0.44600956802E+01  0.51100000000E-03 0.  1.
         12    1    3    3    0    0 -0.60321820446E+01  0.27900433752E+02  0.24481167752E+02  0.37605172494E+02  0.00000000000E+00 0. -1.
</event>
<event>
 7    1  0.4374874E-012  0.5052885E+02  0.7816164E-02  0.1300439E+00
        -11   -1    0    0    0    0  0.00000000000E+00  0.00000000000E+00  0.45593999997E+02  0.45594000000E+02  0.51100000000E-03 0. -1.
         11   -1    0    0    0    0 -0.00000000000E+00 -0.00000000000E+00 -0.45593999997E+02  0.45594000000E+02  0.51100000000E-03 0.  1.
    9900012    2    1    2    0    0  0.38451471016E+02  0.42816834080E+01  0.12502706241E+02  0.50528854664E+02  0.29999984238E+02 0.  0.
        -12    1    1    2    0    0 -0.38451471016E+02 -0.42816834080E+01 -0.12502706241E+02  0.40659145336E+02  0.00000000000E+00 0.  1.
         11    1    3    3    0    0  0.31511678935E+02  0.62595000359E+01  0.20631363161E+01  0.32193536334E+02  0.51100000000E-03 0. -1.
        -11    1    3    3    0    0  0.57561405733E+01 -0.37801978329E+01 -0.76165537643E+00  0.69284319387E+01  0.51100000000E-03 0.  1.
        -12    1    3    3    0    0  0.11836515078E+01  0.18023812050E+01  0.11201225301E+02  0.11406886392E+02  0.00000000000E+00 0.  1.
</event>
<event>
 7    1  0.4374874E-012  0.5052885E+02  0.7816164E-02  0.1300439E+00
        -11   -1    0    0    0    0  0.00000000000E+00  0.00000000000E+00  0.45593999997E+02  0.45594000000E+02  0.51100000000E-03 0. -1.
         11   -1    0    0    0    0 -0.00000000000E+00 -0.00000000000E+00 -0.45593999997E+02  0.45594000000E+02  0.51100000000E-03 0.  1.
    9900012    2    1    2    0    0 -0.32965978662E+02  0.48028702194E+01  0.23309715235E+02  0.50528854217E+02  0.29999982877E+02 0.  0.
        -12    1    1    2    0    0  0.32965978662E+02 -0.48028702194E+01 -0.23309715235E+02  0.40659145783E+02  0.00000000000E+00 0.  1.
         11    1    3    3    0    0 -0.81164222914E+01  0.62914942350E+01  0.11220548831E+02  0.15210520269E+02  0.51100000000E-03 0. -1.
        -11    1    3    3    0    0 -0.13525448804E+02  0.98129584122E+01  0.31931430112E+01  0.17012585950E+02  0.51100000000E-03 0.  1.
        -12    1    3    3    0    0 -0.11324107567E+02 -0.11301582428E+02  0.88960233920E+01  0.18305747998E+02  0.00000000000E+00 0.  1.
</event>
<event>
 7    1  0.4374874E-012  0.5052887E+02  0.7816164E-02  0.1300439E+00
        -11   -1    0    0    0    0  0.00000000000E+00  0.00000000000E+00  0.45593999997E+02  0.45594000000E+02  0.51100000000E-03 0. -1.
         11   -1    0    0    0    0 -0.00000000000E+00 -0.00000000000E+00 -0.45593999997E+02  0.45594000000E+02  0.51100000000E-03 0.  1.
    9900012    2    1    2    0    0 -0.21130166762E+02  0.28492706036E+02  0.19870744873E+02  0.50528871302E+02  0.30000034811E+02 0.  0.
        -12    1    1    2    0    0  0.21130166762E+02 -0.28492706036E+02 -0.19870744873E+02  0.40659128698E+02  0.00000000000E+00 0.  1.
         11    1    3    3    0    0 -0.14789473448E+02  0.40910321509E+01  0.22369342684E+01  0.15507061105E+02  0.51100000000E-03 0. -1.
        -11    1    3    3    0    0 -0.68665747862E+01  0.52674472085E+01 -0.48107893228E+00  0.86675998171E+01  0.51100000000E-03 0.  1.
        -12    1    3    3    0    0  0.52588147255E+00  0.19134226677E+02  0.18114889537E+02  0.26354210380E+02  0.00000000000E+00 0.  1.
</event>
<event>
 7    1  0.4374874E-012  0.5052886E+02  0.7816164E-02  0.1300439E+00
        -11   -1    0    0    0    0  0.00000000000E+00  0.00000000000E+00  0.45593999997E+02  0.45594000000E+02  0.51100000000E-03 0. -1.
         11   -1    0    0    0    0 -0.00000000000E+00 -0.00000000000E+00 -0.45593999997E+02  0.45594000000E+02  0.51100000000E-03 0.  1.
    9900012    2    1    2    0    0  0.15184851619E+02  0.37631288972E+02  0.25439994094E+01  0.50528861281E+02  0.30000004349E+02 0.  0.
        -12    1    1    2    0    0 -0.15184851619E+02 -0.37631288972E+02 -0.25439994094E+01  0.40659138719E+02  0.00000000000E+00 0.  1.
         11    1    3    3    0    0  0.14424737834E+01  0.11561709690E+02 -0.69790959355E+01  0.13581665653E+02  0.51100000000E-03 0. -1.
        -11    1    3    3    0    0 -0.36912538007E+01  0.13622289845E+02  0.55231758034E+01  0.15155777989E+02  0.51100000000E-03 0.  1.
         12    1    3    3    0    0  0.17433631636E+02  0.12447289437E+02  0.39999195415E+01  0.21791417638E+02  0.00000000000E+00 0. -1.
</event>
<event>
 7    1  0.4374874E-012  0.5052889E+02  0.7816164E-02  0.1300439E+00
        -11   -1    0    0    0    0  0.00000000000E+00  0.00000000000E+00  0.45593999997E+02  0.45594000000E+02  0.51100000000E-03 0. -1.
         11   -1    0    0    0    0 -0.00000000000E+00 -0.00000000000E+00 -0.45593999997E+02  0.45594000000E+02  0.51100000000E-03 0.  1.
    9900012    2    1    2    0    0  0.47568151376E+01 -0.36589034773E+02  0.17081526258E+02  0.50528889149E+02  0.30000089059E+02 0.  0.
        -12    1    1    2    0    0 -0.47568151376E+01  0.36589034773E+02 -0.17081526258E+02  0.40659110851E+02  0.00000000000E+00 0.  1.
         11    1    3    3    0    0  0.37943604493E+01 -0.64023744334E+01  0.62345343308E+01  0.97086038228E+01  0.51100000000E-03 0. -1.
        -11    1    3    3    0    0  0.10527639868E+02 -0.27445935550E+02  0.77708614103E+01  0.30405540066E+02  0.51100000000E-03 0.  1.
        -12    1    3    3    0    0 -0.95651851794E+01 -0.27407247898E+01  0.30761305166E+01  0.10414745261E+02  0.00000000000E+00 0.  1.
</event>
<event>
 7    1  0.4374874E-012  0.5052890E+02  0.7816164E-02  0.1300439E+00
        -11   -1    0    0    0    0  0.00000000000E+00  0.00000000000E+00  0.45593999997E+02  0.45594000000E+02  0.51100000000E-03 0. -1.
         11   -1    0    0    0    0 -0.00000000000E+00 -0.00000000000E+00 -0.45593999997E+02  0.45594000000E+02  0.51100000000E-03 0.  1.
    9900012    2    1    2    0    0  0.30022568353E+02 -0.26573960742E+02  0.67551824290E+01  0.50528899055E+02  0.30000119166E+02 0.  0.
        -12    1    1    2    0    0 -0.30022568353E+02  0.26573960742E+02 -0.67551824290E+01  0.40659100945E+02  0.00000000000E+00 0.  1.
         11    1    3    3    0    0  0.85134374999E+01  0.88304604250E+00  0.55380712281E+01  0.10194538811E+02  0.51100000000E-03 0. -1.
        -11    1    3    3    0    0  0.12585073726E+02 -0.78605171689E+01 -0.80624864908E+01  0.16887140063E+02  0.51100000000E-03 0.  1.
         12    1    3    3    0    0  0.89240571275E+01 -0.19596489616E+02  0.92795976917E+01  0.23447220181E+02  0.00000000000E+00 0. -1.
</event>
<event>
 7    1  0.6664291E-012  0.5052886E+02  0.7816164E-02  0.1300439E+00
        -11   -1    0    0    0    0  0.00000000000E+00  0.00000000000E+00  0.45593999997E+02  0.45594000000E+02  0.51100000000E-03 0. -1.
         11   -1    0    0    0    0 -0.00000000000E+00 -0.00000000000E+00 -0.45593999997E+02  0.45594000000E+02  0.51100000000E-03 0.  1.
    9900012    2    1    2    0    0  0.47470015304E+00  0.15460612676E+02 -0.37601994614E+02  0.50528857320E+02  0.29999992308E+02 0.  0.
         12    1    1    2    0    0 -0.47470015304E+00 -0.15460612676E+02  0.37601994614E+02  0.40659142680E+02  0.00000000000E+00 0. -1.
         11    1    3    3    0    0 -0.86599641949E+01  0.11473328329E+01 -0.91015658824E+01  0.12615460921E+02  0.51100000000E-03 0. -1.
        -11    1    3    3    0    0  0.88746112121E+01  0.65805537199E+01 -0.28068101638E+02  0.30164229498E+02  0.51100000000E-03 0.  1.
         12    1    3    3    0    0  0.26005313582E+00  0.77327261229E+01 -0.43232709424E+00  0.77491668998E+01  0.00000000000E+00 0. -1.
</event>
<event>
 7    1  0.4374874E-012  0.5052885E+02  0.7816164E-02  0.1300439E+00
        -11   -1    0    0    0    0  0.00000000000E+00  0.00000000000E+00  0.45593999997E+02  0.45594000000E+02  0.51100000000E-03 0. -1.
         11   -1    0    0    0    0 -0.00000000000E+00 -0.00000000000E+00 -0.45593999997E+02  0.45594000000E+02  0.51100000000E-03 0.  1.
    9900012    2    1    2    0    0  0.10520266621E+02 -0.33884797149E+02  0.19857256351E+02  0.50528854443E+02  0.29999983565E+02 0.  0.
        -12    1    1    2    0    0 -0.10520266621E+02  0.33884797149E+02 -0.19857256351E+02  0.40659145557E+02  0.00000000000E+00 0.  1.
         11    1    3    3    0    0  0.91875076585E+01 -0.10478405106E+02  0.16440402794E+02  0.21552125530E+02  0.51100000000E-03 0. -1.
        -11    1    3    3    0    0  0.65439150477E+01 -0.25938613118E+01 -0.88510804311E+00  0.70946710400E+01  0.51100000000E-03 0.  1.
         12    1    3    3    0    0 -0.52111560848E+01 -0.20812530731E+02  0.43019615998E+01  0.21882057873E+02  0.00000000000E+00 0. -1.
</event>
<event>
 7    1  0.4374874E-012  0.5052886E+02  0.7816164E-02  0.1300439E+00
        -11   -1    0    0    0    0  0.00000000000E+00  0.00000000000E+00  0.45593999997E+02  0.45594000000E+02  0.51100000000E-03 0.  1.
         11   -1    0    0    0    0 -0.00000000000E+00 -0.00000000000E+00 -0.45593999997E+02  0.45594000000E+02  0.51100000000E-03 0. -1.
    9900012    2    1    2    0    0  0.35155277189E+02  0.18906437849E+02 -0.77342694998E+01  0.50528857964E+02  0.29999994268E+02 0.  0.
         12    1    1    2    0    0 -0.35155277189E+02 -0.18906437849E+02  0.77342694998E+01  0.40659142036E+02  0.00000000000E+00 0. -1.
         11    1    3    3    0    0  0.19437369111E+02  0.15263022052E+02 -0.12322876988E+01  0.24744488141E+02  0.51100000000E-03 0. -1.
        -11    1    3    3    0    0 -0.36522350111E+01 -0.38237072881E+00  0.20786140247E+01  0.42196758732E+01  0.51100000000E-03 0.  1.
         12    1    3    3    0    0  0.19370143089E+02  0.40257865257E+01 -0.85805958256E+01  0.21564693950E+02  0.00000000000E+00 0. -1.
</event>
<event>
 7    1  0.4374874E-012  0.5052886E+02  0.7816164E-02  0.1300439E+00
        -11   -1    0    0    0    0  0.00000000000E+00  0.00000000000E+00  0.45593999997E+02  0.45594000000E+02  0.51100000000E-03 0. -1.
         11   -1    0    0    0    0 -0.00000000000E+00 -0.00000000000E+00 -0.45593999997E+02  0.45594000000E+02  0.51100000000E-03 0.  1.
    9900012    2    1    2    0    0 -0.34611018173E+02  0.17952775693E+02 -0.11529994593E+02  0.50528861920E+02  0.30000006294E+02 0.  0.
         12    1    1    2    0    0  0.34611018173E+02 -0.17952775693E+02  0.11529994593E+02  0.40659138080E+02  0.00000000000E+00 0. -1.
         11    1    3    3    0    0 -0.88420932670E+01 -0.33345550841E+01 -0.10506625642E+01  0.95081945203E+01  0.51100000000E-03 0. -1.
        -11    1    3    3    0    0 -0.26797872542E+01  0.82104374210E+01  0.53145899092E+01  0.10140878095E+02  0.51100000000E-03 0.  1.
         12    1    3    3    0    0 -0.23089137652E+02  0.13076893356E+02 -0.15793921938E+02  0.30879789305E+02  0.00000000000E+00 0. -1.
</event>
<event>
 7    1  0.4374874E-012  0.5052886E+02  0.7816164E-02  0.1300439E+00
        -11   -1    0    0    0    0  0.00000000000E+00  0.00000000000E+00  0.45593999997E+02  0.45594000000E+02  0.51100000000E-03 0. -1.
         11   -1    0    0    0    0 -0.00000000000E+00 -0.00000000000E+00 -0.45593999997E+02  0.45594000000E+02  0.51100000000E-03 0.  1.
    9900012    2    1    2    0    0 -0.95766420922E+01 -0.25850449958E+02  0.29886580489E+02  0.50528861665E+02  0.30000005518E+02 0.  0.
        -12    1    1    2    0    0  0.95766420922E+01  0.25850449958E+02 -0.29886580489E+02  0.40659138335E+02  0.00000000000E+00 0.  1.
         11    1    3    3    0    0 -0.96474274503E+00 -0.17556784075E+02  0.24901132692E+02  0.30483402127E+02  0.51100000000E-03 0. -1.
        -11    1    3    3    0    0 -0.11467698200E+01  0.83695341009E+00  0.77935905392E+01  0.79218448473E+01  0.51100000000E-03 0.  1.
         12    1    3    3    0    0 -0.74651295272E+01 -0.91306192926E+01 -0.28081427419E+01  0.12123614691E+02  0.00000000000E+00 0. -1.
</event>
<event>
 7    1  0.4374874E-012  0.5052886E+02  0.7816164E-02  0.1300439E+00
        -11   -1    0    0    0    0  0.00000000000E+00  0.00000000000E+00  0.45593999997E+02  0.45594000000E+02  0.51100000000E-03 0. -1.
         11   -1    0    0    0    0 -0.00000000000E+00 -0.00000000000E+00 -0.45593999997E+02  0.45594000000E+02  0.51100000000E-03 0.  1.
    9900012    2    1    2    0    0 -0.26364685646E+02 -0.16862362738E+02 -0.25956310459E+02  0.50528856146E+02  0.29999988741E+02 0.  0.
         12    1    1    2    0    0  0.26364685646E+02  0.16862362738E+02  0.25956310459E+02  0.40659143854E+02  0.00000000000E+00 0. -1.
         11    1    3    3    0    0 -0.13767494462E+01  0.14016642138E+01  0.19993897235E+01  0.28031519997E+01  0.51100000000E-03 0. -1.
        -11    1    3    3    0    0  0.72191949736E+00 -0.12013240478E+02 -0.10967114622E+02  0.16282405164E+02  0.51100000000E-03 0.  1.
        -12    1    3    3    0    0 -0.25709855697E+02 -0.62507864730E+01 -0.16988585561E+02  0.31443298982E+02  0.00000000000E+00 0.  1.
</event>
<event>
 7    1  0.4374874E-012  0.5052886E+02  0.7816164E-02  0.1300439E+00
        -11   -1    0    0    0    0  0.00000000000E+00  0.00000000000E+00  0.45593999997E+02  0.45594000000E+02  0.51100000000E-03 0. -1.
         11   -1    0    0    0    0 -0.00000000000E+00 -0.00000000000E+00 -0.45593999997E+02  0.45594000000E+02  0.51100000000E-03 0.  1.
    9900012    2    1    2    0    0  0.17568950247E+02  0.16690857420E+02 -0.32648320598E+02  0.50528861149E+02  0.30000003949E+02 0.  0.
         12    1    1    2    0    0 -0.17568950247E+02 -0.16690857420E+02  0.32648320598E+02  0.40659138851E+02  0.00000000000E+00 0. -1.
         11    1    3    3    0    0 -0.72108968966E+01  0.11137234102E+01 -0.36065818164E+01  0.81390937178E+01  0.51100000000E-03 0. -1.
        -11    1    3    3    0    0  0.43784011614E+01  0.51592426518E+01 -0.12223169911E+02  0.13971186936E+02  0.51100000000E-03 0.  1.
        -12    1    3    3    0    0  0.20401445982E+02  0.10417891358E+02 -0.16818568871E+02  0.28418580496E+02  0.00000000000E+00 0.  1.
</event>
<event>
 7    1  0.4374874E-012  0.5052886E+02  0.7816164E-02  0.1300439E+00
        -11   -1    0    0    0    0  0.00000000000E+00  0.00000000000E+00  0.45593999997E+02  0.45594000000E+02  0.51100000000E-03 0. -1.
         11   -1    0    0    0    0 -0.00000000000E+00 -0.00000000000E+00 -0.45593999997E+02  0.45594000000E+02  0.51100000000E-03 0.  1.
    9900012    2    1    2    0    0  0.15633353717E+02 -0.73434055407E+01 -0.36808133740E+02  0.50528855115E+02  0.29999985608E+02 0.  0.
         12    1    1    2    0    0 -0.15633353717E+02  0.73434055407E+01  0.36808133740E+02  0.40659144885E+02  0.00000000000E+00 0. -1.
         11    1    3    3    0    0 -0.41795237276E+01 -0.72796741172E+01 -0.97585201018E+01  0.12872093407E+02  0.51100000000E-03 0.  1.
        -11    1    3    3    0    0  0.48896939064E+01  0.75911714645E+01 -0.12706524049E+02  0.15588160391E+02  0.51100000000E-03 0. -1.
        -12    1    3    3    0    0  0.14923183538E+02 -0.76549028880E+01 -0.14343089589E+02  0.22068601317E+02  0.00000000000E+00 0.  1.
</event>
<event>
 7    1  0.4374874E-012  0.5052892E+02  0.7816164E-02  0.1300439E+00
        -11   -1    0    0    0    0  0.00000000000E+00  0.00000000000E+00  0.45593999997E+02  0.45594000000E+02  0.51100000000E-03 0. -1.
         11   -1    0    0    0    0 -0.00000000000E+00 -0.00000000000E+00 -0.45593999997E+02  0.45594000000E+02  0.51100000000E-03 0.  1.
    9900012    2    1    2    0    0  0.16542009173E+02  0.32167946605E+02 -0.18567326867E+02  0.50528923729E+02  0.30000194165E+02 0.  0.
         12    1    1    2    0    0 -0.16542009173E+02 -0.32167946605E+02  0.18567326867E+02  0.40659076271E+02  0.00000000000E+00 0. -1.
         11    1    3    3    0    0 -0.55101542377E+01  0.23368221659E+01 -0.42362248023E+01  0.73326760733E+01  0.51100000000E-03 0.  1.
        -11    1    3    3    0    0  0.25582974894E+01  0.16232541463E+00  0.27852621734E+01  0.37853561550E+01  0.51100000000E-03 0. -1.
         12    1    3    3    0    0  0.19493865922E+02  0.29668799025E+02 -0.17116364238E+02  0.39410891500E+02  0.00000000000E+00 0. -1.
</event>
<event>
 7    1  0.4374874E-012  0.5052886E+02  0.7816164E-02  0.1300439E+00
        -11   -1    0    0    0    0  0.00000000000E+00  0.00000000000E+00  0.45593999997E+02  0.45594000000E+02  0.51100000000E-03 0. -1.
         11   -1    0    0    0    0 -0.00000000000E+00 -0.00000000000E+00 -0.45593999997E+02  0.45594000000E+02  0.51100000000E-03 0.  1.
    9900012    2    1    2    0    0  0.55141760392E+01 -0.23090519685E+02 -0.33008898321E+02  0.50528860744E+02  0.30000002717E+02 0.  0.
         12    1    1    2    0    0 -0.55141760392E+01  0.23090519685E+02  0.33008898321E+02  0.40659139256E+02  0.00000000000E+00 0. -1.
         11    1    3    3    0    0  0.78129508585E+01 -0.58709979916E+01 -0.10447538568E+02  0.14306008560E+02  0.51100000000E-03 0. -1.
        -11    1    3    3    0    0  0.42726938833E+01 -0.15416469571E+02 -0.40575202307E+01  0.16504148501E+02  0.51100000000E-03 0.  1.
        -12    1    3    3    0    0 -0.65714687025E+01 -0.18030521217E+01 -0.18503839522E+02  0.19718703683E+02  0.00000000000E+00 0.  1.
</event>
<event>
 7    1  0.4374874E-012  0.5052896E+02  0.7816164E-02  0.1300438E+00
        -11   -1    0    0    0    0  0.00000000000E+00  0.00000000000E+00  0.45593999997E+02  0.45594000000E+02  0.51100000000E-03 0. -1.
         11   -1    0    0    0    0 -0.00000000000E+00 -0.00000000000E+00 -0.45593999997E+02  0.45594000000E+02  0.51100000000E-03 0.  1.
    9900012    2    1    2    0    0  0.74859608493E+01 -0.11042119343E+02  0.38408194223E+02  0.50528961732E+02  0.30000309679E+02 0.  0.
        -12    1    1    2    0    0 -0.74859608493E+01  0.11042119343E+02 -0.38408194223E+02  0.40659038268E+02  0.00000000000E+00 0.  1.
         11    1    3    3    0    0  0.23932427102E+01  0.67962897754E+00  0.13173845351E+01  0.28151391603E+01  0.51100000000E-03 0. -1.
        -11    1    3    3    0    0  0.10199811259E+02  0.57130984981E+01  0.12189608229E+02  0.16889706723E+02  0.51100000000E-03 0.  1.
        -12    1    3    3    0    0 -0.51070931200E+01 -0.17434846819E+02  0.24901201459E+02  0.30824115848E+02  0.00000000000E+00 0.  1.
</event>
<event>
 7    1  0.4374874E-012  0.5052885E+02  0.7816164E-02  0.1300439E+00
        -11   -1    0    0    0    0  0.00000000000E+00  0.00000000000E+00  0.45593999997E+02  0.45594000000E+02  0.51100000000E-03 0. -1.
         11   -1    0    0    0    0 -0.00000000000E+00 -0.00000000000E+00 -0.45593999997E+02  0.45594000000E+02  0.51100000000E-03 0.  1.
    9900012    2    1    2    0    0 -0.30244358360E+02  0.21570546180E+02  0.16527457229E+02  0.50528849522E+02  0.29999968609E+02 0.  0.
        -12    1    1    2    0    0  0.30244358360E+02 -0.21570546180E+02 -0.16527457229E+02  0.40659150478E+02  0.00000000000E+00 0.  1.
         11    1    3    3    0    0 -0.32556420038E+01  0.11437429944E+02 -0.42385280347E+00  0.11899313427E+02  0.51100000000E-03 0.  1.
        -11    1    3    3    0    0 -0.23582081029E+02  0.46876714568E+01  0.42775653075E+01  0.24421023209E+02  0.51100000000E-03 0. -1.
         12    1    3    3    0    0 -0.34066353270E+01  0.54454447793E+01  0.12673744725E+02  0.14208512886E+02  0.00000000000E+00 0. -1.
</event>
<event>
 7    1  0.4374874E-012  0.5052889E+02  0.7816164E-02  0.1300439E+00
        -11   -1    0    0    0    0  0.00000000000E+00  0.00000000000E+00  0.45593999997E+02  0.45594000000E+02  0.51100000000E-03 0. -1.
         11   -1    0    0    0    0 -0.00000000000E+00 -0.00000000000E+00 -0.45593999997E+02  0.45594000000E+02  0.51100000000E-03 0.  1.
    9900012    2    1    2    0    0 -0.23553161624E+02 -0.25402802497E+02 -0.21286373978E+02  0.50528886455E+02  0.30000080868E+02 0.  0.
         12    1    1    2    0    0  0.23553161624E+02  0.25402802497E+02  0.21286373978E+02  0.40659113545E+02  0.00000000000E+00 0. -1.
         11    1    3    3    0    0 -0.92010519649E+01 -0.19486182946E+02 -0.33479819917E+01  0.21807789130E+02  0.51100000000E-03 0. -1.
        -11    1    3    3    0    0 -0.12179118642E+02 -0.48063954820E+01 -0.28025257140E+01  0.13389791599E+02  0.51100000000E-03 0.  1.
         12    1    3    3    0    0 -0.21729910165E+01 -0.11102240687E+01 -0.15135866272E+02  0.15331305725E+02  0.00000000000E+00 0. -1.
</event>
<event>
 7    1  0.4374874E-012  0.5052886E+02  0.7816164E-02  0.1300439E+00
        -11   -1    0    0    0    0  0.00000000000E+00  0.00000000000E+00  0.45593999997E+02  0.45594000000E+02  0.51100000000E-03 0. -1.
         11   -1    0    0    0    0 -0.00000000000E+00 -0.00000000000E+00 -0.45593999997E+02  0.45594000000E+02  0.51100000000E-03 0.  1.
    9900012    2    1    2    0    0 -0.28706163250E+02 -0.72238220788E+01  0.27873610853E+02  0.50528860855E+02  0.30000003056E+02 0.  0.
        -12    1    1    2    0    0  0.28706163250E+02  0.72238220788E+01 -0.27873610853E+02  0.40659139145E+02  0.00000000000E+00 0.  1.
         11    1    3    3    0    0 -0.21491201187E+02 -0.24930971280E+01  0.17695141547E+02  0.27950050025E+02  0.51100000000E-03 0. -1.
        -11    1    3    3    0    0  0.34651869566E+01  0.30556446313E+01  0.79215407161E+01  0.91703485394E+01  0.51100000000E-03 0.  1.
         12    1    3    3    0    0 -0.10680149020E+02 -0.77863695822E+01  0.22569285899E+01  0.13408462291E+02  0.00000000000E+00 0. -1.
</event>
<event>
 7    1  0.4374874E-012  0.5052886E+02  0.7816164E-02  0.1300439E+00
        -11   -1    0    0    0    0  0.00000000000E+00  0.00000000000E+00  0.45593999997E+02  0.45594000000E+02  0.51100000000E-03 0. -1.
         11   -1    0    0    0    0 -0.00000000000E+00 -0.00000000000E+00 -0.45593999997E+02  0.45594000000E+02  0.51100000000E-03 0.  1.
    9900012    2    1    2    0    0 -0.10309388159E+02 -0.17624237937E+02  0.35160604346E+02  0.50528863941E+02  0.30000012435E+02 0.  0.
        -12    1    1    2    0    0  0.10309388159E+02  0.17624237937E+02 -0.35160604346E+02  0.40659136059E+02  0.00000000000E+00 0.  1.
         11    1    3    3    0    0 -0.88099352677E+01  0.56956608092E+00  0.45327401391E+01  0.99239658590E+01  0.51100000000E-03 0. -1.
        -11    1    3    3    0    0  0.72220354551E+00 -0.11818843613E+02  0.30703169279E+01  0.12232476797E+02  0.51100000000E-03 0.  1.
         12    1    3    3    0    0 -0.22216564364E+01 -0.63749604058E+01  0.27557547279E+02  0.28372421285E+02  0.00000000000E+00 0. -1.
</event>
<event>
 7    1  0.4374874E-012  0.5052886E+02  0.7816164E-02  0.1300439E+00
        -11   -1    0    0    0    0  0.00000000000E+00  0.00000000000E+00  0.45593999997E+02  0.45594000000E+02  0.51100000000E-03 0. -1.
         11   -1    0    0    0    0 -0.00000000000E+00 -0.00000000000E+00 -0.45593999997E+02  0.45594000000E+02  0.51100000000E-03 0.  1.
    9900012    2    1    2    0    0 -0.34495298468E+02  0.10609302546E+02 -0.18726516876E+02  0.50528863866E+02  0.30000012207E+02 0.  0.
         12    1    1    2    0    0  0.34495298468E+02 -0.10609302546E+02  0.18726516876E+02  0.40659136134E+02  0.00000000000E+00 0. -1.
         11    1    3    3    0    0 -0.17479290164E+02  0.92568946720E+01 -0.59045322195E+01  0.20641685604E+02  0.51100000000E-03 0. -1.
        -11    1    3    3    0    0 -0.20884559622E+02 -0.29312894449E+01 -0.11262756444E+02  0.23908303398E+02  0.51100000000E-03 0.  1.
         12    1    3    3    0    0  0.38685513179E+01  0.42836973186E+01 -0.15592282124E+01  0.59788748636E+01  0.00000000000E+00 0. -1.
</event>
<event>
 7    1  0.4374874E-012  0.5052886E+02  0.7816164E-02  0.1300439E+00
        -11   -1    0    0    0    0  0.00000000000E+00  0.00000000000E+00  0.45593999997E+02  0.45594000000E+02  0.51100000000E-03 0.  1.
         11   -1    0    0    0    0 -0.00000000000E+00 -0.00000000000E+00 -0.45593999997E+02  0.45594000000E+02  0.51100000000E-03 0. -1.
    9900012    2    1    2    0    0 -0.32068920430E+02  0.23255716481E+02  0.91608660906E+01  0.50528862354E+02  0.30000007612E+02 0.  0.
        -12    1    1    2    0    0  0.32068920430E+02 -0.23255716481E+02 -0.91608660906E+01  0.40659137646E+02  0.00000000000E+00 0.  1.
         11    1    3    3    0    0 -0.14110508835E+02  0.66265931248E+01  0.60431276811E+00  0.15600749668E+02  0.51100000000E-03 0. -1.
        -11    1    3    3    0    0 -0.15263428738E+02  0.28265245570E+01 -0.40489620028E+01  0.16042306301E+02  0.51100000000E-03 0.  1.
         12    1    3    3    0    0 -0.26949828575E+01  0.13802598799E+02  0.12605515325E+02  0.18885806385E+02  0.00000000000E+00 0. -1.
</event>
<event>
 7    1  0.4374874E-012  0.5052886E+02  0.7816164E-02  0.1300439E+00
        -11   -1    0    0    0    0  0.00000000000E+00  0.00000000000E+00  0.45593999997E+02  0.45594000000E+02  0.51100000000E-03 0. -1.
         11   -1    0    0    0    0 -0.00000000000E+00 -0.00000000000E+00 -0.45593999997E+02  0.45594000000E+02  0.51100000000E-03 0.  1.
    9900012    2    1    2    0    0 -0.11839427077E+02  0.28077638770E+02  0.26919142285E+02  0.50528855226E+02  0.29999985946E+02 0.  0.
        -12    1    1    2    0    0  0.11839427077E+02 -0.28077638770E+02 -0.26919142285E+02  0.40659144774E+02  0.00000000000E+00 0.  1.
         11    1    3    3    0    0 -0.11573792881E+02  0.15171745170E+02  0.17481517738E+02  0.25879296664E+02  0.51100000000E-03 0. -1.
        -11    1    3    3    0    0  0.52089791954E+01  0.11275077688E+02 -0.12989708198E+01  0.12487920827E+02  0.51100000000E-03 0.  1.
         12    1    3    3    0    0 -0.54746133916E+01  0.16308159113E+01  0.10736595366E+02  0.12161637735E+02  0.00000000000E+00 0. -1.
</event>
<event>
 7    1  0.4374874E-012  0.5052886E+02  0.7816164E-02  0.1300439E+00
        -11   -1    0    0    0    0  0.00000000000E+00  0.00000000000E+00  0.45593999997E+02  0.45594000000E+02  0.51100000000E-03 0. -1.
         11   -1    0    0    0    0 -0.00000000000E+00 -0.00000000000E+00 -0.45593999997E+02  0.45594000000E+02  0.51100000000E-03 0.  1.
    9900012    2    1    2    0    0  0.30965655209E+02  0.16260117635E+02  0.20734092763E+02  0.50528857968E+02  0.29999994281E+02 0.  0.
        -12    1    1    2    0    0 -0.30965655209E+02 -0.16260117635E+02 -0.20734092763E+02  0.40659142032E+02  0.00000000000E+00 0.  1.
         11    1    3    3    0    0  0.27122258587E+01  0.48471803554E+01  0.63321896922E+01  0.84230607896E+01  0.51100000000E-03 0. -1.
        -11    1    3    3    0    0  0.19560919035E+02 -0.40747076168E+00  0.18442416056E+02  0.26887139977E+02  0.51100000000E-03 0.  1.
        -12    1    3    3    0    0  0.86925103159E+01  0.11820408041E+02 -0.40405129851E+01  0.15218657202E+02  0.00000000000E+00 0.  1.
</event>
<event>
 7    1  0.4374874E-012  0.5052878E+02  0.7816164E-02  0.1300439E+00
        -11   -1    0    0    0    0  0.00000000000E+00  0.00000000000E+00  0.45593999997E+02  0.45594000000E+02  0.51100000000E-03 0. -1.
         11   -1    0    0    0    0 -0.00000000000E+00 -0.00000000000E+00 -0.45593999997E+02  0.45594000000E+02  0.51100000000E-03 0.  1.
    9900012    2    1    2    0    0  0.24949901917E+02 -0.12840542886E+02 -0.29424388835E+02  0.50528784494E+02  0.29999770946E+02 0.  0.
         12    1    1    2    0    0 -0.24949901917E+02  0.12840542886E+02  0.29424388835E+02  0.40659215506E+02  0.00000000000E+00 0. -1.
         11    1    3    3    0    0  0.90475915925E+01 -0.58378825693E+01 -0.39793490806E+01  0.11479329505E+02  0.51100000000E-03 0.  1.
        -11    1    3    3    0    0  0.17874740223E+01  0.48135540194E+01 -0.18784420861E+02  0.19473567547E+02  0.51100000000E-03 0. -1.
         12    1    3    3    0    0  0.14114836302E+02 -0.11816214336E+02 -0.66606188935E+01  0.19575887442E+02  0.00000000000E+00 0. -1.
</event>
<event>
 7    1  0.4764576E-012  0.5052886E+02  0.7816164E-02  0.1300439E+00
        -11   -1    0    0    0    0  0.00000000000E+00  0.00000000000E+00  0.45593999997E+02  0.45594000000E+02  0.51100000000E-03 0. -1.
         11   -1    0    0    0    0 -0.00000000000E+00 -0.00000000000E+00 -0.45593999997E+02  0.45594000000E+02  0.51100000000E-03 0.  1.
    9900012    2    1    2    0    0  0.22612031935E+02  0.18932382590E+02 -0.27989763892E+02  0.50528856115E+02  0.29999988648E+02 0.  0.
         12    1    1    2    0    0 -0.22612031935E+02 -0.18932382590E+02  0.27989763892E+02  0.40659143885E+02  0.00000000000E+00 0. -1.
         11    1    3    3    0    0  0.63500700702E+01  0.58084818485E+01 -0.22378988626E+02  0.23976675821E+02  0.51100000000E-03 0. -1.
        -11    1    3    3    0    0  0.15097739923E+02  0.83079894454E+01 -0.10007740479E+02  0.19927852598E+02  0.51100000000E-03 0.  1.
         12    1    3    3    0    0  0.11642219415E+01  0.48159112956E+01  0.43969652134E+01  0.66243276960E+01  0.00000000000E+00 0. -1.
</event>
<event>
 7    1  0.4374874E-012  0.5052886E+02  0.7816164E-02  0.1300439E+00
        -11   -1    0    0    0    0  0.00000000000E+00  0.00000000000E+00  0.45593999997E+02  0.45594000000E+02  0.51100000000E-03 0. -1.
         11   -1    0    0    0    0 -0.00000000000E+00 -0.00000000000E+00 -0.45593999997E+02  0.45594000000E+02  0.51100000000E-03 0.  1.
    9900012    2    1    2    0    0  0.32534956539E+02  0.19669154632E+02 -0.14414107210E+02  0.50528861696E+02  0.30000005612E+02 0.  0.
         12    1    1    2    0    0 -0.32534956539E+02 -0.19669154632E+02  0.14414107210E+02  0.40659138304E+02  0.00000000000E+00 0. -1.
         11    1    3    3    0    0  0.10619829304E+02 -0.51226971506E+00 -0.66891452986E+01  0.12561363771E+02  0.51100000000E-03 0. -1.
        -11    1    3    3    0    0 -0.30456454754E+00  0.13023937620E+02  0.95381394132E+00  0.13062368545E+02  0.51100000000E-03 0.  1.
         12    1    3    3    0    0  0.22219691782E+02  0.71574867270E+01 -0.86787758531E+01  0.24905129381E+02  0.00000000000E+00 0. -1.
</event>
<event>
 7    1  0.4374874E-012  0.5052885E+02  0.7816164E-02  0.1300439E+00
        -11   -1    0    0    0    0  0.00000000000E+00  0.00000000000E+00  0.45593999997E+02  0.45594000000E+02  0.51100000000E-03 0.  1.
         11   -1    0    0    0    0 -0.00000000000E+00 -0.00000000000E+00 -0.45593999997E+02  0.45594000000E+02  0.51100000000E-03 0. -1.
    9900012    2    1    2    0    0 -0.37382463845E+02  0.13042581172E+02 -0.92525219921E+01  0.50528847402E+02  0.29999962164E+02 0.  0.
         12    1    1    2    0    0  0.37382463845E+02 -0.13042581172E+02  0.92525219921E+01  0.40659152598E+02  0.00000000000E+00 0. -1.
         11    1    3    3    0    0 -0.16297115180E+02  0.11052836322E+02 -0.82090781421E+01  0.21334247542E+02  0.51100000000E-03 0. -1.
        -11    1    3    3    0    0 -0.21237698691E+02 -0.47452143574E+01 -0.34658361148E+01  0.22035628542E+02  0.51100000000E-03 0.  1.
         12    1    3    3    0    0  0.15235002655E+00  0.67349592077E+01  0.24223922649E+01  0.71589713189E+01  0.00000000000E+00 0. -1.
</event>
<event>
 7    1  0.4374874E-012  0.5052886E+02  0.7816164E-02  0.1300439E+00
        -11   -1    0    0    0    0  0.00000000000E+00  0.00000000000E+00  0.45593999997E+02  0.45594000000E+02  0.51100000000E-03 0.  1.
         11   -1    0    0    0    0 -0.00000000000E+00 -0.00000000000E+00 -0.45593999997E+02  0.45594000000E+02  0.51100000000E-03 0. -1.
    9900012    2    1    2    0    0  0.37404927297E+02  0.14191623973E+02  0.72549849433E+01  0.50528861008E+02  0.30000003519E+02 0.  0.
        -12    1    1    2    0    0 -0.37404927297E+02 -0.14191623973E+02 -0.72549849433E+01  0.40659138992E+02  0.00000000000E+00 0.  1.
         11    1    3    3    0    0  0.12471033054E+02  0.89875275426E+01 -0.90644194503E+00  0.15398829631E+02  0.51100000000E-03 0. -1.
        -11    1    3    3    0    0 -0.39782431361E+00  0.76492533516E+01  0.57280375109E+01  0.95645049536E+01  0.51100000000E-03 0.  1.
        -12    1    3    3    0    0  0.25331718557E+02 -0.24451569216E+01  0.24333893774E+01  0.25565526423E+02  0.00000000000E+00 0.  1.
</event>
<event>
 7    1  0.4374874E-012  0.5052885E+02  0.7816164E-02  0.1300439E+00
        -11   -1    0    0    0    0  0.00000000000E+00  0.00000000000E+00  0.45593999997E+02  0.45594000000E+02  0.51100000000E-03 0. -1.
         11   -1    0    0    0    0 -0.00000000000E+00 -0.00000000000E+00 -0.45593999997E+02  0.45594000000E+02  0.51100000000E-03 0.  1.
    9900012    2    1    2    0    0  0.27921989025E+02 -0.13794384531E+02  0.26138928551E+02  0.50528854639E+02  0.29999984159E+02 0.  0.
        -12    1    1    2    0    0 -0.27921989025E+02  0.13794384531E+02 -0.26138928551E+02  0.40659145361E+02  0.00000000000E+00 0.  1.
         11    1    3    3    0    0  0.14251582807E+02 -0.13355648579E+02  0.14304733120E+02  0.24209633442E+02  0.51100000000E-03 0. -1.
        -11    1    3    3    0    0  0.13657303762E+02 -0.48782151422E+01  0.91405879378E+00  0.14531153869E+02  0.51100000000E-03 0.  1.
         12    1    3    3    0    0  0.13102456143E-01  0.44394791903E+01  0.10920136637E+02  0.11788067328E+02  0.00000000000E+00 0. -1.
</event>
<event>
 7    1  0.4374874E-012  0.5052885E+02  0.7816164E-02  0.1300439E+00
        -11   -1    0    0    0    0  0.00000000000E+00  0.00000000000E+00  0.45593999997E+02  0.45594000000E+02  0.51100000000E-03 0. -1.
         11   -1    0    0    0    0 -0.00000000000E+00 -0.00000000000E+00 -0.45593999997E+02  0.45594000000E+02  0.51100000000E-03 0.  1.
    9900012    2    1    2    0    0  0.14119807992E+02 -0.13198521440E+02  0.35771446986E+02  0.50528851393E+02  0.29999974295E+02 0.  0.
        -12    1    1    2    0    0 -0.14119807992E+02  0.13198521440E+02 -0.35771446986E+02  0.40659148607E+02  0.00000000000E+00 0.  1.
         11    1    3    3    0    0 -0.26875315304E+01 -0.36923727293E+01  0.12357244230E+02  0.13174138580E+02  0.51100000000E-03 0. -1.
        -11    1    3    3    0    0  0.17455018299E+01 -0.11338204808E+02  0.28885241038E+01  0.11829845167E+02  0.51100000000E-03 0.  1.
        -12    1    3    3    0    0  0.15061837693E+02  0.18320560978E+01  0.20525678652E+02  0.25524867646E+02  0.00000000000E+00 0.  1.
</event>
<event>
 7    1  0.4374874E-012  0.5052884E+02  0.7816164E-02  0.1300439E+00
        -11   -1    0    0    0    0  0.00000000000E+00  0.00000000000E+00  0.45593999997E+02  0.45594000000E+02  0.51100000000E-03 0. -1.
         11   -1    0    0    0    0 -0.00000000000E+00 -0.00000000000E+00 -0.45593999997E+02  0.45594000000E+02  0.51100000000E-03 0.  1.
    9900012    2    1    2    0    0  0.47560755090E+01  0.17212027243E+02  0.36527975551E+02  0.50528841943E+02  0.29999945569E+02 0.  0.
        -12    1    1    2    0    0 -0.47560755090E+01 -0.17212027243E+02 -0.36527975551E+02  0.40659158057E+02  0.00000000000E+00 0.  1.
         11    1    3    3    0    0  0.40760615639E+01 -0.29072749740E+01  0.17738842971E+01  0.53116091166E+01  0.51100000000E-03 0. -1.
        -11    1    3    3    0    0  0.45960913541E+01 -0.27943885888E+01  0.93176274727E+01  0.10758756680E+02  0.51100000000E-03 0.  1.
        -12    1    3    3    0    0 -0.39160774090E+01  0.22913690806E+02  0.25436463781E+02  0.34458476146E+02  0.00000000000E+00 0.  1.
</event>
<event>
 7    1  0.4374874E-012  0.5052884E+02  0.7816164E-02  0.1300439E+00
        -11   -1    0    0    0    0  0.00000000000E+00  0.00000000000E+00  0.45593999997E+02  0.45594000000E+02  0.51100000000E-03 0. -1.
         11   -1    0    0    0    0 -0.00000000000E+00 -0.00000000000E+00 -0.45593999997E+02  0.45594000000E+02  0.51100000000E-03 0.  1.
    9900012    2    1    2    0    0 -0.12104994976E+02 -0.12158889139E+02  0.36861875763E+02  0.50528839000E+02  0.29999936625E+02 0.  0.
        -12    1    1    2    0    0  0.12104994976E+02  0.12158889139E+02 -0.36861875763E+02  0.40659161000E+02  0.00000000000E+00 0.  1.
         11    1    3    3    0    0 -0.10668616142E+02 -0.61252009894E-01  0.58635284660E+01  0.12173910157E+02  0.51100000000E-03 0. -1.
        -11    1    3    3    0    0 -0.27019814268E+01 -0.94216035404E+01  0.30711540744E+01  0.10271285436E+02  0.51100000000E-03 0.  1.
        -12    1    3    3    0    0  0.12656025928E+01 -0.26760335883E+01  0.27927193223E+02  0.28083643407E+02  0.00000000000E+00 0.  1.
</event>
<event>
 7    1  0.4374874E-012  0.5052886E+02  0.7816164E-02  0.1300439E+00
        -11   -1    0    0    0    0  0.00000000000E+00  0.00000000000E+00  0.45593999997E+02  0.45594000000E+02  0.51100000000E-03 0. -1.
         11   -1    0    0    0    0 -0.00000000000E+00 -0.00000000000E+00 -0.45593999997E+02  0.45594000000E+02  0.51100000000E-03 0.  1.
    9900012    2    1    2    0    0 -0.26273033489E+02  0.10768195577E+02  0.29102223690E+02  0.50528858981E+02  0.29999997360E+02 0.  0.
        -12    1    1    2    0    0  0.26273033489E+02 -0.10768195577E+02 -0.29102223690E+02  0.40659141019E+02  0.00000000000E+00 0.  1.
         11    1    3    3    0    0 -0.26880972937E+02  0.99046253170E+01  0.26351811220E+02  0.38924365936E+02  0.51100000000E-03 0. -1.
        -11    1    3    3    0    0 -0.48510190249E+01  0.41612023796E+00 -0.99451355109E+00  0.49693660659E+01  0.51100000000E-03 0.  1.
        -12    1    3    3    0    0  0.54589584729E+01  0.44745002221E+00  0.37449260211E+01  0.66351269796E+01  0.00000000000E+00 0.  1.
</event>
<event>
 7    1  0.4374874E-012  0.5052885E+02  0.7816164E-02  0.1300439E+00
        -11   -1    0    0    0    0  0.00000000000E+00  0.00000000000E+00  0.45593999997E+02  0.45594000000E+02  0.51100000000E-03 0. -1.
         11   -1    0    0    0    0 -0.00000000000E+00 -0.00000000000E+00 -0.45593999997E+02  0.45594000000E+02  0.51100000000E-03 0.  1.
    9900012    2    1    2    0    0  0.10987334645E+02  0.29687497212E+02  0.25516616560E+02  0.50528846861E+02  0.29999960518E+02 0.  0.
        -12    1    1    2    0    0 -0.10987334645E+02 -0.29687497212E+02 -0.25516616560E+02  0.40659153139E+02  0.00000000000E+00 0.  1.
         11    1    3    3    0    0  0.56315404250E+01  0.15156967323E+02  0.19632425548E+02  0.25433836501E+02  0.51100000000E-03 0. -1.
        -11    1    3    3    0    0 -0.87144902491E+00  0.15844662130E+02  0.87433132034E+01  0.18117899090E+02  0.51100000000E-03 0.  1.
        -12    1    3    3    0    0  0.62272432447E+01 -0.13141322401E+01 -0.28591221912E+01  0.69771112702E+01  0.00000000000E+00 0.  1.
</event>
<event>
 7    1  0.4694134E-012  0.5052886E+02  0.7816164E-02  0.1300439E+00
        -11   -1    0    0    0    0  0.00000000000E+00  0.00000000000E+00  0.45593999997E+02  0.45594000000E+02  0.51100000000E-03 0. -1.
         11   -1    0    0    0    0 -0.00000000000E+00 -0.00000000000E+00 -0.45593999997E+02  0.45594000000E+02  0.51100000000E-03 0.  1.
    9900012    2    1    2    0    0  0.66321489726E+01 -0.19135152991E+02 -0.35256578421E+02  0.50528858323E+02  0.29999995358E+02 0.  0.
         12    1    1    2    0    0 -0.66321489726E+01  0.19135152991E+02  0.35256578421E+02  0.40659141677E+02  0.00000000000E+00 0. -1.
         11    1    3    3    0    0 -0.53457292398E+01 -0.68815809398E+01 -0.80632761335E+01  0.11872211235E+02  0.51100000000E-03 0. -1.
        -11    1    3    3    0    0  0.47388938579E+01 -0.13122147396E+02 -0.28037611543E+02  0.31317016598E+02  0.51100000000E-03 0.  1.
         12    1    3    3    0    0  0.72389843545E+01  0.86857534452E+00  0.84430925614E+00  0.73396304903E+01  0.00000000000E+00 0. -1.
</event>
<event>
 7    1  0.4374874E-012  0.5052885E+02  0.7816164E-02  0.1300439E+00
        -11   -1    0    0    0    0  0.00000000000E+00  0.00000000000E+00  0.45593999997E+02  0.45594000000E+02  0.51100000000E-03 0. -1.
         11   -1    0    0    0    0 -0.00000000000E+00 -0.00000000000E+00 -0.45593999997E+02  0.45594000000E+02  0.51100000000E-03 0.  1.
    9900012    2    1    2    0    0 -0.13543624728E+01  0.24322665157E+02 -0.32553649535E+02  0.50528850524E+02  0.29999971653E+02 0.  0.
         12    1    1    2    0    0  0.13543624728E+01 -0.24322665157E+02  0.32553649535E+02  0.40659149476E+02  0.00000000000E+00 0. -1.
         11    1    3    3    0    0  0.32779650240E+01  0.13524273502E+02 -0.14883791073E+02  0.20375923670E+02  0.51100000000E-03 0. -1.
        -11    1    3    3    0    0  0.25694126599E+00  0.14166729211E+02 -0.32192574399E+01  0.14530170476E+02  0.51100000000E-03 0.  1.
         12    1    3    3    0    0 -0.48892687628E+01 -0.33683375555E+01 -0.14450601023E+02  0.15622756378E+02  0.00000000000E+00 0. -1.
</event>
<event>
 7    1  0.4374874E-012  0.5052885E+02  0.7816164E-02  0.1300439E+00
        -11   -1    0    0    0    0  0.00000000000E+00  0.00000000000E+00  0.45593999997E+02  0.45594000000E+02  0.51100000000E-03 0.  1.
         11   -1    0    0    0    0 -0.00000000000E+00 -0.00000000000E+00 -0.45593999997E+02  0.45594000000E+02  0.51100000000E-03 0. -1.
    9900012    2    1    2    0    0 -0.93517622767E+01  0.39275326359E+02 -0.48124741430E+01  0.50528848193E+02  0.29999964568E+02 0.  0.
         12    1    1    2    0    0  0.93517622767E+01 -0.39275326359E+02  0.48124741430E+01  0.40659151807E+02  0.00000000000E+00 0. -1.
         11    1    3    3    0    0  0.44699751419E+01  0.18078528698E+02 -0.73951597495E+01  0.20037521444E+02  0.51100000000E-03 0. -1.
        -11    1    3    3    0    0  0.21494812323E+01  0.34087064977E+01  0.50472265970E+01  0.64586411990E+01  0.51100000000E-03 0.  1.
        -12    1    3    3    0    0 -0.15971218651E+02  0.17788091163E+02 -0.24645409905E+01  0.24032685550E+02  0.00000000000E+00 0.  1.
</event>
<event>
 7    1  0.4374874E-012  0.5052885E+02  0.7816164E-02  0.1300439E+00
        -11   -1    0    0    0    0  0.00000000000E+00  0.00000000000E+00  0.45593999997E+02  0.45594000000E+02  0.51100000000E-03 0.  1.
         11   -1    0    0    0    0 -0.00000000000E+00 -0.00000000000E+00 -0.45593999997E+02  0.45594000000E+02  0.51100000000E-03 0. -1.
    9900012    2    1    2    0    0  0.38479924473E+02 -0.11856130080E+02  0.56474733998E+01  0.50528851414E+02  0.29999974359E+02 0.  0.
         12    1    1    2    0    0 -0.38479924473E+02  0.11856130080E+02 -0.56474733998E+01  0.40659148586E+02  0.00000000000E+00 0. -1.
         11    1    3    3    0    0  0.22122133662E+02 -0.66119449096E+01  0.33145439675E+01  0.23325797205E+02  0.51100000000E-03 0.  1.
        -11    1    3    3    0    0  0.18001128476E+02 -0.10870992047E+02  0.32211326162E+01  0.21274275313E+02  0.51100000000E-03 0. -1.
         12    1    3    3    0    0 -0.16433376658E+01  0.56268068767E+01 -0.88820318396E+00  0.59287788968E+01  0.00000000000E+00 0. -1.
</event>
<event>
 7    1  0.4374874E-012  0.5052886E+02  0.7816164E-02  0.1300439E+00
        -11   -1    0    0    0    0  0.00000000000E+00  0.00000000000E+00  0.45593999997E+02  0.45594000000E+02  0.51100000000E-03 0. -1.
         11   -1    0    0    0    0 -0.00000000000E+00 -0.00000000000E+00 -0.45593999997E+02  0.45594000000E+02  0.51100000000E-03 0.  1.
    9900012    2    1    2    0    0 -0.32734309331E+02 -0.11243617382E+01  0.24090797901E+02  0.50528859081E+02  0.29999997664E+02 0.  0.
        -12    1    1    2    0    0  0.32734309331E+02  0.11243617382E+01 -0.24090797901E+02  0.40659140919E+02  0.00000000000E+00 0.  1.
         11    1    3    3    0    0  0.85678066282E+00 -0.78828180759E+00  0.55724466417E+01  0.56927693742E+01  0.51100000000E-03 0. -1.
        -11    1    3    3    0    0 -0.14494172087E+02 -0.10674663371E+02  0.32549657693E+01  0.18292738040E+02  0.51100000000E-03 0.  1.
        -12    1    3    3    0    0 -0.19096917907E+02  0.10338583441E+02  0.15263385490E+02  0.26543351667E+02  0.00000000000E+00 0.  1.
</event>
<event>
 7    1  0.4374874E-012  0.5052886E+02  0.7816164E-02  0.1300439E+00
        -11   -1    0    0    0    0  0.00000000000E+00  0.00000000000E+00  0.45593999997E+02  0.45594000000E+02  0.51100000000E-03 0. -1.
         11   -1    0    0    0    0 -0.00000000000E+00 -0.00000000000E+00 -0.45593999997E+02  0.45594000000E+02  0.51100000000E-03 0.  1.
    9900012    2    1    2    0    0 -0.18503096867E+02 -0.20115953985E+01  0.36149063136E+02  0.50528857420E+02  0.29999992614E+02 0.  0.
        -12    1    1    2    0    0  0.18503096867E+02  0.20115953985E+01 -0.36149063136E+02  0.40659142580E+02  0.00000000000E+00 0.  1.
         11    1    3    3    0    0  0.34671915889E+01  0.14389187586E+01 -0.14369424937E+00  0.37566678062E+01  0.51100000000E-03 0.  1.
        -11    1    3    3    0    0 -0.63309150754E+01  0.77542472238E+01  0.96085339430E+01  0.13875617482E+02  0.51100000000E-03 0. -1.
         12    1    3    3    0    0 -0.15639373380E+02 -0.11204761381E+02  0.26684223442E+02  0.32896572132E+02  0.00000000000E+00 0. -1.
</event>
<event>
 7    1  0.4374874E-012  0.5052888E+02  0.7816164E-02  0.1300439E+00
        -11   -1    0    0    0    0  0.00000000000E+00  0.00000000000E+00  0.45593999997E+02  0.45594000000E+02  0.51100000000E-03 0. -1.
         11   -1    0    0    0    0 -0.00000000000E+00 -0.00000000000E+00 -0.45593999997E+02  0.45594000000E+02  0.51100000000E-03 0.  1.
    9900012    2    1    2    0    0  0.14524055224E+02 -0.36044592363E+02 -0.11958402243E+02  0.50528877986E+02  0.30000055126E+02 0.  0.
         12    1    1    2    0    0 -0.14524055224E+02  0.36044592363E+02  0.11958402243E+02  0.40659122014E+02  0.00000000000E+00 0. -1.
         11    1    3    3    0    0  0.45014627923E+01 -0.37643452748E+02 -0.52081872140E+01  0.38267713759E+02  0.51100000000E-03 0. -1.
        -11    1    3    3    0    0  0.90661900618E+00  0.23541329927E+00 -0.11208569451E+01  0.14607183152E+01  0.51100000000E-03 0.  1.
         12    1    3    3    0    0  0.91159734253E+01  0.13634470858E+01 -0.56293580842E+01  0.10800445911E+02  0.00000000000E+00 0. -1.
</event>
<event>
 7    1  0.4374874E-012  0.5052888E+02  0.7816164E-02  0.1300439E+00
        -11   -1    0    0    0    0  0.00000000000E+00  0.00000000000E+00  0.45593999997E+02  0.45594000000E+02  0.51100000000E-03 0. -1.
         11   -1    0    0    0    0 -0.00000000000E+00 -0.00000000000E+00 -0.45593999997E+02  0.45594000000E+02  0.51100000000E-03 0.  1.
    9900012    2    1    2    0    0  0.89862667658E+01  0.29128518396E+02 -0.26906138832E+02  0.50528881943E+02  0.30000067152E+02 0.  0.
         12    1    1    2    0    0 -0.89862667658E+01 -0.29128518396E+02  0.26906138832E+02  0.40659118057E+02  0.00000000000E+00 0. -1.
         11    1    3    3    0    0  0.18582326349E+02  0.15267848771E+02 -0.11420730825E+02  0.26624108463E+02  0.51100000000E-03 0. -1.
        -11    1    3    3    0    0  0.61809150942E-01  0.20791216355E+01 -0.49873749098E+01  0.54037464687E+01  0.51100000000E-03 0.  1.
         12    1    3    3    0    0 -0.96578687341E+01  0.11781547990E+02 -0.10498033098E+02  0.18501027011E+02  0.00000000000E+00 0. -1.
</event>
<event>
 7    1  0.4374874E-012  0.5052886E+02  0.7816164E-02  0.1300439E+00
        -11   -1    0    0    0    0  0.00000000000E+00  0.00000000000E+00  0.45593999997E+02  0.45594000000E+02  0.51100000000E-03 0. -1.
         11   -1    0    0    0    0 -0.00000000000E+00 -0.00000000000E+00 -0.45593999997E+02  0.45594000000E+02  0.51100000000E-03 0.  1.
    9900012    2    1    2    0    0  0.58234803783E+01  0.10475928350E+02  0.38852379650E+02  0.50528863229E+02  0.30000010271E+02 0.  0.
        -12    1    1    2    0    0 -0.58234803783E+01 -0.10475928350E+02 -0.38852379650E+02  0.40659136771E+02  0.00000000000E+00 0.  1.
         11    1    3    3    0    0 -0.29789897692E+01  0.29601165051E+01  0.12655699721E+02  0.13334294337E+02  0.51100000000E-03 0. -1.
        -11    1    3    3    0    0  0.12127333217E+02  0.76086145602E+01  0.29322048321E+02  0.32630441991E+02  0.51100000000E-03 0.  1.
        -12    1    3    3    0    0 -0.33248630700E+01 -0.92802714793E-01 -0.31253683932E+01  0.45641269013E+01  0.00000000000E+00 0.  1.
</event>
<event>
 7    1  0.4374874E-012  0.5052886E+02  0.7816164E-02  0.1300439E+00
        -11   -1    0    0    0    0  0.00000000000E+00  0.00000000000E+00  0.45593999997E+02  0.45594000000E+02  0.51100000000E-03 0. -1.
         11   -1    0    0    0    0 -0.00000000000E+00 -0.00000000000E+00 -0.45593999997E+02  0.45594000000E+02  0.51100000000E-03 0.  1.
    9900012    2    1    2    0    0 -0.37792897225E+02 -0.13737418764E+02  0.60121559725E+01  0.50528858661E+02  0.29999996387E+02 0.  0.
        -12    1    1    2    0    0  0.37792897225E+02  0.13737418764E+02 -0.60121559725E+01  0.40659141339E+02  0.00000000000E+00 0.  1.
         11    1    3    3    0    0 -0.33242574093E+02 -0.18124889244E+02  0.29204891760E+01  0.37975118166E+02  0.51100000000E-03 0. -1.
        -11    1    3    3    0    0 -0.67649944924E+00  0.14613957133E+01 -0.37980890651E+01  0.41253860114E+01  0.51100000000E-03 0.  1.
        -12    1    3    3    0    0 -0.38738236826E+01  0.29260747672E+01  0.68897558616E+01  0.84283544835E+01  0.00000000000E+00 0.  1.
</event>
<event>
 7    1  0.4374874E-012  0.5052888E+02  0.7816164E-02  0.1300439E+00
        -11   -1    0    0    0    0  0.00000000000E+00  0.00000000000E+00  0.45593999997E+02  0.45594000000E+02  0.51100000000E-03 0. -1.
         11   -1    0    0    0    0 -0.00000000000E+00 -0.00000000000E+00 -0.45593999997E+02  0.45594000000E+02  0.51100000000E-03 0.  1.
    9900012    2    1    2    0    0  0.12369350733E+02 -0.10074039415E+02 -0.37398891309E+02  0.50528878282E+02  0.30000056027E+02 0.  0.
         12    1    1    2    0    0 -0.12369350733E+02  0.10074039415E+02  0.37398891309E+02  0.40659121718E+02  0.00000000000E+00 0. -1.
         11    1    3    3    0    0  0.14772159056E+01  0.15144959745E+01  0.15496712078E+01  0.26224694473E+01  0.51100000000E-03 0. -1.
        -11    1    3    3    0    0  0.12070341838E+01 -0.15776199686E+02 -0.15296698791E+02  0.22007598738E+02  0.51100000000E-03 0.  1.
        -12    1    3    3    0    0  0.96851006435E+01  0.41876642964E+01 -0.23651863727E+02  0.25898810098E+02  0.00000000000E+00 0.  1.
</event>
<event>
 7    1  0.4374874E-012  0.5052888E+02  0.7816164E-02  0.1300439E+00
        -11   -1    0    0    0    0  0.00000000000E+00  0.00000000000E+00  0.45593999997E+02  0.45594000000E+02  0.51100000000E-03 0. -1.
         11   -1    0    0    0    0 -0.00000000000E+00 -0.00000000000E+00 -0.45593999997E+02  0.45594000000E+02  0.51100000000E-03 0.  1.
    9900012    2    1    2    0    0  0.45535956847E+01 -0.22601398475E+02 -0.33490385587E+02  0.50528875889E+02  0.30000048752E+02 0.  0.
         12    1    1    2    0    0 -0.45535956847E+01  0.22601398475E+02  0.33490385587E+02  0.40659124111E+02  0.00000000000E+00 0. -1.
         11    1    3    3    0    0 -0.45449527175E+01 -0.14198133734E+01 -0.26752950335E+01  0.54616544194E+01  0.51100000000E-03 0. -1.
        -11    1    3    3    0    0  0.14309466382E+02 -0.53904447568E+01 -0.20216605101E+02  0.25348152691E+02  0.51100000000E-03 0.  1.
         12    1    3    3    0    0 -0.52109179793E+01 -0.15791140345E+02 -0.10598485453E+02  0.19719068778E+02  0.00000000000E+00 0. -1.
</event>
<event>
 7    1  0.4374874E-012  0.5052886E+02  0.7816164E-02  0.1300439E+00
        -11   -1    0    0    0    0  0.00000000000E+00  0.00000000000E+00  0.45593999997E+02  0.45594000000E+02  0.51100000000E-03 0. -1.
         11   -1    0    0    0    0 -0.00000000000E+00 -0.00000000000E+00 -0.45593999997E+02  0.45594000000E+02  0.51100000000E-03 0.  1.
    9900012    2    1    2    0    0 -0.16960353140E+02  0.24536418310E+02  0.27631072540E+02  0.50528861153E+02  0.30000003959E+02 0.  0.
        -12    1    1    2    0    0  0.16960353140E+02 -0.24536418310E+02 -0.27631072540E+02  0.40659138847E+02  0.00000000000E+00 0.  1.
         11    1    3    3    0    0 -0.50149368082E+01  0.11584433934E+02  0.19384106527E+02  0.23132061881E+02  0.51100000000E-03 0. -1.
        -11    1    3    3    0    0  0.40338559937E+01  0.86957011860E+01  0.32542823869E+01  0.10123120438E+02  0.51100000000E-03 0.  1.
        -12    1    3    3    0    0 -0.15979272325E+02  0.42562831904E+01  0.49926836261E+01  0.17273678833E+02  0.00000000000E+00 0.  1.
</event>
<event>
 7    1  0.4374874E-012  0.5052886E+02  0.7816164E-02  0.1300439E+00
        -11   -1    0    0    0    0  0.00000000000E+00  0.00000000000E+00  0.45593999997E+02  0.45594000000E+02  0.51100000000E-03 0.  1.
         11   -1    0    0    0    0 -0.00000000000E+00 -0.00000000000E+00 -0.45593999997E+02  0.45594000000E+02  0.51100000000E-03 0. -1.
    9900012    2    1    2    0    0 -0.34276880863E+02  0.20229588518E+02 -0.83081088221E+01  0.50528862214E+02  0.30000007186E+02 0.  0.
         12    1    1    2    0    0  0.34276880863E+02 -0.20229588518E+02  0.83081088221E+01  0.40659137786E+02  0.00000000000E+00 0. -1.
         11    1    3    3    0    0 -0.19773852777E+02  0.27686966018E+01  0.64230836995E+01  0.20974435368E+02  0.51100000000E-03 0.  1.
        -11    1    3    3    0    0  0.37715160470E+00  0.71239529800E+01 -0.19951492287E+01  0.74076696808E+01  0.51100000000E-03 0. -1.
        -12    1    3    3    0    0 -0.14880179690E+02  0.10336938937E+02 -0.12736043293E+02  0.22146757166E+02  0.00000000000E+00 0.  1.
</event>
<event>
 7    1  0.4374874E-012  0.5052887E+02  0.7816164E-02  0.1300439E+00
        -11   -1    0    0    0    0  0.00000000000E+00  0.00000000000E+00  0.45593999997E+02  0.45594000000E+02  0.51100000000E-03 0. -1.
         11   -1    0    0    0    0 -0.00000000000E+00 -0.00000000000E+00 -0.45593999997E+02  0.45594000000E+02  0.51100000000E-03 0.  1.
    9900012    2    1    2    0    0  0.12052401590E+02  0.85030309981E+00 -0.38822437832E+02  0.50528867217E+02  0.30000022392E+02 0.  0.
         12    1    1    2    0    0 -0.12052401590E+02 -0.85030309981E+00  0.38822437832E+02  0.40659132783E+02  0.00000000000E+00 0. -1.
         11    1    3    3    0    0  0.16973562910E+02  0.12561877541E+01 -0.19271143949E+02  0.25711025551E+02  0.51100000000E-03 0. -1.
        -11    1    3    3    0    0  0.34355652078E+01 -0.46745327615E+01 -0.88860467851E+01  0.10612077674E+02  0.51100000000E-03 0.  1.
         12    1    3    3    0    0 -0.83567265272E+01  0.42686481072E+01 -0.10665247098E+02  0.14205763991E+02  0.00000000000E+00 0. -1.
</event>
<event>
 7    1  0.4374874E-012  0.5052886E+02  0.7816164E-02  0.1300439E+00
        -11   -1    0    0    0    0  0.00000000000E+00  0.00000000000E+00  0.45593999997E+02  0.45594000000E+02  0.51100000000E-03 0. -1.
         11   -1    0    0    0    0 -0.00000000000E+00 -0.00000000000E+00 -0.45593999997E+02  0.45594000000E+02  0.51100000000E-03 0.  1.
    9900012    2    1    2    0    0  0.92306160544E+01 -0.24444151013E+01  0.39521969305E+02  0.50528862089E+02  0.30000006806E+02 0.  0.
        -12    1    1    2    0    0 -0.92306160544E+01  0.24444151013E+01 -0.39521969305E+02  0.40659137911E+02  0.00000000000E+00 0.  1.
         11    1    3    3    0    0 -0.22161432279E+01 -0.62853050306E+01  0.23386967567E+02  0.24318030397E+02  0.51100000000E-03 0. -1.
        -11    1    3    3    0    0  0.37158622731E+01 -0.65428676379E+01  0.42762286199E+01  0.86546450436E+01  0.51100000000E-03 0.  1.
        -12    1    3    3    0    0  0.77308970092E+01  0.10383757567E+02  0.11858773118E+02  0.17556186648E+02  0.00000000000E+00 0.  1.
</event>
<event>
 7    1  0.4374874E-012  0.5052888E+02  0.7816164E-02  0.1300439E+00
        -11   -1    0    0    0    0  0.00000000000E+00  0.00000000000E+00  0.45593999997E+02  0.45594000000E+02  0.51100000000E-03 0. -1.
         11   -1    0    0    0    0 -0.00000000000E+00 -0.00000000000E+00 -0.45593999997E+02  0.45594000000E+02  0.51100000000E-03 0.  1.
    9900012    2    1    2    0    0  0.57975589931E+01  0.82334512105E+01 -0.39392419227E+02  0.50528879231E+02  0.30000058911E+02 0.  0.
         12    1    1    2    0    0 -0.57975589931E+01 -0.82334512105E+01  0.39392419227E+02  0.40659120769E+02  0.00000000000E+00 0. -1.
         11    1    3    3    0    0 -0.26142557684E+01 -0.30744392959E+01  0.14075578172E+01  0.42740764472E+01  0.51100000000E-03 0. -1.
        -11    1    3    3    0    0 -0.23222790120E+00 -0.37263293087E+01 -0.12670778027E+02  0.13209393475E+02  0.51100000000E-03 0.  1.
         12    1    3    3    0    0  0.86440426627E+01  0.15034219815E+02 -0.28129199018E+02  0.33045409309E+02  0.00000000000E+00 0. -1.
</event>
<event>
 7    1  0.4374874E-012  0.5052887E+02  0.7816164E-02  0.1300439E+00
        -11   -1    0    0    0    0  0.00000000000E+00  0.00000000000E+00  0.45593999997E+02  0.45594000000E+02  0.51100000000E-03 0. -1.
         11   -1    0    0    0    0 -0.00000000000E+00 -0.00000000000E+00 -0.45593999997E+02  0.45594000000E+02  0.51100000000E-03 0.  1.
    9900012    2    1    2    0    0 -0.12389075026E+02  0.11460361822E+02  0.36991027617E+02  0.50528865759E+02  0.30000017960E+02 0.  0.
        -12    1    1    2    0    0  0.12389075026E+02 -0.11460361822E+02 -0.36991027617E+02  0.40659134241E+02  0.00000000000E+00 0.  1.
         11    1    3    3    0    0 -0.15841999921E+02 -0.39786475766E+01  0.27383634470E+02  0.31885138154E+02  0.51100000000E-03 0. -1.
        -11    1    3    3    0    0 -0.29320313943E-01  0.36504336343E+01  0.27300270690E+01  0.45584617425E+01  0.51100000000E-03 0.  1.
         12    1    3    3    0    0  0.34822452088E+01  0.11788575764E+02  0.68773660784E+01  0.14085265862E+02  0.00000000000E+00 0. -1.
</event>
<event>
 7    1  0.4374874E-012  0.5052886E+02  0.7816164E-02  0.1300439E+00
        -11   -1    0    0    0    0  0.00000000000E+00  0.00000000000E+00  0.45593999997E+02  0.45594000000E+02  0.51100000000E-03 0. -1.
         11   -1    0    0    0    0 -0.00000000000E+00 -0.00000000000E+00 -0.45593999997E+02  0.45594000000E+02  0.51100000000E-03 0.  1.
    9900012    2    1    2    0    0 -0.22030525681E+02 -0.88734300749E+01 -0.33001267042E+02  0.50528862658E+02  0.30000008534E+02 0.  0.
         12    1    1    2    0    0  0.22030525681E+02  0.88734300749E+01  0.33001267042E+02  0.40659137342E+02  0.00000000000E+00 0. -1.
         11    1    3    3    0    0 -0.73559273352E+01 -0.15783411667E+02 -0.13226266906E+02  0.21866867342E+02  0.51100000000E-03 0. -1.
        -11    1    3    3    0    0 -0.13889762425E+01  0.71867192464E+01 -0.54743095345E+01  0.91403639790E+01  0.51100000000E-03 0.  1.
        -12    1    3    3    0    0 -0.13285622103E+02 -0.27673765477E+00 -0.14300690601E+02  0.19521631337E+02  0.00000000000E+00 0.  1.
</event>
<event>
 7    1  0.8090205E-012  0.5052886E+02  0.7816164E-02  0.1300439E+00
        -11   -1    0    0    0    0  0.00000000000E+00  0.00000000000E+00  0.45593999997E+02  0.45594000000E+02  0.51100000000E-03 0. -1.
         11   -1    0    0    0    0 -0.00000000000E+00 -0.00000000000E+00 -0.45593999997E+02  0.45594000000E+02  0.51100000000E-03 0.  1.
    9900012    2    1    2    0    0 -0.10758981850E+02 -0.37746401928E+02 -0.10612207987E+02  0.50528861946E+02  0.30000006370E+02 0.  0.
         12    1    1    2    0    0  0.10758981850E+02  0.37746401928E+02  0.10612207987E+02  0.40659138054E+02  0.00000000000E+00 0. -1.
         11    1    3    3    0    0 -0.91795262415E+01 -0.18224976383E+02 -0.12208182112E+02  0.23779259386E+02  0.51100000000E-03 0. -1.
        -11    1    3    3    0    0  0.13070894780E+01 -0.21082299913E+02 -0.27530546069E+01  0.21301435690E+02  0.51100000000E-03 0.  1.
         12    1    3    3    0    0 -0.28865450865E+01  0.15608743680E+01  0.43490287325E+01  0.54481668702E+01  0.00000000000E+00 0. -1.
</event>
<event>
 7    1  0.4374874E-012  0.5052887E+02  0.7816164E-02  0.1300439E+00
        -11   -1    0    0    0    0  0.00000000000E+00  0.00000000000E+00  0.45593999997E+02  0.45594000000E+02  0.51100000000E-03 0. -1.
         11   -1    0    0    0    0 -0.00000000000E+00 -0.00000000000E+00 -0.45593999997E+02  0.45594000000E+02  0.51100000000E-03 0.  1.
    9900012    2    1    2    0    0  0.13656930866E+02 -0.12638407760E+02 -0.36151404807E+02  0.50528865959E+02  0.30000018570E+02 0.  0.
         12    1    1    2    0    0 -0.13656930866E+02  0.12638407760E+02  0.36151404807E+02  0.40659134041E+02  0.00000000000E+00 0. -1.
         11    1    3    3    0    0  0.18905569670E+01 -0.17352524365E+02 -0.19675400168E+02  0.26302199138E+02  0.51100000000E-03 0. -1.
        -11    1    3    3    0    0  0.73199014375E+00 -0.32636325549E+01 -0.66222172661E+01  0.74189533497E+01  0.51100000000E-03 0.  1.
         12    1    3    3    0    0  0.11034383756E+02  0.79777491604E+01 -0.98537873733E+01  0.16807713471E+02  0.00000000000E+00 0. -1.
</event>
<event>
 7    1  0.4374874E-012  0.5052886E+02  0.7816164E-02  0.1300439E+00
        -11   -1    0    0    0    0  0.00000000000E+00  0.00000000000E+00  0.45593999997E+02  0.45594000000E+02  0.51100000000E-03 0. -1.
         11   -1    0    0    0    0 -0.00000000000E+00 -0.00000000000E+00 -0.45593999997E+02  0.45594000000E+02  0.51100000000E-03 0.  1.
    9900012    2    1    2    0    0 -0.18957177676E+01 -0.14837765463E+02 -0.37807573823E+02  0.50528859968E+02  0.30000000358E+02 0.  0.
         12    1    1    2    0    0  0.18957177676E+01  0.14837765463E+02  0.37807573823E+02  0.40659140032E+02  0.00000000000E+00 0. -1.
         11    1    3    3    0    0 -0.21836395859E+01 -0.74678204306E+01  0.22588165203E+01  0.81017822828E+01  0.51100000000E-03 0. -1.
        -11    1    3    3    0    0  0.37910646709E+01 -0.40840998394E+01 -0.66896136092E+01  0.87064902997E+01  0.51100000000E-03 0.  1.
         12    1    3    3    0    0 -0.35031428527E+01 -0.32858451931E+01 -0.33376776734E+02  0.33720587385E+02  0.00000000000E+00 0. -1.
</event>
<event>
 7    1  0.4374874E-012  0.5052884E+02  0.7816164E-02  0.1300439E+00
        -11   -1    0    0    0    0  0.00000000000E+00  0.00000000000E+00  0.45593999997E+02  0.45594000000E+02  0.51100000000E-03 0. -1.
         11   -1    0    0    0    0 -0.00000000000E+00 -0.00000000000E+00 -0.45593999997E+02  0.45594000000E+02  0.51100000000E-03 0.  1.
    9900012    2    1    2    0    0  0.17536767112E+02  0.69244772483E+01 -0.36023334520E+02  0.50528840935E+02  0.29999942506E+02 0.  0.
         12    1    1    2    0    0 -0.17536767112E+02 -0.69244772483E+01  0.36023334520E+02  0.40659159065E+02  0.00000000000E+00 0. -1.
         11    1    3    3    0    0  0.24023029079E+00 -0.36307362767E+01 -0.18062528097E+02  0.18425386781E+02  0.51100000000E-03 0. -1.
        -11    1    3    3    0    0  0.41589410862E+00  0.20413795340E+01 -0.12145933526E+02  0.12323307177E+02  0.51100000000E-03 0.  1.
        -12    1    3    3    0    0  0.16880642713E+02  0.85138339911E+01 -0.58148728976E+01  0.19780146977E+02  0.00000000000E+00 0.  1.
</event>
<event>
 7    1  0.4374874E-012  0.5052886E+02  0.7816164E-02  0.1300439E+00
        -11   -1    0    0    0    0  0.00000000000E+00  0.00000000000E+00  0.45593999997E+02  0.45594000000E+02  0.51100000000E-03 0. -1.
         11   -1    0    0    0    0 -0.00000000000E+00 -0.00000000000E+00 -0.45593999997E+02  0.45594000000E+02  0.51100000000E-03 0.  1.
    9900012    2    1    2    0    0 -0.34935822482E+01 -0.22611653456E+00 -0.40508137597E+02  0.50528862562E+02  0.30000008244E+02 0.  0.
         12    1    1    2    0    0  0.34935822482E+01  0.22611653456E+00  0.40508137597E+02  0.40659137438E+02  0.00000000000E+00 0. -1.
         11    1    3    3    0    0  0.19831030872E+01  0.65318866426E+01 -0.72411499384E+01  0.99515071049E+01  0.51100000000E-03 0. -1.
        -11    1    3    3    0    0 -0.26374905824E+00 -0.18478726281E+01 -0.33363242450E+02  0.33415417757E+02  0.51100000000E-03 0.  1.
        -12    1    3    3    0    0 -0.52129362771E+01 -0.49101305491E+01  0.96254791771E-01  0.71619377003E+01  0.00000000000E+00 0.  1.
</event>
<event>
 7    1  0.4374874E-012  0.5052886E+02  0.7816164E-02  0.1300439E+00
        -11   -1    0    0    0    0  0.00000000000E+00  0.00000000000E+00  0.45593999997E+02  0.45594000000E+02  0.51100000000E-03 0.  1.
         11   -1    0    0    0    0 -0.00000000000E+00 -0.00000000000E+00 -0.45593999997E+02  0.45594000000E+02  0.51100000000E-03 0. -1.
    9900012    2    1    2    0    0  0.10124367734E+02 -0.31892277443E+02  0.23098611798E+02  0.50528855278E+02  0.29999986103E+02 0.  0.
        -12    1    1    2    0    0 -0.10124367734E+02  0.31892277443E+02 -0.23098611798E+02  0.40659144722E+02  0.00000000000E+00 0.  1.
         11    1    3    3    0    0 -0.66938999260E+01 -0.52261467394E+01  0.10528740415E+02  0.13526835585E+02  0.51100000000E-03 0.  1.
        -11    1    3    3    0    0  0.47194193149E+00 -0.32317662667E+01 -0.30243535600E+01  0.44512646637E+01  0.51100000000E-03 0. -1.
         12    1    3    3    0    0  0.16346325728E+02 -0.23434364437E+02  0.15594224943E+02  0.32550755029E+02  0.00000000000E+00 0. -1.
</event>
<event>
 7    1  0.4374874E-012  0.5052887E+02  0.7816164E-02  0.1300439E+00
        -11   -1    0    0    0    0  0.00000000000E+00  0.00000000000E+00  0.45593999997E+02  0.45594000000E+02  0.51100000000E-03 0. -1.
         11   -1    0    0    0    0 -0.00000000000E+00 -0.00000000000E+00 -0.45593999997E+02  0.45594000000E+02  0.51100000000E-03 0.  1.
    9900012    2    1    2    0    0  0.28063593592E+02  0.18311284057E+02  0.23028169646E+02  0.50528868106E+02  0.30000025095E+02 0.  0.
        -12    1    1    2    0    0 -0.28063593592E+02 -0.18311284057E+02 -0.23028169646E+02  0.40659131894E+02  0.00000000000E+00 0.  1.
         11    1    3    3    0    0  0.23977164246E+01  0.98261245232E+01  0.35463557057E+01  0.10718134458E+02  0.51100000000E-03 0. -1.
        -11    1    3    3    0    0  0.45421638435E+01 -0.18499565978E+01  0.15116885627E+02  0.15892571319E+02  0.51100000000E-03 0.  1.
        -12    1    3    3    0    0  0.21123713324E+02  0.10335116132E+02  0.43649283130E+01  0.23918162330E+02  0.00000000000E+00 0.  1.
</event>
<event>
 7    1  0.4374874E-012  0.5052887E+02  0.7816164E-02  0.1300439E+00
        -11   -1    0    0    0    0  0.00000000000E+00  0.00000000000E+00  0.45593999997E+02  0.45594000000E+02  0.51100000000E-03 0. -1.
         11   -1    0    0    0    0 -0.00000000000E+00 -0.00000000000E+00 -0.45593999997E+02  0.45594000000E+02  0.51100000000E-03 0.  1.
    9900012    2    1    2    0    0  0.13570832392E+02 -0.24666981031E+02  0.29334920313E+02  0.50528868249E+02  0.30000025529E+02 0.  0.
        -12    1    1    2    0    0 -0.13570832392E+02  0.24666981031E+02 -0.29334920313E+02  0.40659131751E+02  0.00000000000E+00 0.  1.
         11    1    3    3    0    0  0.23056551419E+01 -0.20168681323E+02  0.11325327033E+02  0.23245532573E+02  0.51100000000E-03 0. -1.
        -11    1    3    3    0    0 -0.41351409727E+01 -0.25062711653E+01  0.30239239597E+01  0.57030607916E+01  0.51100000000E-03 0.  1.
         12    1    3    3    0    0  0.15400318223E+02 -0.19920285423E+01  0.14985669321E+02  0.21580274884E+02  0.00000000000E+00 0. -1.
</event>
<event>
 7    1  0.4374874E-012  0.5052886E+02  0.7816164E-02  0.1300439E+00
        -11   -1    0    0    0    0  0.00000000000E+00  0.00000000000E+00  0.45593999997E+02  0.45594000000E+02  0.51100000000E-03 0. -1.
         11   -1    0    0    0    0 -0.00000000000E+00 -0.00000000000E+00 -0.45593999997E+02  0.45594000000E+02  0.51100000000E-03 0.  1.
    9900012    2    1    2    0    0 -0.16361987303E+02  0.16711945194E+01  0.37184115791E+02  0.50528856049E+02  0.29999988448E+02 0.  0.
        -12    1    1    2    0    0  0.16361987303E+02 -0.16711945194E+01 -0.37184115791E+02  0.40659143951E+02  0.00000000000E+00 0.  1.
         11    1    3    3    0    0 -0.78406487569E+01 -0.63448107223E+01  0.28522302490E+02  0.30253167365E+02  0.51100000000E-03 0. -1.
        -11    1    3    3    0    0 -0.94987522168E+01 -0.29404202931E-01  0.74694837782E+01  0.12083887887E+02  0.51100000000E-03 0.  1.
        -12    1    3    3    0    0  0.97741367101E+00  0.80454094446E+01  0.11923295231E+01  0.81918007976E+01  0.00000000000E+00 0.  1.
</event>
<event>
 7    1  0.4374874E-012  0.5052887E+02  0.7816164E-02  0.1300439E+00
        -11   -1    0    0    0    0  0.00000000000E+00  0.00000000000E+00  0.45593999997E+02  0.45594000000E+02  0.51100000000E-03 0. -1.
         11   -1    0    0    0    0 -0.00000000000E+00 -0.00000000000E+00 -0.45593999997E+02  0.45594000000E+02  0.51100000000E-03 0.  1.
    9900012    2    1    2    0    0  0.24874575598E+02  0.20291364824E+01 -0.32098335561E+02  0.50528867547E+02  0.30000023396E+02 0.  0.
         12    1    1    2    0    0 -0.24874575598E+02 -0.20291364824E+01  0.32098335561E+02  0.40659132453E+02  0.00000000000E+00 0. -1.
         11    1    3    3    0    0  0.11021173007E+02  0.21688421648E+01 -0.57428705039E+00  0.11247219064E+02  0.51100000000E-03 0.  1.
        -11    1    3    3    0    0 -0.35846503390E+01 -0.13971157547E+01 -0.14033761709E+02  0.14551567560E+02  0.51100000000E-03 0. -1.
         12    1    3    3    0    0  0.17438052930E+02  0.12574100723E+01 -0.17490286802E+02  0.24730080923E+02  0.00000000000E+00 0. -1.
</event>
<event>
 7    1  0.4374874E-012  0.5052887E+02  0.7816164E-02  0.1300439E+00
        -11   -1    0    0    0    0  0.00000000000E+00  0.00000000000E+00  0.45593999997E+02  0.45594000000E+02  0.51100000000E-03 0.  1.
         11   -1    0    0    0    0 -0.00000000000E+00 -0.00000000000E+00 -0.45593999997E+02  0.45594000000E+02  0.51100000000E-03 0. -1.
    9900012    2    1    2    0    0  0.61844953219E+01  0.38879307276E+02  0.10164472121E+02  0.50528868060E+02  0.30000024955E+02 0.  0.
        -12    1    1    2    0    0 -0.61844953219E+01 -0.38879307276E+02 -0.10164472121E+02  0.40659131940E+02  0.00000000000E+00 0.  1.
         11    1    3    3    0    0  0.27187679758E+01  0.98944834106E+01  0.88543324297E+01  0.13553291272E+02  0.51100000000E-03 0. -1.
        -11    1    3    3    0    0  0.73590260834E+01  0.11321419250E+02  0.10103010566E+02  0.16864181614E+02  0.51100000000E-03 0.  1.
        -12    1    3    3    0    0 -0.38932987372E+01  0.17663404615E+02 -0.87928708744E+01  0.20111395174E+02  0.00000000000E+00 0.  1.
</event>
<event>
 7    1  0.4374874E-012  0.5052886E+02  0.7816164E-02  0.1300439E+00
        -11   -1    0    0    0    0  0.00000000000E+00  0.00000000000E+00  0.45593999997E+02  0.45594000000E+02  0.51100000000E-03 0. -1.
         11   -1    0    0    0    0 -0.00000000000E+00 -0.00000000000E+00 -0.45593999997E+02  0.45594000000E+02  0.51100000000E-03 0.  1.
    9900012    2    1    2    0    0  0.11391135527E+02  0.25818872900E+02  0.29271033381E+02  0.50528861278E+02  0.30000004340E+02 0.  0.
        -12    1    1    2    0    0 -0.11391135527E+02 -0.25818872900E+02 -0.29271033381E+02  0.40659138722E+02  0.00000000000E+00 0.  1.
         11    1    3    3    0    0  0.44104217150E+01  0.18529433783E+02  0.16319869798E+02  0.25082461732E+02  0.51100000000E-03 0. -1.
        -11    1    3    3    0    0  0.20589892793E+01 -0.33803790610E+01  0.13110623807E+02  0.13695066860E+02  0.51100000000E-03 0.  1.
        -12    1    3    3    0    0  0.49217245325E+01  0.10669818179E+02 -0.15946022405E+00  0.11751332686E+02  0.00000000000E+00 0.  1.
</event>
<event>
 7    1  0.4374874E-012  0.5052885E+02  0.7816164E-02  0.1300439E+00
        -11   -1    0    0    0    0  0.00000000000E+00  0.00000000000E+00  0.45593999997E+02  0.45594000000E+02  0.51100000000E-03 0. -1.
         11   -1    0    0    0    0 -0.00000000000E+00 -0.00000000000E+00 -0.45593999997E+02  0.45594000000E+02  0.51100000000E-03 0.  1.
    9900012    2    1    2    0    0 -0.13283560587E+02  0.17225821549E+02  0.34350907952E+02  0.50528846209E+02  0.29999958536E+02 0.  0.
        -12    1    1    2    0    0  0.13283560587E+02 -0.17225821549E+02 -0.34350907952E+02  0.40659153791E+02  0.00000000000E+00 0.  1.
         11    1    3    3    0    0 -0.74006045071E+01  0.88278368243E+01  0.16401484363E+01  0.11635709571E+02  0.51100000000E-03 0.  1.
        -11    1    3    3    0    0 -0.59784099262E+01 -0.38431157460E+01  0.20093419940E+02  0.21313292778E+02  0.51100000000E-03 0. -1.
         12    1    3    3    0    0  0.95453846334E-01  0.12241100471E+02  0.12617339575E+02  0.17579843860E+02  0.00000000000E+00 0. -1.
</event>
<event>
 7    1  0.4374874E-012  0.5052886E+02  0.7816164E-02  0.1300439E+00
        -11   -1    0    0    0    0  0.00000000000E+00  0.00000000000E+00  0.45593999997E+02  0.45594000000E+02  0.51100000000E-03 0.  1.
         11   -1    0    0    0    0 -0.00000000000E+00 -0.00000000000E+00 -0.45593999997E+02  0.45594000000E+02  0.51100000000E-03 0. -1.
    9900012    2    1    2    0    0 -0.16050772190E+02  0.25886721182E+02 -0.26933541332E+02  0.50528864863E+02  0.30000015237E+02 0.  0.
         12    1    1    2    0    0  0.16050772190E+02 -0.25886721182E+02  0.26933541332E+02  0.40659135137E+02  0.00000000000E+00 0. -1.
         11    1    3    3    0    0 -0.14383718839E+01  0.12479113843E+02 -0.22655438967E+01  0.12764399140E+02  0.51100000000E-03 0.  1.
        -11    1    3    3    0    0 -0.52341035088E+01  0.15403034136E+02 -0.22779457745E+02  0.27992016640E+02  0.51100000000E-03 0. -1.
        -12    1    3    3    0    0 -0.93782967973E+01 -0.19954267977E+01 -0.18885396897E+01  0.97724490832E+01  0.00000000000E+00 0.  1.
</event>
<event>
 7    1  0.4374874E-012  0.5052886E+02  0.7816164E-02  0.1300439E+00
        -11   -1    0    0    0    0  0.00000000000E+00  0.00000000000E+00  0.45593999997E+02  0.45594000000E+02  0.51100000000E-03 0. -1.
         11   -1    0    0    0    0 -0.00000000000E+00 -0.00000000000E+00 -0.45593999997E+02  0.45594000000E+02  0.51100000000E-03 0.  1.
    9900012    2    1    2    0    0  0.82349953447E+00  0.36164003786E+02  0.18564809709E+02  0.50528862271E+02  0.30000007359E+02 0.  0.
        -12    1    1    2    0    0 -0.82349953447E+00 -0.36164003786E+02 -0.18564809709E+02  0.40659137729E+02  0.00000000000E+00 0.  1.
         11    1    3    3    0    0  0.41566415017E+01 -0.53253648493E+00  0.62722131294E+01  0.75433362302E+01  0.51100000000E-03 0. -1.
        -11    1    3    3    0    0 -0.99773578709E+01  0.19927218098E+02  0.11130696182E+02  0.24910521652E+02  0.51100000000E-03 0.  1.
         12    1    3    3    0    0  0.66442159037E+01  0.16769322173E+02  0.11619003976E+01  0.18075004389E+02  0.00000000000E+00 0. -1.
</event>
<event>
 7    1  0.4374874E-012  0.5052886E+02  0.7816164E-02  0.1300439E+00
        -11   -1    0    0    0    0  0.00000000000E+00  0.00000000000E+00  0.45593999997E+02  0.45594000000E+02  0.51100000000E-03 0. -1.
         11   -1    0    0    0    0 -0.00000000000E+00 -0.00000000000E+00 -0.45593999997E+02  0.45594000000E+02  0.51100000000E-03 0.  1.
    9900012    2    1    2    0    0  0.21697248713E+02 -0.22865670763E+02 -0.25681819711E+02  0.50528863698E+02  0.30000011696E+02 0.  0.
         12    1    1    2    0    0 -0.21697248713E+02  0.22865670763E+02  0.25681819711E+02  0.40659136302E+02  0.00000000000E+00 0. -1.
         11    1    3    3    0    0  0.43194941776E+01 -0.11706717405E+02 -0.29066114422E+01  0.12812246200E+02  0.51100000000E-03 0.  1.
        -11    1    3    3    0    0  0.20838522229E+02 -0.11543340213E+02 -0.12572805605E+02  0.26936372306E+02  0.51100000000E-03 0. -1.
         12    1    3    3    0    0 -0.34607676937E+01  0.38438685445E+00 -0.10202402664E+02  0.10780245192E+02  0.00000000000E+00 0. -1.
</event>
<event>
 7    1  0.4625944E-012  0.5052888E+02  0.7816164E-02  0.1300439E+00
        -11   -1    0    0    0    0  0.00000000000E+00  0.00000000000E+00  0.45593999997E+02  0.45594000000E+02  0.51100000000E-03 0. -1.
         11   -1    0    0    0    0 -0.00000000000E+00 -0.00000000000E+00 -0.45593999997E+02  0.45594000000E+02  0.51100000000E-03 0.  1.
    9900012    2    1    2    0    0  0.16454167874E+02  0.15096819775E+02 -0.33978089147E+02  0.50528878639E+02  0.30000057112E+02 0.  0.
         12    1    1    2    0    0 -0.16454167874E+02 -0.15096819775E+02  0.33978089147E+02  0.40659121361E+02  0.00000000000E+00 0. -1.
         11    1    3    3    0    0 -0.28641806029E+01 -0.33153123878E+00  0.15381971984E+01  0.32679495667E+01  0.51100000000E-03 0. -1.
        -11    1    3    3    0    0  0.20042855879E+02  0.12809972222E+02 -0.18783238071E+02  0.30308769239E+02  0.51100000000E-03 0.  1.
         12    1    3    3    0    0 -0.72450740180E+00  0.26183787926E+01 -0.16733048274E+02  0.16952159834E+02  0.00000000000E+00 0. -1.
</event>
<event>
 7    1  0.4374874E-012  0.5052886E+02  0.7816164E-02  0.1300439E+00
        -11   -1    0    0    0    0  0.00000000000E+00  0.00000000000E+00  0.45593999997E+02  0.45594000000E+02  0.51100000000E-03 0. -1.
         11   -1    0    0    0    0 -0.00000000000E+00 -0.00000000000E+00 -0.45593999997E+02  0.45594000000E+02  0.51100000000E-03 0.  1.
    9900012    2    1    2    0    0 -0.36502772913E+02 -0.80954510552E+01 -0.15974261209E+02  0.50528858601E+02  0.29999996203E+02 0.  0.
         12    1    1    2    0    0  0.36502772913E+02  0.80954510552E+01  0.15974261209E+02  0.40659141399E+02  0.00000000000E+00 0. -1.
         11    1    3    3    0    0 -0.12779987316E+02  0.82956584998E+01 -0.60391057913E+01  0.16389534000E+02  0.51100000000E-03 0. -1.
        -11    1    3    3    0    0 -0.41308467049E+00  0.24583730714E+01 -0.18089446269E+01  0.30800191602E+01  0.51100000000E-03 0.  1.
         12    1    3    3    0    0 -0.23309700927E+02 -0.18849482626E+02 -0.81262107907E+01  0.31059305440E+02  0.00000000000E+00 0. -1.
</event>
<event>
 7    1  0.4374874E-012  0.5052886E+02  0.7816164E-02  0.1300439E+00
        -11   -1    0    0    0    0  0.00000000000E+00  0.00000000000E+00  0.45593999997E+02  0.45594000000E+02  0.51100000000E-03 0. -1.
         11   -1    0    0    0    0 -0.00000000000E+00 -0.00000000000E+00 -0.45593999997E+02  0.45594000000E+02  0.51100000000E-03 0.  1.
    9900012    2    1    2    0    0 -0.10960626596E+02 -0.18526083464E+02  0.34493692394E+02  0.50528856885E+02  0.29999990987E+02 0.  0.
        -12    1    1    2    0    0  0.10960626596E+02  0.18526083464E+02 -0.34493692394E+02  0.40659143115E+02  0.00000000000E+00 0.  1.
         11    1    3    3    0    0 -0.11283627823E+02  0.29430784998E+00  0.56099137675E+01  0.12604681935E+02  0.51100000000E-03 0. -1.
        -11    1    3    3    0    0 -0.15100956548E+01 -0.43885091430E+01  0.20738143746E+02  0.21251117798E+02  0.51100000000E-03 0.  1.
        -12    1    3    3    0    0  0.18330968818E+01 -0.14431882171E+02  0.81456348809E+01  0.16673057151E+02  0.00000000000E+00 0.  1.
</event>
<event>
 7    1  0.4374874E-012  0.5052886E+02  0.7816164E-02  0.1300439E+00
        -11   -1    0    0    0    0  0.00000000000E+00  0.00000000000E+00  0.45593999997E+02  0.45594000000E+02  0.51100000000E-03 0. -1.
         11   -1    0    0    0    0 -0.00000000000E+00 -0.00000000000E+00 -0.45593999997E+02  0.45594000000E+02  0.51100000000E-03 0.  1.
    9900012    2    1    2    0    0 -0.34405023293E+01 -0.68863097085E+01 -0.39923771680E+02  0.50528857574E+02  0.29999993081E+02 0.  0.
         12    1    1    2    0    0  0.34405023293E+01  0.68863097085E+01  0.39923771680E+02  0.40659142426E+02  0.00000000000E+00 0. -1.
         11    1    3    3    0    0 -0.11768168144E+02 -0.40239748802E+01 -0.96468286582E+01  0.15739868447E+02  0.51100000000E-03 0. -1.
        -11    1    3    3    0    0  0.19307977442E+01 -0.46861471116E+01 -0.15471538388E+01  0.52992112566E+01  0.51100000000E-03 0.  1.
         12    1    3    3    0    0  0.63968680702E+01  0.18238122833E+01 -0.28729789183E+02  0.29489777871E+02  0.00000000000E+00 0. -1.
</event>
<event>
 7    1  0.4374874E-012  0.5052894E+02  0.7816164E-02  0.1300439E+00
        -11   -1    0    0    0    0  0.00000000000E+00  0.00000000000E+00  0.45593999997E+02  0.45594000000E+02  0.51100000000E-03 0. -1.
         11   -1    0    0    0    0 -0.00000000000E+00 -0.00000000000E+00 -0.45593999997E+02  0.45594000000E+02  0.51100000000E-03 0.  1.
    9900012    2    1    2    0    0  0.12146244087E+02  0.12610176550E+02  0.36696208843E+02  0.50528935310E+02  0.30000229366E+02 0.  0.
        -12    1    1    2    0    0 -0.12146244087E+02 -0.12610176550E+02 -0.36696208843E+02  0.40659064690E+02  0.00000000000E+00 0.  1.
         11    1    3    3    0    0  0.26639752523E+00 -0.39743769226E+01  0.27356217402E+01  0.48322113086E+01  0.51100000000E-03 0. -1.
        -11    1    3    3    0    0 -0.61193498303E+01  0.81310069379E+01  0.15633674123E+02  0.18653993755E+02  0.51100000000E-03 0.  1.
         12    1    3    3    0    0  0.17999196392E+02  0.84535465344E+01  0.18326912980E+02  0.27042730246E+02  0.00000000000E+00 0. -1.
</event>
<event>
 7    1  0.4374874E-012  0.5052886E+02  0.7816164E-02  0.1300439E+00
        -11   -1    0    0    0    0  0.00000000000E+00  0.00000000000E+00  0.45593999997E+02  0.45594000000E+02  0.51100000000E-03 0. -1.
         11   -1    0    0    0    0 -0.00000000000E+00 -0.00000000000E+00 -0.45593999997E+02  0.45594000000E+02  0.51100000000E-03 0.  1.
    9900012    2    1    2    0    0  0.10410323806E+02 -0.31773968249E+01 -0.39175185477E+02  0.50528857738E+02  0.29999993579E+02 0.  0.
         12    1    1    2    0    0 -0.10410323806E+02  0.31773968249E+01  0.39175185477E+02  0.40659142262E+02  0.00000000000E+00 0. -1.
         11    1    3    3    0    0  0.70343420111E+00  0.48267014414E+01 -0.11098941126E+00  0.48789533089E+01  0.51100000000E-03 0. -1.
        -11    1    3    3    0    0  0.32261419190E+00  0.63662669309E+01 -0.12336514788E+02  0.13886073308E+02  0.51100000000E-03 0.  1.
         12    1    3    3    0    0  0.93842754129E+01 -0.14370365197E+02 -0.26727681279E+02  0.31763831121E+02  0.00000000000E+00 0. -1.
</event>
<event>
 7    1  0.6836162E-012  0.5052886E+02  0.7816164E-02  0.1300439E+00
        -11   -1    0    0    0    0  0.00000000000E+00  0.00000000000E+00  0.45593999997E+02  0.45594000000E+02  0.51100000000E-03 0. -1.
         11   -1    0    0    0    0 -0.00000000000E+00 -0.00000000000E+00 -0.45593999997E+02  0.45594000000E+02  0.51100000000E-03 0.  1.
    9900012    2    1    2    0    0 -0.72813408629E+01  0.25747562931E+02 -0.30613895466E+02  0.50528861824E+02  0.30000005999E+02 0.  0.
         12    1    1    2    0    0  0.72813408629E+01 -0.25747562931E+02  0.30613895466E+02  0.40659138176E+02  0.00000000000E+00 0. -1.
         11    1    3    3    0    0  0.52614160887E+01  0.12422663422E+02 -0.50452053770E+01  0.14403442759E+02  0.51100000000E-03 0. -1.
        -11    1    3    3    0    0 -0.15457563812E+01  0.11571609443E+02 -0.21123880613E+02  0.24135240631E+02  0.51100000000E-03 0.  1.
         12    1    3    3    0    0 -0.10997000570E+02  0.17532900663E+01 -0.44448094760E+01  0.11990178434E+02  0.00000000000E+00 0. -1.
</event>
<event>
 7    1  0.4374874E-012  0.5052886E+02  0.7816164E-02  0.1300439E+00
        -11   -1    0    0    0    0  0.00000000000E+00  0.00000000000E+00  0.45593999997E+02  0.45594000000E+02  0.51100000000E-03 0. -1.
         11   -1    0    0    0    0 -0.00000000000E+00 -0.00000000000E+00 -0.45593999997E+02  0.45594000000E+02  0.51100000000E-03 0.  1.
    9900012    2    1    2    0    0  0.19387006945E+01  0.73871100325E+01 -0.39935419728E+02  0.50528859529E+02  0.29999999024E+02 0.  0.
         12    1    1    2    0    0 -0.19387006945E+01 -0.73871100325E+01  0.39935419728E+02  0.40659140471E+02  0.00000000000E+00 0. -1.
         11    1    3    3    0    0 -0.82789684990E+00  0.12053994037E+02 -0.38075243029E+01  0.12668126420E+02  0.51100000000E-03 0. -1.
        -11    1    3    3    0    0  0.18227444234E+01  0.23578454935E+01 -0.20309153011E+02  0.20526654109E+02  0.51100000000E-03 0.  1.
        -12    1    3    3    0    0  0.94385312101E+00 -0.70247294976E+01 -0.15818742413E+02  0.17334079000E+02  0.00000000000E+00 0.  1.
</event>
<event>
 7    1  0.4374874E-012  0.5052880E+02  0.7816164E-02  0.1300439E+00
        -11   -1    0    0    0    0  0.00000000000E+00  0.00000000000E+00  0.45593999997E+02  0.45594000000E+02  0.51100000000E-03 0. -1.
         11   -1    0    0    0    0 -0.00000000000E+00 -0.00000000000E+00 -0.45593999997E+02  0.45594000000E+02  0.51100000000E-03 0.  1.
    9900012    2    1    2    0    0  0.56592358386E+01  0.28227905606E+02 -0.28711123271E+02  0.50528804181E+02  0.29999830788E+02 0.  0.
         12    1    1    2    0    0 -0.56592358386E+01 -0.28227905606E+02  0.28711123271E+02  0.40659195819E+02  0.00000000000E+00 0. -1.
         11    1    3    3    0    0  0.25903846234E+01  0.12756885026E+01  0.29441944335E+01  0.41238034357E+01  0.51100000000E-03 0. -1.
        -11    1    3    3    0    0  0.10400701051E+02  0.22179860960E+02 -0.18913152993E+02  0.30948799184E+02  0.51100000000E-03 0.  1.
        -12    1    3    3    0    0 -0.73318498356E+01  0.47723561437E+01 -0.12742164711E+02  0.15456201561E+02  0.00000000000E+00 0.  1.
</event>
<event>
 7    1  0.4374874E-012  0.5052886E+02  0.7816164E-02  0.1300439E+00
        -11   -1    0    0    0    0  0.00000000000E+00  0.00000000000E+00  0.45593999997E+02  0.45594000000E+02  0.51100000000E-03 0. -1.
         11   -1    0    0    0    0 -0.00000000000E+00 -0.00000000000E+00 -0.45593999997E+02  0.45594000000E+02  0.51100000000E-03 0.  1.
    9900012    2    1    2    0    0 -0.21461572175E+02  0.33266290753E+02 -0.92693453810E+01  0.50528856570E+02  0.29999990029E+02 0.  0.
        -12    1    1    2    0    0  0.21461572175E+02 -0.33266290753E+02  0.92693453810E+01  0.40659143430E+02  0.00000000000E+00 0.  1.
         11    1    3    3    0    0 -0.13811585437E+01  0.13373957184E+02  0.27280144256E+00  0.13447853009E+02  0.51100000000E-03 0. -1.
        -11    1    3    3    0    0 -0.27326598946E+01  0.10804712547E+02 -0.13075670091E+02  0.17180872851E+02  0.51100000000E-03 0.  1.
         12    1    3    3    0    0 -0.17347753737E+02  0.90876210221E+01  0.35335232676E+01  0.19900130709E+02  0.00000000000E+00 0. -1.
</event>
<event>
 7    1  0.4374874E-012  0.5052886E+02  0.7816164E-02  0.1300439E+00
        -11   -1    0    0    0    0  0.00000000000E+00  0.00000000000E+00  0.45593999997E+02  0.45594000000E+02  0.51100000000E-03 0. -1.
         11   -1    0    0    0    0 -0.00000000000E+00 -0.00000000000E+00 -0.45593999997E+02  0.45594000000E+02  0.51100000000E-03 0.  1.
    9900012    2    1    2    0    0 -0.14998947361E+01 -0.34249968814E+02  0.21859902535E+02  0.50528863427E+02  0.30000010874E+02 0.  0.
        -12    1    1    2    0    0  0.14998947361E+01  0.34249968814E+02 -0.21859902535E+02  0.40659136573E+02  0.00000000000E+00 0.  1.
         11    1    3    3    0    0  0.82681800633E+01 -0.12435140175E+02  0.66775231031E+01  0.16358020289E+02  0.51100000000E-03 0. -1.
        -11    1    3    3    0    0 -0.90626223013E+01 -0.11783982734E+02  0.18361219329E+02  0.23624727460E+02  0.51100000000E-03 0.  1.
         12    1    3    3    0    0 -0.70545249806E+00 -0.10030845905E+02 -0.31788398972E+01  0.10546115678E+02  0.00000000000E+00 0. -1.
</event>
<event>
 7    1  0.4374874E-012  0.5052888E+02  0.7816164E-02  0.1300439E+00
        -11   -1    0    0    0    0  0.00000000000E+00  0.00000000000E+00  0.45593999997E+02  0.45594000000E+02  0.51100000000E-03 0. -1.
         11   -1    0    0    0    0 -0.00000000000E+00 -0.00000000000E+00 -0.45593999997E+02  0.45594000000E+02  0.51100000000E-03 0.  1.
    9900012    2    1    2    0    0  0.13922010976E+02 -0.76641763728E+01 -0.37424613555E+02  0.50528884309E+02  0.30000074344E+02 0.  0.
         12    1    1    2    0    0 -0.13922010976E+02  0.76641763728E+01  0.37424613555E+02  0.40659115691E+02  0.00000000000E+00 0. -1.
         11    1    3    3    0    0  0.11464844774E+02 -0.20427176012E+01 -0.25976111422E+01  0.11931594395E+02  0.51100000000E-03 0. -1.
        -11    1    3    3    0    0  0.10415369276E+01 -0.22119791580E+01  0.95539275341E+00  0.26249621981E+01  0.51100000000E-03 0.  1.
        -12    1    3    3    0    0  0.14156292744E+01 -0.34094796136E+01 -0.35782395166E+02  0.35972327716E+02  0.00000000000E+00 0.  1.
</event>
<event>
 7    1  0.4374874E-012  0.5052887E+02  0.7816164E-02  0.1300439E+00
        -11   -1    0    0    0    0  0.00000000000E+00  0.00000000000E+00  0.45593999997E+02  0.45594000000E+02  0.51100000000E-03 0. -1.
         11   -1    0    0    0    0 -0.00000000000E+00 -0.00000000000E+00 -0.45593999997E+02  0.45594000000E+02  0.51100000000E-03 0.  1.
    9900012    2    1    2    0    0  0.26085482598E+01  0.57646471190E+01 -0.40163777009E+02  0.50528872316E+02  0.30000037892E+02 0.  0.
         12    1    1    2    0    0 -0.26085482598E+01 -0.57646471190E+01  0.40163777009E+02  0.40659127684E+02  0.00000000000E+00 0. -1.
         11    1    3    3    0    0  0.78522019520E+01  0.29895753405E+01 -0.11650600103E+02  0.14364230548E+02  0.51100000000E-03 0. -1.
        -11    1    3    3    0    0  0.12418194540E+01  0.10448144721E+02 -0.76510768215E+01  0.13009412764E+02  0.51100000000E-03 0.  1.
         12    1    3    3    0    0 -0.64854731462E+01 -0.76730729429E+01 -0.20862100084E+02  0.23155229004E+02  0.00000000000E+00 0. -1.
</event>
<event>
 7    1  0.4374874E-012  0.5052886E+02  0.7816164E-02  0.1300439E+00
        -11   -1    0    0    0    0  0.00000000000E+00  0.00000000000E+00  0.45593999997E+02  0.45594000000E+02  0.51100000000E-03 0. -1.
         11   -1    0    0    0    0 -0.00000000000E+00 -0.00000000000E+00 -0.45593999997E+02  0.45594000000E+02  0.51100000000E-03 0.  1.
    9900012    2    1    2    0    0 -0.10235332461E+02 -0.24945562168E+02  0.30432260841E+02  0.50528860777E+02  0.30000002818E+02 0.  0.
        -12    1    1    2    0    0  0.10235332461E+02  0.24945562168E+02 -0.30432260841E+02  0.40659139223E+02  0.00000000000E+00 0.  1.
         11    1    3    3    0    0 -0.16306963122E+01 -0.16269961078E+02  0.20046636696E+02  0.25869643349E+02  0.51100000000E-03 0. -1.
        -11    1    3    3    0    0 -0.98178998776E+01 -0.93370946054E+01  0.14781317712E+02  0.20051430055E+02  0.51100000000E-03 0.  1.
        -12    1    3    3    0    0  0.12132637289E+01  0.66149351606E+00 -0.43956935664E+01  0.46077873733E+01  0.00000000000E+00 0.  1.
</event>
<event>
 7    1  0.4374874E-012  0.5052886E+02  0.7816164E-02  0.1300439E+00
        -11   -1    0    0    0    0  0.00000000000E+00  0.00000000000E+00  0.45593999997E+02  0.45594000000E+02  0.51100000000E-03 0.  1.
         11   -1    0    0    0    0 -0.00000000000E+00 -0.00000000000E+00 -0.45593999997E+02  0.45594000000E+02  0.51100000000E-03 0. -1.
    9900012    2    1    2    0    0 -0.19052175808E+02 -0.35795000195E+02  0.29830388993E+01  0.50528856341E+02  0.29999989335E+02 0.  0.
         12    1    1    2    0    0  0.19052175808E+02  0.35795000195E+02 -0.29830388993E+01  0.40659143659E+02  0.00000000000E+00 0. -1.
         11    1    3    3    0    0 -0.94818723379E+00 -0.13433218264E+01 -0.68466414584E+01  0.70413118153E+01  0.51100000000E-03 0. -1.
        -11    1    3    3    0    0 -0.14303702078E+02 -0.13632337857E+02 -0.85905769973E+00  0.19778132090E+02  0.51100000000E-03 0.  1.
        -12    1    3    3    0    0 -0.38002864957E+01 -0.20819340512E+02  0.10688738057E+02  0.23709412436E+02  0.00000000000E+00 0.  1.
</event>
<event>
 7    1  0.4374874E-012  0.5052885E+02  0.7816164E-02  0.1300439E+00
        -11   -1    0    0    0    0  0.00000000000E+00  0.00000000000E+00  0.45593999997E+02  0.45594000000E+02  0.51100000000E-03 0. -1.
         11   -1    0    0    0    0 -0.00000000000E+00 -0.00000000000E+00 -0.45593999997E+02  0.45594000000E+02  0.51100000000E-03 0.  1.
    9900012    2    1    2    0    0 -0.33573480670E+02 -0.10102316677E+02 -0.20589588761E+02  0.50528848854E+02  0.29999966578E+02 0.  0.
         12    1    1    2    0    0  0.33573480670E+02  0.10102316677E+02  0.20589588761E+02  0.40659151146E+02  0.00000000000E+00 0. -1.
         11    1    3    3    0    0 -0.21202625340E+02 -0.49964774082E+01 -0.40119574162E+01  0.22149760955E+02  0.51100000000E-03 0. -1.
        -11    1    3    3    0    0 -0.10447095639E+02 -0.10720940255E+02 -0.16719972566E+02  0.22441877152E+02  0.51100000000E-03 0.  1.
        -12    1    3    3    0    0 -0.19237596908E+01  0.56151009859E+01  0.14234122184E+00  0.59372107469E+01  0.00000000000E+00 0.  1.
</event>
<event>
 7    1  0.4593706E-012  0.5052886E+02  0.7816164E-02  0.1300439E+00
        -11   -1    0    0    0    0  0.00000000000E+00  0.00000000000E+00  0.45593999997E+02  0.45594000000E+02  0.51100000000E-03 0. -1.
         11   -1    0    0    0    0 -0.00000000000E+00 -0.00000000000E+00 -0.45593999997E+02  0.45594000000E+02  0.51100000000E-03 0.  1.
    9900012    2    1    2    0    0  0.12129088435E+02 -0.43103632039E+01 -0.38567751182E+02  0.50528862669E+02  0.30000008570E+02 0.  0.
         12    1    1    2    0    0 -0.12129088435E+02  0.43103632039E+01  0.38567751182E+02  0.40659137331E+02  0.00000000000E+00 0. -1.
         11    1    3    3    0    0  0.10703431245E+02 -0.83946773739E+01 -0.15211798743E+02  0.20406686892E+02  0.51100000000E-03 0. -1.
        -11    1    3    3    0    0 -0.44362937923E+01 -0.32912251168E+00 -0.22263600860E+02  0.22703676965E+02  0.51100000000E-03 0.  1.
         12    1    3    3    0    0  0.58619509817E+01  0.44134366816E+01 -0.10923515792E+01  0.74184988122E+01  0.00000000000E+00 0. -1.
</event>
<event>
 7    1  0.4374874E-012  0.5052886E+02  0.7816164E-02  0.1300439E+00
        -11   -1    0    0    0    0  0.00000000000E+00  0.00000000000E+00  0.45593999997E+02  0.45594000000E+02  0.51100000000E-03 0. -1.
         11   -1    0    0    0    0 -0.00000000000E+00 -0.00000000000E+00 -0.45593999997E+02  0.45594000000E+02  0.51100000000E-03 0.  1.
    9900012    2    1    2    0    0 -0.12061008111E+02 -0.33233268963E+02  0.20081029023E+02  0.50528858232E+02  0.29999995083E+02 0.  0.
        -12    1    1    2    0    0  0.12061008111E+02  0.33233268963E+02 -0.20081029023E+02  0.40659141768E+02  0.00000000000E+00 0.  1.
         11    1    3    3    0    0  0.76714817640E+01 -0.87852370253E+00  0.65107605214E+01  0.10100170255E+02  0.51100000000E-03 0. -1.
        -11    1    3    3    0    0 -0.75758404675E+01 -0.15957723548E+02  0.66687007179E+01  0.18881574859E+02  0.51100000000E-03 0.  1.
        -12    1    3    3    0    0 -0.12156649408E+02 -0.16397021713E+02  0.69015677838E+01  0.21547113119E+02  0.00000000000E+00 0.  1.
</event>
<event>
 7    1  0.4374874E-012  0.5052886E+02  0.7816164E-02  0.1300439E+00
        -11   -1    0    0    0    0  0.00000000000E+00  0.00000000000E+00  0.45593999997E+02  0.45594000000E+02  0.51100000000E-03 0.  1.
         11   -1    0    0    0    0 -0.00000000000E+00 -0.00000000000E+00 -0.45593999997E+02  0.45594000000E+02  0.51100000000E-03 0. -1.
    9900012    2    1    2    0    0  0.24467438329E+02 -0.31348405250E+02 -0.84727508482E+01  0.50528861334E+02  0.30000004511E+02 0.  0.
        -12    1    1    2    0    0 -0.24467438329E+02  0.31348405250E+02  0.84727508482E+01  0.40659138666E+02  0.00000000000E+00 0.  1.
         11    1    3    3    0    0  0.97904239816E+01 -0.16844629495E+02 -0.12920708375E+02  0.23378166090E+02  0.51100000000E-03 0. -1.
        -11    1    3    3    0    0  0.45749673639E+01 -0.23704482919E+01 -0.62344278729E+01  0.80881050098E+01  0.51100000000E-03 0.  1.
        -12    1    3    3    0    0  0.10102046984E+02 -0.12133327464E+02  0.10682385400E+02  0.19062590234E+02  0.00000000000E+00 0.  1.
</event>
<event>
 7    1  0.4374874E-012  0.5052886E+02  0.7816164E-02  0.1300439E+00
        -11   -1    0    0    0    0  0.00000000000E+00  0.00000000000E+00  0.45593999997E+02  0.45594000000E+02  0.51100000000E-03 0. -1.
         11   -1    0    0    0    0 -0.00000000000E+00 -0.00000000000E+00 -0.45593999997E+02  0.45594000000E+02  0.51100000000E-03 0.  1.
    9900012    2    1    2    0    0 -0.77789610496E+01  0.30087945563E+02  0.26217723632E+02  0.50528859137E+02  0.29999997834E+02 0.  0.
        -12    1    1    2    0    0  0.77789610496E+01 -0.30087945563E+02 -0.26217723632E+02  0.40659140863E+02  0.00000000000E+00 0.  1.
         11    1    3    3    0    0  0.21961031725E+01  0.18692515280E+02  0.14180884645E+02  0.23565451114E+02  0.51100000000E-03 0. -1.
        -11    1    3    3    0    0 -0.10213192592E+02  0.12881246754E+02  0.15867608895E+02  0.22847687699E+02  0.51100000000E-03 0.  1.
        -12    1    3    3    0    0  0.23812837033E+00 -0.14858164704E+01 -0.38307699076E+01  0.41157203245E+01  0.00000000000E+00 0.  1.
</event>
<event>
 7    1  0.4374874E-012  0.5052886E+02  0.7816164E-02  0.1300439E+00
        -11   -1    0    0    0    0  0.00000000000E+00  0.00000000000E+00  0.45593999997E+02  0.45594000000E+02  0.51100000000E-03 0. -1.
         11   -1    0    0    0    0 -0.00000000000E+00 -0.00000000000E+00 -0.45593999997E+02  0.45594000000E+02  0.51100000000E-03 0.  1.
    9900012    2    1    2    0    0 -0.12793210563E+02 -0.14358359612E+02  0.35823688052E+02  0.50528863845E+02  0.30000012142E+02 0.  0.
        -12    1    1    2    0    0  0.12793210563E+02  0.14358359612E+02 -0.35823688052E+02  0.40659136155E+02  0.00000000000E+00 0.  1.
         11    1    3    3    0    0 -0.87223342562E+01 -0.17324866596E+02  0.15766472052E+02  0.24996234890E+02  0.51100000000E-03 0. -1.
        -11    1    3    3    0    0 -0.29672520968E+01  0.10576441711E+01 -0.17571950912E+01  0.36070668207E+01  0.51100000000E-03 0.  1.
         12    1    3    3    0    0 -0.11036242104E+01  0.19088628133E+01  0.21814411091E+02  0.21925562134E+02  0.00000000000E+00 0. -1.
</event>
<event>
 7    1  0.4374874E-012  0.5052886E+02  0.7816164E-02  0.1300439E+00
        -11   -1    0    0    0    0  0.00000000000E+00  0.00000000000E+00  0.45593999997E+02  0.45594000000E+02  0.51100000000E-03 0. -1.
         11   -1    0    0    0    0 -0.00000000000E+00 -0.00000000000E+00 -0.45593999997E+02  0.45594000000E+02  0.51100000000E-03 0.  1.
    9900012    2    1    2    0    0 -0.29674403225E+01  0.26280128590E+02 -0.30882271402E+02  0.50528861449E+02  0.30000004860E+02 0.  0.
         12    1    1    2    0    0  0.29674403225E+01 -0.26280128590E+02  0.30882271402E+02  0.40659138551E+02  0.00000000000E+00 0. -1.
         11    1    3    3    0    0  0.76748858382E+01  0.33663061321E+01 -0.58425844059E+01  0.10216246004E+02  0.51100000000E-03 0. -1.
        -11    1    3    3    0    0 -0.78381811419E+00  0.12121909098E+02 -0.22367940649E+02  0.25453483458E+02  0.51100000000E-03 0.  1.
         12    1    3    3    0    0 -0.98585080466E+01  0.10791913359E+02 -0.26717463476E+01  0.14859131987E+02  0.00000000000E+00 0. -1.
</event>
<event>
 7    1  0.4374874E-012  0.5052886E+02  0.7816164E-02  0.1300439E+00
        -11   -1    0    0    0    0  0.00000000000E+00  0.00000000000E+00  0.45593999997E+02  0.45594000000E+02  0.51100000000E-03 0. -1.
         11   -1    0    0    0    0 -0.00000000000E+00 -0.00000000000E+00 -0.45593999997E+02  0.45594000000E+02  0.51100000000E-03 0.  1.
    9900012    2    1    2    0    0 -0.22218365186E+02 -0.15080640632E+02  0.30530054986E+02  0.50528859197E+02  0.29999998014E+02 0.  0.
        -12    1    1    2    0    0  0.22218365186E+02  0.15080640632E+02 -0.30530054986E+02  0.40659140803E+02  0.00000000000E+00 0.  1.
         11    1    3    3    0    0 -0.14190253153E+02 -0.14105666364E+02  0.25335862549E+02  0.32283727162E+02  0.51100000000E-03 0. -1.
        -11    1    3    3    0    0 -0.11831332589E+02  0.65393348367E+00  0.69649359647E+01  0.13744758750E+02  0.51100000000E-03 0.  1.
        -12    1    3    3    0    0  0.38032205560E+01 -0.16289077514E+01 -0.17707435276E+01  0.45003732846E+01  0.00000000000E+00 0.  1.
</event>
<event>
 7    1  0.4374874E-012  0.5052886E+02  0.7816164E-02  0.1300439E+00
        -11   -1    0    0    0    0  0.00000000000E+00  0.00000000000E+00  0.45593999997E+02  0.45594000000E+02  0.51100000000E-03 0. -1.
         11   -1    0    0    0    0 -0.00000000000E+00 -0.00000000000E+00 -0.45593999997E+02  0.45594000000E+02  0.51100000000E-03 0.  1.
    9900012    2    1    2    0    0 -0.29287557619E+02 -0.19958632958E+02  0.19926305086E+02  0.50528859635E+02  0.29999999347E+02 0.  0.
        -12    1    1    2    0    0  0.29287557619E+02  0.19958632958E+02 -0.19926305086E+02  0.40659140365E+02  0.00000000000E+00 0.  1.
         11    1    3    3    0    0 -0.62975094277E+01 -0.13583416971E+02  0.11735121578E+02  0.19023167988E+02  0.51100000000E-03 0. -1.
        -11    1    3    3    0    0 -0.20206902849E+02 -0.33640918936E+01  0.13695879505E+02  0.24641695410E+02  0.51100000000E-03 0.  1.
        -12    1    3    3    0    0 -0.27831453424E+01 -0.30111240939E+01 -0.55046959980E+01  0.68639962366E+01  0.00000000000E+00 0.  1.
</event>
<event>
 7    1  0.4374874E-012  0.5052886E+02  0.7816164E-02  0.1300439E+00
        -11   -1    0    0    0    0  0.00000000000E+00  0.00000000000E+00  0.45593999997E+02  0.45594000000E+02  0.51100000000E-03 0.  1.
         11   -1    0    0    0    0 -0.00000000000E+00 -0.00000000000E+00 -0.45593999997E+02  0.45594000000E+02  0.51100000000E-03 0. -1.
    9900012    2    1    2    0    0  0.27630397012E+02  0.29756993137E+02  0.20611832522E+01  0.50528856428E+02  0.29999989599E+02 0.  0.
        -12    1    1    2    0    0 -0.27630397012E+02 -0.29756993137E+02 -0.20611832522E+01  0.40659143572E+02  0.00000000000E+00 0.  1.
         11    1    3    3    0    0  0.18935495183E+02  0.23086750952E+02 -0.89679291464E+00  0.29872316367E+02  0.51100000000E-03 0. -1.
        -11    1    3    3    0    0 -0.17284614398E+01  0.92764051810E+01 -0.26351297815E+00  0.94397410654E+01  0.51100000000E-03 0.  1.
         12    1    3    3    0    0  0.10423363269E+02 -0.26061629962E+01  0.32214891450E+01  0.11216798996E+02  0.00000000000E+00 0. -1.
</event>
<event>
 7    1  0.4374874E-012  0.5052886E+02  0.7816164E-02  0.1300439E+00
        -11   -1    0    0    0    0  0.00000000000E+00  0.00000000000E+00  0.45593999997E+02  0.45594000000E+02  0.51100000000E-03 0. -1.
         11   -1    0    0    0    0 -0.00000000000E+00 -0.00000000000E+00 -0.45593999997E+02  0.45594000000E+02  0.51100000000E-03 0.  1.
    9900012    2    1    2    0    0  0.14846471749E+02  0.30327130387E+01 -0.37729971727E+02  0.50528857876E+02  0.29999993999E+02 0.  0.
         12    1    1    2    0    0 -0.14846471749E+02 -0.30327130387E+01  0.37729971727E+02  0.40659142124E+02  0.00000000000E+00 0. -1.
         11    1    3    3    0    0  0.26531892918E+01  0.74157018465E+01 -0.21194590964E+02  0.22610677427E+02  0.51100000000E-03 0.  1.
        -11    1    3    3    0    0 -0.35198536802E+01 -0.55912449758E+01 -0.35638039697E+01  0.75068028684E+01  0.51100000000E-03 0. -1.
        -12    1    3    3    0    0  0.15713136137E+02  0.12082561680E+01 -0.12971576793E+02  0.20411377581E+02  0.00000000000E+00 0.  1.
</event>
<event>
 7    1  0.4374874E-012  0.5052886E+02  0.7816164E-02  0.1300439E+00
        -11   -1    0    0    0    0  0.00000000000E+00  0.00000000000E+00  0.45593999997E+02  0.45594000000E+02  0.51100000000E-03 0. -1.
         11   -1    0    0    0    0 -0.00000000000E+00 -0.00000000000E+00 -0.45593999997E+02  0.45594000000E+02  0.51100000000E-03 0.  1.
    9900012    2    1    2    0    0 -0.31377551019E+02  0.52776421848E+01  0.25313271037E+02  0.50528857048E+02  0.29999991483E+02 0.  0.
        -12    1    1    2    0    0  0.31377551019E+02 -0.52776421848E+01 -0.25313271037E+02  0.40659142952E+02  0.00000000000E+00 0.  1.
         11    1    3    3    0    0 -0.19599961151E+02  0.67458192272E+01  0.17420785036E+02  0.27076711500E+02  0.51100000000E-03 0. -1.
        -11    1    3    3    0    0 -0.34811352562E+01 -0.79566589570E+00  0.13137242177E+02  0.13613909033E+02  0.51100000000E-03 0.  1.
        -12    1    3    3    0    0 -0.82964546119E+01 -0.67251114680E+00 -0.52447561754E+01  0.98382365142E+01  0.00000000000E+00 0.  1.
</event>
<event>
 7    1  0.4374874E-012  0.5052885E+02  0.7816164E-02  0.1300439E+00
        -11   -1    0    0    0    0  0.00000000000E+00  0.00000000000E+00  0.45593999997E+02  0.45594000000E+02  0.51100000000E-03 0. -1.
         11   -1    0    0    0    0 -0.00000000000E+00 -0.00000000000E+00 -0.45593999997E+02  0.45594000000E+02  0.51100000000E-03 0.  1.
    9900012    2    1    2    0    0  0.81357646512E+01  0.16593717782E+02  0.36216352588E+02  0.50528851816E+02  0.29999975579E+02 0.  0.
        -12    1    1    2    0    0 -0.81357646512E+01 -0.16593717782E+02 -0.36216352588E+02  0.40659148184E+02  0.00000000000E+00 0.  1.
         11    1    3    3    0    0 -0.40355231961E+01  0.72974085917E+01  0.17879455601E+02  0.19728470606E+02  0.51100000000E-03 0. -1.
        -11    1    3    3    0    0  0.11749933886E+02  0.12706068930E+02  0.20431955900E+02  0.26776294668E+02  0.51100000000E-03 0.  1.
        -12    1    3    3    0    0  0.42135396109E+00 -0.34097597394E+01 -0.20950589134E+01  0.40240865413E+01  0.00000000000E+00 0.  1.
</event>
<event>
 7    1  0.4374874E-012  0.5052886E+02  0.7816164E-02  0.1300439E+00
        -11   -1    0    0    0    0  0.00000000000E+00  0.00000000000E+00  0.45593999997E+02  0.45594000000E+02  0.51100000000E-03 0. -1.
         11   -1    0    0    0    0 -0.00000000000E+00 -0.00000000000E+00 -0.45593999997E+02  0.45594000000E+02  0.51100000000E-03 0.  1.
    9900012    2    1    2    0    0  0.96360511125E+01 -0.28374562789E+02  0.27480838737E+02  0.50528858442E+02  0.29999995722E+02 0.  0.
        -12    1    1    2    0    0 -0.96360511125E+01  0.28374562789E+02 -0.27480838737E+02  0.40659141558E+02  0.00000000000E+00 0.  1.
         11    1    3    3    0    0  0.79708703371E+01 -0.12769059182E+02  0.25357290078E+02  0.29488570781E+02  0.51100000000E-03 0. -1.
        -11    1    3    3    0    0  0.65027451067E+01 -0.34383445974E+01  0.29392947159E+01  0.79213231963E+01  0.51100000000E-03 0.  1.
         12    1    3    3    0    0 -0.48375643313E+01 -0.12167159009E+02 -0.81574605661E+00  0.13118964465E+02  0.00000000000E+00 0. -1.
</event>
<event>
 7    1  0.4374874E-012  0.5052886E+02  0.7816164E-02  0.1300439E+00
        -11   -1    0    0    0    0  0.00000000000E+00  0.00000000000E+00  0.45593999997E+02  0.45594000000E+02  0.51100000000E-03 0. -1.
         11   -1    0    0    0    0 -0.00000000000E+00 -0.00000000000E+00 -0.45593999997E+02  0.45594000000E+02  0.51100000000E-03 0.  1.
    9900012    2    1    2    0    0  0.13067197673E+02  0.10419015409E+02 -0.37065594655E+02  0.50528857802E+02  0.29999993776E+02 0.  0.
         12    1    1    2    0    0 -0.13067197673E+02 -0.10419015409E+02  0.37065594655E+02  0.40659142198E+02  0.00000000000E+00 0. -1.
         11    1    3    3    0    0  0.15053691256E+02  0.41089822128E+01 -0.82636133730E+01  0.17657425109E+02  0.51100000000E-03 0.  1.
        -11    1    3    3    0    0 -0.44691159351E+01  0.89778688079E+00 -0.13112834572E+01  0.47432565913E+01  0.51100000000E-03 0. -1.
        -12    1    3    3    0    0  0.24826223517E+01  0.54122463156E+01 -0.27490697825E+02  0.28128176102E+02  0.00000000000E+00 0.  1.
</event>
<event>
 7    1  0.4374874E-012  0.5052887E+02  0.7816164E-02  0.1300439E+00
        -11   -1    0    0    0    0  0.00000000000E+00  0.00000000000E+00  0.45593999997E+02  0.45594000000E+02  0.51100000000E-03 0.  1.
         11   -1    0    0    0    0 -0.00000000000E+00 -0.00000000000E+00 -0.45593999997E+02  0.45594000000E+02  0.51100000000E-03 0. -1.
    9900012    2    1    2    0    0  0.71976602020E+01  0.40016738274E+02 -0.13919573136E+00  0.50528867816E+02  0.30000024213E+02 0.  0.
        -12    1    1    2    0    0 -0.71976602020E+01 -0.40016738274E+02  0.13919573136E+00  0.40659132184E+02  0.00000000000E+00 0.  1.
         11    1    3    3    0    0  0.35876420233E+01  0.66743498586E+01  0.39798312842E+01  0.85590407543E+01  0.51100000000E-03 0. -1.
        -11    1    3    3    0    0 -0.37845251847E+01 -0.27493863791E+01  0.97355242052E+00  0.47780289777E+01  0.51100000000E-03 0.  1.
         12    1    3    3    0    0  0.73945433634E+01  0.36091774795E+02 -0.50925794361E+01  0.37191798084E+02  0.00000000000E+00 0. -1.
</event>
<event>
 7    1  0.4374874E-012  0.5052891E+02  0.7816164E-02  0.1300439E+00
        -11   -1    0    0    0    0  0.00000000000E+00  0.00000000000E+00  0.45593999997E+02  0.45594000000E+02  0.51100000000E-03 0.  1.
         11   -1    0    0    0    0 -0.00000000000E+00 -0.00000000000E+00 -0.45593999997E+02  0.45594000000E+02  0.51100000000E-03 0. -1.
    9900012    2    1    2    0    0 -0.44815232137E+01  0.33295088728E+02 -0.22902290374E+02  0.50528906452E+02  0.30000141651E+02 0.  0.
         12    1    1    2    0    0  0.44815232137E+01 -0.33295088728E+02  0.22902290374E+02  0.40659093548E+02  0.00000000000E+00 0. -1.
         11    1    3    3    0    0 -0.32142792944E+01  0.52292393526E+01  0.53374391646E+01  0.81341743703E+01  0.51100000000E-03 0. -1.
        -11    1    3    3    0    0 -0.42846077122E+01  0.44628336278E+01 -0.12258090412E+02  0.13730824012E+02  0.51100000000E-03 0.  1.
        -12    1    3    3    0    0  0.30173637929E+01  0.23603015748E+02 -0.15981639127E+02  0.28663908070E+02  0.00000000000E+00 0.  1.
</event>
<event>
 7    1  0.4374874E-012  0.5052886E+02  0.7816164E-02  0.1300439E+00
        -11   -1    0    0    0    0  0.00000000000E+00  0.00000000000E+00  0.45593999997E+02  0.45594000000E+02  0.51100000000E-03 0. -1.
         11   -1    0    0    0    0 -0.00000000000E+00 -0.00000000000E+00 -0.45593999997E+02  0.45594000000E+02  0.51100000000E-03 0.  1.
    9900012    2    1    2    0    0 -0.32342900440E+02 -0.19990729180E+02 -0.14403934693E+02  0.50528858388E+02  0.29999995556E+02 0.  0.
         12    1    1    2    0    0  0.32342900440E+02  0.19990729180E+02  0.14403934693E+02  0.40659141612E+02  0.00000000000E+00 0. -1.
         11    1    3    3    0    0 -0.97673840959E+01 -0.42189754184E+01  0.35129922330E+01  0.11204582114E+02  0.51100000000E-03 0.  1.
        -11    1    3    3    0    0 -0.21582496634E+02 -0.20743536728E+02 -0.15401174961E+02  0.33664442181E+02  0.51100000000E-03 0. -1.
        -12    1    3    3    0    0 -0.99301971026E+00  0.49717829664E+01 -0.25157519649E+01  0.56598340928E+01  0.00000000000E+00 0.  1.
</event>
<event>
 7    1  0.4374874E-012  0.5052885E+02  0.7816164E-02  0.1300439E+00
        -11   -1    0    0    0    0  0.00000000000E+00  0.00000000000E+00  0.45593999997E+02  0.45594000000E+02  0.51100000000E-03 0. -1.
         11   -1    0    0    0    0 -0.00000000000E+00 -0.00000000000E+00 -0.45593999997E+02  0.45594000000E+02  0.51100000000E-03 0.  1.
    9900012    2    1    2    0    0 -0.18940130189E+02  0.12426745298E+02  0.33764095508E+02  0.50528847577E+02  0.29999962694E+02 0.  0.
        -12    1    1    2    0    0  0.18940130189E+02 -0.12426745298E+02 -0.33764095508E+02  0.40659152423E+02  0.00000000000E+00 0.  1.
         11    1    3    3    0    0 -0.93985492228E+01  0.10184087146E+01  0.16280817338E+01  0.95927334059E+01  0.51100000000E-03 0. -1.
        -11    1    3    3    0    0  0.33413436120E+01  0.44986065573E+00 -0.11806630858E+01  0.35722426187E+01  0.51100000000E-03 0.  1.
         12    1    3    3    0    0 -0.12882924579E+02  0.10958475928E+02  0.33316676860E+02  0.37363871552E+02  0.00000000000E+00 0. -1.
</event>
<event>
 7    1  0.4374874E-012  0.5052886E+02  0.7816164E-02  0.1300439E+00
        -11   -1    0    0    0    0  0.00000000000E+00  0.00000000000E+00  0.45593999997E+02  0.45594000000E+02  0.51100000000E-03 0.  1.
         11   -1    0    0    0    0 -0.00000000000E+00 -0.00000000000E+00 -0.45593999997E+02  0.45594000000E+02  0.51100000000E-03 0. -1.
    9900012    2    1    2    0    0  0.10600760870E+02  0.23356939248E+02 -0.31547468556E+02  0.50528861859E+02  0.30000006106E+02 0.  0.
         12    1    1    2    0    0 -0.10600760870E+02 -0.23356939248E+02  0.31547468556E+02  0.40659138141E+02  0.00000000000E+00 0. -1.
         11    1    3    3    0    0  0.68571470441E+01  0.65947640037E+01  0.25533602936E+01  0.98504328281E+01  0.51100000000E-03 0. -1.
        -11    1    3    3    0    0  0.81954088249E+00  0.98676047894E+01 -0.59573508321E+01  0.11555574444E+02  0.51100000000E-03 0.  1.
         12    1    3    3    0    0  0.29240729429E+01  0.68945704551E+01 -0.28143478018E+02  0.29122854587E+02  0.00000000000E+00 0. -1.
</event>
<event>
 7    1  0.4374874E-012  0.5052891E+02  0.7816164E-02  0.1300439E+00
        -11   -1    0    0    0    0  0.00000000000E+00  0.00000000000E+00  0.45593999997E+02  0.45594000000E+02  0.51100000000E-03 0. -1.
         11   -1    0    0    0    0 -0.00000000000E+00 -0.00000000000E+00 -0.45593999997E+02  0.45594000000E+02  0.51100000000E-03 0.  1.
    9900012    2    1    2    0    0 -0.32144799810E+02  0.21011573076E+02  0.13356154184E+02  0.50528914760E+02  0.30000166904E+02 0.  0.
        -12    1    1    2    0    0  0.32144799810E+02 -0.21011573076E+02 -0.13356154184E+02  0.40659085240E+02  0.00000000000E+00 0.  1.
         11    1    3    3    0    0 -0.13110932371E+02  0.10066358471E+02 -0.21287150149E+00  0.16530984092E+02  0.51100000000E-03 0. -1.
        -11    1    3    3    0    0  0.57342201680E-01  0.12030736978E+02  0.58326198286E+01  0.13370167339E+02  0.51100000000E-03 0.  1.
         12    1    3    3    0    0 -0.19091209641E+02 -0.10855223726E+01  0.77364058565E+01  0.20627763329E+02  0.00000000000E+00 0. -1.
</event>
<event>
 7    1  0.4374874E-012  0.5052888E+02  0.7816164E-02  0.1300439E+00
        -11   -1    0    0    0    0  0.00000000000E+00  0.00000000000E+00  0.45593999997E+02  0.45594000000E+02  0.51100000000E-03 0.  1.
         11   -1    0    0    0    0 -0.00000000000E+00 -0.00000000000E+00 -0.45593999997E+02  0.45594000000E+02  0.51100000000E-03 0. -1.
    9900012    2    1    2    0    0  0.23348051489E+02 -0.32186699819E+02  0.84881816425E+01  0.50528875794E+02  0.30000048463E+02 0.  0.
        -12    1    1    2    0    0 -0.23348051489E+02  0.32186699819E+02 -0.84881816425E+01  0.40659124206E+02  0.00000000000E+00 0.  1.
         11    1    3    3    0    0  0.10938793108E+02 -0.93382830166E+01  0.12986216066E+00  0.14383239858E+02  0.51100000000E-03 0. -1.
        -11    1    3    3    0    0  0.34831204918E+01 -0.12090306360E+02 -0.77813194917E+01  0.14793801726E+02  0.51100000000E-03 0.  1.
        -12    1    3    3    0    0  0.89261378893E+01 -0.10758110443E+02  0.16139638973E+02  0.21351834210E+02  0.00000000000E+00 0.  1.
</event>
<event>
 7    1  0.4374874E-012  0.5052887E+02  0.7816164E-02  0.1300439E+00
        -11   -1    0    0    0    0  0.00000000000E+00  0.00000000000E+00  0.45593999997E+02  0.45594000000E+02  0.51100000000E-03 0. -1.
         11   -1    0    0    0    0 -0.00000000000E+00 -0.00000000000E+00 -0.45593999997E+02  0.45594000000E+02  0.51100000000E-03 0.  1.
    9900012    2    1    2    0    0 -0.16239466774E+02 -0.26015044270E+02 -0.26695730679E+02  0.50528870078E+02  0.30000031090E+02 0.  0.
         12    1    1    2    0    0  0.16239466774E+02  0.26015044270E+02  0.26695730679E+02  0.40659129922E+02  0.00000000000E+00 0. -1.
         11    1    3    3    0    0 -0.26108007806E+01 -0.11027819333E+02  0.18828376531E+01  0.11488000603E+02  0.51100000000E-03 0. -1.
        -11    1    3    3    0    0 -0.14341147407E+02 -0.79137605258E+01 -0.10103514035E+02  0.19245184092E+02  0.51100000000E-03 0.  1.
         12    1    3    3    0    0  0.71248141316E+00 -0.70734644110E+01 -0.18475054297E+02  0.19795685384E+02  0.00000000000E+00 0. -1.
</event>
<event>
 7    1  0.4374874E-012  0.5052886E+02  0.7816164E-02  0.1300439E+00
        -11   -1    0    0    0    0  0.00000000000E+00  0.00000000000E+00  0.45593999997E+02  0.45594000000E+02  0.51100000000E-03 0. -1.
         11   -1    0    0    0    0 -0.00000000000E+00 -0.00000000000E+00 -0.45593999997E+02  0.45594000000E+02  0.51100000000E-03 0.  1.
    9900012    2    1    2    0    0 -0.38471887000E+02 -0.23339905543E+01  0.12947280068E+02  0.50528860038E+02  0.30000000572E+02 0.  0.
        -12    1    1    2    0    0  0.38471887000E+02  0.23339905543E+01 -0.12947280068E+02  0.40659139962E+02  0.00000000000E+00 0.  1.
         11    1    3    3    0    0 -0.19660872457E+02  0.49790692295E+01  0.19749776144E+02  0.28308915454E+02  0.51100000000E-03 0. -1.
        -11    1    3    3    0    0  0.18955899427E+00 -0.33265407707E+00 -0.11371251170E+01  0.11998521326E+01  0.51100000000E-03 0.  1.
         12    1    3    3    0    0 -0.19000573537E+02 -0.69804057067E+01 -0.56653709589E+01  0.21020092452E+02  0.00000000000E+00 0. -1.
</event>
<event>
 7    1  0.4374874E-012  0.5052887E+02  0.7816164E-02  0.1300439E+00
        -11   -1    0    0    0    0  0.00000000000E+00  0.00000000000E+00  0.45593999997E+02  0.45594000000E+02  0.51100000000E-03 0. -1.
         11   -1    0    0    0    0 -0.00000000000E+00 -0.00000000000E+00 -0.45593999997E+02  0.45594000000E+02  0.51100000000E-03 0.  1.
    9900012    2    1    2    0    0 -0.25890514532E+02 -0.26556512285E+02 -0.16661271475E+02  0.50528867513E+02  0.30000023292E+02 0.  0.
         12    1    1    2    0    0  0.25890514532E+02  0.26556512285E+02  0.16661271475E+02  0.40659132487E+02  0.00000000000E+00 0. -1.
         11    1    3    3    0    0 -0.24760436166E+01 -0.37026477426E+01 -0.30410018217E+01  0.53933370596E+01  0.51100000000E-03 0. -1.
        -11    1    3    3    0    0 -0.63345406711E+01 -0.63685812321E+00 -0.15792934911E+02  0.17027882638E+02  0.51100000000E-03 0.  1.
         12    1    3    3    0    0 -0.17079930244E+02 -0.22217006419E+02  0.21726652579E+01  0.28107647815E+02  0.00000000000E+00 0. -1.
</event>
<event>
 7    1  0.4374874E-012  0.5052886E+02  0.7816164E-02  0.1300439E+00
        -11   -1    0    0    0    0  0.00000000000E+00  0.00000000000E+00  0.45593999997E+02  0.45594000000E+02  0.51100000000E-03 0. -1.
         11   -1    0    0    0    0 -0.00000000000E+00 -0.00000000000E+00 -0.45593999997E+02  0.45594000000E+02  0.51100000000E-03 0.  1.
    9900012    2    1    2    0    0 -0.22339031714E+02  0.19693687196E+02 -0.27681977500E+02  0.50528861647E+02  0.30000005463E+02 0.  0.
         12    1    1    2    0    0  0.22339031714E+02 -0.19693687196E+02  0.27681977500E+02  0.40659138353E+02  0.00000000000E+00 0. -1.
         11    1    3    3    0    0  0.68918502838E+00  0.13480400189E+02 -0.78212539821E+01  0.15600262157E+02  0.51100000000E-03 0. -1.
        -11    1    3    3    0    0 -0.46466246979E+01  0.59788059349E+01 -0.13495545008E+02  0.15474720573E+02  0.51100000000E-03 0.  1.
        -12    1    3    3    0    0 -0.18381592044E+02  0.23448107227E+00 -0.63651785094E+01  0.19453878917E+02  0.00000000000E+00 0.  1.
</event>
<event>
 7    1  0.4374874E-012  0.5052887E+02  0.7816164E-02  0.1300439E+00
        -11   -1    0    0    0    0  0.00000000000E+00  0.00000000000E+00  0.45593999997E+02  0.45594000000E+02  0.51100000000E-03 0. -1.
         11   -1    0    0    0    0 -0.00000000000E+00 -0.00000000000E+00 -0.45593999997E+02  0.45594000000E+02  0.51100000000E-03 0.  1.
    9900012    2    1    2    0    0 -0.34547127942E+02  0.17338529077E+02  0.12610950525E+02  0.50528871717E+02  0.30000036070E+02 0.  0.
        -12    1    1    2    0    0  0.34547127942E+02 -0.17338529077E+02 -0.12610950525E+02  0.40659128283E+02  0.00000000000E+00 0.  1.
         11    1    3    3    0    0 -0.15915241313E+02  0.11080030523E+01  0.12122354092E+02  0.20036817257E+02  0.51100000000E-03 0. -1.
        -11    1    3    3    0    0 -0.48103075615E+01  0.91752834735E+01  0.81541290016E+01  0.13183880525E+02  0.51100000000E-03 0.  1.
        -12    1    3    3    0    0 -0.13821579068E+02  0.70552425512E+01 -0.76655325690E+01  0.17308173935E+02  0.00000000000E+00 0.  1.
</event>
<event>
 7    1  0.4374874E-012  0.5052886E+02  0.7816164E-02  0.1300439E+00
        -11   -1    0    0    0    0  0.00000000000E+00  0.00000000000E+00  0.45593999997E+02  0.45594000000E+02  0.51100000000E-03 0. -1.
         11   -1    0    0    0    0 -0.00000000000E+00 -0.00000000000E+00 -0.45593999997E+02  0.45594000000E+02  0.51100000000E-03 0.  1.
    9900012    2    1    2    0    0  0.22071350452E+01  0.36325459737E+02 -0.18131601638E+02  0.50528862673E+02  0.30000008581E+02 0.  0.
         12    1    1    2    0    0 -0.22071350452E+01 -0.36325459737E+02  0.18131601638E+02  0.40659137327E+02  0.00000000000E+00 0. -1.
         11    1    3    3    0    0 -0.20761103948E+01  0.10632274137E+00 -0.61541829309E+01  0.64958068555E+01  0.51100000000E-03 0. -1.
        -11    1    3    3    0    0  0.22411395487E+01  0.38372257320E+02 -0.83281518678E+01  0.39329517568E+02  0.51100000000E-03 0.  1.
         12    1    3    3    0    0  0.20421058913E+01 -0.21531203244E+01 -0.36492668396E+01  0.47035382500E+01  0.00000000000E+00 0. -1.
</event>
<event>
 7    1  0.6877351E-012  0.5052886E+02  0.7816164E-02  0.1300439E+00
        -11   -1    0    0    0    0  0.00000000000E+00  0.00000000000E+00  0.45593999997E+02  0.45594000000E+02  0.51100000000E-03 0. -1.
         11   -1    0    0    0    0 -0.00000000000E+00 -0.00000000000E+00 -0.45593999997E+02  0.45594000000E+02  0.51100000000E-03 0.  1.
    9900012    2    1    2    0    0 -0.28748424417E+01  0.84359798822E+01 -0.39670331144E+02  0.50528860207E+02  0.30000001084E+02 0.  0.
         12    1    1    2    0    0  0.28748424417E+01 -0.84359798822E+01  0.39670331144E+02  0.40659139793E+02  0.00000000000E+00 0. -1.
         11    1    3    3    0    0  0.28899186451E+01 -0.55983266135E+00 -0.13442480870E+02  0.13761007760E+02  0.51100000000E-03 0. -1.
        -11    1    3    3    0    0 -0.61734000359E+01  0.12112580255E+02 -0.29344805712E+02  0.32341043443E+02  0.51100000000E-03 0.  1.
         12    1    3    3    0    0  0.40863894915E+00 -0.31167677112E+01  0.31169554373E+01  0.44268090036E+01  0.00000000000E+00 0. -1.
</event>
<event>
 7    1  0.4374874E-012  0.5052885E+02  0.7816164E-02  0.1300439E+00
        -11   -1    0    0    0    0  0.00000000000E+00  0.00000000000E+00  0.45593999997E+02  0.45594000000E+02  0.51100000000E-03 0. -1.
         11   -1    0    0    0    0 -0.00000000000E+00 -0.00000000000E+00 -0.45593999997E+02  0.45594000000E+02  0.51100000000E-03 0.  1.
    9900012    2    1    2    0    0 -0.62631274955E+01 -0.11205019312E+02  0.38579617499E+02  0.50528854532E+02  0.29999983835E+02 0.  0.
        -12    1    1    2    0    0  0.62631274955E+01  0.11205019312E+02 -0.38579617499E+02  0.40659145468E+02  0.00000000000E+00 0.  1.
         11    1    3    3    0    0 -0.20557458274E+01 -0.88756500433E+00  0.15917322684E+02  0.16074048159E+02  0.51100000000E-03 0. -1.
        -11    1    3    3    0    0 -0.64514890582E+01  0.63675546570E+01  0.68950051458E+01  0.11388966573E+02  0.51100000000E-03 0.  1.
        -12    1    3    3    0    0  0.22441073900E+01 -0.16685008965E+02  0.15767289670E+02  0.23065839800E+02  0.00000000000E+00 0.  1.
</event>
<event>
 7    1  0.4374874E-012  0.5052886E+02  0.7816164E-02  0.1300439E+00
        -11   -1    0    0    0    0  0.00000000000E+00  0.00000000000E+00  0.45593999997E+02  0.45594000000E+02  0.51100000000E-03 0. -1.
         11   -1    0    0    0    0 -0.00000000000E+00 -0.00000000000E+00 -0.45593999997E+02  0.45594000000E+02  0.51100000000E-03 0.  1.
    9900012    2    1    2    0    0 -0.20398216741E+02  0.11793044172E+02 -0.33136125250E+02  0.50528856703E+02  0.29999990434E+02 0.  0.
         12    1    1    2    0    0  0.20398216741E+02 -0.11793044172E+02  0.33136125250E+02  0.40659143297E+02  0.00000000000E+00 0. -1.
         11    1    3    3    0    0  0.87348878200E+00  0.92548761845E+01 -0.45635245599E+01  0.10355745870E+02  0.51100000000E-03 0. -1.
        -11    1    3    3    0    0  0.14563674351E+01 -0.10440308142E+00 -0.11581512162E+02  0.11673188525E+02  0.51100000000E-03 0.  1.
        -12    1    3    3    0    0 -0.22728072958E+02  0.26425710688E+01 -0.16991088528E+02  0.28499922309E+02  0.00000000000E+00 0.  1.
</event>
<event>
 7    1  0.4374874E-012  0.5052886E+02  0.7816164E-02  0.1300439E+00
        -11   -1    0    0    0    0  0.00000000000E+00  0.00000000000E+00  0.45593999997E+02  0.45594000000E+02  0.51100000000E-03 0. -1.
         11   -1    0    0    0    0 -0.00000000000E+00 -0.00000000000E+00 -0.45593999997E+02  0.45594000000E+02  0.51100000000E-03 0.  1.
    9900012    2    1    2    0    0 -0.19949922171E+02  0.13744058190E+02  0.32653742364E+02  0.50528863013E+02  0.30000009615E+02 0.  0.
        -12    1    1    2    0    0  0.19949922171E+02 -0.13744058190E+02 -0.32653742364E+02  0.40659136987E+02  0.00000000000E+00 0.  1.
         11    1    3    3    0    0 -0.16526764285E+02  0.12358153044E+02  0.30207135680E+02  0.36583178247E+02  0.51100000000E-03 0. -1.
        -11    1    3    3    0    0  0.24733601022E+01  0.16910670976E+01  0.62439267134E+01  0.69255930567E+01  0.51100000000E-03 0.  1.
        -12    1    3    3    0    0 -0.58965179884E+01 -0.30516195137E+00 -0.37973200297E+01  0.70200917097E+01  0.00000000000E+00 0.  1.
</event>
<event>
 7    1  0.4374874E-012  0.5052887E+02  0.7816164E-02  0.1300439E+00
        -11   -1    0    0    0    0  0.00000000000E+00  0.00000000000E+00  0.45593999997E+02  0.45594000000E+02  0.51100000000E-03 0. -1.
         11   -1    0    0    0    0 -0.00000000000E+00 -0.00000000000E+00 -0.45593999997E+02  0.45594000000E+02  0.51100000000E-03 0.  1.
    9900012    2    1    2    0    0  0.12053125648E+02 -0.25880135931E+02  0.28950057154E+02  0.50528867165E+02  0.30000022234E+02 0.  0.
        -12    1    1    2    0    0 -0.12053125648E+02  0.25880135931E+02 -0.28950057154E+02  0.40659132835E+02  0.00000000000E+00 0.  1.
         11    1    3    3    0    0  0.89501355259E+01 -0.10029618365E+02  0.16200101449E+02  0.21050925341E+02  0.51100000000E-03 0. -1.
        -11    1    3    3    0    0  0.11228120028E+02 -0.13681515939E+02  0.11147395696E+02  0.20916954578E+02  0.51100000000E-03 0.  1.
        -12    1    3    3    0    0 -0.81251299059E+01 -0.21690016267E+01  0.16025600094E+01  0.85609872461E+01  0.00000000000E+00 0.  1.
</event>
<event>
 7    1  0.4374874E-012  0.5052887E+02  0.7816164E-02  0.1300439E+00
        -11   -1    0    0    0    0  0.00000000000E+00  0.00000000000E+00  0.45593999997E+02  0.45594000000E+02  0.51100000000E-03 0.  1.
         11   -1    0    0    0    0 -0.00000000000E+00 -0.00000000000E+00 -0.45593999997E+02  0.45594000000E+02  0.51100000000E-03 0. -1.
    9900012    2    1    2    0    0  0.39171809656E+02 -0.78404631144E+01  0.75671140660E+01  0.50528871273E+02  0.30000034720E+02 0.  0.
        -12    1    1    2    0    0 -0.39171809656E+02  0.78404631144E+01 -0.75671140660E+01  0.40659128727E+02  0.00000000000E+00 0.  1.
         11    1    3    3    0    0  0.74680956684E+01 -0.63083147632E+00 -0.75190586886E+01  0.10616338591E+02  0.51100000000E-03 0. -1.
        -11    1    3    3    0    0  0.10744323990E+02 -0.10911198027E+02  0.36141933021E+01  0.15733948451E+02  0.51100000000E-03 0.  1.
         12    1    3    3    0    0  0.20959389998E+02  0.37015663887E+01  0.11471979452E+02  0.24178584230E+02  0.00000000000E+00 0. -1.
</event>
<event>
 7    1  0.4374874E-012  0.5052888E+02  0.7816164E-02  0.1300439E+00
        -11   -1    0    0    0    0  0.00000000000E+00  0.00000000000E+00  0.45593999997E+02  0.45594000000E+02  0.51100000000E-03 0. -1.
         11   -1    0    0    0    0 -0.00000000000E+00 -0.00000000000E+00 -0.45593999997E+02  0.45594000000E+02  0.51100000000E-03 0.  1.
    9900012    2    1    2    0    0 -0.26828474845E+02 -0.25666501593E+02 -0.16571899959E+02  0.50528877595E+02  0.30000053937E+02 0.  0.
         12    1    1    2    0    0  0.26828474845E+02  0.25666501593E+02  0.16571899959E+02  0.40659122405E+02  0.00000000000E+00 0. -1.
         11    1    3    3    0    0 -0.13320638036E+02 -0.15457016560E+02 -0.11328642262E+02  0.23338742348E+02  0.51100000000E-03 0. -1.
        -11    1    3    3    0    0 -0.63725624185E+01 -0.40551922755E+01 -0.12966877824E+02  0.15006467170E+02  0.51100000000E-03 0.  1.
         12    1    3    3    0    0 -0.71352743903E+01 -0.61542927575E+01  0.77236201258E+01  0.12183668077E+02  0.00000000000E+00 0. -1.
</event>
<event>
 7    1  0.4374874E-012  0.5052895E+02  0.7816164E-02  0.1300438E+00
        -11   -1    0    0    0    0  0.00000000000E+00  0.00000000000E+00  0.45593999997E+02  0.45594000000E+02  0.51100000000E-03 0. -1.
         11   -1    0    0    0    0 -0.00000000000E+00 -0.00000000000E+00 -0.45593999997E+02  0.45594000000E+02  0.51100000000E-03 0.  1.
    9900012    2    1    2    0    0 -0.23457115550E+02 -0.93884264642E+01  0.31855609997E+02  0.50528945539E+02  0.30000260458E+02 0.  0.
        -12    1    1    2    0    0  0.23457115550E+02  0.93884264642E+01 -0.31855609997E+02  0.40659054461E+02  0.00000000000E+00 0.  1.
         11    1    3    3    0    0 -0.17601623828E+02 -0.12361674316E+02  0.25966720461E+02  0.33717928837E+02  0.51100000000E-03 0. -1.
        -11    1    3    3    0    0 -0.10206773776E+02  0.13145681570E+01  0.14775730974E+01  0.10396612087E+02  0.51100000000E-03 0.  1.
         12    1    3    3    0    0  0.43512820542E+01  0.16586796948E+01  0.44113164390E+01  0.64144046154E+01  0.00000000000E+00 0. -1.
</event>
<event>
 7    1  0.4374874E-012  0.5052887E+02  0.7816164E-02  0.1300439E+00
        -11   -1    0    0    0    0  0.00000000000E+00  0.00000000000E+00  0.45593999997E+02  0.45594000000E+02  0.51100000000E-03 0. -1.
         11   -1    0    0    0    0 -0.00000000000E+00 -0.00000000000E+00 -0.45593999997E+02  0.45594000000E+02  0.51100000000E-03 0.  1.
    9900012    2    1    2    0    0 -0.25011332463E+02  0.20479622405E+02 -0.24661375857E+02  0.50528866406E+02  0.30000019928E+02 0.  0.
         12    1    1    2    0    0  0.25011332463E+02 -0.20479622405E+02  0.24661375857E+02  0.40659133594E+02  0.00000000000E+00 0. -1.
         11    1    3    3    0    0 -0.18647312417E+02  0.14970322913E+02 -0.14103201724E+02  0.27762080750E+02  0.51100000000E-03 0. -1.
        -11    1    3    3    0    0 -0.16210697678E+01  0.11777370718E+02 -0.40420140317E+01  0.12556759372E+02  0.51100000000E-03 0.  1.
         12    1    3    3    0    0 -0.47429502786E+01 -0.62680712260E+01 -0.65161601018E+01  0.10210026284E+02  0.00000000000E+00 0. -1.
</event>
<event>
 7    1  0.4374874E-012  0.5052889E+02  0.7816164E-02  0.1300439E+00
        -11   -1    0    0    0    0  0.00000000000E+00  0.00000000000E+00  0.45593999997E+02  0.45594000000E+02  0.51100000000E-03 0. -1.
         11   -1    0    0    0    0 -0.00000000000E+00 -0.00000000000E+00 -0.45593999997E+02  0.45594000000E+02  0.51100000000E-03 0.  1.
    9900012    2    1    2    0    0  0.11816723362E+02  0.14581544097E+02 -0.36068082375E+02  0.50528893449E+02  0.30000102128E+02 0.  0.
         12    1    1    2    0    0 -0.11816723362E+02 -0.14581544097E+02  0.36068082375E+02  0.40659106551E+02  0.00000000000E+00 0. -1.
         11    1    3    3    0    0  0.83225496919E+01  0.53508817663E+01 -0.12115816195E+02  0.15642562814E+02  0.51100000000E-03 0. -1.
        -11    1    3    3    0    0  0.10457336779E+01  0.91456284857E+00 -0.25952385515E+02  0.25989542095E+02  0.51100000000E-03 0.  1.
         12    1    3    3    0    0  0.24484399920E+01  0.83160994822E+01  0.20001193342E+01  0.88967885410E+01  0.00000000000E+00 0. -1.
</event>
<event>
 7    1  0.4374874E-012  0.5052886E+02  0.7816164E-02  0.1300439E+00
        -11   -1    0    0    0    0  0.00000000000E+00  0.00000000000E+00  0.45593999997E+02  0.45594000000E+02  0.51100000000E-03 0. -1.
         11   -1    0    0    0    0 -0.00000000000E+00 -0.00000000000E+00 -0.45593999997E+02  0.45594000000E+02  0.51100000000E-03 0.  1.
    9900012    2    1    2    0    0 -0.29844359141E+02 -0.19591412729E+02 -0.19459101815E+02  0.50528857501E+02  0.29999992860E+02 0.  0.
         12    1    1    2    0    0  0.29844359141E+02  0.19591412729E+02  0.19459101815E+02  0.40659142499E+02  0.00000000000E+00 0. -1.
         11    1    3    3    0    0 -0.70140894717E+00 -0.52621771921E+01  0.12479475346E+01  0.54534261361E+01  0.51100000000E-03 0. -1.
        -11    1    3    3    0    0 -0.50501585951E+01 -0.99264860997E+01 -0.16972795741E+02  0.20300616337E+02  0.51100000000E-03 0.  1.
        -12    1    3    3    0    0 -0.24092791599E+02 -0.44027494375E+01 -0.37342536084E+01  0.24774815028E+02  0.00000000000E+00 0.  1.
</event>
<event>
 7    1  0.4374874E-012  0.5052886E+02  0.7816164E-02  0.1300439E+00
        -11   -1    0    0    0    0  0.00000000000E+00  0.00000000000E+00  0.45593999997E+02  0.45594000000E+02  0.51100000000E-03 0.  1.
         11   -1    0    0    0    0 -0.00000000000E+00 -0.00000000000E+00 -0.45593999997E+02  0.45594000000E+02  0.51100000000E-03 0. -1.
    9900012    2    1    2    0    0 -0.31722713119E+02 -0.80395011186E+01  0.24128852431E+02  0.50528860492E+02  0.30000001952E+02 0.  0.
        -12    1    1    2    0    0  0.31722713119E+02  0.80395011186E+01 -0.24128852431E+02  0.40659139508E+02  0.00000000000E+00 0.  1.
         11    1    3    3    0    0 -0.23679220716E+02  0.27489872655E+01  0.99617612694E+01  0.25836004191E+02  0.51100000000E-03 0. -1.
        -11    1    3    3    0    0 -0.98763286367E+01 -0.11923582126E+02  0.66106826609E+01  0.16834928083E+02  0.51100000000E-03 0.  1.
        -12    1    3    3    0    0  0.18328362333E+01  0.11350937414E+01  0.75564085007E+01  0.78579282186E+01  0.00000000000E+00 0.  1.
</event>
<event>
 7    1  0.4374874E-012  0.5052886E+02  0.7816164E-02  0.1300439E+00
        -11   -1    0    0    0    0  0.00000000000E+00  0.00000000000E+00  0.45593999997E+02  0.45594000000E+02  0.51100000000E-03 0. -1.
         11   -1    0    0    0    0 -0.00000000000E+00 -0.00000000000E+00 -0.45593999997E+02  0.45594000000E+02  0.51100000000E-03 0.  1.
    9900012    2    1    2    0    0 -0.10740232797E+01 -0.15166172314E+02  0.37709401738E+02  0.50528864641E+02  0.30000014563E+02 0.  0.
        -12    1    1    2    0    0  0.10740232797E+01  0.15166172314E+02 -0.37709401738E+02  0.40659135359E+02  0.00000000000E+00 0.  1.
         11    1    3    3    0    0 -0.54736551472E+01  0.33861870578E+01  0.11039359596E+02  0.12778678493E+02  0.51100000000E-03 0. -1.
        -11    1    3    3    0    0  0.79459528042E+01 -0.39018897442E+00  0.10515130102E+02  0.13185536573E+02  0.51100000000E-03 0.  1.
         12    1    3    3    0    0 -0.35463209367E+01 -0.18162170397E+02  0.16154912040E+02  0.24564649575E+02  0.00000000000E+00 0. -1.
</event>
<event>
 7    1  0.4374874E-012  0.5052884E+02  0.7816164E-02  0.1300439E+00
        -11   -1    0    0    0    0  0.00000000000E+00  0.00000000000E+00  0.45593999997E+02  0.45594000000E+02  0.51100000000E-03 0. -1.
         11   -1    0    0    0    0 -0.00000000000E+00 -0.00000000000E+00 -0.45593999997E+02  0.45594000000E+02  0.51100000000E-03 0.  1.
    9900012    2    1    2    0    0  0.12268006179E+02  0.48415227903E+00  0.38761175965E+02  0.50528841853E+02  0.29999945296E+02 0.  0.
        -12    1    1    2    0    0 -0.12268006179E+02 -0.48415227903E+00 -0.38761175965E+02  0.40659158147E+02  0.00000000000E+00 0.  1.
         11    1    3    3    0    0 -0.44984111486E+01  0.37440774065E+01  0.30248592770E+02  0.30809595637E+02  0.51100000000E-03 0. -1.
        -11    1    3    3    0    0  0.10731320396E+01 -0.15013124423E+01  0.15350607333E+00  0.18517871907E+01  0.51100000000E-03 0.  1.
         12    1    3    3    0    0  0.15693285288E+02 -0.17586126851E+01  0.83590771218E+01  0.17867459025E+02  0.00000000000E+00 0. -1.
</event>
<event>
 7    1  0.4627110E-012  0.5052885E+02  0.7816164E-02  0.1300439E+00
        -11   -1    0    0    0    0  0.00000000000E+00  0.00000000000E+00  0.45593999997E+02  0.45594000000E+02  0.51100000000E-03 0. -1.
         11   -1    0    0    0    0 -0.00000000000E+00 -0.00000000000E+00 -0.45593999997E+02  0.45594000000E+02  0.51100000000E-03 0.  1.
    9900012    2    1    2    0    0  0.17960332358E+02 -0.11805254075E+00 -0.36477107465E+02  0.50528845510E+02  0.29999956413E+02 0.  0.
         12    1    1    2    0    0 -0.17960332358E+02  0.11805254075E+00  0.36477107465E+02  0.40659154490E+02  0.00000000000E+00 0. -1.
         11    1    3    3    0    0  0.29833201857E+01 -0.39519044899E+01 -0.25019202997E+02  0.25504475437E+02  0.51100000000E-03 0. -1.
        -11    1    3    3    0    0  0.70982072483E+01  0.50385443800E+01 -0.14148772327E+02  0.16612020775E+02  0.51100000000E-03 0.  1.
         12    1    3    3    0    0  0.78788049241E+01 -0.12046924308E+01  0.26908678592E+01  0.84123492985E+01  0.00000000000E+00 0. -1.
</event>
<event>
 7    1  0.4374874E-012  0.5052887E+02  0.7816164E-02  0.1300439E+00
        -11   -1    0    0    0    0  0.00000000000E+00  0.00000000000E+00  0.45593999997E+02  0.45594000000E+02  0.51100000000E-03 0. -1.
         11   -1    0    0    0    0 -0.00000000000E+00 -0.00000000000E+00 -0.45593999997E+02  0.45594000000E+02  0.51100000000E-03 0.  1.
    9900012    2    1    2    0    0 -0.24178239092E+02  0.47669159816E+01  0.32339666853E+02  0.50528870819E+02  0.30000033342E+02 0.  0.
        -12    1    1    2    0    0  0.24178239092E+02 -0.47669159816E+01 -0.32339666853E+02  0.40659129181E+02  0.00000000000E+00 0.  1.
         11    1    3    3    0    0  0.35317945865E+00 -0.10580987287E+01  0.10614620553E+01  0.15398086263E+01  0.51100000000E-03 0.  1.
        -11    1    3    3    0    0 -0.27386799548E+02 -0.26992682615E+01  0.28409157729E+02  0.39552535719E+02  0.51100000000E-03 0. -1.
         12    1    3    3    0    0  0.28553809969E+01  0.85242829719E+01  0.28690470684E+01  0.94365264744E+01  0.00000000000E+00 0. -1.
</event>
<event>
 7    1  0.4374874E-012  0.5052886E+02  0.7816164E-02  0.1300439E+00
        -11   -1    0    0    0    0  0.00000000000E+00  0.00000000000E+00  0.45593999997E+02  0.45594000000E+02  0.51100000000E-03 0.  1.
         11   -1    0    0    0    0 -0.00000000000E+00 -0.00000000000E+00 -0.45593999997E+02  0.45594000000E+02  0.51100000000E-03 0. -1.
    9900012    2    1    2    0    0 -0.38145495013E+02  0.13862957718E+02  0.24300576022E+01  0.50528861219E+02  0.30000004160E+02 0.  0.
         12    1    1    2    0    0  0.38145495013E+02 -0.13862957718E+02 -0.24300576022E+01  0.40659138781E+02  0.00000000000E+00 0. -1.
         11    1    3    3    0    0  0.27775897771E+01 -0.72925970135E+00  0.83754184247E+00  0.29913711373E+01  0.51100000000E-03 0. -1.
        -11    1    3    3    0    0 -0.20903822280E+02 -0.13896267096E+01  0.54129621432E+01  0.21637952947E+02  0.51100000000E-03 0.  1.
         12    1    3    3    0    0 -0.20019262510E+02  0.15981844129E+02 -0.38204463834E+01  0.25899537134E+02  0.00000000000E+00 0. -1.
</event>
<event>
 7    1  0.4374874E-012  0.5052886E+02  0.7816164E-02  0.1300439E+00
        -11   -1    0    0    0    0  0.00000000000E+00  0.00000000000E+00  0.45593999997E+02  0.45594000000E+02  0.51100000000E-03 0. -1.
         11   -1    0    0    0    0 -0.00000000000E+00 -0.00000000000E+00 -0.45593999997E+02  0.45594000000E+02  0.51100000000E-03 0.  1.
    9900012    2    1    2    0    0  0.39990301682E+01 -0.95647873149E+01 -0.39315243838E+02  0.50528858387E+02  0.29999995553E+02 0.  0.
         12    1    1    2    0    0 -0.39990301682E+01  0.95647873149E+01  0.39315243838E+02  0.40659141613E+02  0.00000000000E+00 0. -1.
         11    1    3    3    0    0  0.63261185436E+01 -0.11808396292E+02 -0.20420572683E+02  0.24422485291E+02  0.51100000000E-03 0.  1.
        -11    1    3    3    0    0  0.42461530094E+01 -0.70084243336E+00  0.14365604343E+01  0.45370366582E+01  0.51100000000E-03 0. -1.
        -12    1    3    3    0    0 -0.65732413848E+01  0.29444514109E+01 -0.20331231589E+02  0.21569336437E+02  0.00000000000E+00 0.  1.
</event>
<event>
 7    1  0.4374874E-012  0.5052890E+02  0.7816164E-02  0.1300439E+00
        -11   -1    0    0    0    0  0.00000000000E+00  0.00000000000E+00  0.45593999997E+02  0.45594000000E+02  0.51100000000E-03 0.  1.
         11   -1    0    0    0    0 -0.00000000000E+00 -0.00000000000E+00 -0.45593999997E+02  0.45594000000E+02  0.51100000000E-03 0. -1.
    9900012    2    1    2    0    0 -0.12875512839E+02 -0.38564779844E+02  0.37584680999E+00  0.50528900944E+02  0.30000124908E+02 0.  0.
         12    1    1    2    0    0  0.12875512839E+02  0.38564779844E+02 -0.37584680999E+00  0.40659099056E+02  0.00000000000E+00 0. -1.
         11    1    3    3    0    0 -0.79647093463E+01 -0.17780958276E+01  0.19275213281E+01  0.83853180306E+01  0.51100000000E-03 0. -1.
        -11    1    3    3    0    0 -0.82593909833E+01 -0.56910606677E+01 -0.39417879271E+01  0.10776984887E+02  0.51100000000E-03 0.  1.
         12    1    3    3    0    0  0.33485874905E+01 -0.31095623348E+02  0.23901134090E+01  0.31366598026E+02  0.00000000000E+00 0. -1.
</event>
<event>
 7    1  0.4374874E-012  0.5052887E+02  0.7816164E-02  0.1300439E+00
        -11   -1    0    0    0    0  0.00000000000E+00  0.00000000000E+00  0.45593999997E+02  0.45594000000E+02  0.51100000000E-03 0. -1.
         11   -1    0    0    0    0 -0.00000000000E+00 -0.00000000000E+00 -0.45593999997E+02  0.45594000000E+02  0.51100000000E-03 0.  1.
    9900012    2    1    2    0    0  0.82788473194E+01 -0.18939085990E+02  0.35013378745E+02  0.50528868403E+02  0.30000025997E+02 0.  0.
        -12    1    1    2    0    0 -0.82788473194E+01  0.18939085990E+02 -0.35013378745E+02  0.40659131597E+02  0.00000000000E+00 0.  1.
         11    1    3    3    0    0  0.54929476355E+01 -0.19456893549E+01  0.68987075032E+01  0.90305230340E+01  0.51100000000E-03 0. -1.
        -11    1    3    3    0    0 -0.83723484595E+01 -0.31284028829E+01  0.20064315316E+02  0.21964969217E+02  0.51100000000E-03 0.  1.
         12    1    3    3    0    0  0.11158248143E+02 -0.13864993752E+02  0.80503559262E+01  0.19533376152E+02  0.00000000000E+00 0. -1.
</event>
<event>
 7    1  0.4374874E-012  0.5052885E+02  0.7816164E-02  0.1300439E+00
        -11   -1    0    0    0    0  0.00000000000E+00  0.00000000000E+00  0.45593999997E+02  0.45594000000E+02  0.51100000000E-03 0. -1.
         11   -1    0    0    0    0 -0.00000000000E+00 -0.00000000000E+00 -0.45593999997E+02  0.45594000000E+02  0.51100000000E-03 0.  1.
    9900012    2    1    2    0    0 -0.37574175132E+02  0.41888474386E+01  0.14959980916E+02  0.50528854550E+02  0.29999983891E+02 0.  0.
        -12    1    1    2    0    0  0.37574175132E+02 -0.41888474386E+01 -0.14959980916E+02  0.40659145450E+02  0.00000000000E+00 0.  1.
         11    1    3    3    0    0 -0.76604527832E+00 -0.60736897328E+01 -0.24097543532E+01  0.65790157807E+01  0.51100000000E-03 0. -1.
        -11    1    3    3    0    0 -0.51761839605E+01  0.44411666136E+01 -0.10267642750E+01  0.68971795990E+01  0.51100000000E-03 0.  1.
         12    1    3    3    0    0 -0.31631945893E+02  0.58213705578E+01  0.18396499544E+02  0.37052659171E+02  0.00000000000E+00 0. -1.
</event>
<event>
 7    1  0.4374874E-012  0.5052886E+02  0.7816164E-02  0.1300439E+00
        -11   -1    0    0    0    0  0.00000000000E+00  0.00000000000E+00  0.45593999997E+02  0.45594000000E+02  0.51100000000E-03 0. -1.
         11   -1    0    0    0    0 -0.00000000000E+00 -0.00000000000E+00 -0.45593999997E+02  0.45594000000E+02  0.51100000000E-03 0.  1.
    9900012    2    1    2    0    0 -0.16176414311E+02  0.61426547219E+00  0.37297612914E+02  0.50528860423E+02  0.30000001743E+02 0.  0.
        -12    1    1    2    0    0  0.16176414311E+02 -0.61426547219E+00 -0.37297612914E+02  0.40659139577E+02  0.00000000000E+00 0.  1.
         11    1    3    3    0    0  0.36305203241E+01  0.18532311819E+01 -0.30161569748E+01  0.50707343447E+01  0.51100000000E-03 0. -1.
        -11    1    3    3    0    0 -0.46937287218E+01 -0.23268609517E+01  0.61105312641E+01  0.80488486005E+01  0.51100000000E-03 0.  1.
         12    1    3    3    0    0 -0.15113205913E+02  0.10878952420E+01  0.34203238625E+02  0.37409277478E+02  0.00000000000E+00 0. -1.
</event>
<event>
 7    1  0.4374874E-012  0.5052886E+02  0.7816164E-02  0.1300439E+00
        -11   -1    0    0    0    0  0.00000000000E+00  0.00000000000E+00  0.45593999997E+02  0.45594000000E+02  0.51100000000E-03 0. -1.
         11   -1    0    0    0    0 -0.00000000000E+00 -0.00000000000E+00 -0.45593999997E+02  0.45594000000E+02  0.51100000000E-03 0.  1.
    9900012    2    1    2    0    0  0.14845629054E+02 -0.15544081820E+02  0.34513110175E+02  0.50528856433E+02  0.29999989615E+02 0.  0.
        -12    1    1    2    0    0 -0.14845629054E+02  0.15544081820E+02 -0.34513110175E+02  0.40659143567E+02  0.00000000000E+00 0.  1.
         11    1    3    3    0    0 -0.39317050549E+01 -0.51547818859E-01  0.50628638864E+01  0.64104253220E+01  0.51100000000E-03 0. -1.
        -11    1    3    3    0    0  0.78889650144E+01  0.48856267464E+01  0.52572473774E+01  0.10665072337E+02  0.51100000000E-03 0.  1.
         12    1    3    3    0    0  0.10888369095E+02 -0.20378160747E+02  0.24192998911E+02  0.33453358774E+02  0.00000000000E+00 0. -1.
</event>
<event>
 7    1  0.4374874E-012  0.5052886E+02  0.7816164E-02  0.1300439E+00
        -11   -1    0    0    0    0  0.00000000000E+00  0.00000000000E+00  0.45593999997E+02  0.45594000000E+02  0.51100000000E-03 0. -1.
         11   -1    0    0    0    0 -0.00000000000E+00 -0.00000000000E+00 -0.45593999997E+02  0.45594000000E+02  0.51100000000E-03 0.  1.
    9900012    2    1    2    0    0 -0.35446832430E+02  0.18882266456E+02  0.63362133541E+01  0.50528861845E+02  0.30000006065E+02 0.  0.
        -12    1    1    2    0    0  0.35446832430E+02 -0.18882266456E+02 -0.63362133541E+01  0.40659138155E+02  0.00000000000E+00 0.  1.
         11    1    3    3    0    0 -0.14591269924E+00 -0.31276284811E+01  0.39113586767E+01  0.50101973405E+01  0.51100000000E-03 0. -1.
        -11    1    3    3    0    0 -0.69232358925E+01  0.84703541061E+01  0.80433383151E+01  0.13578416160E+02  0.51100000000E-03 0.  1.
        -12    1    3    3    0    0 -0.28377683838E+02  0.13539540831E+02 -0.56184836378E+01  0.31940248345E+02  0.00000000000E+00 0.  1.
</event>
<event>
 7    1  0.4374874E-012  0.5052886E+02  0.7816164E-02  0.1300439E+00
        -11   -1    0    0    0    0  0.00000000000E+00  0.00000000000E+00  0.45593999997E+02  0.45594000000E+02  0.51100000000E-03 0. -1.
         11   -1    0    0    0    0 -0.00000000000E+00 -0.00000000000E+00 -0.45593999997E+02  0.45594000000E+02  0.51100000000E-03 0.  1.
    9900012    2    1    2    0    0  0.41152349688E+01  0.15216353164E+02 -0.37479238639E+02  0.50528857222E+02  0.29999992012E+02 0.  0.
         12    1    1    2    0    0 -0.41152349688E+01 -0.15216353164E+02  0.37479238639E+02  0.40659142778E+02  0.00000000000E+00 0. -1.
         11    1    3    3    0    0  0.73967283011E+01  0.15612783508E+01 -0.27514323817E+01  0.80448468016E+01  0.51100000000E-03 0. -1.
        -11    1    3    3    0    0 -0.14636530285E+00  0.10641908771E+02 -0.38751728574E+01  0.11326456199E+02  0.51100000000E-03 0.  1.
        -12    1    3    3    0    0 -0.31351280295E+01  0.30131660431E+01 -0.30852633400E+02  0.31157554222E+02  0.00000000000E+00 0.  1.
</event>
<event>
 7    1  0.4374874E-012  0.5052885E+02  0.7816164E-02  0.1300439E+00
        -11   -1    0    0    0    0  0.00000000000E+00  0.00000000000E+00  0.45593999997E+02  0.45594000000E+02  0.51100000000E-03 0. -1.
         11   -1    0    0    0    0 -0.00000000000E+00 -0.00000000000E+00 -0.45593999997E+02  0.45594000000E+02  0.51100000000E-03 0.  1.
    9900012    2    1    2    0    0  0.65499222442E+01 -0.19274437413E+02 -0.35196032591E+02  0.50528854299E+02  0.29999983126E+02 0.  0.
         12    1    1    2    0    0 -0.65499222442E+01  0.19274437413E+02  0.35196032591E+02  0.40659145701E+02  0.00000000000E+00 0. -1.
         11    1    3    3    0    0 -0.71269712369E+01 -0.84328847342E+01 -0.14732022488E+02  0.18410316423E+02  0.51100000000E-03 0. -1.
        -11    1    3    3    0    0  0.43694750683E+01  0.48392206869E+01 -0.54612953781E+01  0.85050641794E+01  0.51100000000E-03 0.  1.
        -12    1    3    3    0    0  0.93074184128E+01 -0.15680773366E+02 -0.15002714726E+02  0.23613473696E+02  0.00000000000E+00 0.  1.
</event>
<event>
 7    1  0.4374874E-012  0.5052885E+02  0.7816164E-02  0.1300439E+00
        -11   -1    0    0    0    0  0.00000000000E+00  0.00000000000E+00  0.45593999997E+02  0.45594000000E+02  0.51100000000E-03 0. -1.
         11   -1    0    0    0    0 -0.00000000000E+00 -0.00000000000E+00 -0.45593999997E+02  0.45594000000E+02  0.51100000000E-03 0.  1.
    9900012    2    1    2    0    0 -0.43808087878E+01  0.25077193556E+02  0.31703465526E+02  0.50528845451E+02  0.29999956232E+02 0.  0.
        -12    1    1    2    0    0  0.43808087878E+01 -0.25077193556E+02 -0.31703465526E+02  0.40659154549E+02  0.00000000000E+00 0.  1.
         11    1    3    3    0    0  0.35914602255E+00  0.19065168140E+02  0.23510965060E+02  0.30271688099E+02  0.51100000000E-03 0. -1.
        -11    1    3    3    0    0 -0.44467030545E+01  0.11650715281E+02  0.36020095578E+01  0.12980246829E+02  0.51100000000E-03 0.  1.
        -12    1    3    3    0    0 -0.29325175581E+00 -0.56386898643E+01  0.45904909086E+01  0.72769105230E+01  0.00000000000E+00 0.  1.
</event>
<event>
 7    1  0.4374874E-012  0.5052886E+02  0.7816164E-02  0.1300439E+00
        -11   -1    0    0    0    0  0.00000000000E+00  0.00000000000E+00  0.45593999997E+02  0.45594000000E+02  0.51100000000E-03 0. -1.
         11   -1    0    0    0    0 -0.00000000000E+00 -0.00000000000E+00 -0.45593999997E+02  0.45594000000E+02  0.51100000000E-03 0.  1.
    9900012    2    1    2    0    0  0.28284870962E+02  0.33611363042E+01  0.29014385971E+02  0.50528858890E+02  0.29999997081E+02 0.  0.
        -12    1    1    2    0    0 -0.28284870962E+02 -0.33611363042E+01 -0.29014385971E+02  0.40659141110E+02  0.00000000000E+00 0.  1.
         11    1    3    3    0    0  0.18321200548E+02 -0.54709069439E+01  0.15743445209E+02  0.24767989011E+02  0.51100000000E-03 0. -1.
        -11    1    3    3    0    0 -0.17760378089E+01  0.31094137073E+01  0.12133893914E+02  0.12651250756E+02  0.51100000000E-03 0.  1.
         12    1    3    3    0    0  0.11739708223E+02  0.57226295408E+01  0.11370468468E+01  0.13109619123E+02  0.00000000000E+00 0. -1.
</event>
<event>
 7    1  0.4374874E-012  0.5052883E+02  0.7816164E-02  0.1300439E+00
        -11   -1    0    0    0    0  0.00000000000E+00  0.00000000000E+00  0.45593999997E+02  0.45594000000E+02  0.51100000000E-03 0. -1.
         11   -1    0    0    0    0 -0.00000000000E+00 -0.00000000000E+00 -0.45593999997E+02  0.45594000000E+02  0.51100000000E-03 0.  1.
    9900012    2    1    2    0    0 -0.23072201038E+02 -0.15023119113E+02 -0.29919012831E+02  0.50528832554E+02  0.29999917031E+02 0.  0.
         12    1    1    2    0    0  0.23072201038E+02  0.15023119113E+02  0.29919012831E+02  0.40659167446E+02  0.00000000000E+00 0. -1.
         11    1    3    3    0    0 -0.49703236698E+00  0.44033923993E+01  0.11071440519E+01  0.45675676250E+01  0.51100000000E-03 0. -1.
        -11    1    3    3    0    0  0.17201824961E+01  0.10410597360E+01 -0.98587952621E+00  0.22393731032E+01  0.51100000000E-03 0.  1.
        -12    1    3    3    0    0 -0.24295351168E+02 -0.20467571248E+02 -0.30040277357E+02  0.43721891826E+02  0.00000000000E+00 0.  1.
</event>
<event>
 7    1  0.4374874E-012  0.5052886E+02  0.7816164E-02  0.1300439E+00
        -11   -1    0    0    0    0  0.00000000000E+00  0.00000000000E+00  0.45593999997E+02  0.45594000000E+02  0.51100000000E-03 0. -1.
         11   -1    0    0    0    0 -0.00000000000E+00 -0.00000000000E+00 -0.45593999997E+02  0.45594000000E+02  0.51100000000E-03 0.  1.
    9900012    2    1    2    0    0  0.14459834352E+02 -0.76982743189E+01  0.37213108481E+02  0.50528859824E+02  0.29999999922E+02 0.  0.
        -12    1    1    2    0    0 -0.14459834352E+02  0.76982743189E+01 -0.37213108481E+02  0.40659140176E+02  0.00000000000E+00 0.  1.
         11    1    3    3    0    0  0.12256737673E+02  0.46547983143E+01  0.13868628250E+02  0.19084905437E+02  0.51100000000E-03 0.  1.
        -11    1    3    3    0    0  0.90441554077E+01 -0.79824000079E+01  0.93380858198E+01  0.15255009143E+02  0.51100000000E-03 0. -1.
        -12    1    3    3    0    0 -0.68410587282E+01 -0.43706726254E+01  0.14006394411E+02  0.16188945245E+02  0.00000000000E+00 0.  1.
</event>
<event>
 7    1  0.4374874E-012  0.5052887E+02  0.7816164E-02  0.1300439E+00
        -11   -1    0    0    0    0  0.00000000000E+00  0.00000000000E+00  0.45593999997E+02  0.45594000000E+02  0.51100000000E-03 0. -1.
         11   -1    0    0    0    0 -0.00000000000E+00 -0.00000000000E+00 -0.45593999997E+02  0.45594000000E+02  0.51100000000E-03 0.  1.
    9900012    2    1    2    0    0 -0.44282735095E+01  0.71622167283E+01  0.39777605418E+02  0.50528870059E+02  0.30000031032E+02 0.  0.
        -12    1    1    2    0    0  0.44282735095E+01 -0.71622167283E+01 -0.39777605418E+02  0.40659129941E+02  0.00000000000E+00 0.  1.
         11    1    3    3    0    0 -0.11502127412E+02  0.11686366060E+02  0.16478195575E+02  0.23246526974E+02  0.51100000000E-03 0. -1.
        -11    1    3    3    0    0  0.67075501031E+00  0.36209143586E+01  0.44774745834E+01  0.57973021296E+01  0.51100000000E-03 0.  1.
        -12    1    3    3    0    0  0.64030988918E+01 -0.81450636905E+01  0.18821935260E+02  0.21485040955E+02  0.00000000000E+00 0.  1.
</event>
<event>
 7    1  0.4374874E-012  0.5052885E+02  0.7816164E-02  0.1300439E+00
        -11   -1    0    0    0    0  0.00000000000E+00  0.00000000000E+00  0.45593999997E+02  0.45594000000E+02  0.51100000000E-03 0. -1.
         11   -1    0    0    0    0 -0.00000000000E+00 -0.00000000000E+00 -0.45593999997E+02  0.45594000000E+02  0.51100000000E-03 0.  1.
    9900012    2    1    2    0    0  0.27858625437E+01 -0.28692923725E+02 -0.28672659847E+02  0.50528851894E+02  0.29999975817E+02 0.  0.
         12    1    1    2    0    0 -0.27858625437E+01  0.28692923725E+02  0.28672659847E+02  0.40659148106E+02  0.00000000000E+00 0. -1.
         11    1    3    3    0    0 -0.53927283292E+01 -0.22690739342E+02 -0.25792793935E+02  0.34773831971E+02  0.51100000000E-03 0. -1.
        -11    1    3    3    0    0  0.48369867543E+01  0.80961925504E+00 -0.58263730513E+01  0.76156777370E+01  0.51100000000E-03 0.  1.
        -12    1    3    3    0    0  0.33416041187E+01 -0.68118036386E+01  0.29465071395E+01  0.81393421860E+01  0.00000000000E+00 0.  1.
</event>
<event>
 7    1  0.4374874E-012  0.5052886E+02  0.7816164E-02  0.1300439E+00
        -11   -1    0    0    0    0  0.00000000000E+00  0.00000000000E+00  0.45593999997E+02  0.45594000000E+02  0.51100000000E-03 0. -1.
         11   -1    0    0    0    0 -0.00000000000E+00 -0.00000000000E+00 -0.45593999997E+02  0.45594000000E+02  0.51100000000E-03 0.  1.
    9900012    2    1    2    0    0 -0.19964713392E+02 -0.82093969673E+01  0.34455504674E+02  0.50528858571E+02  0.29999996112E+02 0.  0.
        -12    1    1    2    0    0  0.19964713392E+02  0.82093969673E+01 -0.34455504674E+02  0.40659141429E+02  0.00000000000E+00 0.  1.
         11    1    3    3    0    0  0.12495182570E+01  0.41849506534E+01  0.17277259293E+02  0.17820740635E+02  0.51100000000E-03 0.  1.
        -11    1    3    3    0    0 -0.13750444114E+01  0.15819485991E+01  0.52791082155E+01  0.56799905207E+01  0.51100000000E-03 0. -1.
         12    1    3    3    0    0 -0.19839187238E+02 -0.13976296220E+02  0.11899137165E+02  0.27028127415E+02  0.00000000000E+00 0. -1.
</event>
<event>
 7    1  0.4374874E-012  0.5052886E+02  0.7816164E-02  0.1300439E+00
        -11   -1    0    0    0    0  0.00000000000E+00  0.00000000000E+00  0.45593999997E+02  0.45594000000E+02  0.51100000000E-03 0. -1.
         11   -1    0    0    0    0 -0.00000000000E+00 -0.00000000000E+00 -0.45593999997E+02  0.45594000000E+02  0.51100000000E-03 0.  1.
    9900012    2    1    2    0    0  0.30863931519E+02 -0.20754547466E+02  0.16426574624E+02  0.50528857570E+02  0.29999993068E+02 0.  0.
        -12    1    1    2    0    0 -0.30863931519E+02  0.20754547466E+02 -0.16426574624E+02  0.40659142430E+02  0.00000000000E+00 0.  1.
         11    1    3    3    0    0  0.19451271258E+02 -0.45917308046E+01  0.96619249516E+01  0.22198845452E+02  0.51100000000E-03 0. -1.
        -11    1    3    3    0    0  0.14661311737E+02 -0.48038044596E+01  0.18675616816E+01  0.15540861817E+02  0.51100000000E-03 0.  1.
         12    1    3    3    0    0 -0.32486514767E+01 -0.11359012202E+02  0.48970879908E+01  0.12789150301E+02  0.00000000000E+00 0. -1.
</event>
<event>
 7    1  0.4374874E-012  0.5052900E+02  0.7816164E-02  0.1300438E+00
        -11   -1    0    0    0    0  0.00000000000E+00  0.00000000000E+00  0.45593999997E+02  0.45594000000E+02  0.51100000000E-03 0. -1.
         11   -1    0    0    0    0 -0.00000000000E+00 -0.00000000000E+00 -0.45593999997E+02  0.45594000000E+02  0.51100000000E-03 0.  1.
    9900012    2    1    2    0    0  0.20522061752E+02  0.13120362805E+02  0.32555417006E+02  0.50529002040E+02  0.30000432199E+02 0.  0.
        -12    1    1    2    0    0 -0.20522061752E+02 -0.13120362805E+02 -0.32555417006E+02  0.40658997960E+02  0.00000000000E+00 0.  1.
         11    1    3    3    0    0  0.79439470390E+01  0.13300673415E+02  0.13194632339E+02  0.20349755052E+02  0.51100000000E-03 0. -1.
        -11    1    3    3    0    0 -0.36704384406E+01  0.48152967267E+01  0.39091225402E+01  0.72069716392E+01  0.51100000000E-03 0.  1.
        -12    1    3    3    0    0  0.16248553153E+02 -0.49956073369E+01  0.15451662127E+02  0.22972275349E+02  0.00000000000E+00 0.  1.
</event>
<event>
 7    1  0.4374874E-012  0.5052886E+02  0.7816164E-02  0.1300439E+00
        -11   -1    0    0    0    0  0.00000000000E+00  0.00000000000E+00  0.45593999997E+02  0.45594000000E+02  0.51100000000E-03 0.  1.
         11   -1    0    0    0    0 -0.00000000000E+00 -0.00000000000E+00 -0.45593999997E+02  0.45594000000E+02  0.51100000000E-03 0. -1.
    9900012    2    1    2    0    0 -0.37600507699E+02 -0.12940265469E+02  0.84803717293E+01  0.50528863827E+02  0.30000012090E+02 0.  0.
         12    1    1    2    0    0  0.37600507699E+02  0.12940265469E+02 -0.84803717293E+01  0.40659136173E+02  0.00000000000E+00 0. -1.
         11    1    3    3    0    0 -0.10233180223E+01  0.51882314699E+01  0.77005560962E+01  0.93414929220E+01  0.51100000000E-03 0. -1.
        -11    1    3    3    0    0 -0.60030355595E+01 -0.35351560482E+01  0.21213643831E+01  0.72824413022E+01  0.51100000000E-03 0.  1.
         12    1    3    3    0    0 -0.30574154117E+02 -0.14593340891E+02 -0.13415487500E+01  0.33904929603E+02  0.00000000000E+00 0. -1.
</event>
<event>
 7    1  0.4374874E-012  0.5052883E+02  0.7816164E-02  0.1300439E+00
        -11   -1    0    0    0    0  0.00000000000E+00  0.00000000000E+00  0.45593999997E+02  0.45594000000E+02  0.51100000000E-03 0.  1.
         11   -1    0    0    0    0 -0.00000000000E+00 -0.00000000000E+00 -0.45593999997E+02  0.45594000000E+02  0.51100000000E-03 0. -1.
    9900012    2    1    2    0    0 -0.30085566847E+02  0.25475377144E+02 -0.99514641120E+01  0.50528833615E+02  0.29999920257E+02 0.  0.
         12    1    1    2    0    0  0.30085566847E+02 -0.25475377144E+02  0.99514641120E+01  0.40659166385E+02  0.00000000000E+00 0. -1.
         11    1    3    3    0    0 -0.99836111057E+00  0.26011089035E+01  0.61105231457E+01  0.67157267522E+01  0.51100000000E-03 0. -1.
        -11    1    3    3    0    0 -0.16307924905E+02  0.40802326507E+01 -0.16268277747E+01  0.16889146872E+02  0.51100000000E-03 0.  1.
        -12    1    3    3    0    0 -0.12779280832E+02  0.18794035589E+02 -0.14435159483E+02  0.26923959991E+02  0.00000000000E+00 0.  1.
</event>
<event>
 7    1  0.4374874E-012  0.5052886E+02  0.7816164E-02  0.1300439E+00
        -11   -1    0    0    0    0  0.00000000000E+00  0.00000000000E+00  0.45593999997E+02  0.45594000000E+02  0.51100000000E-03 0. -1.
         11   -1    0    0    0    0 -0.00000000000E+00 -0.00000000000E+00 -0.45593999997E+02  0.45594000000E+02  0.51100000000E-03 0.  1.
    9900012    2    1    2    0    0  0.12879433941E+02  0.78274599015E+01  0.37762638325E+02  0.50528858342E+02  0.29999995416E+02 0.  0.
        -12    1    1    2    0    0 -0.12879433941E+02 -0.78274599015E+01 -0.37762638325E+02  0.40659141658E+02  0.00000000000E+00 0.  1.
         11    1    3    3    0    0  0.42299989734E+01  0.15489369628E+01  0.88656078804E+01  0.99444004535E+01  0.51100000000E-03 0. -1.
        -11    1    3    3    0    0  0.17818053080E+01 -0.10180166552E+02  0.77295777725E+01  0.12905696184E+02  0.51100000000E-03 0.  1.
        -12    1    3    3    0    0  0.68676296594E+01  0.16458689491E+02  0.21167452672E+02  0.27678761705E+02  0.00000000000E+00 0.  1.
</event>
<event>
 7    1  0.4374874E-012  0.5052885E+02  0.7816164E-02  0.1300439E+00
        -11   -1    0    0    0    0  0.00000000000E+00  0.00000000000E+00  0.45593999997E+02  0.45594000000E+02  0.51100000000E-03 0. -1.
         11   -1    0    0    0    0 -0.00000000000E+00 -0.00000000000E+00 -0.45593999997E+02  0.45594000000E+02  0.51100000000E-03 0.  1.
    9900012    2    1    2    0    0 -0.28337352254E+02  0.28425920585E+01  0.29018623106E+02  0.50528851590E+02  0.29999974894E+02 0.  0.
        -12    1    1    2    0    0  0.28337352254E+02 -0.28425920585E+01 -0.29018623106E+02  0.40659148410E+02  0.00000000000E+00 0.  1.
         11    1    3    3    0    0 -0.18455296975E+02 -0.54721712597E+01  0.19809125943E+02  0.27621443040E+02  0.51100000000E-03 0. -1.
        -11    1    3    3    0    0 -0.65917280028E+01  0.68768391617E+01  0.13992051723E+02  0.16926881184E+02  0.51100000000E-03 0.  1.
        -12    1    3    3    0    0 -0.32903272762E+01  0.14379241564E+01 -0.47825545597E+01  0.59805273665E+01  0.00000000000E+00 0.  1.
</event>
<event>
 7    1  0.4374874E-012  0.5052877E+02  0.7816164E-02  0.1300439E+00
        -11   -1    0    0    0    0  0.00000000000E+00  0.00000000000E+00  0.45593999997E+02  0.45594000000E+02  0.51100000000E-03 0. -1.
         11   -1    0    0    0    0 -0.00000000000E+00 -0.00000000000E+00 -0.45593999997E+02  0.45594000000E+02  0.51100000000E-03 0.  1.
    9900012    2    1    2    0    0 -0.38435166705E+01 -0.95319663796E+01 -0.39338811628E+02  0.50528768529E+02  0.29999722420E+02 0.  0.
         12    1    1    2    0    0  0.38435166705E+01  0.95319663796E+01  0.39338811628E+02  0.40659231471E+02  0.00000000000E+00 0. -1.
         11    1    3    3    0    0 -0.23634414862E+01 -0.12647266109E+02 -0.13857642324E+02  0.18909612548E+02  0.51100000000E-03 0. -1.
        -11    1    3    3    0    0  0.72203188344E+01 -0.40003084775E+00 -0.42039101040E+01  0.83645615052E+01  0.51100000000E-03 0.  1.
        -12    1    3    3    0    0 -0.87003940188E+01  0.35153305773E+01 -0.21277259200E+02  0.23254594476E+02  0.00000000000E+00 0.  1.
</event>
<event>
 7    1  0.4374874E-012  0.5052885E+02  0.7816164E-02  0.1300439E+00
        -11   -1    0    0    0    0  0.00000000000E+00  0.00000000000E+00  0.45593999997E+02  0.45594000000E+02  0.51100000000E-03 0. -1.
         11   -1    0    0    0    0 -0.00000000000E+00 -0.00000000000E+00 -0.45593999997E+02  0.45594000000E+02  0.51100000000E-03 0.  1.
    9900012    2    1    2    0    0 -0.94204724161E+01  0.14142450190E+01 -0.39527467900E+02  0.50528854557E+02  0.29999983912E+02 0.  0.
         12    1    1    2    0    0  0.94204724161E+01 -0.14142450190E+01  0.39527467900E+02  0.40659145443E+02  0.00000000000E+00 0. -1.
         11    1    3    3    0    0  0.22740327190E+00  0.38293681391E+01 -0.30048664292E+02  0.30292540312E+02  0.51100000000E-03 0. -1.
        -11    1    3    3    0    0  0.39425512616E+01  0.35559910905E+00 -0.27520545383E+01  0.48211996037E+01  0.51100000000E-03 0.  1.
         12    1    3    3    0    0 -0.13590426950E+02 -0.27707222292E+01 -0.67267490705E+01  0.15415114641E+02  0.00000000000E+00 0. -1.
</event>
<event>
 7    1  0.4374874E-012  0.5052886E+02  0.7816164E-02  0.1300439E+00
        -11   -1    0    0    0    0  0.00000000000E+00  0.00000000000E+00  0.45593999997E+02  0.45594000000E+02  0.51100000000E-03 0. -1.
         11   -1    0    0    0    0 -0.00000000000E+00 -0.00000000000E+00 -0.45593999997E+02  0.45594000000E+02  0.51100000000E-03 0.  1.
    9900012    2    1    2    0    0  0.33551649442E+01 -0.22847381130E+02  0.33464991582E+02  0.50528860586E+02  0.30000002238E+02 0.  0.
        -12    1    1    2    0    0 -0.33551649442E+01  0.22847381130E+02 -0.33464991582E+02  0.40659139414E+02  0.00000000000E+00 0.  1.
         11    1    3    3    0    0  0.14703311649E+01  0.16540307064E+01 -0.12090203816E+01  0.25217894156E+01  0.51100000000E-03 0.  1.
        -11    1    3    3    0    0  0.42040037477E+01  0.26405035000E+01  0.17253396015E+01  0.52557305149E+01  0.51100000000E-03 0. -1.
         12    1    3    3    0    0 -0.23191699684E+01 -0.27141915336E+02  0.32948672362E+02  0.42751340656E+02  0.00000000000E+00 0. -1.
</event>
<event>
 7    1  0.4374874E-012  0.5052887E+02  0.7816164E-02  0.1300439E+00
        -11   -1    0    0    0    0  0.00000000000E+00  0.00000000000E+00  0.45593999997E+02  0.45594000000E+02  0.51100000000E-03 0. -1.
         11   -1    0    0    0    0 -0.00000000000E+00 -0.00000000000E+00 -0.45593999997E+02  0.45594000000E+02  0.51100000000E-03 0.  1.
    9900012    2    1    2    0    0 -0.24212478450E+02  0.20582047364E+02 -0.25363364925E+02  0.50528867364E+02  0.30000022838E+02 0.  0.
         12    1    1    2    0    0  0.24212478450E+02 -0.20582047364E+02  0.25363364925E+02  0.40659132636E+02  0.00000000000E+00 0. -1.
         11    1    3    3    0    0  0.17161013111E+01  0.10118911011E+01 -0.94631852953E+01  0.96706154667E+01  0.51100000000E-03 0. -1.
        -11    1    3    3    0    0 -0.27927120660E+02  0.13066287332E+02 -0.13130962786E+02  0.33512297996E+02  0.51100000000E-03 0.  1.
         12    1    3    3    0    0  0.19985408984E+01  0.65038689306E+01 -0.27692168444E+01  0.73459539013E+01  0.00000000000E+00 0. -1.
</event>
<event>
 7    1  0.4374874E-012  0.5052887E+02  0.7816164E-02  0.1300439E+00
        -11   -1    0    0    0    0  0.00000000000E+00  0.00000000000E+00  0.45593999997E+02  0.45594000000E+02  0.51100000000E-03 0. -1.
         11   -1    0    0    0    0 -0.00000000000E+00 -0.00000000000E+00 -0.45593999997E+02  0.45594000000E+02  0.51100000000E-03 0.  1.
    9900012    2    1    2    0    0 -0.26797785683E+02 -0.25764984656E+02  0.16468430989E+02  0.50528868540E+02  0.30000026414E+02 0.  0.
        -12    1    1    2    0    0  0.26797785683E+02  0.25764984656E+02 -0.16468430989E+02  0.40659131460E+02  0.00000000000E+00 0.  1.
         11    1    3    3    0    0 -0.28386482264E+01 -0.73910037359E+00  0.40366507279E+01  0.49898639737E+01  0.51100000000E-03 0.  1.
        -11    1    3    3    0    0 -0.25153502207E+02 -0.21510297470E+02  0.56137011203E+00  0.33101460802E+02  0.51100000000E-03 0. -1.
        -12    1    3    3    0    0  0.11943647504E+01 -0.35155868119E+01  0.11870410149E+02  0.12437543764E+02  0.00000000000E+00 0.  1.
</event>
<event>
 7    1  0.4374874E-012  0.5052887E+02  0.7816164E-02  0.1300439E+00
        -11   -1    0    0    0    0  0.00000000000E+00  0.00000000000E+00  0.45593999997E+02  0.45594000000E+02  0.51100000000E-03 0. -1.
         11   -1    0    0    0    0 -0.00000000000E+00 -0.00000000000E+00 -0.45593999997E+02  0.45594000000E+02  0.51100000000E-03 0.  1.
    9900012    2    1    2    0    0  0.15043166422E+00 -0.63257293824E+01  0.40163754880E+02  0.50528872021E+02  0.30000036995E+02 0.  0.
        -12    1    1    2    0    0 -0.15043166422E+00  0.63257293824E+01 -0.40163754880E+02  0.40659127979E+02  0.00000000000E+00 0.  1.
         11    1    3    3    0    0 -0.75255619836E+01 -0.88986136441E+01  0.81728966441E+01  0.14234312339E+02  0.51100000000E-03 0.  1.
        -11    1    3    3    0    0  0.99009702909E+01 -0.21787086476E+01  0.12418016121E+02  0.16030692708E+02  0.51100000000E-03 0. -1.
         12    1    3    3    0    0 -0.22249766430E+01  0.47515929093E+01  0.19572842115E+02  0.20263866973E+02  0.00000000000E+00 0. -1.
</event>
<event>
 7    1  0.4374874E-012  0.5052887E+02  0.7816164E-02  0.1300439E+00
        -11   -1    0    0    0    0  0.00000000000E+00  0.00000000000E+00  0.45593999997E+02  0.45594000000E+02  0.51100000000E-03 0.  1.
         11   -1    0    0    0    0 -0.00000000000E+00 -0.00000000000E+00 -0.45593999997E+02  0.45594000000E+02  0.51100000000E-03 0. -1.
    9900012    2    1    2    0    0  0.25407401373E+02 -0.12537493885E+02 -0.29162304109E+02  0.50528870910E+02  0.30000033617E+02 0.  0.
         12    1    1    2    0    0 -0.25407401373E+02  0.12537493885E+02  0.29162304109E+02  0.40659129090E+02  0.00000000000E+00 0. -1.
         11    1    3    3    0    0  0.19857285681E+00 -0.59711269898E+01  0.20874548113E+01  0.63286062097E+01  0.51100000000E-03 0. -1.
        -11    1    3    3    0    0  0.23554224365E+01 -0.44601264081E+01 -0.15669130093E+02  0.16460934984E+02  0.51100000000E-03 0.  1.
         12    1    3    3    0    0  0.22853406079E+02 -0.21062404871E+01 -0.15580628828E+02  0.27739329716E+02  0.00000000000E+00 0. -1.
</event>
<event>
 7    1  0.4374874E-012  0.5052886E+02  0.7816164E-02  0.1300439E+00
        -11   -1    0    0    0    0  0.00000000000E+00  0.00000000000E+00  0.45593999997E+02  0.45594000000E+02  0.51100000000E-03 0. -1.
         11   -1    0    0    0    0 -0.00000000000E+00 -0.00000000000E+00 -0.45593999997E+02  0.45594000000E+02  0.51100000000E-03 0.  1.
    9900012    2    1    2    0    0 -0.29679756689E+02 -0.49197185892E+01 -0.27350938271E+02  0.50528863112E+02  0.30000009916E+02 0.  0.
         12    1    1    2    0    0  0.29679756689E+02  0.49197185892E+01  0.27350938271E+02  0.40659136888E+02  0.00000000000E+00 0. -1.
         11    1    3    3    0    0 -0.98295411604E+00  0.70424210858E+01 -0.58974513991E+01  0.92380640185E+01  0.51100000000E-03 0. -1.
        -11    1    3    3    0    0 -0.15376830626E+02 -0.14233736513E+02 -0.17247791747E+02  0.27139132182E+02  0.51100000000E-03 0.  1.
         12    1    3    3    0    0 -0.13319971948E+02  0.22715968380E+01 -0.42056951251E+01  0.14151666911E+02  0.00000000000E+00 0. -1.
</event>
<event>
 7    1  0.4374874E-012  0.5052886E+02  0.7816164E-02  0.1300439E+00
        -11   -1    0    0    0    0  0.00000000000E+00  0.00000000000E+00  0.45593999997E+02  0.45594000000E+02  0.51100000000E-03 0. -1.
         11   -1    0    0    0    0 -0.00000000000E+00 -0.00000000000E+00 -0.45593999997E+02  0.45594000000E+02  0.51100000000E-03 0.  1.
    9900012    2    1    2    0    0 -0.44317464495E+01 -0.10871260263E+02 -0.38927381420E+02  0.50528859570E+02  0.29999999148E+02 0.  0.
         12    1    1    2    0    0  0.44317464495E+01  0.10871260263E+02  0.38927381420E+02  0.40659140430E+02  0.00000000000E+00 0. -1.
         11    1    3    3    0    0 -0.48075747583E+01 -0.29616134251E+01 -0.18405331711E+02  0.19252017161E+02  0.51100000000E-03 0.  1.
        -11    1    3    3    0    0  0.23891602628E+01 -0.15532186832E+02 -0.13397849700E+02  0.20650890814E+02  0.51100000000E-03 0. -1.
         12    1    3    3    0    0 -0.20133319540E+01  0.76225399940E+01 -0.71242000093E+01  0.10625951595E+02  0.00000000000E+00 0. -1.
</event>
<event>
 7    1  0.4906217E-012  0.5052886E+02  0.7816164E-02  0.1300439E+00
        -11   -1    0    0    0    0  0.00000000000E+00  0.00000000000E+00  0.45593999997E+02  0.45594000000E+02  0.51100000000E-03 0. -1.
         11   -1    0    0    0    0 -0.00000000000E+00 -0.00000000000E+00 -0.45593999997E+02  0.45594000000E+02  0.51100000000E-03 0.  1.
    9900012    2    1    2    0    0 -0.21042570289E+02 -0.15223605211E+02 -0.31282867593E+02  0.50528859271E+02  0.29999998240E+02 0.  0.
         12    1    1    2    0    0  0.21042570289E+02  0.15223605211E+02  0.31282867593E+02  0.40659140729E+02  0.00000000000E+00 0. -1.
         11    1    3    3    0    0 -0.16417582070E+02 -0.53367328276E+01 -0.13994866882E+02  0.22223276482E+02  0.51100000000E-03 0. -1.
        -11    1    3    3    0    0 -0.15754634735E+01 -0.49645496808E+01 -0.20861085058E+02  0.21501481547E+02  0.51100000000E-03 0.  1.
         12    1    3    3    0    0 -0.30495247446E+01 -0.49223227026E+01  0.35730843460E+01  0.68041012411E+01  0.00000000000E+00 0. -1.
</event>
<event>
 7    1  0.4374874E-012  0.5052886E+02  0.7816164E-02  0.1300439E+00
        -11   -1    0    0    0    0  0.00000000000E+00  0.00000000000E+00  0.45593999997E+02  0.45594000000E+02  0.51100000000E-03 0. -1.
         11   -1    0    0    0    0 -0.00000000000E+00 -0.00000000000E+00 -0.45593999997E+02  0.45594000000E+02  0.51100000000E-03 0.  1.
    9900012    2    1    2    0    0 -0.21317298641E+02  0.20197070339E+02 -0.28121468877E+02  0.50528857320E+02  0.29999992311E+02 0.  0.
         12    1    1    2    0    0  0.21317298641E+02 -0.20197070339E+02  0.28121468877E+02  0.40659142680E+02  0.00000000000E+00 0. -1.
         11    1    3    3    0    0  0.10544033121E+01  0.96487967641E+01 -0.49119498396E+01  0.10878340720E+02  0.51100000000E-03 0. -1.
        -11    1    3    3    0    0  0.39602273603E+00 -0.19079040597E+01 -0.10635433547E+02  0.10812464053E+02  0.51100000000E-03 0.  1.
         12    1    3    3    0    0 -0.22767724689E+02  0.12456177635E+02 -0.12574085490E+02  0.28838052547E+02  0.00000000000E+00 0. -1.
</event>
<event>
 7    1  0.4374874E-012  0.5052886E+02  0.7816164E-02  0.1300439E+00
        -11   -1    0    0    0    0  0.00000000000E+00  0.00000000000E+00  0.45593999997E+02  0.45594000000E+02  0.51100000000E-03 0. -1.
         11   -1    0    0    0    0 -0.00000000000E+00 -0.00000000000E+00 -0.45593999997E+02  0.45594000000E+02  0.51100000000E-03 0.  1.
    9900012    2    1    2    0    0  0.19757959139E+02  0.28370623518E+02 -0.21398518807E+02  0.50528857913E+02  0.29999994112E+02 0.  0.
         12    1    1    2    0    0 -0.19757959139E+02 -0.28370623518E+02  0.21398518807E+02  0.40659142087E+02  0.00000000000E+00 0. -1.
         11    1    3    3    0    0  0.23892853591E+02  0.15959322517E+02 -0.17743813242E+02  0.33769976851E+02  0.51100000000E-03 0. -1.
        -11    1    3    3    0    0  0.12992442695E+01  0.68457047351E+01 -0.53656123889E+01  0.87944019445E+01  0.51100000000E-03 0.  1.
        -12    1    3    3    0    0 -0.54341387223E+01  0.55655962658E+01  0.17109068233E+01  0.79644791170E+01  0.00000000000E+00 0.  1.
</event>
<event>
 7    1  0.4374874E-012  0.5052884E+02  0.7816164E-02  0.1300439E+00
        -11   -1    0    0    0    0  0.00000000000E+00  0.00000000000E+00  0.45593999997E+02  0.45594000000E+02  0.51100000000E-03 0. -1.
         11   -1    0    0    0    0 -0.00000000000E+00 -0.00000000000E+00 -0.45593999997E+02  0.45594000000E+02  0.51100000000E-03 0.  1.
    9900012    2    1    2    0    0 -0.45237413785E+00 -0.89074212675E+01 -0.39668888779E+02  0.50528837036E+02  0.29999930655E+02 0.  0.
         12    1    1    2    0    0  0.45237413785E+00  0.89074212675E+01  0.39668888779E+02  0.40659162964E+02  0.00000000000E+00 0. -1.
         11    1    3    3    0    0  0.14124090319E+01 -0.10205276953E+02 -0.15526690578E+02  0.18633858900E+02  0.51100000000E-03 0. -1.
        -11    1    3    3    0    0  0.20622496047E+01 -0.42675274551E+01 -0.24615026462E+02  0.25067193540E+02  0.51100000000E-03 0.  1.
         12    1    3    3    0    0 -0.39270327744E+01  0.55653831407E+01  0.47282826106E+00  0.68277845952E+01  0.00000000000E+00 0. -1.
</event>
<event>
 7    1  0.4374874E-012  0.5052887E+02  0.7816164E-02  0.1300439E+00
        -11   -1    0    0    0    0  0.00000000000E+00  0.00000000000E+00  0.45593999997E+02  0.45594000000E+02  0.51100000000E-03 0. -1.
         11   -1    0    0    0    0 -0.00000000000E+00 -0.00000000000E+00 -0.45593999997E+02  0.45594000000E+02  0.51100000000E-03 0.  1.
    9900012    2    1    2    0    0 -0.10452008122E+02  0.20886105046E+02  0.33281996125E+02  0.50528866661E+02  0.30000020704E+02 0.  0.
        -12    1    1    2    0    0  0.10452008122E+02 -0.20886105046E+02 -0.33281996125E+02  0.40659133339E+02  0.00000000000E+00 0.  1.
         11    1    3    3    0    0 -0.31700385830E+01  0.88129757765E+00  0.22102243460E+01  0.39637005385E+01  0.51100000000E-03 0. -1.
        -11    1    3    3    0    0 -0.13085922687E+02  0.66382089518E+01  0.30590339512E+01  0.14988825159E+02  0.51100000000E-03 0.  1.
        -12    1    3    3    0    0  0.58039531485E+01  0.13366598517E+02  0.28012737828E+02  0.31576340964E+02  0.00000000000E+00 0.  1.
</event>
<event>
 7    1  0.4374874E-012  0.5052886E+02  0.7816164E-02  0.1300439E+00
        -11   -1    0    0    0    0  0.00000000000E+00  0.00000000000E+00  0.45593999997E+02  0.45594000000E+02  0.51100000000E-03 0.  1.
         11   -1    0    0    0    0 -0.00000000000E+00 -0.00000000000E+00 -0.45593999997E+02  0.45594000000E+02  0.51100000000E-03 0. -1.
    9900012    2    1    2    0    0  0.18070712441E+02 -0.31541365348E+02  0.18214200747E+02  0.50528862221E+02  0.30000007206E+02 0.  0.
        -12    1    1    2    0    0 -0.18070712441E+02  0.31541365348E+02 -0.18214200747E+02  0.40659137779E+02  0.00000000000E+00 0.  1.
         11    1    3    3    0    0 -0.30049915362E+01 -0.24425450232E+01 -0.22989952258E+00  0.38792852918E+01  0.51100000000E-03 0. -1.
        -11    1    3    3    0    0  0.86131153601E+01  0.22599313206E+01  0.57324079497E+01  0.10590257171E+02  0.51100000000E-03 0.  1.
         12    1    3    3    0    0  0.12462588617E+02 -0.31358751645E+02  0.12711692320E+02  0.36059319758E+02  0.00000000000E+00 0. -1.
</event>
<event>
 7    1  0.4374874E-012  0.5052884E+02  0.7816164E-02  0.1300439E+00
        -11   -1    0    0    0    0  0.00000000000E+00  0.00000000000E+00  0.45593999997E+02  0.45594000000E+02  0.51100000000E-03 0.  1.
         11   -1    0    0    0    0 -0.00000000000E+00 -0.00000000000E+00 -0.45593999997E+02  0.45594000000E+02  0.51100000000E-03 0. -1.
    9900012    2    1    2    0    0  0.15688289809E+02 -0.32120239554E+02 -0.19373561206E+02  0.50528842361E+02  0.29999946839E+02 0.  0.
         12    1    1    2    0    0 -0.15688289809E+02  0.32120239554E+02  0.19373561206E+02  0.40659157639E+02  0.00000000000E+00 0. -1.
         11    1    3    3    0    0 -0.64789626683E+01 -0.12690428227E+02 -0.78428644418E+01  0.16264515017E+02  0.51100000000E-03 0. -1.
        -11    1    3    3    0    0  0.27467759466E+01 -0.78835312093E+01  0.10337713705E+01  0.84121059156E+01  0.51100000000E-03 0.  1.
        -12    1    3    3    0    0  0.19420476530E+02 -0.11546280118E+02 -0.12564468135E+02  0.25852221428E+02  0.00000000000E+00 0.  1.
</event>
<event>
 7    1  0.4374874E-012  0.5052886E+02  0.7816164E-02  0.1300439E+00
        -11   -1    0    0    0    0  0.00000000000E+00  0.00000000000E+00  0.45593999997E+02  0.45594000000E+02  0.51100000000E-03 0. -1.
         11   -1    0    0    0    0 -0.00000000000E+00 -0.00000000000E+00 -0.45593999997E+02  0.45594000000E+02  0.51100000000E-03 0.  1.
    9900012    2    1    2    0    0  0.90224335321E+00  0.32907314672E+01  0.40515710145E+02  0.50528859266E+02  0.29999998225E+02 0.  0.
        -12    1    1    2    0    0 -0.90224335321E+00 -0.32907314672E+01 -0.40515710145E+02  0.40659140734E+02  0.00000000000E+00 0.  1.
         11    1    3    3    0    0 -0.19677615914E+01 -0.80449072265E+00  0.22822582740E+02  0.22921378104E+02  0.51100000000E-03 0. -1.
        -11    1    3    3    0    0 -0.35971724048E+01  0.11082461498E+02  0.10333955295E+02  0.15574056456E+02  0.51100000000E-03 0.  1.
         12    1    3    3    0    0  0.64671773494E+01 -0.69872393085E+01  0.73591721092E+01  0.12033424706E+02  0.00000000000E+00 0. -1.
</event>
<event>
 7    1  0.4374874E-012  0.5052886E+02  0.7816164E-02  0.1300439E+00
        -11   -1    0    0    0    0  0.00000000000E+00  0.00000000000E+00  0.45593999997E+02  0.45594000000E+02  0.51100000000E-03 0. -1.
         11   -1    0    0    0    0 -0.00000000000E+00 -0.00000000000E+00 -0.45593999997E+02  0.45594000000E+02  0.51100000000E-03 0.  1.
    9900012    2    1    2    0    0  0.57722258170E+01 -0.20092199048E+02  0.34873349931E+02  0.50528860943E+02  0.30000003322E+02 0.  0.
        -12    1    1    2    0    0 -0.57722258170E+01  0.20092199048E+02 -0.34873349931E+02  0.40659139057E+02  0.00000000000E+00 0.  1.
         11    1    3    3    0    0 -0.64003285839E+01 -0.13015143072E+01  0.15957644237E-01  0.65313398611E+01  0.51100000000E-03 0. -1.
        -11    1    3    3    0    0  0.60888305806E+01 -0.55047989509E+01  0.26420960293E+01  0.86230702780E+01  0.51100000000E-03 0.  1.
         12    1    3    3    0    0  0.60837238203E+01 -0.13285885790E+02  0.32215296257E+02  0.35374450804E+02  0.00000000000E+00 0. -1.
</event>
<event>
 7    1  0.4374874E-012  0.5052886E+02  0.7816164E-02  0.1300439E+00
        -11   -1    0    0    0    0  0.00000000000E+00  0.00000000000E+00  0.45593999997E+02  0.45594000000E+02  0.51100000000E-03 0. -1.
         11   -1    0    0    0    0 -0.00000000000E+00 -0.00000000000E+00 -0.45593999997E+02  0.45594000000E+02  0.51100000000E-03 0.  1.
    9900012    2    1    2    0    0  0.36372307341E+01 -0.16463370256E+01 -0.40462645308E+02  0.50528861564E+02  0.30000005210E+02 0.  0.
         12    1    1    2    0    0 -0.36372307341E+01  0.16463370256E+01  0.40462645308E+02  0.40659138436E+02  0.00000000000E+00 0. -1.
         11    1    3    3    0    0 -0.15532884005E+01 -0.67579431225E+00 -0.22094087532E+02  0.22158928379E+02  0.51100000000E-03 0. -1.
        -11    1    3    3    0    0  0.21299610987E+01 -0.40952839907E+01 -0.22126807002E+02  0.22603178397E+02  0.51100000000E-03 0.  1.
         12    1    3    3    0    0  0.30605580358E+01  0.31247412773E+01  0.37582492257E+01  0.57667547879E+01  0.00000000000E+00 0. -1.
</event>
<event>
 7    1  0.4374874E-012  0.5052886E+02  0.7816164E-02  0.1300439E+00
        -11   -1    0    0    0    0  0.00000000000E+00  0.00000000000E+00  0.45593999997E+02  0.45594000000E+02  0.51100000000E-03 0. -1.
         11   -1    0    0    0    0 -0.00000000000E+00 -0.00000000000E+00 -0.45593999997E+02  0.45594000000E+02  0.51100000000E-03 0.  1.
    9900012    2    1    2    0    0  0.22870392855E+02 -0.32742847952E+01  0.33457280632E+02  0.50528862803E+02  0.30000008976E+02 0.  0.
        -12    1    1    2    0    0 -0.22870392855E+02  0.32742847952E+01 -0.33457280632E+02  0.40659137197E+02  0.00000000000E+00 0.  1.
         11    1    3    3    0    0 -0.38298400291E+01 -0.53075028567E+01  0.16905052613E+02  0.18127825720E+02  0.51100000000E-03 0. -1.
        -11    1    3    3    0    0  0.50817522733E+01 -0.26280757054E+01  0.38749944809E+01  0.69098893312E+01  0.51100000000E-03 0.  1.
         12    1    3    3    0    0  0.21618480611E+02  0.46612937669E+01  0.12677233538E+02  0.25491147752E+02  0.00000000000E+00 0. -1.
</event>
<event>
 7    1  0.4374874E-012  0.5052886E+02  0.7816164E-02  0.1300439E+00
        -11   -1    0    0    0    0  0.00000000000E+00  0.00000000000E+00  0.45593999997E+02  0.45594000000E+02  0.51100000000E-03 0. -1.
         11   -1    0    0    0    0 -0.00000000000E+00 -0.00000000000E+00 -0.45593999997E+02  0.45594000000E+02  0.51100000000E-03 0.  1.
    9900012    2    1    2    0    0  0.89972385272E+01 -0.23802377682E+02  0.31712176460E+02  0.50528860557E+02  0.30000002149E+02 0.  0.
        -12    1    1    2    0    0 -0.89972385272E+01  0.23802377682E+02 -0.31712176460E+02  0.40659139443E+02  0.00000000000E+00 0.  1.
         11    1    3    3    0    0 -0.51975433376E+01 -0.74608987114E+00  0.69700593694E+01  0.87265591567E+01  0.51100000000E-03 0.  1.
        -11    1    3    3    0    0  0.67890409476E+01 -0.13556647073E+02  0.25571679220E+02  0.29728513841E+02  0.51100000000E-03 0. -1.
         12    1    3    3    0    0  0.74057409172E+01 -0.94996407382E+01 -0.82956212928E+00  0.12073787559E+02  0.00000000000E+00 0. -1.
</event>
<event>
 7    1  0.4374874E-012  0.5052888E+02  0.7816164E-02  0.1300439E+00
        -11   -1    0    0    0    0  0.00000000000E+00  0.00000000000E+00  0.45593999997E+02  0.45594000000E+02  0.51100000000E-03 0. -1.
         11   -1    0    0    0    0 -0.00000000000E+00 -0.00000000000E+00 -0.45593999997E+02  0.45594000000E+02  0.51100000000E-03 0.  1.
    9900012    2    1    2    0    0 -0.62305503703E+01  0.22941891711E+02 -0.32985057636E+02  0.50528878263E+02  0.30000055967E+02 0.  0.
         12    1    1    2    0    0  0.62305503703E+01 -0.22941891711E+02  0.32985057636E+02  0.40659121737E+02  0.00000000000E+00 0. -1.
         11    1    3    3    0    0 -0.82063242825E+00  0.38602263889E+01 -0.62059063443E+00  0.39949866524E+01  0.51100000000E-03 0. -1.
        -11    1    3    3    0    0 -0.12898984705E+02  0.77854005284E+00 -0.17694099930E+02  0.21910524951E+02  0.51100000000E-03 0.  1.
        -12    1    3    3    0    0  0.74890667634E+01  0.18303125270E+02 -0.14670367072E+02  0.24623366659E+02  0.00000000000E+00 0.  1.
</event>
<event>
 7    1  0.4374874E-012  0.5052887E+02  0.7816164E-02  0.1300439E+00
        -11   -1    0    0    0    0  0.00000000000E+00  0.00000000000E+00  0.45593999997E+02  0.45594000000E+02  0.51100000000E-03 0.  1.
         11   -1    0    0    0    0 -0.00000000000E+00 -0.00000000000E+00 -0.45593999997E+02  0.45594000000E+02  0.51100000000E-03 0. -1.
    9900012    2    1    2    0    0  0.83513961484E+01  0.25563122256E+02  0.30495018421E+02  0.50528865902E+02  0.30000018396E+02 0.  0.
        -12    1    1    2    0    0 -0.83513961484E+01 -0.25563122256E+02 -0.30495018421E+02  0.40659134098E+02  0.00000000000E+00 0.  1.
         11    1    3    3    0    0  0.54939263990E+01  0.72407803809E+01  0.12894361595E+02  0.15775826096E+02  0.51100000000E-03 0. -1.
        -11    1    3    3    0    0 -0.68656125389E+01  0.16468991438E+02  0.17296513220E+02  0.24850225036E+02  0.51100000000E-03 0.  1.
         12    1    3    3    0    0  0.97230822883E+01  0.18533504369E+01  0.30414360550E+00  0.99028147696E+01  0.00000000000E+00 0. -1.
</event>
<event>
 7    1  0.4374874E-012  0.5052888E+02  0.7816164E-02  0.1300439E+00
        -11   -1    0    0    0    0  0.00000000000E+00  0.00000000000E+00  0.45593999997E+02  0.45594000000E+02  0.51100000000E-03 0. -1.
         11   -1    0    0    0    0 -0.00000000000E+00 -0.00000000000E+00 -0.45593999997E+02  0.45594000000E+02  0.51100000000E-03 0.  1.
    9900012    2    1    2    0    0 -0.32339441205E+02  0.81103324472E+01  0.23271171607E+02  0.50528875836E+02  0.30000048590E+02 0.  0.
        -12    1    1    2    0    0  0.32339441205E+02 -0.81103324472E+01 -0.23271171607E+02  0.40659124164E+02  0.00000000000E+00 0.  1.
         11    1    3    3    0    0 -0.16309058466E+02  0.51987499797E+01  0.13152543900E+02  0.21587074853E+02  0.51100000000E-03 0. -1.
        -11    1    3    3    0    0 -0.88435449421E+01  0.12335105177E+02  0.45330256880E+01  0.15840183995E+02  0.51100000000E-03 0.  1.
        -12    1    3    3    0    0 -0.71868377967E+01 -0.94235227090E+01  0.55856020188E+01  0.13101616987E+02  0.00000000000E+00 0.  1.
</event>
<event>
 7    1  0.4374874E-012  0.5052887E+02  0.7816164E-02  0.1300439E+00
        -11   -1    0    0    0    0  0.00000000000E+00  0.00000000000E+00  0.45593999997E+02  0.45594000000E+02  0.51100000000E-03 0. -1.
         11   -1    0    0    0    0 -0.00000000000E+00 -0.00000000000E+00 -0.45593999997E+02  0.45594000000E+02  0.51100000000E-03 0.  1.
    9900012    2    1    2    0    0 -0.12221392279E+02 -0.11241421615E+02 -0.37113782291E+02  0.50528870335E+02  0.30000031870E+02 0.  0.
         12    1    1    2    0    0  0.12221392279E+02  0.11241421615E+02  0.37113782291E+02  0.40659129665E+02  0.00000000000E+00 0. -1.
         11    1    3    3    0    0  0.48229300149E+01 -0.74087151539E+01 -0.14734527694E+01  0.89621859769E+01  0.51100000000E-03 0. -1.
        -11    1    3    3    0    0 -0.67752453515E+01 -0.21454599111E+01 -0.37794861225E+01  0.80493144686E+01  0.51100000000E-03 0.  1.
         12    1    3    3    0    0 -0.10269076942E+02 -0.16872465503E+01 -0.31860843399E+02  0.33517369889E+02  0.00000000000E+00 0. -1.
</event>
<event>
 7    1  0.4374874E-012  0.5052885E+02  0.7816164E-02  0.1300439E+00
        -11   -1    0    0    0    0  0.00000000000E+00  0.00000000000E+00  0.45593999997E+02  0.45594000000E+02  0.51100000000E-03 0.  1.
         11   -1    0    0    0    0 -0.00000000000E+00 -0.00000000000E+00 -0.45593999997E+02  0.45594000000E+02  0.51100000000E-03 0. -1.
    9900012    2    1    2    0    0 -0.40250816102E+02 -0.53761161978E+01  0.20335506507E+01  0.50528854036E+02  0.29999982327E+02 0.  0.
        -12    1    1    2    0    0  0.40250816102E+02  0.53761161978E+01 -0.20335506507E+01  0.40659145964E+02  0.00000000000E+00 0.  1.
         11    1    3    3    0    0 -0.21037112353E+02 -0.48717813651E+01 -0.90590023411E+01  0.23417085077E+02  0.51100000000E-03 0. -1.
        -11    1    3    3    0    0 -0.21577088994E+02 -0.19760133129E+01  0.11061175401E+02  0.24327453619E+02  0.51100000000E-03 0.  1.
         12    1    3    3    0    0  0.23633852442E+01  0.14716784802E+01  0.31377590786E-01  0.27843153404E+01  0.00000000000E+00 0. -1.
</event>
<event>
 7    1  0.4374874E-012  0.5052886E+02  0.7816164E-02  0.1300439E+00
        -11   -1    0    0    0    0  0.00000000000E+00  0.00000000000E+00  0.45593999997E+02  0.45594000000E+02  0.51100000000E-03 0. -1.
         11   -1    0    0    0    0 -0.00000000000E+00 -0.00000000000E+00 -0.45593999997E+02  0.45594000000E+02  0.51100000000E-03 0.  1.
    9900012    2    1    2    0    0  0.19672514133E+02  0.11928489219E+02 -0.33524160300E+02  0.50528855995E+02  0.29999988283E+02 0.  0.
         12    1    1    2    0    0 -0.19672514133E+02 -0.11928489219E+02  0.33524160300E+02  0.40659144005E+02  0.00000000000E+00 0. -1.
         11    1    3    3    0    0  0.65857741581E+01  0.15178600412E+02 -0.13699387118E+02  0.21481050705E+02  0.51100000000E-03 0. -1.
        -11    1    3    3    0    0 -0.22196406863E+01  0.37814092755E+01 -0.42575305887E+01  0.61116632646E+01  0.51100000000E-03 0.  1.
         12    1    3    3    0    0  0.15306380661E+02 -0.70315204686E+01 -0.15567242593E+02  0.22936142025E+02  0.00000000000E+00 0. -1.
</event>
<event>
 7    1  0.4374874E-012  0.5052886E+02  0.7816164E-02  0.1300439E+00
        -11   -1    0    0    0    0  0.00000000000E+00  0.00000000000E+00  0.45593999997E+02  0.45594000000E+02  0.51100000000E-03 0. -1.
         11   -1    0    0    0    0 -0.00000000000E+00 -0.00000000000E+00 -0.45593999997E+02  0.45594000000E+02  0.51100000000E-03 0.  1.
    9900012    2    1    2    0    0  0.82871499152E+01 -0.23615166080E+02 -0.32043915822E+02  0.50528862479E+02  0.30000007993E+02 0.  0.
         12    1    1    2    0    0 -0.82871499152E+01  0.23615166080E+02  0.32043915822E+02  0.40659137521E+02  0.00000000000E+00 0. -1.
         11    1    3    3    0    0  0.12241837160E+02 -0.20475427675E+02 -0.30804750150E+02  0.38962011596E+02  0.51100000000E-03 0.  1.
        -11    1    3    3    0    0 -0.24328305177E+01  0.27712093546E+01 -0.34745908118E+01  0.50666603582E+01  0.51100000000E-03 0. -1.
        -12    1    3    3    0    0 -0.15218567273E+01 -0.59109477595E+01  0.22354251395E+01  0.65001905255E+01  0.00000000000E+00 0.  1.
</event>
<event>
 7    1  0.4374874E-012  0.5052883E+02  0.7816164E-02  0.1300439E+00
        -11   -1    0    0    0    0  0.00000000000E+00  0.00000000000E+00  0.45593999997E+02  0.45594000000E+02  0.51100000000E-03 0. -1.
         11   -1    0    0    0    0 -0.00000000000E+00 -0.00000000000E+00 -0.45593999997E+02  0.45594000000E+02  0.51100000000E-03 0.  1.
    9900012    2    1    2    0    0  0.60283220072E+01  0.35775336156E+02  0.18356281656E+02  0.50528826133E+02  0.29999897515E+02 0.  0.
        -12    1    1    2    0    0 -0.60283220072E+01 -0.35775336156E+02 -0.18356281656E+02  0.40659173867E+02  0.00000000000E+00 0.  1.
         11    1    3    3    0    0 -0.27542021063E+01 -0.22193646818E+01  0.30437696539E+01  0.46664486283E+01  0.51100000000E-03 0. -1.
        -11    1    3    3    0    0 -0.57484344112E+01  0.10800007048E+02  0.61684728892E+01  0.13701631599E+02  0.51100000000E-03 0.  1.
        -12    1    3    3    0    0  0.14530958525E+02  0.27194693789E+02  0.91440391125E+01  0.32160745906E+02  0.00000000000E+00 0.  1.
</event>
<event>
 7    1  0.4374874E-012  0.5052886E+02  0.7816164E-02  0.1300439E+00
        -11   -1    0    0    0    0  0.00000000000E+00  0.00000000000E+00  0.45593999997E+02  0.45594000000E+02  0.51100000000E-03 0.  1.
         11   -1    0    0    0    0 -0.00000000000E+00 -0.00000000000E+00 -0.45593999997E+02  0.45594000000E+02  0.51100000000E-03 0. -1.
    9900012    2    1    2    0    0  0.27412932796E+02  0.32512302362E+00  0.30026502598E+02  0.50528862678E+02  0.30000008597E+02 0.  0.
        -12    1    1    2    0    0 -0.27412932796E+02 -0.32512302362E+00 -0.30026502598E+02  0.40659137322E+02  0.00000000000E+00 0.  1.
         11    1    3    3    0    0  0.15754733910E+02 -0.29484942905E+01  0.98797787392E+00  0.16058684868E+02  0.51100000000E-03 0. -1.
        -11    1    3    3    0    0 -0.20563792801E+01 -0.13534904037E+01  0.56033061461E+00  0.25247975514E+01  0.51100000000E-03 0.  1.
         12    1    3    3    0    0  0.13714578166E+02  0.46271077178E+01  0.28478194110E+02  0.31945380258E+02  0.00000000000E+00 0. -1.
</event>
<event>
 7    1  0.4374874E-012  0.5052887E+02  0.7816164E-02  0.1300439E+00
        -11   -1    0    0    0    0  0.00000000000E+00  0.00000000000E+00  0.45593999997E+02  0.45594000000E+02  0.51100000000E-03 0. -1.
         11   -1    0    0    0    0 -0.00000000000E+00 -0.00000000000E+00 -0.45593999997E+02  0.45594000000E+02  0.51100000000E-03 0.  1.
    9900012    2    1    2    0    0 -0.19803758512E+02 -0.35022871895E+02  0.58630051289E+01  0.50528865281E+02  0.30000016507E+02 0.  0.
        -12    1    1    2    0    0  0.19803758512E+02  0.35022871895E+02 -0.58630051289E+01  0.40659134719E+02  0.00000000000E+00 0.  1.
         11    1    3    3    0    0 -0.87704431615E+01 -0.11329428205E+02 -0.71228309064E+01  0.16000354280E+02  0.51100000000E-03 0. -1.
        -11    1    3    3    0    0  0.50407772697E+01 -0.32975735120E+01  0.25700097241E+01  0.65489218038E+01  0.51100000000E-03 0.  1.
         12    1    3    3    0    0 -0.16074092621E+02 -0.20395870178E+02  0.10415826311E+02  0.27979589197E+02  0.00000000000E+00 0. -1.
</event>
<event>
 7    1  0.4374874E-012  0.5052882E+02  0.7816164E-02  0.1300439E+00
        -11   -1    0    0    0    0  0.00000000000E+00  0.00000000000E+00  0.45593999997E+02  0.45594000000E+02  0.51100000000E-03 0.  1.
         11   -1    0    0    0    0 -0.00000000000E+00 -0.00000000000E+00 -0.45593999997E+02  0.45594000000E+02  0.51100000000E-03 0. -1.
    9900012    2    1    2    0    0  0.84025119974E+01  0.38932424451E+02 -0.81751421417E+01  0.50528821079E+02  0.29999882150E+02 0.  0.
        -12    1    1    2    0    0 -0.84025119974E+01 -0.38932424451E+02  0.81751421417E+01  0.40659178921E+02  0.00000000000E+00 0.  1.
         11    1    3    3    0    0  0.32231360456E+00  0.11002852633E+02 -0.30407616722E+01  0.11419846055E+02  0.51100000000E-03 0. -1.
        -11    1    3    3    0    0  0.72629893144E+01  0.86395582634E+01 -0.13899672763E+02  0.17905135686E+02  0.51100000000E-03 0.  1.
        -12    1    3    3    0    0  0.81720907844E+00  0.19290013555E+02  0.87652922935E+01  0.21203839337E+02  0.00000000000E+00 0.  1.
</event>
<event>
 7    1  0.4374874E-012  0.5052886E+02  0.7816164E-02  0.1300439E+00
        -11   -1    0    0    0    0  0.00000000000E+00  0.00000000000E+00  0.45593999997E+02  0.45594000000E+02  0.51100000000E-03 0. -1.
         11   -1    0    0    0    0 -0.00000000000E+00 -0.00000000000E+00 -0.45593999997E+02  0.45594000000E+02  0.51100000000E-03 0.  1.
    9900012    2    1    2    0    0  0.24818824979E+02  0.31660235087E+02  0.59009406889E+01  0.50528860067E+02  0.30000000660E+02 0.  0.
         12    1    1    2    0    0 -0.24818824979E+02 -0.31660235087E+02 -0.59009406889E+01  0.40659139933E+02  0.00000000000E+00 0. -1.
         11    1    3    3    0    0  0.28053572200E+01  0.68370097860E+01 -0.54291136953E+01  0.91700603991E+01  0.51100000000E-03 0. -1.
        -11    1    3    3    0    0  0.22611243036E+02  0.26055867253E+02  0.49726530572E+01  0.34855470283E+02  0.51100000000E-03 0.  1.
         12    1    3    3    0    0 -0.59777527768E+00 -0.12326419520E+01  0.63574013270E+01  0.65033293856E+01  0.00000000000E+00 0. -1.
</event>
<event>
 7    1  0.4374874E-012  0.5052891E+02  0.7816164E-02  0.1300439E+00
        -11   -1    0    0    0    0  0.00000000000E+00  0.00000000000E+00  0.45593999997E+02  0.45594000000E+02  0.51100000000E-03 0.  1.
         11   -1    0    0    0    0 -0.00000000000E+00 -0.00000000000E+00 -0.45593999997E+02  0.45594000000E+02  0.51100000000E-03 0. -1.
    9900012    2    1    2    0    0 -0.18784293835E+02  0.31134877925E+02 -0.18191510967E+02  0.50528912583E+02  0.30000160288E+02 0.  0.
         12    1    1    2    0    0  0.18784293835E+02 -0.31134877925E+02  0.18191510967E+02  0.40659087417E+02  0.00000000000E+00 0. -1.
         11    1    3    3    0    0  0.15692998465E+01 -0.13159630117E+01  0.16193177452E+01  0.26108716701E+01  0.51100000000E-03 0. -1.
        -11    1    3    3    0    0 -0.19597933133E+01  0.55516642102E+01 -0.13497089658E+02  0.14725257038E+02  0.51100000000E-03 0.  1.
         12    1    3    3    0    0 -0.18393800369E+02  0.26899176726E+02 -0.63137390549E+01  0.33192783875E+02  0.00000000000E+00 0. -1.
</event>
<event>
 7    1  0.4374874E-012  0.5052893E+02  0.7816164E-02  0.1300439E+00
        -11   -1    0    0    0    0  0.00000000000E+00  0.00000000000E+00  0.45593999997E+02  0.45594000000E+02  0.51100000000E-03 0. -1.
         11   -1    0    0    0    0 -0.00000000000E+00 -0.00000000000E+00 -0.45593999997E+02  0.45594000000E+02  0.51100000000E-03 0.  1.
    9900012    2    1    2    0    0  0.30384993342E+02 -0.18065318650E+02  0.20088708734E+02  0.50528932414E+02  0.30000220566E+02 0.  0.
        -12    1    1    2    0    0 -0.30384993342E+02  0.18065318650E+02 -0.20088708734E+02  0.40659067586E+02  0.00000000000E+00 0.  1.
         11    1    3    3    0    0  0.11232685780E+02 -0.16068342201E+02  0.13776377234E+02  0.23961498719E+02  0.51100000000E-03 0. -1.
        -11    1    3    3    0    0 -0.23857712661E+01 -0.15937459484E+01 -0.19785394195E+01  0.34851899773E+01  0.51100000000E-03 0.  1.
         12    1    3    3    0    0  0.21538078829E+02 -0.40323050068E+00  0.82908709193E+01  0.23082243718E+02  0.00000000000E+00 0. -1.
</event>
<event>
 7    1  0.4374874E-012  0.5052883E+02  0.7816164E-02  0.1300439E+00
        -11   -1    0    0    0    0  0.00000000000E+00  0.00000000000E+00  0.45593999997E+02  0.45594000000E+02  0.51100000000E-03 0.  1.
         11   -1    0    0    0    0 -0.00000000000E+00 -0.00000000000E+00 -0.45593999997E+02  0.45594000000E+02  0.51100000000E-03 0. -1.
    9900012    2    1    2    0    0 -0.28419057295E+02  0.16404786711E+02 -0.24008508724E+02  0.50528827164E+02  0.29999900648E+02 0.  0.
         12    1    1    2    0    0  0.28419057295E+02 -0.16404786711E+02  0.24008508724E+02  0.40659172836E+02  0.00000000000E+00 0. -1.
         11    1    3    3    0    0 -0.43919111209E+00 -0.18313366467E+01  0.14795819529E+01  0.23949625807E+01  0.51100000000E-03 0. -1.
        -11    1    3    3    0    0 -0.10986192722E+01  0.13284280426E+02 -0.63395140823E+01  0.14760369569E+02  0.51100000000E-03 0.  1.
         12    1    3    3    0    0 -0.26881246911E+02  0.49518429312E+01 -0.19148576595E+02  0.33373495015E+02  0.00000000000E+00 0. -1.
</event>
<event>
 7    1  0.4374874E-012  0.5052886E+02  0.7816164E-02  0.1300439E+00
        -11   -1    0    0    0    0  0.00000000000E+00  0.00000000000E+00  0.45593999997E+02  0.45594000000E+02  0.51100000000E-03 0. -1.
         11   -1    0    0    0    0 -0.00000000000E+00 -0.00000000000E+00 -0.45593999997E+02  0.45594000000E+02  0.51100000000E-03 0.  1.
    9900012    2    1    2    0    0  0.13438050062E+02  0.29740815986E+02  0.24250126573E+02  0.50528856332E+02  0.29999989308E+02 0.  0.
        -12    1    1    2    0    0 -0.13438050062E+02 -0.29740815986E+02 -0.24250126573E+02  0.40659143668E+02  0.00000000000E+00 0.  1.
         11    1    3    3    0    0  0.17396876218E+02  0.16603649194E+02  0.10066905276E+02  0.26070578260E+02  0.51100000000E-03 0. -1.
        -11    1    3    3    0    0  0.32424217967E+01 -0.19988270162E+00  0.69332583751E+01  0.76565869785E+01  0.51100000000E-03 0.  1.
         12    1    3    3    0    0 -0.72012479521E+01  0.13337049494E+02  0.72499629210E+01  0.16801691094E+02  0.00000000000E+00 0. -1.
</event>
<event>
 7    1  0.6126043E-012  0.5052886E+02  0.7816164E-02  0.1300439E+00
        -11   -1    0    0    0    0  0.00000000000E+00  0.00000000000E+00  0.45593999997E+02  0.45594000000E+02  0.51100000000E-03 0. -1.
         11   -1    0    0    0    0 -0.00000000000E+00 -0.00000000000E+00 -0.45593999997E+02  0.45594000000E+02  0.51100000000E-03 0.  1.
    9900012    2    1    2    0    0  0.19942883085E+02  0.23322267893E+02 -0.26674317633E+02  0.50528856052E+02  0.29999988456E+02 0.  0.
         12    1    1    2    0    0 -0.19942883085E+02 -0.23322267893E+02  0.26674317633E+02  0.40659143948E+02  0.00000000000E+00 0. -1.
         11    1    3    3    0    0  0.14425009203E+02  0.96642715093E+01 -0.12739581798E+02  0.21535458643E+02  0.51100000000E-03 0. -1.
        -11    1    3    3    0    0  0.65050325034E+01  0.18755692488E+02 -0.88813550249E+01  0.21747871526E+02  0.51100000000E-03 0.  1.
         12    1    3    3    0    0 -0.98715862202E+00 -0.50976961038E+01 -0.50533808101E+01  0.72455258831E+01  0.00000000000E+00 0. -1.
</event>
<event>
 7    1  0.4374874E-012  0.5052886E+02  0.7816164E-02  0.1300439E+00
        -11   -1    0    0    0    0  0.00000000000E+00  0.00000000000E+00  0.45593999997E+02  0.45594000000E+02  0.51100000000E-03 0. -1.
         11   -1    0    0    0    0 -0.00000000000E+00 -0.00000000000E+00 -0.45593999997E+02  0.45594000000E+02  0.51100000000E-03 0.  1.
    9900012    2    1    2    0    0 -0.24866438751E+00  0.21429037789E+02 -0.34552858261E+02  0.50528861931E+02  0.30000006326E+02 0.  0.
         12    1    1    2    0    0  0.24866438751E+00 -0.21429037789E+02  0.34552858261E+02  0.40659138069E+02  0.00000000000E+00 0. -1.
         11    1    3    3    0    0 -0.21003727841E+01  0.91986705317E+01 -0.10545186609E+02  0.14150196687E+02  0.51100000000E-03 0. -1.
        -11    1    3    3    0    0  0.44912096764E+01  0.61854413123E+01 -0.27757797172E+02  0.28791074184E+02  0.51100000000E-03 0.  1.
         12    1    3    3    0    0 -0.26395012798E+01  0.60449259445E+01  0.37501255204E+01  0.75875910603E+01  0.00000000000E+00 0. -1.
</event>
<event>
 7    1  0.4374874E-012  0.5052885E+02  0.7816164E-02  0.1300439E+00
        -11   -1    0    0    0    0  0.00000000000E+00  0.00000000000E+00  0.45593999997E+02  0.45594000000E+02  0.51100000000E-03 0. -1.
         11   -1    0    0    0    0 -0.00000000000E+00 -0.00000000000E+00 -0.45593999997E+02  0.45594000000E+02  0.51100000000E-03 0.  1.
    9900012    2    1    2    0    0  0.27226649732E+02  0.10016554570E+02 -0.28487617482E+02  0.50528853786E+02  0.29999981568E+02 0.  0.
         12    1    1    2    0    0 -0.27226649732E+02 -0.10016554570E+02  0.28487617482E+02  0.40659146214E+02  0.00000000000E+00 0. -1.
         11    1    3    3    0    0  0.64608980827E+01 -0.96051276090E+01 -0.48834660655E+01  0.12563833869E+02  0.51100000000E-03 0. -1.
        -11    1    3    3    0    0  0.91161613305E+01  0.49373480137E+01 -0.48358733926E+01  0.11439732276E+02  0.51100000000E-03 0.  1.
        -12    1    3    3    0    0  0.11649590319E+02  0.14684334165E+02 -0.18768278023E+02  0.26525287641E+02  0.00000000000E+00 0.  1.
</event>
<event>
 7    1  0.4853663E-012  0.5052886E+02  0.7816164E-02  0.1300439E+00
        -11   -1    0    0    0    0  0.00000000000E+00  0.00000000000E+00  0.45593999997E+02  0.45594000000E+02  0.51100000000E-03 0. -1.
         11   -1    0    0    0    0 -0.00000000000E+00 -0.00000000000E+00 -0.45593999997E+02  0.45594000000E+02  0.51100000000E-03 0.  1.
    9900012    2    1    2    0    0 -0.79500524053E+01  0.20213689224E+02 -0.34371053720E+02  0.50528857128E+02  0.29999991726E+02 0.  0.
         12    1    1    2    0    0  0.79500524053E+01 -0.20213689224E+02  0.34371053720E+02  0.40659142872E+02  0.00000000000E+00 0. -1.
         11    1    3    3    0    0  0.45405363037E+00  0.43391163785E+01 -0.16482471731E+02  0.17050101767E+02  0.51100000000E-03 0. -1.
        -11    1    3    3    0    0 -0.15583818380E+02  0.76315888190E+01 -0.10435660630E+02  0.20248445774E+02  0.51100000000E-03 0.  1.
         12    1    3    3    0    0  0.71797123441E+01  0.82429840264E+01 -0.74529213582E+01  0.13230309587E+02  0.00000000000E+00 0. -1.
</event>
<event>
 7    1  0.4374874E-012  0.5052885E+02  0.7816164E-02  0.1300439E+00
        -11   -1    0    0    0    0  0.00000000000E+00  0.00000000000E+00  0.45593999997E+02  0.45594000000E+02  0.51100000000E-03 0. -1.
         11   -1    0    0    0    0 -0.00000000000E+00 -0.00000000000E+00 -0.45593999997E+02  0.45594000000E+02  0.51100000000E-03 0.  1.
    9900012    2    1    2    0    0  0.18820841884E+02  0.10097030713E+02 -0.34597575336E+02  0.50528851736E+02  0.29999975337E+02 0.  0.
         12    1    1    2    0    0 -0.18820841884E+02 -0.10097030713E+02  0.34597575336E+02  0.40659148264E+02  0.00000000000E+00 0. -1.
         11    1    3    3    0    0  0.31325016386E+01 -0.42959194700E+01 -0.13581132196E+00  0.53184523675E+01  0.51100000000E-03 0. -1.
        -11    1    3    3    0    0 -0.12529395167E+01  0.55320571234E+01 -0.21191842861E+02  0.21937814785E+02  0.51100000000E-03 0.  1.
        -12    1    3    3    0    0  0.16941279762E+02  0.88608930598E+01 -0.13269921153E+02  0.23272584583E+02  0.00000000000E+00 0.  1.
</event>
<event>
 7    1  0.4374874E-012  0.5052886E+02  0.7816164E-02  0.1300439E+00
        -11   -1    0    0    0    0  0.00000000000E+00  0.00000000000E+00  0.45593999997E+02  0.45594000000E+02  0.51100000000E-03 0. -1.
         11   -1    0    0    0    0 -0.00000000000E+00 -0.00000000000E+00 -0.45593999997E+02  0.45594000000E+02  0.51100000000E-03 0.  1.
    9900012    2    1    2    0    0  0.10314922467E+02  0.51771284943E+00  0.39325559626E+02  0.50528864593E+02  0.30000014417E+02 0.  0.
        -12    1    1    2    0    0 -0.10314922467E+02 -0.51771284943E+00 -0.39325559626E+02  0.40659135407E+02  0.00000000000E+00 0.  1.
         11    1    3    3    0    0 -0.19422797153E+01  0.68914908400E+01  0.68140371105E+01  0.98841387331E+01  0.51100000000E-03 0. -1.
        -11    1    3    3    0    0 -0.43684689509E+01 -0.55490814630E-01  0.10333292055E+01  0.44893618382E+01  0.51100000000E-03 0.  1.
         12    1    3    3    0    0  0.16625671133E+02 -0.63182871759E+01  0.31478193310E+02  0.36155364022E+02  0.00000000000E+00 0. -1.
</event>
<event>
 7    1  0.4374874E-012  0.5052886E+02  0.7816164E-02  0.1300439E+00
        -11   -1    0    0    0    0  0.00000000000E+00  0.00000000000E+00  0.45593999997E+02  0.45594000000E+02  0.51100000000E-03 0. -1.
         11   -1    0    0    0    0 -0.00000000000E+00 -0.00000000000E+00 -0.45593999997E+02  0.45594000000E+02  0.51100000000E-03 0.  1.
    9900012    2    1    2    0    0 -0.10612555685E+02 -0.96537833986E+01 -0.38043974081E+02  0.50528857904E+02  0.29999994086E+02 0.  0.
         12    1    1    2    0    0  0.10612555685E+02  0.96537833986E+01  0.38043974081E+02  0.40659142096E+02  0.00000000000E+00 0. -1.
         11    1    3    3    0    0 -0.55396794845E+01 -0.14386015304E+02 -0.23512662959E+02  0.28115668315E+02  0.51100000000E-03 0.  1.
        -11    1    3    3    0    0 -0.75112115549E+01 -0.16254093884E+01 -0.16757254292E+01  0.78656411486E+01  0.51100000000E-03 0. -1.
        -12    1    3    3    0    0  0.24383353548E+01  0.63576412941E+01 -0.12855585693E+02  0.14547548441E+02  0.00000000000E+00 0.  1.
</event>
<event>
 7    1  0.4374874E-012  0.5052888E+02  0.7816164E-02  0.1300439E+00
        -11   -1    0    0    0    0  0.00000000000E+00  0.00000000000E+00  0.45593999997E+02  0.45594000000E+02  0.51100000000E-03 0. -1.
         11   -1    0    0    0    0 -0.00000000000E+00 -0.00000000000E+00 -0.45593999997E+02  0.45594000000E+02  0.51100000000E-03 0.  1.
    9900012    2    1    2    0    0 -0.93902319175E+01  0.22381688227E+02  0.32619742887E+02  0.50528879875E+02  0.30000060867E+02 0.  0.
        -12    1    1    2    0    0  0.93902319175E+01 -0.22381688227E+02 -0.32619742887E+02  0.40659120125E+02  0.00000000000E+00 0.  1.
         11    1    3    3    0    0 -0.62258935475E+01  0.61903939074E+01  0.22183795567E+02  0.23857986361E+02  0.51100000000E-03 0. -1.
        -11    1    3    3    0    0  0.66258905918E+01  0.62782711401E+01  0.87364371841E+01  0.12635048460E+02  0.51100000000E-03 0.  1.
        -12    1    3    3    0    0 -0.97902289618E+01  0.99130231795E+01  0.16995101362E+01  0.14035845054E+02  0.00000000000E+00 0.  1.
</event>
<event>
 7    1  0.4374874E-012  0.5052891E+02  0.7816164E-02  0.1300439E+00
        -11   -1    0    0    0    0  0.00000000000E+00  0.00000000000E+00  0.45593999997E+02  0.45594000000E+02  0.51100000000E-03 0. -1.
         11   -1    0    0    0    0 -0.00000000000E+00 -0.00000000000E+00 -0.45593999997E+02  0.45594000000E+02  0.51100000000E-03 0.  1.
    9900012    2    1    2    0    0  0.24678489648E+02 -0.19380140138E+01  0.32254886906E+02  0.50528911484E+02  0.30000156946E+02 0.  0.
        -12    1    1    2    0    0 -0.24678489648E+02  0.19380140138E+01 -0.32254886906E+02  0.40659088516E+02  0.00000000000E+00 0.  1.
         11    1    3    3    0    0  0.21589153672E+02 -0.22854900124E+01  0.35211675002E+02  0.41366376171E+02  0.51100000000E-03 0. -1.
        -11    1    3    3    0    0  0.52708921506E+01  0.50356474183E+00  0.22715054263E+00  0.52997621779E+01  0.51100000000E-03 0.  1.
        -12    1    3    3    0    0 -0.21815561746E+01 -0.15608874326E+00 -0.31839386379E+01  0.38627731345E+01  0.00000000000E+00 0.  1.
</event>
<event>
 7    1  0.4374874E-012  0.5052885E+02  0.7816164E-02  0.1300439E+00
        -11   -1    0    0    0    0  0.00000000000E+00  0.00000000000E+00  0.45593999997E+02  0.45594000000E+02  0.51100000000E-03 0. -1.
         11   -1    0    0    0    0 -0.00000000000E+00 -0.00000000000E+00 -0.45593999997E+02  0.45594000000E+02  0.51100000000E-03 0.  1.
    9900012    2    1    2    0    0  0.13958510885E+02  0.33454312810E+02  0.18415618665E+02  0.50528854872E+02  0.29999984870E+02 0.  0.
        -12    1    1    2    0    0 -0.13958510885E+02 -0.33454312810E+02 -0.18415618665E+02  0.40659145128E+02  0.00000000000E+00 0.  1.
         11    1    3    3    0    0  0.48871660374E+01  0.73662911739E+00  0.19026099298E+01  0.52959360967E+01  0.51100000000E-03 0. -1.
        -11    1    3    3    0    0 -0.98335010930E+00  0.14222836348E+02 -0.50243718803E+01  0.15116228507E+02  0.51100000000E-03 0.  1.
         12    1    3    3    0    0  0.10054694957E+02  0.18494847345E+02  0.21537380615E+02  0.30116690269E+02  0.00000000000E+00 0. -1.
</event>
<event>
 7    1  0.4374874E-012  0.5052885E+02  0.7816164E-02  0.1300439E+00
        -11   -1    0    0    0    0  0.00000000000E+00  0.00000000000E+00  0.45593999997E+02  0.45594000000E+02  0.51100000000E-03 0. -1.
         11   -1    0    0    0    0 -0.00000000000E+00 -0.00000000000E+00 -0.45593999997E+02  0.45594000000E+02  0.51100000000E-03 0.  1.
    9900012    2    1    2    0    0  0.62528592656E+01 -0.11662905366E+02 -0.38445350633E+02  0.50528848560E+02  0.29999965682E+02 0.  0.
         12    1    1    2    0    0 -0.62528592656E+01  0.11662905366E+02  0.38445350633E+02  0.40659151440E+02  0.00000000000E+00 0. -1.
         11    1    3    3    0    0  0.36888825051E+01  0.10688750198E+01  0.94382581669E+00  0.39548900589E+01  0.51100000000E-03 0. -1.
        -11    1    3    3    0    0 -0.69284055845E+01  0.15786435911E+01 -0.16449451211E+02  0.17918687590E+02  0.51100000000E-03 0.  1.
        -12    1    3    3    0    0  0.94923823450E+01 -0.14310423977E+02 -0.22939725238E+02  0.28655270911E+02  0.00000000000E+00 0.  1.
</event>
<event>
 7    1  0.4374874E-012  0.5052886E+02  0.7816164E-02  0.1300439E+00
        -11   -1    0    0    0    0  0.00000000000E+00  0.00000000000E+00  0.45593999997E+02  0.45594000000E+02  0.51100000000E-03 0. -1.
         11   -1    0    0    0    0 -0.00000000000E+00 -0.00000000000E+00 -0.45593999997E+02  0.45594000000E+02  0.51100000000E-03 0.  1.
    9900012    2    1    2    0    0  0.14029204951E+02 -0.12925607551E+02 -0.35906486734E+02  0.50528859432E+02  0.29999998730E+02 0.  0.
         12    1    1    2    0    0 -0.14029204951E+02  0.12925607551E+02  0.35906486734E+02  0.40659140568E+02  0.00000000000E+00 0. -1.
         11    1    3    3    0    0  0.10947572372E+00 -0.29193733202E+01  0.11517653072E+01  0.31402689535E+01  0.51100000000E-03 0.  1.
        -11    1    3    3    0    0 -0.28333781141E+01 -0.11326782147E+02 -0.21606948662E+02  0.24559809773E+02  0.51100000000E-03 0. -1.
         12    1    3    3    0    0  0.16753107341E+02  0.13205479161E+01 -0.15451303380E+02  0.22828780706E+02  0.00000000000E+00 0. -1.
</event>
<event>
 7    1  0.4374874E-012  0.5052886E+02  0.7816164E-02  0.1300439E+00
        -11   -1    0    0    0    0  0.00000000000E+00  0.00000000000E+00  0.45593999997E+02  0.45594000000E+02  0.51100000000E-03 0.  1.
         11   -1    0    0    0    0 -0.00000000000E+00 -0.00000000000E+00 -0.45593999997E+02  0.45594000000E+02  0.51100000000E-03 0. -1.
    9900012    2    1    2    0    0  0.20689479439E+02  0.22172094162E+02 -0.27083379386E+02  0.50528858863E+02  0.29999997001E+02 0.  0.
         12    1    1    2    0    0 -0.20689479439E+02 -0.22172094162E+02  0.27083379386E+02  0.40659141137E+02  0.00000000000E+00 0. -1.
         11    1    3    3    0    0  0.10027954639E+02  0.16233861681E+02 -0.61992745218E+01  0.20063128973E+02  0.51100000000E-03 0. -1.
        -11    1    3    3    0    0  0.23140875464E+01  0.44883987978E+01  0.24705575255E+01  0.56217772713E+01  0.51100000000E-03 0.  1.
         12    1    3    3    0    0  0.83474372535E+01  0.14498336834E+01 -0.23354662390E+02  0.24843952620E+02  0.00000000000E+00 0. -1.
</event>
<event>
 7    1  0.4374874E-012  0.5052888E+02  0.7816164E-02  0.1300439E+00
        -11   -1    0    0    0    0  0.00000000000E+00  0.00000000000E+00  0.45593999997E+02  0.45594000000E+02  0.51100000000E-03 0. -1.
         11   -1    0    0    0    0 -0.00000000000E+00 -0.00000000000E+00 -0.45593999997E+02  0.45594000000E+02  0.51100000000E-03 0.  1.
    9900012    2    1    2    0    0 -0.39549147365E+02 -0.67079616051E+01 -0.66356547713E+01  0.50528883920E+02  0.30000073163E+02 0.  0.
         12    1    1    2    0    0  0.39549147365E+02  0.67079616051E+01  0.66356547713E+01  0.40659116080E+02  0.00000000000E+00 0. -1.
         11    1    3    3    0    0  0.18885040600E+01 -0.54376792437E+01 -0.69582307800E+01  0.90306023603E+01  0.51100000000E-03 0. -1.
        -11    1    3    3    0    0 -0.56742204455E+01  0.32535501470E+00 -0.33277520267E+00  0.56932743783E+01  0.51100000000E-03 0.  1.
         12    1    3    3    0    0 -0.35763430979E+02 -0.15956373761E+01  0.65535121137E+00  0.35805007181E+02  0.00000000000E+00 0. -1.
</event>
<event>
 7    1  0.4374874E-012  0.5052879E+02  0.7816164E-02  0.1300439E+00
        -11   -1    0    0    0    0  0.00000000000E+00  0.00000000000E+00  0.45593999997E+02  0.45594000000E+02  0.51100000000E-03 0. -1.
         11   -1    0    0    0    0 -0.00000000000E+00 -0.00000000000E+00 -0.45593999997E+02  0.45594000000E+02  0.51100000000E-03 0.  1.
    9900012    2    1    2    0    0 -0.89059663882E+00 -0.13801073288E+01  0.40626020290E+02  0.50528789688E+02  0.29999786735E+02 0.  0.
        -12    1    1    2    0    0  0.89059663882E+00  0.13801073288E+01 -0.40626020290E+02  0.40659210312E+02  0.00000000000E+00 0.  1.
         11    1    3    3    0    0 -0.79252214038E+01 -0.88446538076E+01  0.83420094583E+01  0.14512965146E+02  0.51100000000E-03 0. -1.
        -11    1    3    3    0    0  0.27225059329E+01 -0.33397801286E+01  0.96084518288E+01  0.10530361659E+02  0.51100000000E-03 0.  1.
         12    1    3    3    0    0  0.43121188321E+01  0.10804326607E+02  0.22675559003E+02  0.25485462883E+02  0.00000000000E+00 0. -1.
</event>
<event>
 7    1  0.4374874E-012  0.5052886E+02  0.7816164E-02  0.1300439E+00
        -11   -1    0    0    0    0  0.00000000000E+00  0.00000000000E+00  0.45593999997E+02  0.45594000000E+02  0.51100000000E-03 0. -1.
         11   -1    0    0    0    0 -0.00000000000E+00 -0.00000000000E+00 -0.45593999997E+02  0.45594000000E+02  0.51100000000E-03 0.  1.
    9900012    2    1    2    0    0 -0.73477616097E+01 -0.44508330653E+01 -0.39741237186E+02  0.50528862666E+02  0.30000008560E+02 0.  0.
         12    1    1    2    0    0  0.73477616097E+01  0.44508330653E+01  0.39741237186E+02  0.40659137334E+02  0.00000000000E+00 0. -1.
         11    1    3    3    0    0 -0.98744205521E+01  0.57748690588E+01 -0.26745692859E+02  0.29089265729E+02  0.51100000000E-03 0. -1.
        -11    1    3    3    0    0 -0.51909377767E+00  0.24530961068E+01  0.62446660110E+00  0.25840080604E+01  0.51100000000E-03 0.  1.
         12    1    3    3    0    0  0.30457527201E+01 -0.12678798231E+02 -0.13620010928E+02  0.18855588877E+02  0.00000000000E+00 0. -1.
</event>
<event>
 7    1  0.4374874E-012  0.5052886E+02  0.7816164E-02  0.1300439E+00
        -11   -1    0    0    0    0  0.00000000000E+00  0.00000000000E+00  0.45593999997E+02  0.45594000000E+02  0.51100000000E-03 0. -1.
         11   -1    0    0    0    0 -0.00000000000E+00 -0.00000000000E+00 -0.45593999997E+02  0.45594000000E+02  0.51100000000E-03 0.  1.
    9900012    2    1    2    0    0  0.21036101385E+02  0.78851714431E+01  0.33889119565E+02  0.50528856931E+02  0.29999991129E+02 0.  0.
        -12    1    1    2    0    0 -0.21036101385E+02 -0.78851714431E+01 -0.33889119565E+02  0.40659143069E+02  0.00000000000E+00 0.  1.
         11    1    3    3    0    0 -0.31358360368E+00  0.69493864509E+01  0.13763664787E+02  0.15421763043E+02  0.51100000000E-03 0. -1.
        -11    1    3    3    0    0  0.13249631027E+02  0.95315223996E+01  0.79888435082E+01  0.18172073698E+02  0.51100000000E-03 0.  1.
         12    1    3    3    0    0  0.81000539611E+01 -0.85957374075E+01  0.12136611270E+02  0.16935020191E+02  0.00000000000E+00 0. -1.
</event>
<event>
 7    1  0.4374874E-012  0.5052886E+02  0.7816164E-02  0.1300439E+00
        -11   -1    0    0    0    0  0.00000000000E+00  0.00000000000E+00  0.45593999997E+02  0.45594000000E+02  0.51100000000E-03 0. -1.
         11   -1    0    0    0    0 -0.00000000000E+00 -0.00000000000E+00 -0.45593999997E+02  0.45594000000E+02  0.51100000000E-03 0.  1.
    9900012    2    1    2    0    0  0.15746785106E+02 -0.21369783285E+02 -0.30798330106E+02  0.50528855689E+02  0.29999987352E+02 0.  0.
         12    1    1    2    0    0 -0.15746785106E+02  0.21369783285E+02  0.30798330106E+02  0.40659144311E+02  0.00000000000E+00 0. -1.
         11    1    3    3    0    0  0.19082540175E+02 -0.97872397772E+01 -0.13830537647E+02  0.25518957146E+02  0.51100000000E-03 0. -1.
        -11    1    3    3    0    0 -0.24363238232E+01 -0.99120286006E-01 -0.12369252546E+02  0.12607295801E+02  0.51100000000E-03 0.  1.
        -12    1    3    3    0    0 -0.89943124519E+00 -0.11483423221E+02 -0.45985399125E+01  0.12402602742E+02  0.00000000000E+00 0.  1.
</event>
<event>
 7    1  0.4374874E-012  0.5052879E+02  0.7816164E-02  0.1300439E+00
        -11   -1    0    0    0    0  0.00000000000E+00  0.00000000000E+00  0.45593999997E+02  0.45594000000E+02  0.51100000000E-03 0. -1.
         11   -1    0    0    0    0 -0.00000000000E+00 -0.00000000000E+00 -0.45593999997E+02  0.45594000000E+02  0.51100000000E-03 0.  1.
    9900012    2    1    2    0    0  0.33014603762E+02  0.23731983947E+02 -0.61914910264E-02  0.50528792408E+02  0.29999795004E+02 0.  0.
         12    1    1    2    0    0 -0.33014603762E+02 -0.23731983947E+02  0.61914910264E-02  0.40659207592E+02  0.00000000000E+00 0. -1.
         11    1    3    3    0    0  0.22931717632E+02  0.10182636393E+02 -0.11472345881E+01  0.25117044111E+02  0.51100000000E-03 0. -1.
        -11    1    3    3    0    0  0.42506258824E+00 -0.45665642145E+01 -0.12230731925E+01  0.47465877453E+01  0.51100000000E-03 0.  1.
         12    1    3    3    0    0  0.96578235426E+01  0.18115911769E+02  0.23641162896E+01  0.20665160552E+02  0.00000000000E+00 0. -1.
</event>
<event>
 7    1  0.4374874E-012  0.5052886E+02  0.7816164E-02  0.1300439E+00
        -11   -1    0    0    0    0  0.00000000000E+00  0.00000000000E+00  0.45593999997E+02  0.45594000000E+02  0.51100000000E-03 0. -1.
         11   -1    0    0    0    0 -0.00000000000E+00 -0.00000000000E+00 -0.45593999997E+02  0.45594000000E+02  0.51100000000E-03 0.  1.
    9900012    2    1    2    0    0 -0.12670756191E+02 -0.15662683467E+02  0.35317107549E+02  0.50528858328E+02  0.29999995375E+02 0.  0.
        -12    1    1    2    0    0  0.12670756191E+02  0.15662683467E+02 -0.35317107549E+02  0.40659141672E+02  0.00000000000E+00 0.  1.
         11    1    3    3    0    0  0.31748344964E+01 -0.54191035841E+01  0.17378865478E+02  0.18478939994E+02  0.51100000000E-03 0. -1.
        -11    1    3    3    0    0 -0.94883913831E+00  0.43126206848E+01  0.76184971952E+01  0.88057079588E+01  0.51100000000E-03 0.  1.
        -12    1    3    3    0    0 -0.14896751549E+02 -0.14556200568E+02  0.10319744875E+02  0.23244210376E+02  0.00000000000E+00 0.  1.
</event>
<event>
 7    1  0.4374874E-012  0.5052886E+02  0.7816164E-02  0.1300439E+00
        -11   -1    0    0    0    0  0.00000000000E+00  0.00000000000E+00  0.45593999997E+02  0.45594000000E+02  0.51100000000E-03 0. -1.
         11   -1    0    0    0    0 -0.00000000000E+00 -0.00000000000E+00 -0.45593999997E+02  0.45594000000E+02  0.51100000000E-03 0.  1.
    9900012    2    1    2    0    0  0.19909112544E+02 -0.12412626945E+02 -0.33207222205E+02  0.50528859865E+02  0.30000000045E+02 0.  0.
         12    1    1    2    0    0 -0.19909112544E+02  0.12412626945E+02  0.33207222205E+02  0.40659140135E+02  0.00000000000E+00 0. -1.
         11    1    3    3    0    0 -0.91251580578E-01  0.28442553166E+01  0.12626441063E+01  0.31132596353E+01  0.51100000000E-03 0. -1.
        -11    1    3    3    0    0  0.10712148107E+02 -0.13848801276E+02 -0.78515884581E+01  0.19188195731E+02  0.51100000000E-03 0.  1.
         12    1    3    3    0    0  0.92882160177E+01 -0.14080809852E+01 -0.26618277853E+02  0.28227404498E+02  0.00000000000E+00 0. -1.
</event>
<event>
 7    1  0.4374874E-012  0.5052886E+02  0.7816164E-02  0.1300439E+00
        -11   -1    0    0    0    0  0.00000000000E+00  0.00000000000E+00  0.45593999997E+02  0.45594000000E+02  0.51100000000E-03 0. -1.
         11   -1    0    0    0    0 -0.00000000000E+00 -0.00000000000E+00 -0.45593999997E+02  0.45594000000E+02  0.51100000000E-03 0.  1.
    9900012    2    1    2    0    0 -0.29876875749E+02  0.20428192578E+02 -0.18526382084E+02  0.50528860933E+02  0.30000003293E+02 0.  0.
         12    1    1    2    0    0  0.29876875749E+02 -0.20428192578E+02  0.18526382084E+02  0.40659139067E+02  0.00000000000E+00 0. -1.
         11    1    3    3    0    0 -0.53417705880E+01  0.77036134482E+01  0.29153249134E+00  0.93789746044E+01  0.51100000000E-03 0. -1.
        -11    1    3    3    0    0 -0.74602929839E+01  0.10602458837E+02 -0.20075764300E+02  0.23897791055E+02  0.51100000000E-03 0.  1.
         12    1    3    3    0    0 -0.17074812177E+02  0.21221202928E+01  0.12578497254E+01  0.17252095274E+02  0.00000000000E+00 0. -1.
</event>
<event>
 7    1  0.4374874E-012  0.5052887E+02  0.7816164E-02  0.1300439E+00
        -11   -1    0    0    0    0  0.00000000000E+00  0.00000000000E+00  0.45593999997E+02  0.45594000000E+02  0.51100000000E-03 0. -1.
         11   -1    0    0    0    0 -0.00000000000E+00 -0.00000000000E+00 -0.45593999997E+02  0.45594000000E+02  0.51100000000E-03 0.  1.
    9900012    2    1    2    0    0 -0.17833136381E+02 -0.13862621289E+01  0.36513312726E+02  0.50528874553E+02  0.30000044692E+02 0.  0.
        -12    1    1    2    0    0  0.17833136381E+02  0.13862621289E+01 -0.36513312726E+02  0.40659125447E+02  0.00000000000E+00 0.  1.
         11    1    3    3    0    0  0.31616982229E+00  0.24823912067E+01  0.32065475475E+01  0.40674533673E+01  0.51100000000E-03 0. -1.
        -11    1    3    3    0    0 -0.38989013103E-01 -0.84714953502E+01  0.23392790847E+00  0.84748142245E+01  0.51100000000E-03 0.  1.
         12    1    3    3    0    0 -0.18110317190E+02  0.46028420146E+01  0.33072837270E+02  0.37986606961E+02  0.00000000000E+00 0. -1.
</event>
<event>
 7    1  0.4374874E-012  0.5052886E+02  0.7816164E-02  0.1300439E+00
        -11   -1    0    0    0    0  0.00000000000E+00  0.00000000000E+00  0.45593999997E+02  0.45594000000E+02  0.51100000000E-03 0. -1.
         11   -1    0    0    0    0 -0.00000000000E+00 -0.00000000000E+00 -0.45593999997E+02  0.45594000000E+02  0.51100000000E-03 0.  1.
    9900012    2    1    2    0    0 -0.98227635286E+01 -0.34803253258E+02  0.18585287796E+02  0.50528855356E+02  0.29999986341E+02 0.  0.
        -12    1    1    2    0    0  0.98227635286E+01  0.34803253258E+02 -0.18585287796E+02  0.40659144644E+02  0.00000000000E+00 0.  1.
         11    1    3    3    0    0 -0.30532559233E+01 -0.50729574224E+01  0.11638971374E+02  0.13058442620E+02  0.51100000000E-03 0. -1.
        -11    1    3    3    0    0 -0.80440121001E+01 -0.73295978256E+01 -0.50842623494E+01  0.12011613499E+02  0.51100000000E-03 0.  1.
         12    1    3    3    0    0  0.12745044948E+01 -0.22400698010E+02  0.12030578771E+02  0.25458799237E+02  0.00000000000E+00 0. -1.
</event>
<event>
 7    1  0.4374874E-012  0.5052884E+02  0.7816164E-02  0.1300439E+00
        -11   -1    0    0    0    0  0.00000000000E+00  0.00000000000E+00  0.45593999997E+02  0.45594000000E+02  0.51100000000E-03 0. -1.
         11   -1    0    0    0    0 -0.00000000000E+00 -0.00000000000E+00 -0.45593999997E+02  0.45594000000E+02  0.51100000000E-03 0.  1.
    9900012    2    1    2    0    0 -0.15807515933E+01 -0.21813319640E+01 -0.40569822571E+02  0.50528837586E+02  0.29999932327E+02 0.  0.
         12    1    1    2    0    0  0.15807515933E+01  0.21813319640E+01  0.40569822571E+02  0.40659162414E+02  0.00000000000E+00 0. -1.
         11    1    3    3    0    0  0.28359854531E+01  0.16928048075E+01 -0.24112054433E+02  0.24337205485E+02  0.51100000000E-03 0. -1.
        -11    1    3    3    0    0  0.76351018502E+01 -0.29155296757E+01 -0.53079305082E+01  0.97452152411E+01  0.51100000000E-03 0.  1.
         12    1    3    3    0    0 -0.12051838897E+02 -0.95860709581E+00 -0.11149837630E+02  0.16446416860E+02  0.00000000000E+00 0. -1.
</event>
<event>
 7    1  0.4374874E-012  0.5052888E+02  0.7816164E-02  0.1300439E+00
        -11   -1    0    0    0    0  0.00000000000E+00  0.00000000000E+00  0.45593999997E+02  0.45594000000E+02  0.51100000000E-03 0. -1.
         11   -1    0    0    0    0 -0.00000000000E+00 -0.00000000000E+00 -0.45593999997E+02  0.45594000000E+02  0.51100000000E-03 0.  1.
    9900012    2    1    2    0    0  0.11901120027E+02  0.16798216618E+02  0.35062052512E+02  0.50528877213E+02  0.30000052776E+02 0.  0.
        -12    1    1    2    0    0 -0.11901120027E+02 -0.16798216618E+02 -0.35062052512E+02  0.40659122787E+02  0.00000000000E+00 0.  1.
         11    1    3    3    0    0  0.52032930798E+01 -0.61197856558E+01  0.71920026906E-03  0.80328099770E+01  0.51100000000E-03 0.  1.
        -11    1    3    3    0    0  0.15552395918E+01  0.58498453470E+01  0.70315623974E+01  0.92780564118E+01  0.51100000000E-03 0. -1.
        -12    1    3    3    0    0  0.51425873552E+01  0.17068156927E+02  0.28029770914E+02  0.33218010824E+02  0.00000000000E+00 0.  1.
</event>
<event>
 7    1  0.4374874E-012  0.5052886E+02  0.7816164E-02  0.1300439E+00
        -11   -1    0    0    0    0  0.00000000000E+00  0.00000000000E+00  0.45593999997E+02  0.45594000000E+02  0.51100000000E-03 0. -1.
         11   -1    0    0    0    0 -0.00000000000E+00 -0.00000000000E+00 -0.45593999997E+02  0.45594000000E+02  0.51100000000E-03 0.  1.
    9900012    2    1    2    0    0  0.21675046158E+02 -0.18585245362E+02  0.28947312344E+02  0.50528857571E+02  0.29999993073E+02 0.  0.
        -12    1    1    2    0    0 -0.21675046158E+02  0.18585245362E+02 -0.28947312344E+02  0.40659142429E+02  0.00000000000E+00 0.  1.
         11    1    3    3    0    0 -0.31136903475E+01 -0.53618709989E+01  0.76394178404E+01  0.98389752206E+01  0.51100000000E-03 0.  1.
        -11    1    3    3    0    0  0.44205699915E+01 -0.12181933138E+02  0.13867705443E+02  0.18980363235E+02  0.51100000000E-03 0. -1.
        -12    1    3    3    0    0  0.20368166514E+02 -0.10414412250E+01  0.74401890613E+01  0.21709519116E+02  0.00000000000E+00 0.  1.
</event>
<event>
 7    1  0.4374874E-012  0.5052883E+02  0.7816164E-02  0.1300439E+00
        -11   -1    0    0    0    0  0.00000000000E+00  0.00000000000E+00  0.45593999997E+02  0.45594000000E+02  0.51100000000E-03 0. -1.
         11   -1    0    0    0    0 -0.00000000000E+00 -0.00000000000E+00 -0.45593999997E+02  0.45594000000E+02  0.51100000000E-03 0.  1.
    9900012    2    1    2    0    0  0.17915616446E+02  0.77651722602E+01  0.35663715765E+02  0.50528833321E+02  0.29999919363E+02 0.  0.
        -12    1    1    2    0    0 -0.17915616446E+02 -0.77651722602E+01 -0.35663715765E+02  0.40659166679E+02  0.00000000000E+00 0.  1.
         11    1    3    3    0    0  0.12974096164E+02 -0.64613547902E+00  0.17118077059E+02  0.21488909344E+02  0.51100000000E-03 0. -1.
        -11    1    3    3    0    0  0.95994485168E+01  0.10954415227E+02  0.66447997127E+01  0.16009434352E+02  0.51100000000E-03 0.  1.
         12    1    3    3    0    0 -0.46579282349E+01 -0.25431074876E+01  0.11900838993E+02  0.13030489625E+02  0.00000000000E+00 0. -1.
</event>
<event>
 7    1  0.4374874E-012  0.5052887E+02  0.7816164E-02  0.1300439E+00
        -11   -1    0    0    0    0  0.00000000000E+00  0.00000000000E+00  0.45593999997E+02  0.45594000000E+02  0.51100000000E-03 0. -1.
         11   -1    0    0    0    0 -0.00000000000E+00 -0.00000000000E+00 -0.45593999997E+02  0.45594000000E+02  0.51100000000E-03 0.  1.
    9900012    2    1    2    0    0  0.22597904825E+01  0.33241572739E+02 -0.23303570263E+02  0.50528865746E+02  0.30000017923E+02 0.  0.
         12    1    1    2    0    0 -0.22597904825E+01 -0.33241572739E+02  0.23303570263E+02  0.40659134254E+02  0.00000000000E+00 0. -1.
         11    1    3    3    0    0 -0.70126610330E+01  0.88449141439E+01  0.17971572214E+01  0.11429772321E+02  0.51100000000E-03 0. -1.
        -11    1    3    3    0    0  0.23342242981E+01 -0.11386343663E+01 -0.57750360615E+01  0.63321507457E+01  0.51100000000E-03 0.  1.
        -12    1    3    3    0    0  0.69382272174E+01  0.25535292962E+02 -0.19325691423E+02  0.32766942680E+02  0.00000000000E+00 0.  1.
</event>
<event>
 7    1  0.4374874E-012  0.5052885E+02  0.7816164E-02  0.1300439E+00
        -11   -1    0    0    0    0  0.00000000000E+00  0.00000000000E+00  0.45593999997E+02  0.45594000000E+02  0.51100000000E-03 0. -1.
         11   -1    0    0    0    0 -0.00000000000E+00 -0.00000000000E+00 -0.45593999997E+02  0.45594000000E+02  0.51100000000E-03 0.  1.
    9900012    2    1    2    0    0  0.37681247049E+02  0.10276587300E+01  0.15239227580E+02  0.50528849507E+02  0.29999968560E+02 0.  0.
        -12    1    1    2    0    0 -0.37681247049E+02 -0.10276587300E+01 -0.15239227580E+02  0.40659150493E+02  0.00000000000E+00 0.  1.
         11    1    3    3    0    0  0.16676800196E+02  0.21917612687E+01 -0.44648419754E+01  0.17402709455E+02  0.51100000000E-03 0. -1.
        -11    1    3    3    0    0  0.28445508660E+01 -0.30498798848E+01 -0.21148796645E+01  0.46761044896E+01  0.51100000000E-03 0.  1.
        -12    1    3    3    0    0  0.18159895987E+02  0.18857773461E+01  0.21818949220E+02  0.28450035562E+02  0.00000000000E+00 0.  1.
</event>
<event>
 7    1  0.4374874E-012  0.5052886E+02  0.7816164E-02  0.1300439E+00
        -11   -1    0    0    0    0  0.00000000000E+00  0.00000000000E+00  0.45593999997E+02  0.45594000000E+02  0.51100000000E-03 0. -1.
         11   -1    0    0    0    0 -0.00000000000E+00 -0.00000000000E+00 -0.45593999997E+02  0.45594000000E+02  0.51100000000E-03 0.  1.
    9900012    2    1    2    0    0 -0.10011940215E+02  0.72995796300E+01  0.38725222811E+02  0.50528859682E+02  0.29999999489E+02 0.  0.
        -12    1    1    2    0    0  0.10011940215E+02 -0.72995796300E+01 -0.38725222811E+02  0.40659140318E+02  0.00000000000E+00 0.  1.
         11    1    3    3    0    0 -0.87257214210E+01  0.12113564794E+02  0.22091388607E+02  0.26662822753E+02  0.51100000000E-03 0. -1.
        -11    1    3    3    0    0  0.25378269508E+01 -0.25008480525E+01  0.18632614628E+02  0.18970217045E+02  0.51100000000E-03 0.  1.
        -12    1    3    3    0    0 -0.38240457447E+01 -0.23131371111E+01 -0.19987804234E+01  0.48958198836E+01  0.00000000000E+00 0.  1.
</event>
<event>
 7    1  0.4374874E-012  0.5052885E+02  0.7816164E-02  0.1300439E+00
        -11   -1    0    0    0    0  0.00000000000E+00  0.00000000000E+00  0.45593999997E+02  0.45594000000E+02  0.51100000000E-03 0. -1.
         11   -1    0    0    0    0 -0.00000000000E+00 -0.00000000000E+00 -0.45593999997E+02  0.45594000000E+02  0.51100000000E-03 0.  1.
    9900012    2    1    2    0    0  0.14443552998E+00 -0.14395220272E+02 -0.38025296282E+02  0.50528851145E+02  0.29999973539E+02 0.  0.
         12    1    1    2    0    0 -0.14443552998E+00  0.14395220272E+02  0.38025296282E+02  0.40659148855E+02  0.00000000000E+00 0. -1.
         11    1    3    3    0    0 -0.10510600360E+01  0.32901330181E+00  0.15114491950E+01  0.18701486257E+01  0.51100000000E-03 0. -1.
        -11    1    3    3    0    0  0.44031456540E+01  0.10396494739E+01 -0.29174608808E+02  0.29523318954E+02  0.51100000000E-03 0.  1.
         12    1    3    3    0    0 -0.32076500880E+01 -0.15763883048E+02 -0.10362136668E+02  0.19135383565E+02  0.00000000000E+00 0. -1.
</event>
<event>
 7    1  0.4374874E-012  0.5052887E+02  0.7816164E-02  0.1300439E+00
        -11   -1    0    0    0    0  0.00000000000E+00  0.00000000000E+00  0.45593999997E+02  0.45594000000E+02  0.51100000000E-03 0. -1.
         11   -1    0    0    0    0 -0.00000000000E+00 -0.00000000000E+00 -0.45593999997E+02  0.45594000000E+02  0.51100000000E-03 0.  1.
    9900012    2    1    2    0    0  0.83202434384E+01 -0.27404552642E+02 -0.28860512801E+02  0.50528866272E+02  0.30000019519E+02 0.  0.
         12    1    1    2    0    0 -0.83202434384E+01  0.27404552642E+02  0.28860512801E+02  0.40659133728E+02  0.00000000000E+00 0. -1.
         11    1    3    3    0    0 -0.46123778459E+01 -0.10357211337E+02 -0.24984444741E+02  0.27436623978E+02  0.51100000000E-03 0.  1.
        -11    1    3    3    0    0  0.78234256273E+01 -0.48529450025E+01 -0.35489865582E+01  0.98667304410E+01  0.51100000000E-03 0. -1.
        -12    1    3    3    0    0  0.51091956570E+01 -0.12194396303E+02 -0.32708150237E+00  0.13225511852E+02  0.00000000000E+00 0.  1.
</event>
<event>
 7    1  0.4374874E-012  0.5052890E+02  0.7816164E-02  0.1300439E+00
        -11   -1    0    0    0    0  0.00000000000E+00  0.00000000000E+00  0.45593999997E+02  0.45594000000E+02  0.51100000000E-03 0. -1.
         11   -1    0    0    0    0 -0.00000000000E+00 -0.00000000000E+00 -0.45593999997E+02  0.45594000000E+02  0.51100000000E-03 0.  1.
    9900012    2    1    2    0    0 -0.31291279238E+02  0.14969797062E+02 -0.21211400449E+02  0.50528899058E+02  0.30000119177E+02 0.  0.
         12    1    1    2    0    0  0.31291279238E+02 -0.14969797062E+02  0.21211400449E+02  0.40659100942E+02  0.00000000000E+00 0. -1.
         11    1    3    3    0    0 -0.45423705817E+01 -0.15756264025E+00 -0.15752010402E+02  0.16394626817E+02  0.51100000000E-03 0. -1.
        -11    1    3    3    0    0 -0.11816348620E+02  0.31663684297E+01 -0.83127449693E+01  0.14790324977E+02  0.51100000000E-03 0.  1.
        -12    1    3    3    0    0 -0.14932560036E+02  0.11960991272E+02  0.28533549229E+01  0.19343947264E+02  0.00000000000E+00 0.  1.
</event>
<event>
 7    1  0.5430020E-012  0.5052883E+02  0.7816164E-02  0.1300439E+00
        -11   -1    0    0    0    0  0.00000000000E+00  0.00000000000E+00  0.45593999997E+02  0.45594000000E+02  0.51100000000E-03 0. -1.
         11   -1    0    0    0    0 -0.00000000000E+00 -0.00000000000E+00 -0.45593999997E+02  0.45594000000E+02  0.51100000000E-03 0.  1.
    9900012    2    1    2    0    0 -0.49594187500E+01  0.13638311235E+02 -0.37981162371E+02  0.50528830521E+02  0.29999910851E+02 0.  0.
         12    1    1    2    0    0  0.49594187500E+01 -0.13638311235E+02  0.37981162371E+02  0.40659169479E+02  0.00000000000E+00 0. -1.
         11    1    3    3    0    0 -0.13597463936E+01  0.93191185900E+01 -0.25176638572E+02  0.26880439200E+02  0.51100000000E-03 0. -1.
        -11    1    3    3    0    0 -0.88430449880E+01  0.91456315696E+01 -0.75409007590E+01  0.14788752685E+02  0.51100000000E-03 0.  1.
         12    1    3    3    0    0  0.52433726316E+01 -0.48264389241E+01 -0.52636230404E+01  0.88596386356E+01  0.00000000000E+00 0. -1.
</event>
<event>
 7    1  0.4374874E-012  0.5052887E+02  0.7816164E-02  0.1300439E+00
        -11   -1    0    0    0    0  0.00000000000E+00  0.00000000000E+00  0.45593999997E+02  0.45594000000E+02  0.51100000000E-03 0.  1.
         11   -1    0    0    0    0 -0.00000000000E+00 -0.00000000000E+00 -0.45593999997E+02  0.45594000000E+02  0.51100000000E-03 0. -1.
    9900012    2    1    2    0    0 -0.36527318296E+02  0.99506283696E+01 -0.14829196611E+02  0.50528867459E+02  0.30000023129E+02 0.  0.
         12    1    1    2    0    0  0.36527318296E+02 -0.99506283696E+01  0.14829196611E+02  0.40659132541E+02  0.00000000000E+00 0. -1.
         11    1    3    3    0    0 -0.47194916753E+01 -0.26365548503E+00  0.61601187433E+01  0.77646750789E+01  0.51100000000E-03 0. -1.
        -11    1    3    3    0    0 -0.59950125997E+01 -0.45401106458E+01 -0.39138045787E+01  0.84776557661E+01  0.51100000000E-03 0.  1.
        -12    1    3    3    0    0 -0.25812814021E+02  0.14754394500E+02 -0.17075510775E+02  0.34286536614E+02  0.00000000000E+00 0.  1.
</event>
<event>
 7    1  0.4374874E-012  0.5052887E+02  0.7816164E-02  0.1300439E+00
        -11   -1    0    0    0    0  0.00000000000E+00  0.00000000000E+00  0.45593999997E+02  0.45594000000E+02  0.51100000000E-03 0. -1.
         11   -1    0    0    0    0 -0.00000000000E+00 -0.00000000000E+00 -0.45593999997E+02  0.45594000000E+02  0.51100000000E-03 0.  1.
    9900012    2    1    2    0    0 -0.33844818401E+02  0.15917417883E+02  0.15947684637E+02  0.50528873473E+02  0.30000041408E+02 0.  0.
        -12    1    1    2    0    0  0.33844818401E+02 -0.15917417883E+02 -0.15947684637E+02  0.40659126527E+02  0.00000000000E+00 0.  1.
         11    1    3    3    0    0 -0.16001463835E+02  0.15266157932E+02 -0.10323254448E+01  0.22139740716E+02  0.51100000000E-03 0. -1.
        -11    1    3    3    0    0 -0.82526052475E+01  0.32366670759E+01  0.17305312772E+00  0.88663100993E+01  0.51100000000E-03 0.  1.
         12    1    3    3    0    0 -0.95907493181E+01 -0.25854071243E+01  0.16806956954E+02  0.19522822658E+02  0.00000000000E+00 0. -1.
</event>
<event>
 7    1  0.4374874E-012  0.5052887E+02  0.7816164E-02  0.1300439E+00
        -11   -1    0    0    0    0  0.00000000000E+00  0.00000000000E+00  0.45593999997E+02  0.45594000000E+02  0.51100000000E-03 0.  1.
         11   -1    0    0    0    0 -0.00000000000E+00 -0.00000000000E+00 -0.45593999997E+02  0.45594000000E+02  0.51100000000E-03 0. -1.
    9900012    2    1    2    0    0 -0.29560781137E+02 -0.27645540911E+02 -0.38793705402E+01  0.50528865362E+02  0.30000016754E+02 0.  0.
         12    1    1    2    0    0  0.29560781137E+02  0.27645540911E+02  0.38793705402E+01  0.40659134638E+02  0.00000000000E+00 0. -1.
         11    1    3    3    0    0 -0.41511514969E+01 -0.81911713953E+01 -0.64146534865E+01  0.11201568068E+02  0.51100000000E-03 0. -1.
        -11    1    3    3    0    0 -0.27110153926E+02 -0.14561361952E+02 -0.39515737583E+01  0.31025935009E+02  0.51100000000E-03 0.  1.
         12    1    3    3    0    0  0.17005242854E+01 -0.48930075641E+01  0.64868567046E+01  0.83013622842E+01  0.00000000000E+00 0. -1.
</event>
<event>
 7    1  0.4374874E-012  0.5052886E+02  0.7816164E-02  0.1300439E+00
        -11   -1    0    0    0    0  0.00000000000E+00  0.00000000000E+00  0.45593999997E+02  0.45594000000E+02  0.51100000000E-03 0. -1.
         11   -1    0    0    0    0 -0.00000000000E+00 -0.00000000000E+00 -0.45593999997E+02  0.45594000000E+02  0.51100000000E-03 0.  1.
    9900012    2    1    2    0    0 -0.41103362223E+01  0.24376980267E+02  0.32280549051E+02  0.50528857389E+02  0.29999992519E+02 0.  0.
        -12    1    1    2    0    0  0.41103362223E+01 -0.24376980267E+02 -0.32280549051E+02  0.40659142611E+02  0.00000000000E+00 0.  1.
         11    1    3    3    0    0 -0.10665544344E+02  0.53656496273E+01  0.13545767024E+02  0.18056351697E+02  0.51100000000E-03 0.  1.
        -11    1    3    3    0    0 -0.15998643455E+01  0.13001280950E+02  0.18072311284E+02  0.22320423555E+02  0.51100000000E-03 0. -1.
        -12    1    3    3    0    0  0.81550724675E+01  0.60100496904E+01  0.66247074338E+00  0.10152082137E+02  0.00000000000E+00 0.  1.
</event>
<event>
 7    1  0.4374874E-012  0.5052885E+02  0.7816164E-02  0.1300439E+00
        -11   -1    0    0    0    0  0.00000000000E+00  0.00000000000E+00  0.45593999997E+02  0.45594000000E+02  0.51100000000E-03 0.  1.
         11   -1    0    0    0    0 -0.00000000000E+00 -0.00000000000E+00 -0.45593999997E+02  0.45594000000E+02  0.51100000000E-03 0. -1.
    9900012    2    1    2    0    0 -0.48216255580E+00 -0.39626987481E+02  0.90904255712E+01  0.50528850297E+02  0.29999970962E+02 0.  0.
        -12    1    1    2    0    0  0.48216255580E+00  0.39626987481E+02 -0.90904255712E+01  0.40659149703E+02  0.00000000000E+00 0.  1.
         11    1    3    3    0    0  0.10031664957E+02 -0.82226590287E+01  0.98006607672E+01  0.16257286829E+02  0.51100000000E-03 0. -1.
        -11    1    3    3    0    0 -0.32659632796E+01 -0.13873560001E+02  0.38450456743E+01  0.14762335850E+02  0.51100000000E-03 0.  1.
        -12    1    3    3    0    0 -0.72478642335E+01 -0.17530768451E+02 -0.45552808703E+01  0.19509227618E+02  0.00000000000E+00 0.  1.
</event>
<event>
 7    1  0.4374874E-012  0.5052885E+02  0.7816164E-02  0.1300439E+00
        -11   -1    0    0    0    0  0.00000000000E+00  0.00000000000E+00  0.45593999997E+02  0.45594000000E+02  0.51100000000E-03 0.  1.
         11   -1    0    0    0    0 -0.00000000000E+00 -0.00000000000E+00 -0.45593999997E+02  0.45594000000E+02  0.51100000000E-03 0. -1.
    9900012    2    1    2    0    0  0.85484319259E+01 -0.37932410685E+02 -0.11883733722E+02  0.50528848558E+02  0.29999965678E+02 0.  0.
         12    1    1    2    0    0 -0.85484319259E+01  0.37932410685E+02  0.11883733722E+02  0.40659151442E+02  0.00000000000E+00 0. -1.
         11    1    3    3    0    0  0.10610587389E+02 -0.11924732705E+02  0.68470255224E+00  0.15976627701E+02  0.51100000000E-03 0. -1.
        -11    1    3    3    0    0 -0.33126244876E+01 -0.28724943154E+02 -0.99575376525E+01  0.30581831151E+02  0.51100000000E-03 0.  1.
         12    1    3    3    0    0  0.12504690240E+01  0.27172651742E+01 -0.26108986215E+01  0.39703897061E+01  0.00000000000E+00 0. -1.
</event>
<event>
 7    1  0.4374874E-012  0.5052886E+02  0.7816164E-02  0.1300439E+00
        -11   -1    0    0    0    0  0.00000000000E+00  0.00000000000E+00  0.45593999997E+02  0.45594000000E+02  0.51100000000E-03 0. -1.
         11   -1    0    0    0    0 -0.00000000000E+00 -0.00000000000E+00 -0.45593999997E+02  0.45594000000E+02  0.51100000000E-03 0.  1.
    9900012    2    1    2    0    0  0.29654929922E+02  0.51458468958E+00 -0.27811616025E+02  0.50528860167E+02  0.30000000963E+02 0.  0.
         12    1    1    2    0    0 -0.29654929922E+02 -0.51458468958E+00  0.27811616025E+02  0.40659139833E+02  0.00000000000E+00 0. -1.
         11    1    3    3    0    0 -0.77547695463E+00 -0.48884839148E+01 -0.91980811526E+01  0.10445254264E+02  0.51100000000E-03 0. -1.
        -11    1    3    3    0    0  0.89395921151E+01 -0.46662052807E+01 -0.26940809621E+00  0.10087733139E+02  0.51100000000E-03 0.  1.
        -12    1    3    3    0    0  0.21490814761E+02  0.10069273885E+02 -0.18344126776E+02  0.29995872763E+02  0.00000000000E+00 0.  1.
</event>
<event>
 7    1  0.4374874E-012  0.5052885E+02  0.7816164E-02  0.1300439E+00
        -11   -1    0    0    0    0  0.00000000000E+00  0.00000000000E+00  0.45593999997E+02  0.45594000000E+02  0.51100000000E-03 0. -1.
         11   -1    0    0    0    0 -0.00000000000E+00 -0.00000000000E+00 -0.45593999997E+02  0.45594000000E+02  0.51100000000E-03 0.  1.
    9900012    2    1    2    0    0  0.88321696742E+00 -0.49222931290E+01 -0.40350430275E+02  0.50528852625E+02  0.29999978039E+02 0.  0.
         12    1    1    2    0    0 -0.88321696742E+00  0.49222931290E+01  0.40350430275E+02  0.40659147375E+02  0.00000000000E+00 0. -1.
         11    1    3    3    0    0 -0.24137240076E+01  0.63282939671E+01 -0.60760210524E+01  0.90989779761E+01  0.51100000000E-03 0. -1.
        -11    1    3    3    0    0 -0.76429003268E+01 -0.13035940690E+01 -0.17046763779E+02  0.18727131081E+02  0.51100000000E-03 0.  1.
        -12    1    3    3    0    0  0.10939841302E+02 -0.99469930272E+01 -0.17227645443E+02  0.22702743568E+02  0.00000000000E+00 0.  1.
</event>
<event>
 7    1  0.4374874E-012  0.5052887E+02  0.7816164E-02  0.1300439E+00
        -11   -1    0    0    0    0  0.00000000000E+00  0.00000000000E+00  0.45593999997E+02  0.45594000000E+02  0.51100000000E-03 0. -1.
         11   -1    0    0    0    0 -0.00000000000E+00 -0.00000000000E+00 -0.45593999997E+02  0.45594000000E+02  0.51100000000E-03 0.  1.
    9900012    2    1    2    0    0  0.52436496680E+01 -0.14503333520E+02  0.37620770033E+02  0.50528869624E+02  0.30000029709E+02 0.  0.
        -12    1    1    2    0    0 -0.52436496680E+01  0.14503333520E+02 -0.37620770033E+02  0.40659130376E+02  0.00000000000E+00 0.  1.
         11    1    3    3    0    0  0.64433858357E+01 -0.57902476678E-01  0.80485095736E+01  0.10310144535E+02  0.51100000000E-03 0. -1.
        -11    1    3    3    0    0  0.80634632768E+01  0.19851641819E+01  0.75534849099E+01  0.11225660399E+02  0.51100000000E-03 0.  1.
         12    1    3    3    0    0 -0.92631994445E+01 -0.16430595225E+02  0.22018775550E+02  0.28993064690E+02  0.00000000000E+00 0. -1.
</event>
<event>
 7    1  0.4374874E-012  0.5052887E+02  0.7816164E-02  0.1300439E+00
        -11   -1    0    0    0    0  0.00000000000E+00  0.00000000000E+00  0.45593999997E+02  0.45594000000E+02  0.51100000000E-03 0. -1.
         11   -1    0    0    0    0 -0.00000000000E+00 -0.00000000000E+00 -0.45593999997E+02  0.45594000000E+02  0.51100000000E-03 0.  1.
    9900012    2    1    2    0    0 -0.91508900659E+01  0.93775488239E+01  0.38490096399E+02  0.50528871483E+02  0.30000035360E+02 0.  0.
        -12    1    1    2    0    0  0.91508900659E+01 -0.93775488239E+01 -0.38490096399E+02  0.40659128517E+02  0.00000000000E+00 0.  1.
         11    1    3    3    0    0 -0.69998844276E+00  0.76544751137E+01  0.30347842820E+02  0.31306110221E+02  0.51100000000E-03 0. -1.
        -11    1    3    3    0    0  0.44278862439E+01  0.80127005797E+00  0.19895888241E+01  0.49200278703E+01  0.51100000000E-03 0.  1.
        -12    1    3    3    0    0 -0.12878787867E+02  0.92180365217E+00  0.61526647551E+01  0.14302733392E+02  0.00000000000E+00 0.  1.
</event>
<event>
 7    1  0.4374874E-012  0.5052886E+02  0.7816164E-02  0.1300439E+00
        -11   -1    0    0    0    0  0.00000000000E+00  0.00000000000E+00  0.45593999997E+02  0.45594000000E+02  0.51100000000E-03 0. -1.
         11   -1    0    0    0    0 -0.00000000000E+00 -0.00000000000E+00 -0.45593999997E+02  0.45594000000E+02  0.51100000000E-03 0.  1.
    9900012    2    1    2    0    0 -0.85776101892E+01  0.16303404476E+02  0.36246230704E+02  0.50528860384E+02  0.30000001625E+02 0.  0.
        -12    1    1    2    0    0  0.85776101892E+01 -0.16303404476E+02 -0.36246230704E+02  0.40659139616E+02  0.00000000000E+00 0.  1.
         11    1    3    3    0    0 -0.76040915870E+01  0.13692785286E+02  0.11910264192E+02  0.19676609747E+02  0.51100000000E-03 0. -1.
        -11    1    3    3    0    0  0.81402824722E+01  0.83369338465E+00  0.55222372528E+01  0.98718968757E+01  0.51100000000E-03 0.  1.
         12    1    3    3    0    0 -0.91138010744E+01  0.17769258051E+01  0.18813729259E+02  0.20980353762E+02  0.00000000000E+00 0. -1.
</event>
<event>
 7    1  0.4374874E-012  0.5052886E+02  0.7816164E-02  0.1300439E+00
        -11   -1    0    0    0    0  0.00000000000E+00  0.00000000000E+00  0.45593999997E+02  0.45594000000E+02  0.51100000000E-03 0. -1.
         11   -1    0    0    0    0 -0.00000000000E+00 -0.00000000000E+00 -0.45593999997E+02  0.45594000000E+02  0.51100000000E-03 0.  1.
    9900012    2    1    2    0    0  0.37025977386E+01  0.84982388577E+01 -0.39588338133E+02  0.50528858225E+02  0.29999995062E+02 0.  0.
         12    1    1    2    0    0 -0.37025977386E+01 -0.84982388577E+01  0.39588338133E+02  0.40659141775E+02  0.00000000000E+00 0. -1.
         11    1    3    3    0    0 -0.74966584086E+01 -0.79432931334E+00 -0.17447055014E+01  0.77378836836E+01  0.51100000000E-03 0. -1.
        -11    1    3    3    0    0 -0.27068210064E+01  0.29940887204E+01 -0.13187980930E+02  0.13791819623E+02  0.51100000000E-03 0.  1.
        -12    1    3    3    0    0  0.13906077154E+02  0.62984794507E+01 -0.24655651702E+02  0.28999154919E+02  0.00000000000E+00 0.  1.
</event>
<event>
 7    1  0.4374874E-012  0.5052886E+02  0.7816164E-02  0.1300439E+00
        -11   -1    0    0    0    0  0.00000000000E+00  0.00000000000E+00  0.45593999997E+02  0.45594000000E+02  0.51100000000E-03 0. -1.
         11   -1    0    0    0    0 -0.00000000000E+00 -0.00000000000E+00 -0.45593999997E+02  0.45594000000E+02  0.51100000000E-03 0.  1.
    9900012    2    1    2    0    0  0.39322238266E+01 -0.94189405253E+01 -0.39357165128E+02  0.50528864843E+02  0.30000015176E+02 0.  0.
         12    1    1    2    0    0 -0.39322238266E+01  0.94189405253E+01  0.39357165128E+02  0.40659135157E+02  0.00000000000E+00 0. -1.
         11    1    3    3    0    0  0.86622118523E+01  0.94220473390E+00 -0.65386579562E+01  0.10893838261E+02  0.51100000000E-03 0. -1.
        -11    1    3    3    0    0 -0.52236238697E+01 -0.31029669442E+01 -0.57517763933E-01  0.60760150381E+01  0.51100000000E-03 0.  1.
        -12    1    3    3    0    0  0.49363584402E+00 -0.72581783150E+01 -0.32760989408E+02  0.33559011543E+02  0.00000000000E+00 0.  1.
</event>
<event>
 7    1  0.4374874E-012  0.5052886E+02  0.7816164E-02  0.1300439E+00
        -11   -1    0    0    0    0  0.00000000000E+00  0.00000000000E+00  0.45593999997E+02  0.45594000000E+02  0.51100000000E-03 0. -1.
         11   -1    0    0    0    0 -0.00000000000E+00 -0.00000000000E+00 -0.45593999997E+02  0.45594000000E+02  0.51100000000E-03 0.  1.
    9900012    2    1    2    0    0 -0.50901202172E+01  0.40660695744E+01  0.40133821455E+02  0.50528857484E+02  0.29999992807E+02 0.  0.
        -12    1    1    2    0    0  0.50901202172E+01 -0.40660695744E+01 -0.40133821455E+02  0.40659142516E+02  0.00000000000E+00 0.  1.
         11    1    3    3    0    0  0.41903675365E+01  0.44648823463E+01  0.17486528181E+02  0.18527628627E+02  0.51100000000E-03 0. -1.
        -11    1    3    3    0    0 -0.67602515311E+01  0.97542154912E+01  0.95127209613E+01  0.15209785697E+02  0.51100000000E-03 0.  1.
         12    1    3    3    0    0 -0.25202362227E+01 -0.10153028263E+02  0.13134572313E+02  0.16791443159E+02  0.00000000000E+00 0. -1.
</event>
<event>
 7    1  0.4374874E-012  0.5052887E+02  0.7816164E-02  0.1300439E+00
        -11   -1    0    0    0    0  0.00000000000E+00  0.00000000000E+00  0.45593999997E+02  0.45594000000E+02  0.51100000000E-03 0. -1.
         11   -1    0    0    0    0 -0.00000000000E+00 -0.00000000000E+00 -0.45593999997E+02  0.45594000000E+02  0.51100000000E-03 0.  1.
    9900012    2    1    2    0    0  0.25201188538E+01 -0.28359840023E+02  0.29026418889E+02  0.50528874103E+02  0.30000043323E+02 0.  0.
        -12    1    1    2    0    0 -0.25201188538E+01  0.28359840023E+02 -0.29026418889E+02  0.40659125897E+02  0.00000000000E+00 0.  1.
         11    1    3    3    0    0  0.62982679557E+01 -0.26586773072E+01 -0.17351704589E+01  0.70531950950E+01  0.51100000000E-03 0. -1.
        -11    1    3    3    0    0  0.45018684239E+00 -0.14821197009E+02  0.58043232340E+01  0.15923589967E+02  0.51100000000E-03 0.  1.
        -12    1    3    3    0    0 -0.42283359442E+01 -0.10879965708E+02  0.24957266114E+02  0.27552089041E+02  0.00000000000E+00 0.  1.
</event>
<event>
 7    1  0.4374874E-012  0.5052884E+02  0.7816164E-02  0.1300439E+00
        -11   -1    0    0    0    0  0.00000000000E+00  0.00000000000E+00  0.45593999997E+02  0.45594000000E+02  0.51100000000E-03 0. -1.
         11   -1    0    0    0    0 -0.00000000000E+00 -0.00000000000E+00 -0.45593999997E+02  0.45594000000E+02  0.51100000000E-03 0.  1.
    9900012    2    1    2    0    0  0.85046057771E+00 -0.13169072744E+02  0.38458019522E+02  0.50528843274E+02  0.29999949615E+02 0.  0.
        -12    1    1    2    0    0 -0.85046057771E+00  0.13169072744E+02 -0.38458019522E+02  0.40659156726E+02  0.00000000000E+00 0.  1.
         11    1    3    3    0    0  0.27994303937E+00 -0.33834806279E+01  0.18208502928E+02  0.18522307858E+02  0.51100000000E-03 0. -1.
        -11    1    3    3    0    0  0.86665851101E+01 -0.62006897215E+01  0.85999649833E+00  0.10691017011E+02  0.51100000000E-03 0.  1.
         12    1    3    3    0    0 -0.80960675718E+01 -0.35849023943E+01  0.19389520096E+02  0.21315518405E+02  0.00000000000E+00 0. -1.
</event>
<event>
 7    1  0.6590625E-012  0.5052883E+02  0.7816164E-02  0.1300439E+00
        -11   -1    0    0    0    0  0.00000000000E+00  0.00000000000E+00  0.45593999997E+02  0.45594000000E+02  0.51100000000E-03 0. -1.
         11   -1    0    0    0    0 -0.00000000000E+00 -0.00000000000E+00 -0.45593999997E+02  0.45594000000E+02  0.51100000000E-03 0.  1.
    9900012    2    1    2    0    0 -0.15416944154E+01 -0.21650887683E+02 -0.34380669851E+02  0.50528828605E+02  0.29999905027E+02 0.  0.
         12    1    1    2    0    0  0.15416944154E+01  0.21650887683E+02  0.34380669851E+02  0.40659171395E+02  0.00000000000E+00 0. -1.
         11    1    3    3    0    0 -0.27813539892E+01 -0.14914012502E+02 -0.20128866092E+02  0.25205851490E+02  0.51100000000E-03 0.  1.
        -11    1    3    3    0    0  0.91728937328E+01 -0.80081462707E+00 -0.12063434052E+02  0.15175958780E+02  0.51100000000E-03 0. -1.
         12    1    3    3    0    0 -0.79332341589E+01 -0.59360605540E+01 -0.21883697074E+01  0.10147018335E+02  0.00000000000E+00 0. -1.
</event>
<event>
 7    1  0.4374874E-012  0.5052883E+02  0.7816164E-02  0.1300439E+00
        -11   -1    0    0    0    0  0.00000000000E+00  0.00000000000E+00  0.45593999997E+02  0.45594000000E+02  0.51100000000E-03 0. -1.
         11   -1    0    0    0    0 -0.00000000000E+00 -0.00000000000E+00 -0.45593999997E+02  0.45594000000E+02  0.51100000000E-03 0.  1.
    9900012    2    1    2    0    0  0.10952128600E+02 -0.48993064732E+01  0.38848629086E+02  0.50528827521E+02  0.29999901733E+02 0.  0.
        -12    1    1    2    0    0 -0.10952128600E+02  0.48993064732E+01 -0.38848629086E+02  0.40659172479E+02  0.00000000000E+00 0.  1.
         11    1    3    3    0    0  0.75528112463E+01 -0.35844601786E+01  0.10033117108E+02  0.13059737810E+02  0.51100000000E-03 0. -1.
        -11    1    3    3    0    0  0.97008971583E+01  0.74253594775E+01  0.10003032499E+02  0.15789364410E+02  0.51100000000E-03 0.  1.
         12    1    3    3    0    0 -0.63015798047E+01 -0.87402057721E+01  0.18812479479E+02  0.21679725301E+02  0.00000000000E+00 0. -1.
</event>
<event>
 7    1  0.4374874E-012  0.5052887E+02  0.7816164E-02  0.1300439E+00
        -11   -1    0    0    0    0  0.00000000000E+00  0.00000000000E+00  0.45593999997E+02  0.45594000000E+02  0.51100000000E-03 0. -1.
         11   -1    0    0    0    0 -0.00000000000E+00 -0.00000000000E+00 -0.45593999997E+02  0.45594000000E+02  0.51100000000E-03 0.  1.
    9900012    2    1    2    0    0  0.19781232817E+02 -0.33940137218E+02 -0.10484992023E+02  0.50528866415E+02  0.30000019956E+02 0.  0.
         12    1    1    2    0    0 -0.19781232817E+02  0.33940137218E+02  0.10484992023E+02  0.40659133585E+02  0.00000000000E+00 0. -1.
         11    1    3    3    0    0  0.80966189754E+01 -0.14289667465E+02 -0.11255729824E+02  0.19910833464E+02  0.51100000000E-03 0.  1.
        -11    1    3    3    0    0  0.96802965715E+01 -0.17171723457E+02  0.90912700535E+01  0.21707773254E+02  0.51100000000E-03 0. -1.
         12    1    3    3    0    0  0.20043172699E+01 -0.24787462966E+01 -0.83205322518E+01  0.89102596973E+01  0.00000000000E+00 0. -1.
</event>
<event>
 7    1  0.4374874E-012  0.5052879E+02  0.7816164E-02  0.1300439E+00
        -11   -1    0    0    0    0  0.00000000000E+00  0.00000000000E+00  0.45593999997E+02  0.45594000000E+02  0.51100000000E-03 0. -1.
         11   -1    0    0    0    0 -0.00000000000E+00 -0.00000000000E+00 -0.45593999997E+02  0.45594000000E+02  0.51100000000E-03 0.  1.
    9900012    2    1    2    0    0 -0.12446078566E+02  0.27323119218E+01  0.38610893134E+02  0.50528788636E+02  0.29999783537E+02 0.  0.
        -12    1    1    2    0    0  0.12446078566E+02 -0.27323119218E+01 -0.38610893134E+02  0.40659211364E+02  0.00000000000E+00 0.  1.
         11    1    3    3    0    0  0.30315700673E+01 -0.19385090008E+01  0.67206367296E+01  0.76233321147E+01  0.51100000000E-03 0. -1.
        -11    1    3    3    0    0  0.11281957190E+00  0.41190432966E+01 -0.27230467226E+01  0.49390514929E+01  0.51100000000E-03 0.  1.
         12    1    3    3    0    0 -0.15590468205E+02  0.55177762602E+00  0.34613303127E+02  0.37966405028E+02  0.00000000000E+00 0. -1.
</event>
<event>
 7    1  0.4374874E-012  0.5052886E+02  0.7816164E-02  0.1300439E+00
        -11   -1    0    0    0    0  0.00000000000E+00  0.00000000000E+00  0.45593999997E+02  0.45594000000E+02  0.51100000000E-03 0. -1.
         11   -1    0    0    0    0 -0.00000000000E+00 -0.00000000000E+00 -0.45593999997E+02  0.45594000000E+02  0.51100000000E-03 0.  1.
    9900012    2    1    2    0    0  0.32834713480E+01  0.38499030438E+02  0.12657368947E+02  0.50528861822E+02  0.30000005993E+02 0.  0.
        -12    1    1    2    0    0 -0.32834713480E+01 -0.38499030438E+02 -0.12657368947E+02  0.40659138178E+02  0.00000000000E+00 0.  1.
         11    1    3    3    0    0  0.68184124549E+01  0.65145819521E+01 -0.24123051894E+00  0.94333832128E+01  0.51100000000E-03 0. -1.
        -11    1    3    3    0    0 -0.19713736743E+01  0.18139828474E+02 -0.45122146972E+01  0.18796270188E+02  0.51100000000E-03 0.  1.
         12    1    3    3    0    0 -0.15635674326E+01  0.13844620011E+02  0.17410814163E+02  0.22299208421E+02  0.00000000000E+00 0. -1.
</event>
<event>
 7    1  0.4374874E-012  0.5052885E+02  0.7816164E-02  0.1300439E+00
        -11   -1    0    0    0    0  0.00000000000E+00  0.00000000000E+00  0.45593999997E+02  0.45594000000E+02  0.51100000000E-03 0. -1.
         11   -1    0    0    0    0 -0.00000000000E+00 -0.00000000000E+00 -0.45593999997E+02  0.45594000000E+02  0.51100000000E-03 0.  1.
    9900012    2    1    2    0    0  0.18662191092E+02  0.25663638679E+02 -0.25421778288E+02  0.50528849272E+02  0.29999967848E+02 0.  0.
         12    1    1    2    0    0 -0.18662191092E+02 -0.25663638679E+02  0.25421778288E+02  0.40659150728E+02  0.00000000000E+00 0. -1.
         11    1    3    3    0    0  0.17371206200E+02  0.51081158817E+01 -0.17971426220E+01  0.18195641637E+02  0.51100000000E-03 0.  1.
        -11    1    3    3    0    0 -0.81006365592E+00  0.95058059299E+01 -0.55284659606E+01  0.11026354141E+02  0.51100000000E-03 0. -1.
        -12    1    3    3    0    0  0.21010485484E+01  0.11049716867E+02 -0.18096169705E+02  0.21306853495E+02  0.00000000000E+00 0.  1.
</event>
<event>
 7    1  0.4374874E-012  0.5052886E+02  0.7816164E-02  0.1300439E+00
        -11   -1    0    0    0    0  0.00000000000E+00  0.00000000000E+00  0.45593999997E+02  0.45594000000E+02  0.51100000000E-03 0. -1.
         11   -1    0    0    0    0 -0.00000000000E+00 -0.00000000000E+00 -0.45593999997E+02  0.45594000000E+02  0.51100000000E-03 0.  1.
    9900012    2    1    2    0    0 -0.30775601056E+02  0.57480566938E+01 -0.25942016106E+02  0.50528856186E+02  0.29999988861E+02 0.  0.
         12    1    1    2    0    0  0.30775601056E+02 -0.57480566938E+01  0.25942016106E+02  0.40659143814E+02  0.00000000000E+00 0. -1.
         11    1    3    3    0    0 -0.12858405077E+02 -0.10696361300E+01  0.43017360763E+01  0.13601015996E+02  0.51100000000E-03 0. -1.
        -11    1    3    3    0    0 -0.26046696092E+01  0.46894673981E+01 -0.11042190022E+02  0.12276211509E+02  0.51100000000E-03 0.  1.
        -12    1    3    3    0    0 -0.15312526369E+02  0.21282254257E+01 -0.19201562160E+02  0.24651628681E+02  0.00000000000E+00 0.  1.
</event>
<event>
 7    1  0.4374874E-012  0.5052886E+02  0.7816164E-02  0.1300439E+00
        -11   -1    0    0    0    0  0.00000000000E+00  0.00000000000E+00  0.45593999997E+02  0.45594000000E+02  0.51100000000E-03 0. -1.
         11   -1    0    0    0    0 -0.00000000000E+00 -0.00000000000E+00 -0.45593999997E+02  0.45594000000E+02  0.51100000000E-03 0.  1.
    9900012    2    1    2    0    0  0.20197691251E+01  0.17946144941E+02 -0.36428317563E+02  0.50528857043E+02  0.29999991467E+02 0.  0.
         12    1    1    2    0    0 -0.20197691251E+01 -0.17946144941E+02  0.36428317563E+02  0.40659142957E+02  0.00000000000E+00 0. -1.
         11    1    3    3    0    0 -0.86422408925E+01  0.92721704028E+01 -0.14773805138E+02  0.19466041974E+02  0.51100000000E-03 0. -1.
        -11    1    3    3    0    0 -0.16885144784E+01 -0.40436109426E+01 -0.58777700760E+01  0.73314426907E+01  0.51100000000E-03 0.  1.
         12    1    3    3    0    0  0.12350524496E+02  0.12717585481E+02 -0.15776742348E+02  0.23731372378E+02  0.00000000000E+00 0. -1.
</event>
<event>
 7    1  0.4374874E-012  0.5052885E+02  0.7816164E-02  0.1300439E+00
        -11   -1    0    0    0    0  0.00000000000E+00  0.00000000000E+00  0.45593999997E+02  0.45594000000E+02  0.51100000000E-03 0. -1.
         11   -1    0    0    0    0 -0.00000000000E+00 -0.00000000000E+00 -0.45593999997E+02  0.45594000000E+02  0.51100000000E-03 0.  1.
    9900012    2    1    2    0    0  0.56968470165E+01 -0.66313612308E+01  0.39708148795E+02  0.50528854677E+02  0.29999984276E+02 0.  0.
        -12    1    1    2    0    0 -0.56968470165E+01  0.66313612308E+01 -0.39708148795E+02  0.40659145323E+02  0.00000000000E+00 0.  1.
         11    1    3    3    0    0  0.59265031365E+00  0.64655180330E+00 -0.14238626630E+01  0.16723183826E+01  0.51100000000E-03 0. -1.
        -11    1    3    3    0    0  0.14876020340E+02 -0.70354945444E+01  0.23367453852E+02  0.28580274044E+02  0.51100000000E-03 0.  1.
         12    1    3    3    0    0 -0.97718236374E+01 -0.24241848976E+00  0.17764557605E+02  0.20276262250E+02  0.00000000000E+00 0. -1.
</event>
<event>
 7    1  0.4374874E-012  0.5052886E+02  0.7816164E-02  0.1300439E+00
        -11   -1    0    0    0    0  0.00000000000E+00  0.00000000000E+00  0.45593999997E+02  0.45594000000E+02  0.51100000000E-03 0.  1.
         11   -1    0    0    0    0 -0.00000000000E+00 -0.00000000000E+00 -0.45593999997E+02  0.45594000000E+02  0.51100000000E-03 0. -1.
    9900012    2    1    2    0    0 -0.80024566105E+01 -0.31463434933E+02  0.24478126899E+02  0.50528859009E+02  0.29999997445E+02 0.  0.
        -12    1    1    2    0    0  0.80024566105E+01  0.31463434933E+02 -0.24478126899E+02  0.40659140991E+02  0.00000000000E+00 0.  1.
         11    1    3    3    0    0 -0.38517935379E+01 -0.69580210485E+01  0.19163838691E+02  0.20748568240E+02  0.51100000000E-03 0. -1.
        -11    1    3    3    0    0 -0.11097065964E+01 -0.18531422437E+02  0.10479062507E+02  0.21317969358E+02  0.51100000000E-03 0.  1.
         12    1    3    3    0    0 -0.30409564761E+01 -0.59739914484E+01 -0.51647742989E+01  0.84623214116E+01  0.00000000000E+00 0. -1.
</event>
<event>
 7    1  0.4374874E-012  0.5052886E+02  0.7816164E-02  0.1300439E+00
        -11   -1    0    0    0    0  0.00000000000E+00  0.00000000000E+00  0.45593999997E+02  0.45594000000E+02  0.51100000000E-03 0. -1.
         11   -1    0    0    0    0 -0.00000000000E+00 -0.00000000000E+00 -0.45593999997E+02  0.45594000000E+02  0.51100000000E-03 0.  1.
    9900012    2    1    2    0    0  0.10698235582E+02 -0.17738750331E+02  0.34986426872E+02  0.50528861137E+02  0.30000003911E+02 0.  0.
        -12    1    1    2    0    0 -0.10698235582E+02  0.17738750331E+02 -0.34986426872E+02  0.40659138863E+02  0.00000000000E+00 0.  1.
         11    1    3    3    0    0  0.51422312926E+01 -0.17593795037E+02  0.27820514629E+02  0.33316140247E+02  0.51100000000E-03 0. -1.
        -11    1    3    3    0    0 -0.49458448584E+01  0.10128159575E+01  0.28702912807E+01  0.58073875215E+01  0.51100000000E-03 0.  1.
        -12    1    3    3    0    0  0.10501849147E+02 -0.11577712521E+01  0.42956209613E+01  0.11405333368E+02  0.00000000000E+00 0.  1.
</event>
<event>
 7    1  0.4374874E-012  0.5052885E+02  0.7816164E-02  0.1300439E+00
        -11   -1    0    0    0    0  0.00000000000E+00  0.00000000000E+00  0.45593999997E+02  0.45594000000E+02  0.51100000000E-03 0. -1.
         11   -1    0    0    0    0 -0.00000000000E+00 -0.00000000000E+00 -0.45593999997E+02  0.45594000000E+02  0.51100000000E-03 0.  1.
    9900012    2    1    2    0    0 -0.25155470037E+02 -0.13713419116E+01  0.31913766857E+02  0.50528846462E+02  0.29999959307E+02 0.  0.
        -12    1    1    2    0    0  0.25155470037E+02  0.13713419116E+01 -0.31913766857E+02  0.40659153538E+02  0.00000000000E+00 0.  1.
         11    1    3    3    0    0 -0.51042191881E+01 -0.11451221321E+02  0.86323503855E+01  0.15221727783E+02  0.51100000000E-03 0. -1.
        -11    1    3    3    0    0 -0.87441818018E+01 -0.15667559494E+01  0.14079701047E+02  0.16647925439E+02  0.51100000000E-03 0.  1.
        -12    1    3    3    0    0 -0.11307069047E+02  0.11646635359E+02  0.92017154245E+01  0.18659193240E+02  0.00000000000E+00 0.  1.
</event>
<event>
 7    1  0.4374874E-012  0.5052887E+02  0.7816164E-02  0.1300439E+00
        -11   -1    0    0    0    0  0.00000000000E+00  0.00000000000E+00  0.45593999997E+02  0.45594000000E+02  0.51100000000E-03 0. -1.
         11   -1    0    0    0    0 -0.00000000000E+00 -0.00000000000E+00 -0.45593999997E+02  0.45594000000E+02  0.51100000000E-03 0.  1.
    9900012    2    1    2    0    0  0.13136467039E+01  0.35731934176E+02  0.19356345594E+02  0.50528869384E+02  0.30000028981E+02 0.  0.
        -12    1    1    2    0    0 -0.13136467039E+01 -0.35731934176E+02 -0.19356345594E+02  0.40659130616E+02  0.00000000000E+00 0.  1.
         11    1    3    3    0    0  0.10589255841E+02  0.10024789988E+02  0.42241546581E+01  0.15181312078E+02  0.51100000000E-03 0. -1.
        -11    1    3    3    0    0 -0.10133611858E+01  0.18892934001E+02  0.29862908225E+01  0.19154315159E+02  0.51100000000E-03 0.  1.
         12    1    3    3    0    0 -0.82622479513E+01  0.68142101871E+01  0.12145900114E+02  0.16193242148E+02  0.00000000000E+00 0. -1.
</event>
<event>
 7    1  0.4374874E-012  0.5052886E+02  0.7816164E-02  0.1300439E+00
        -11   -1    0    0    0    0  0.00000000000E+00  0.00000000000E+00  0.45593999997E+02  0.45594000000E+02  0.51100000000E-03 0. -1.
         11   -1    0    0    0    0 -0.00000000000E+00 -0.00000000000E+00 -0.45593999997E+02  0.45594000000E+02  0.51100000000E-03 0.  1.
    9900012    2    1    2    0    0 -0.38225386224E+02  0.10619727725E+01  0.13815140968E+02  0.50528855172E+02  0.29999985781E+02 0.  0.
        -12    1    1    2    0    0  0.38225386224E+02 -0.10619727725E+01 -0.13815140968E+02  0.40659144828E+02  0.00000000000E+00 0.  1.
         11    1    3    3    0    0 -0.69307423554E+01 -0.10127885055E+02  0.24245540183E+01  0.12509504696E+02  0.51100000000E-03 0. -1.
        -11    1    3    3    0    0 -0.52663231138E+01 -0.95665052662E+00  0.72313533198E+01  0.89967666673E+01  0.51100000000E-03 0.  1.
        -12    1    3    3    0    0 -0.26028320755E+02  0.12146508354E+02  0.41592336302E+01  0.29022583809E+02  0.00000000000E+00 0.  1.
</event>
<event>
 7    1  0.4374874E-012  0.5052886E+02  0.7816164E-02  0.1300439E+00
        -11   -1    0    0    0    0  0.00000000000E+00  0.00000000000E+00  0.45593999997E+02  0.45594000000E+02  0.51100000000E-03 0. -1.
         11   -1    0    0    0    0 -0.00000000000E+00 -0.00000000000E+00 -0.45593999997E+02  0.45594000000E+02  0.51100000000E-03 0.  1.
    9900012    2    1    2    0    0  0.74860940989E+01  0.29766480400E+02  0.26666095593E+02  0.50528860628E+02  0.30000002365E+02 0.  0.
        -12    1    1    2    0    0 -0.74860940989E+01 -0.29766480400E+02 -0.26666095593E+02  0.40659139372E+02  0.00000000000E+00 0.  1.
         11    1    3    3    0    0  0.21121016267E+01  0.20666430615E+01  0.62603407983E+01  0.69227056847E+01  0.51100000000E-03 0. -1.
        -11    1    3    3    0    0  0.11513960601E+02  0.27848910156E+02  0.21939630664E+02  0.37275735802E+02  0.51100000000E-03 0.  1.
        -12    1    3    3    0    0 -0.61399681287E+01 -0.14907281708E+00 -0.15338758694E+01  0.63304191417E+01  0.00000000000E+00 0.  1.
</event>
<event>
 7    1  0.4374874E-012  0.5052886E+02  0.7816164E-02  0.1300439E+00
        -11   -1    0    0    0    0  0.00000000000E+00  0.00000000000E+00  0.45593999997E+02  0.45594000000E+02  0.51100000000E-03 0. -1.
         11   -1    0    0    0    0 -0.00000000000E+00 -0.00000000000E+00 -0.45593999997E+02  0.45594000000E+02  0.51100000000E-03 0.  1.
    9900012    2    1    2    0    0 -0.11547477524E+02 -0.15998538267E+02  0.35550927377E+02  0.50528857102E+02  0.29999991646E+02 0.  0.
        -12    1    1    2    0    0  0.11547477524E+02  0.15998538267E+02 -0.35550927377E+02  0.40659142898E+02  0.00000000000E+00 0.  1.
         11    1    3    3    0    0  0.37857036960E+01 -0.49716845716E+01  0.16595785439E+02  0.17733282115E+02  0.51100000000E-03 0. -1.
        -11    1    3    3    0    0 -0.11038101462E+02 -0.10512449089E+02  0.22517535901E+02  0.27191739427E+02  0.51100000000E-03 0.  1.
        -12    1    3    3    0    0 -0.42950797586E+01 -0.51440460716E+00 -0.35623939637E+01  0.56038355601E+01  0.00000000000E+00 0.  1.
</event>
<event>
 7    1  0.4374874E-012  0.5052887E+02  0.7816164E-02  0.1300439E+00
        -11   -1    0    0    0    0  0.00000000000E+00  0.00000000000E+00  0.45593999997E+02  0.45594000000E+02  0.51100000000E-03 0.  1.
         11   -1    0    0    0    0 -0.00000000000E+00 -0.00000000000E+00 -0.45593999997E+02  0.45594000000E+02  0.51100000000E-03 0. -1.
    9900012    2    1    2    0    0 -0.62724017151E+01 -0.33770021736E+02  0.21757934771E+02  0.50528866748E+02  0.30000020967E+02 0.  0.
         12    1    1    2    0    0  0.62724017151E+01  0.33770021736E+02 -0.21757934771E+02  0.40659133252E+02  0.00000000000E+00 0. -1.
         11    1    3    3    0    0  0.99650730219E+01 -0.12986692169E+02  0.31197341158E+01  0.16664020975E+02  0.51100000000E-03 0. -1.
        -11    1    3    3    0    0 -0.81502345429E+00 -0.72948226893E+01  0.77039725240E+01  0.10640953633E+02  0.51100000000E-03 0.  1.
         12    1    3    3    0    0 -0.15422451283E+02 -0.13488506877E+02  0.10934228131E+02  0.23223892141E+02  0.00000000000E+00 0. -1.
</event>
<event>
 7    1  0.4374874E-012  0.5052887E+02  0.7816164E-02  0.1300439E+00
        -11   -1    0    0    0    0  0.00000000000E+00  0.00000000000E+00  0.45593999997E+02  0.45594000000E+02  0.51100000000E-03 0. -1.
         11   -1    0    0    0    0 -0.00000000000E+00 -0.00000000000E+00 -0.45593999997E+02  0.45594000000E+02  0.51100000000E-03 0.  1.
    9900012    2    1    2    0    0  0.16430748346E+02 -0.15546963376E+02 -0.33785903950E+02  0.50528869818E+02  0.30000030299E+02 0.  0.
         12    1    1    2    0    0 -0.16430748346E+02  0.15546963376E+02  0.33785903950E+02  0.40659130182E+02  0.00000000000E+00 0. -1.
         11    1    3    3    0    0 -0.27601501246E+01 -0.77742041921E+01 -0.36316389080E+01  0.90136275133E+01  0.51100000000E-03 0. -1.
        -11    1    3    3    0    0  0.53547607415E+01  0.31804267701E+01  0.38942295482E+00  0.62402105363E+01  0.51100000000E-03 0.  1.
        -12    1    3    3    0    0  0.13836137729E+02 -0.10953185955E+02 -0.30543687997E+02  0.35275031768E+02  0.00000000000E+00 0.  1.
</event>
<event>
 7    1  0.4374874E-012  0.5052886E+02  0.7816164E-02  0.1300439E+00
        -11   -1    0    0    0    0  0.00000000000E+00  0.00000000000E+00  0.45593999997E+02  0.45594000000E+02  0.51100000000E-03 0. -1.
         11   -1    0    0    0    0 -0.00000000000E+00 -0.00000000000E+00 -0.45593999997E+02  0.45594000000E+02  0.51100000000E-03 0.  1.
    9900012    2    1    2    0    0  0.26324349315E+01 -0.71028061428E+01 -0.39947289144E+02  0.50528862297E+02  0.30000007439E+02 0.  0.
         12    1    1    2    0    0 -0.26324349315E+01  0.71028061428E+01  0.39947289144E+02  0.40659137703E+02  0.00000000000E+00 0. -1.
         11    1    3    3    0    0  0.86744696243E+00 -0.20398198375E+01 -0.13923928691E+02  0.14099259542E+02  0.51100000000E-03 0. -1.
        -11    1    3    3    0    0  0.24236787344E+01 -0.14289181250E+02 -0.90134429857E+01  0.17067427285E+02  0.51100000000E-03 0.  1.
         12    1    3    3    0    0 -0.65869076539E+00  0.92261949446E+01 -0.17009917468E+02  0.19362175470E+02  0.00000000000E+00 0. -1.
</event>
<event>
 7    1  0.4374874E-012  0.5052884E+02  0.7816164E-02  0.1300439E+00
        -11   -1    0    0    0    0  0.00000000000E+00  0.00000000000E+00  0.45593999997E+02  0.45594000000E+02  0.51100000000E-03 0. -1.
         11   -1    0    0    0    0 -0.00000000000E+00 -0.00000000000E+00 -0.45593999997E+02  0.45594000000E+02  0.51100000000E-03 0.  1.
    9900012    2    1    2    0    0  0.90848941843E+01 -0.24068379089E+02 -0.31485630253E+02  0.50528842523E+02  0.29999947334E+02 0.  0.
         12    1    1    2    0    0 -0.90848941843E+01  0.24068379089E+02  0.31485630253E+02  0.40659157477E+02  0.00000000000E+00 0. -1.
         11    1    3    3    0    0  0.97405189114E+01 -0.14131704371E+02 -0.13041238119E+02  0.21555896387E+02  0.51100000000E-03 0. -1.
        -11    1    3    3    0    0 -0.67268685178E+01 -0.13594098130E+02 -0.11343630770E+02  0.18940122051E+02  0.51100000000E-03 0.  1.
         12    1    3    3    0    0  0.60712437906E+01  0.36574234120E+01 -0.71007613637E+01  0.10032824085E+02  0.00000000000E+00 0. -1.
</event>
<event>
 7    1  0.4374874E-012  0.5052885E+02  0.7816164E-02  0.1300439E+00
        -11   -1    0    0    0    0  0.00000000000E+00  0.00000000000E+00  0.45593999997E+02  0.45594000000E+02  0.51100000000E-03 0.  1.
         11   -1    0    0    0    0 -0.00000000000E+00 -0.00000000000E+00 -0.45593999997E+02  0.45594000000E+02  0.51100000000E-03 0. -1.
    9900012    2    1    2    0    0  0.18670479546E+02  0.27786212727E+02  0.23076087735E+02  0.50528852821E+02  0.29999978633E+02 0.  0.
        -12    1    1    2    0    0 -0.18670479546E+02 -0.27786212727E+02 -0.23076087735E+02  0.40659147179E+02  0.00000000000E+00 0.  1.
         11    1    3    3    0    0  0.10867495213E+02  0.16660107580E+02  0.16269902190E+02  0.25697691615E+02  0.51100000000E-03 0. -1.
        -11    1    3    3    0    0 -0.25589307174E+01  0.10776703094E+02 -0.19668830773E+01  0.11249626007E+02  0.51100000000E-03 0.  1.
        -12    1    3    3    0    0  0.10361915050E+02  0.34940205283E+00  0.87730686218E+01  0.13581535198E+02  0.00000000000E+00 0.  1.
</event>
<event>
 7    1  0.4374874E-012  0.5052886E+02  0.7816164E-02  0.1300439E+00
        -11   -1    0    0    0    0  0.00000000000E+00  0.00000000000E+00  0.45593999997E+02  0.45594000000E+02  0.51100000000E-03 0. -1.
         11   -1    0    0    0    0 -0.00000000000E+00 -0.00000000000E+00 -0.45593999997E+02  0.45594000000E+02  0.51100000000E-03 0.  1.
    9900012    2    1    2    0    0  0.22083843498E+02  0.29885839732E+02  0.16501708332E+02  0.50528856650E+02  0.29999990272E+02 0.  0.
        -12    1    1    2    0    0 -0.22083843498E+02 -0.29885839732E+02 -0.16501708332E+02  0.40659143350E+02  0.00000000000E+00 0.  1.
         11    1    3    3    0    0  0.79308368023E+01  0.10682436103E+02 -0.19394633340E+01  0.13445227100E+02  0.51100000000E-03 0.  1.
        -11    1    3    3    0    0 -0.47320060192E+01  0.57105865508E+01  0.98607952992E+01  0.12338474943E+02  0.51100000000E-03 0. -1.
         12    1    3    3    0    0  0.18885012715E+02  0.13492817078E+02  0.85803763665E+01  0.24745154607E+02  0.00000000000E+00 0. -1.
</event>
<event>
 7    1  0.4374874E-012  0.5052886E+02  0.7816164E-02  0.1300439E+00
        -11   -1    0    0    0    0  0.00000000000E+00  0.00000000000E+00  0.45593999997E+02  0.45594000000E+02  0.51100000000E-03 0. -1.
         11   -1    0    0    0    0 -0.00000000000E+00 -0.00000000000E+00 -0.45593999997E+02  0.45594000000E+02  0.51100000000E-03 0.  1.
    9900012    2    1    2    0    0  0.11667539181E+02  0.26964311494E+02 -0.28106222093E+02  0.50528864677E+02  0.30000014673E+02 0.  0.
         12    1    1    2    0    0 -0.11667539181E+02 -0.26964311494E+02  0.28106222093E+02  0.40659135323E+02  0.00000000000E+00 0. -1.
         11    1    3    3    0    0  0.15085440061E+01  0.17132622956E+02 -0.24571723155E+02  0.29992866709E+02  0.51100000000E-03 0. -1.
        -11    1    3    3    0    0  0.99909206310E+01  0.13277329398E+02 -0.19194885190E+01  0.16726936583E+02  0.51100000000E-03 0.  1.
        -12    1    3    3    0    0  0.16807454379E+00 -0.34456408598E+01 -0.16150104184E+01  0.38090613855E+01  0.00000000000E+00 0.  1.
</event>
<event>
 7    1  0.4374874E-012  0.5052886E+02  0.7816164E-02  0.1300439E+00
        -11   -1    0    0    0    0  0.00000000000E+00  0.00000000000E+00  0.45593999997E+02  0.45594000000E+02  0.51100000000E-03 0. -1.
         11   -1    0    0    0    0 -0.00000000000E+00 -0.00000000000E+00 -0.45593999997E+02  0.45594000000E+02  0.51100000000E-03 0.  1.
    9900012    2    1    2    0    0 -0.19326701331E+02 -0.21678047579E+01  0.35706365427E+02  0.50528864571E+02  0.30000014351E+02 0.  0.
        -12    1    1    2    0    0  0.19326701331E+02  0.21678047579E+01 -0.35706365427E+02  0.40659135429E+02  0.00000000000E+00 0.  1.
         11    1    3    3    0    0 -0.13339873630E+02 -0.38654356881E+01  0.26310472385E+02  0.29751214747E+02  0.51100000000E-03 0. -1.
        -11    1    3    3    0    0  0.64961437546E+00  0.37656050220E+01  0.12568599008E+02  0.13136645740E+02  0.51100000000E-03 0.  1.
        -12    1    3    3    0    0 -0.66364420765E+01 -0.20679740919E+01 -0.31727059658E+01  0.76410040849E+01  0.00000000000E+00 0.  1.
</event>
<event>
 7    1  0.4374874E-012  0.5052886E+02  0.7816164E-02  0.1300439E+00
        -11   -1    0    0    0    0  0.00000000000E+00  0.00000000000E+00  0.45593999997E+02  0.45594000000E+02  0.51100000000E-03 0. -1.
         11   -1    0    0    0    0 -0.00000000000E+00 -0.00000000000E+00 -0.45593999997E+02  0.45594000000E+02  0.51100000000E-03 0.  1.
    9900012    2    1    2    0    0  0.72795064402E+00 -0.15697602073E+02  0.37499615378E+02  0.50528858636E+02  0.29999996309E+02 0.  0.
        -12    1    1    2    0    0 -0.72795064402E+00  0.15697602073E+02 -0.37499615378E+02  0.40659141364E+02  0.00000000000E+00 0.  1.
         11    1    3    3    0    0 -0.98816140217E+01 -0.70872130311E+01  0.22461774527E+02  0.25542243429E+02  0.51100000000E-03 0. -1.
        -11    1    3    3    0    0  0.19977729814E+01  0.59657379542E+00  0.11783538242E+02  0.11966568887E+02  0.51100000000E-03 0.  1.
        -12    1    3    3    0    0  0.86117916843E+01 -0.92069628368E+01  0.32543026100E+01  0.13020046320E+02  0.00000000000E+00 0.  1.
</event>
<event>
 7    1  0.4374874E-012  0.5052885E+02  0.7816164E-02  0.1300439E+00
        -11   -1    0    0    0    0  0.00000000000E+00  0.00000000000E+00  0.45593999997E+02  0.45594000000E+02  0.51100000000E-03 0. -1.
         11   -1    0    0    0    0 -0.00000000000E+00 -0.00000000000E+00 -0.45593999997E+02  0.45594000000E+02  0.51100000000E-03 0.  1.
    9900012    2    1    2    0    0  0.14866489732E+02 -0.23014821472E+02 -0.30041173354E+02  0.50528848252E+02  0.29999964747E+02 0.  0.
         12    1    1    2    0    0 -0.14866489732E+02  0.23014821472E+02  0.30041173354E+02  0.40659151748E+02  0.00000000000E+00 0. -1.
         11    1    3    3    0    0  0.84742274507E+01 -0.47746083607E+01  0.10564580437E+01  0.97839419327E+01  0.51100000000E-03 0. -1.
        -11    1    3    3    0    0  0.10239791204E+01 -0.18422767599E+02 -0.15013721216E+02  0.23787785190E+02  0.51100000000E-03 0.  1.
        -12    1    3    3    0    0  0.53682831610E+01  0.18255448724E+00 -0.16083910182E+02  0.16957121129E+02  0.00000000000E+00 0.  1.
</event>
<event>
 7    1  0.4374874E-012  0.5052887E+02  0.7816164E-02  0.1300439E+00
        -11   -1    0    0    0    0  0.00000000000E+00  0.00000000000E+00  0.45593999997E+02  0.45594000000E+02  0.51100000000E-03 0. -1.
         11   -1    0    0    0    0 -0.00000000000E+00 -0.00000000000E+00 -0.45593999997E+02  0.45594000000E+02  0.51100000000E-03 0.  1.
    9900012    2    1    2    0    0  0.22757470601E+02  0.56612008588E+01  0.33214657952E+02  0.50528866140E+02  0.30000019120E+02 0.  0.
        -12    1    1    2    0    0 -0.22757470601E+02 -0.56612008588E+01 -0.33214657952E+02  0.40659133860E+02  0.00000000000E+00 0.  1.
         11    1    3    3    0    0  0.60159736940E+01 -0.14462757357E+01  0.29897094465E+02  0.30530638884E+02  0.51100000000E-03 0. -1.
        -11    1    3    3    0    0  0.60845705837E+01  0.14510383702E+00  0.39451523930E+01  0.72530877547E+01  0.51100000000E-03 0.  1.
        -12    1    3    3    0    0  0.10656926323E+02  0.69623727575E+01 -0.62758890545E+00  0.12745139501E+02  0.00000000000E+00 0.  1.
</event>
<event>
 7    1  0.4374874E-012  0.5052886E+02  0.7816164E-02  0.1300439E+00
        -11   -1    0    0    0    0  0.00000000000E+00  0.00000000000E+00  0.45593999997E+02  0.45594000000E+02  0.51100000000E-03 0. -1.
         11   -1    0    0    0    0 -0.00000000000E+00 -0.00000000000E+00 -0.45593999997E+02  0.45594000000E+02  0.51100000000E-03 0.  1.
    9900012    2    1    2    0    0  0.21066428127E+02 -0.79270604415E+01  0.33860494128E+02  0.50528859037E+02  0.29999997530E+02 0.  0.
        -12    1    1    2    0    0 -0.21066428127E+02  0.79270604415E+01 -0.33860494128E+02  0.40659140963E+02  0.00000000000E+00 0.  1.
         11    1    3    3    0    0  0.99092701705E+01  0.16276812052E+01  0.57037223432E+01  0.11548828090E+02  0.51100000000E-03 0. -1.
        -11    1    3    3    0    0 -0.17047825542E+01  0.59082126745E+01  0.10731862705E+02  0.12368756524E+02  0.51100000000E-03 0.  1.
         12    1    3    3    0    0  0.12861940510E+02 -0.15462954321E+02  0.17424909080E+02  0.26611274424E+02  0.00000000000E+00 0. -1.
</event>
<event>
 7    1  0.4374874E-012  0.5052885E+02  0.7816164E-02  0.1300439E+00
        -11   -1    0    0    0    0  0.00000000000E+00  0.00000000000E+00  0.45593999997E+02  0.45594000000E+02  0.51100000000E-03 0. -1.
         11   -1    0    0    0    0 -0.00000000000E+00 -0.00000000000E+00 -0.45593999997E+02  0.45594000000E+02  0.51100000000E-03 0.  1.
    9900012    2    1    2    0    0 -0.21826668223E+02  0.89576877979E+00 -0.34292277311E+02  0.50528854281E+02  0.29999983071E+02 0.  0.
         12    1    1    2    0    0  0.21826668223E+02 -0.89576877979E+00  0.34292277311E+02  0.40659145719E+02  0.00000000000E+00 0. -1.
         11    1    3    3    0    0  0.31369840072E+01  0.20090603217E+01  0.33685760592E+01  0.50223796118E+01  0.51100000000E-03 0. -1.
        -11    1    3    3    0    0 -0.67654110545E+01 -0.26716122809E+01 -0.10306797808E+02  0.12615006153E+02  0.51100000000E-03 0.  1.
        -12    1    3    3    0    0 -0.18198241176E+02  0.15583207389E+01 -0.27354055562E+02  0.32891468516E+02  0.00000000000E+00 0.  1.
</event>
<event>
 7    1  0.4374874E-012  0.5052886E+02  0.7816164E-02  0.1300439E+00
        -11   -1    0    0    0    0  0.00000000000E+00  0.00000000000E+00  0.45593999997E+02  0.45594000000E+02  0.51100000000E-03 0. -1.
         11   -1    0    0    0    0 -0.00000000000E+00 -0.00000000000E+00 -0.45593999997E+02  0.45594000000E+02  0.51100000000E-03 0.  1.
    9900012    2    1    2    0    0  0.22950487630E+02 -0.87424152452E+01  0.32403878543E+02  0.50528855255E+02  0.29999986033E+02 0.  0.
        -12    1    1    2    0    0 -0.22950487630E+02  0.87424152452E+01 -0.32403878543E+02  0.40659144745E+02  0.00000000000E+00 0.  1.
         11    1    3    3    0    0  0.18394852302E+02  0.49465780485E+01  0.15756293256E+02  0.24720436951E+02  0.51100000000E-03 0. -1.
        -11    1    3    3    0    0  0.55805033051E+01 -0.66335601930E+01  0.11436639638E+01  0.87438038344E+01  0.51100000000E-03 0.  1.
         12    1    3    3    0    0 -0.10248679770E+01 -0.70554331008E+01  0.15503921323E+02  0.17064614470E+02  0.00000000000E+00 0. -1.
</event>
<event>
 7    1  0.4374874E-012  0.5052887E+02  0.7816164E-02  0.1300439E+00
        -11   -1    0    0    0    0  0.00000000000E+00  0.00000000000E+00  0.45593999997E+02  0.45594000000E+02  0.51100000000E-03 0. -1.
         11   -1    0    0    0    0 -0.00000000000E+00 -0.00000000000E+00 -0.45593999997E+02  0.45594000000E+02  0.51100000000E-03 0.  1.
    9900012    2    1    2    0    0 -0.37259930097E+02  0.88621888619E+01  0.13650069499E+02  0.50528865976E+02  0.30000018620E+02 0.  0.
         12    1    1    2    0    0  0.37259930097E+02 -0.88621888619E+01 -0.13650069499E+02  0.40659134024E+02  0.00000000000E+00 0. -1.
         11    1    3    3    0    0 -0.15759689284E+02 -0.13614065737E+01  0.44170181945E+01  0.16423497928E+02  0.51100000000E-03 0. -1.
        -11    1    3    3    0    0 -0.12426399369E+01 -0.42575482699E+01 -0.39416887941E+01  0.59336145893E+01  0.51100000000E-03 0.  1.
         12    1    3    3    0    0 -0.20257600876E+02  0.14481143705E+02  0.13174740099E+02  0.28171753459E+02  0.00000000000E+00 0. -1.
</event>
<event>
 7    1  0.4723640E-012  0.5052886E+02  0.7816164E-02  0.1300439E+00
        -11   -1    0    0    0    0  0.00000000000E+00  0.00000000000E+00  0.45593999997E+02  0.45594000000E+02  0.51100000000E-03 0. -1.
         11   -1    0    0    0    0 -0.00000000000E+00 -0.00000000000E+00 -0.45593999997E+02  0.45594000000E+02  0.51100000000E-03 0.  1.
    9900012    2    1    2    0    0  0.10389758282E+02 -0.11885410866E-01 -0.39309265893E+02  0.50528860763E+02  0.30000002775E+02 0.  0.
         12    1    1    2    0    0 -0.10389758282E+02  0.11885410866E-01  0.39309265893E+02  0.40659139237E+02  0.00000000000E+00 0. -1.
         11    1    3    3    0    0  0.92276055263E+01 -0.54408478430E+01 -0.49250988688E+01  0.11790170827E+02  0.51100000000E-03 0. -1.
        -11    1    3    3    0    0 -0.28519694356E+01 -0.50599353878E+01 -0.17683904414E+02  0.18613359486E+02  0.51100000000E-03 0.  1.
         12    1    3    3    0    0  0.40141221915E+01  0.10488897820E+02 -0.16700262610E+02  0.20125330450E+02  0.00000000000E+00 0. -1.
</event>
<event>
 7    1  0.4374874E-012  0.5052895E+02  0.7816164E-02  0.1300438E+00
        -11   -1    0    0    0    0  0.00000000000E+00  0.00000000000E+00  0.45593999997E+02  0.45594000000E+02  0.51100000000E-03 0.  1.
         11   -1    0    0    0    0 -0.00000000000E+00 -0.00000000000E+00 -0.45593999997E+02  0.45594000000E+02  0.51100000000E-03 0. -1.
    9900012    2    1    2    0    0  0.31127890301E+02  0.25995367012E+02 -0.29075354865E+01  0.50528949060E+02  0.30000271162E+02 0.  0.
         12    1    1    2    0    0 -0.31127890301E+02 -0.25995367012E+02  0.29075354865E+01  0.40659050940E+02  0.00000000000E+00 0. -1.
         11    1    3    3    0    0  0.49552028982E+01  0.76126582906E+01 -0.34990887224E+01  0.97339726813E+01  0.51100000000E-03 0. -1.
        -11    1    3    3    0    0 -0.45944173714E+01  0.85510263765E+00 -0.24106775681E+01  0.52584444565E+01  0.51100000000E-03 0.  1.
        -12    1    3    3    0    0  0.30767104775E+02  0.17527606084E+02  0.30022308041E+01  0.35536531922E+02  0.00000000000E+00 0.  1.
</event>
<event>
 7    1  0.4374874E-012  0.5052886E+02  0.7816164E-02  0.1300439E+00
        -11   -1    0    0    0    0  0.00000000000E+00  0.00000000000E+00  0.45593999997E+02  0.45594000000E+02  0.51100000000E-03 0.  1.
         11   -1    0    0    0    0 -0.00000000000E+00 -0.00000000000E+00 -0.45593999997E+02  0.45594000000E+02  0.51100000000E-03 0. -1.
    9900012    2    1    2    0    0 -0.31049163103E+02 -0.18075765811E+01  0.26188698285E+02  0.50528858588E+02  0.29999996164E+02 0.  0.
        -12    1    1    2    0    0  0.31049163103E+02  0.18075765811E+01 -0.26188698285E+02  0.40659141412E+02  0.00000000000E+00 0.  1.
         11    1    3    3    0    0 -0.97803427250E+01  0.14387096321E+01  0.67700129258E+01  0.11981571871E+02  0.51100000000E-03 0. -1.
        -11    1    3    3    0    0 -0.50585970901E-01  0.88610297649E+01  0.47954066190E+01  0.10075531368E+02  0.51100000000E-03 0.  1.
         12    1    3    3    0    0 -0.21218234407E+02 -0.12107315978E+02  0.14623278741E+02  0.28471755349E+02  0.00000000000E+00 0. -1.
</event>
<event>
 7    1  0.4374874E-012  0.5052888E+02  0.7816164E-02  0.1300439E+00
        -11   -1    0    0    0    0  0.00000000000E+00  0.00000000000E+00  0.45593999997E+02  0.45594000000E+02  0.51100000000E-03 0. -1.
         11   -1    0    0    0    0 -0.00000000000E+00 -0.00000000000E+00 -0.45593999997E+02  0.45594000000E+02  0.51100000000E-03 0.  1.
    9900012    2    1    2    0    0 -0.34568155180E+01 -0.23405257995E+02  0.33066723814E+02  0.50528881722E+02  0.30000066482E+02 0.  0.
        -12    1    1    2    0    0  0.34568155180E+01  0.23405257995E+02 -0.33066723814E+02  0.40659118278E+02  0.00000000000E+00 0.  1.
         11    1    3    3    0    0  0.22156722297E+01 -0.97946475057E+01  0.27001906488E+02  0.28808805554E+02  0.51100000000E-03 0. -1.
        -11    1    3    3    0    0 -0.98137118623E+01 -0.48121411503E+01  0.47105480486E+01  0.11901886663E+02  0.51100000000E-03 0.  1.
        -12    1    3    3    0    0  0.41412241146E+01 -0.87984693390E+01  0.13542692779E+01  0.98181895049E+01  0.00000000000E+00 0.  1.
</event>
<event>
 7    1  0.4374874E-012  0.5052883E+02  0.7816164E-02  0.1300439E+00
        -11   -1    0    0    0    0  0.00000000000E+00  0.00000000000E+00  0.45593999997E+02  0.45594000000E+02  0.51100000000E-03 0. -1.
         11   -1    0    0    0    0 -0.00000000000E+00 -0.00000000000E+00 -0.45593999997E+02  0.45594000000E+02  0.51100000000E-03 0.  1.
    9900012    2    1    2    0    0  0.30793134922E+02  0.72039842764E+01  0.25554911900E+02  0.50528830432E+02  0.29999910580E+02 0.  0.
        -12    1    1    2    0    0 -0.30793134922E+02 -0.72039842764E+01 -0.25554911900E+02  0.40659169568E+02  0.00000000000E+00 0.  1.
         11    1    3    3    0    0  0.64079833439E+01 -0.32008941364E+01  0.87241552067E+01  0.11287996197E+02  0.51100000000E-03 0. -1.
        -11    1    3    3    0    0 -0.59975138872E+00  0.86685617322E+01  0.10066997308E+02  0.13298424692E+02  0.51100000000E-03 0.  1.
        -12    1    3    3    0    0  0.24984902966E+02  0.17363166806E+01  0.67637593860E+01  0.25942409543E+02  0.00000000000E+00 0.  1.
</event>
<event>
 7    1  0.4374874E-012  0.5052886E+02  0.7816164E-02  0.1300439E+00
        -11   -1    0    0    0    0  0.00000000000E+00  0.00000000000E+00  0.45593999997E+02  0.45594000000E+02  0.51100000000E-03 0. -1.
         11   -1    0    0    0    0 -0.00000000000E+00 -0.00000000000E+00 -0.45593999997E+02  0.45594000000E+02  0.51100000000E-03 0.  1.
    9900012    2    1    2    0    0  0.90839116021E+01 -0.24337462374E+02 -0.31278365895E+02  0.50528859602E+02  0.29999999247E+02 0.  0.
         12    1    1    2    0    0 -0.90839116021E+01  0.24337462374E+02  0.31278365895E+02  0.40659140398E+02  0.00000000000E+00 0. -1.
         11    1    3    3    0    0  0.23372202915E+01 -0.91443233378E+01 -0.12192574276E+02  0.15418823423E+02  0.51100000000E-03 0. -1.
        -11    1    3    3    0    0  0.10539321688E+02 -0.72710171588E+01  0.13418257301E+01  0.12874217985E+02  0.51100000000E-03 0.  1.
         12    1    3    3    0    0 -0.37926303776E+01 -0.79221218778E+01 -0.20427617349E+02  0.22235818195E+02  0.00000000000E+00 0. -1.
</event>
<event>
 7    1  0.4374874E-012  0.5052885E+02  0.7816164E-02  0.1300439E+00
        -11   -1    0    0    0    0  0.00000000000E+00  0.00000000000E+00  0.45593999997E+02  0.45594000000E+02  0.51100000000E-03 0. -1.
         11   -1    0    0    0    0 -0.00000000000E+00 -0.00000000000E+00 -0.45593999997E+02  0.45594000000E+02  0.51100000000E-03 0.  1.
    9900012    2    1    2    0    0  0.13935761137E+02 -0.30773462630E+01 -0.38072177749E+02  0.50528853218E+02  0.29999979842E+02 0.  0.
         12    1    1    2    0    0 -0.13935761137E+02  0.30773462630E+01  0.38072177749E+02  0.40659146782E+02  0.00000000000E+00 0. -1.
         11    1    3    3    0    0 -0.48133284468E+01 -0.64441953566E+01 -0.17271057730E+02  0.19052171002E+02  0.51100000000E-03 0. -1.
        -11    1    3    3    0    0  0.91134289652E+01 -0.52593513286E+01 -0.11216733243E+02  0.15379547093E+02  0.51100000000E-03 0.  1.
        -12    1    3    3    0    0  0.96356606182E+01  0.86262004223E+01 -0.95843867766E+01  0.16097135123E+02  0.00000000000E+00 0.  1.
</event>
<event>
 7    1  0.4374874E-012  0.5052886E+02  0.7816164E-02  0.1300439E+00
        -11   -1    0    0    0    0  0.00000000000E+00  0.00000000000E+00  0.45593999997E+02  0.45594000000E+02  0.51100000000E-03 0. -1.
         11   -1    0    0    0    0 -0.00000000000E+00 -0.00000000000E+00 -0.45593999997E+02  0.45594000000E+02  0.51100000000E-03 0.  1.
    9900012    2    1    2    0    0  0.82576627586E+01  0.35645697174E+02 -0.17730222603E+02  0.50528861854E+02  0.30000006090E+02 0.  0.
         12    1    1    2    0    0 -0.82576627586E+01 -0.35645697174E+02  0.17730222603E+02  0.40659138146E+02  0.00000000000E+00 0. -1.
         11    1    3    3    0    0  0.12158250454E+02  0.11206795755E+02 -0.12463853914E+02  0.20706592666E+02  0.51100000000E-03 0. -1.
        -11    1    3    3    0    0  0.14760583132E+01  0.20710408372E+02 -0.86065710668E+01  0.22476050117E+02  0.51100000000E-03 0.  1.
        -12    1    3    3    0    0 -0.53766460089E+01  0.37284930471E+01  0.33402023777E+01  0.73462190704E+01  0.00000000000E+00 0.  1.
</event>
<event>
 7    1  0.4374874E-012  0.5052887E+02  0.7816164E-02  0.1300439E+00
        -11   -1    0    0    0    0  0.00000000000E+00  0.00000000000E+00  0.45593999997E+02  0.45594000000E+02  0.51100000000E-03 0. -1.
         11   -1    0    0    0    0 -0.00000000000E+00 -0.00000000000E+00 -0.45593999997E+02  0.45594000000E+02  0.51100000000E-03 0.  1.
    9900012    2    1    2    0    0 -0.17129819710E+02  0.25941313560E+02  0.26206525772E+02  0.50528874757E+02  0.30000045311E+02 0.  0.
        -12    1    1    2    0    0  0.17129819710E+02 -0.25941313560E+02 -0.26206525772E+02  0.40659125243E+02  0.00000000000E+00 0.  1.
         11    1    3    3    0    0  0.16571520462E+01  0.49546263324E+01  0.14216704976E+02  0.15146259461E+02  0.51100000000E-03 0. -1.
        -11    1    3    3    0    0 -0.95579285522E+00 -0.30827924047E+01  0.35276912539E+00  0.32467823009E+01  0.51100000000E-03 0.  1.
         12    1    3    3    0    0 -0.17831178901E+02  0.24069479632E+02  0.11637051670E+02  0.32135832996E+02  0.00000000000E+00 0. -1.
</event>
<event>
 7    1  0.4374874E-012  0.5052886E+02  0.7816164E-02  0.1300439E+00
        -11   -1    0    0    0    0  0.00000000000E+00  0.00000000000E+00  0.45593999997E+02  0.45594000000E+02  0.51100000000E-03 0. -1.
         11   -1    0    0    0    0 -0.00000000000E+00 -0.00000000000E+00 -0.45593999997E+02  0.45594000000E+02  0.51100000000E-03 0.  1.
    9900012    2    1    2    0    0 -0.83766256122E+01 -0.90092209006E+01 -0.38753474494E+02  0.50528859537E+02  0.29999999048E+02 0.  0.
         12    1    1    2    0    0  0.83766256122E+01  0.90092209006E+01  0.38753474494E+02  0.40659140463E+02  0.00000000000E+00 0. -1.
         11    1    3    3    0    0 -0.11937553060E+02 -0.88025748561E+01 -0.13887862063E+02  0.20319035659E+02  0.51100000000E-03 0. -1.
        -11    1    3    3    0    0 -0.62545211509E+01  0.27965111740E+01 -0.10979646067E+02  0.12941875351E+02  0.51100000000E-03 0.  1.
         12    1    3    3    0    0  0.98154485992E+01 -0.30031572185E+01 -0.13885966364E+02  0.17267948527E+02  0.00000000000E+00 0. -1.
</event>
<event>
 7    1  0.4374874E-012  0.5052881E+02  0.7816164E-02  0.1300439E+00
        -11   -1    0    0    0    0  0.00000000000E+00  0.00000000000E+00  0.45593999997E+02  0.45594000000E+02  0.51100000000E-03 0. -1.
         11   -1    0    0    0    0 -0.00000000000E+00 -0.00000000000E+00 -0.45593999997E+02  0.45594000000E+02  0.51100000000E-03 0.  1.
    9900012    2    1    2    0    0 -0.11828979348E+02  0.49764520344E+00  0.38897265012E+02  0.50528811265E+02  0.29999852320E+02 0.  0.
        -12    1    1    2    0    0  0.11828979348E+02 -0.49764520344E+00 -0.38897265012E+02  0.40659188735E+02  0.00000000000E+00 0.  1.
         11    1    3    3    0    0 -0.79494555427E+00 -0.26107836607E+01 -0.34473857689E+00  0.27508134624E+01  0.51100000000E-03 0.  1.
        -11    1    3    3    0    0 -0.12583752607E+02 -0.27278949826E+01  0.39686569029E+02  0.41723087161E+02  0.51100000000E-03 0. -1.
         12    1    3    3    0    0  0.15497188136E+01  0.58363238467E+01 -0.44456543963E+00  0.60549106414E+01  0.00000000000E+00 0. -1.
</event>
<event>
 7    1  0.4374874E-012  0.5052887E+02  0.7816164E-02  0.1300439E+00
        -11   -1    0    0    0    0  0.00000000000E+00  0.00000000000E+00  0.45593999997E+02  0.45594000000E+02  0.51100000000E-03 0.  1.
         11   -1    0    0    0    0 -0.00000000000E+00 -0.00000000000E+00 -0.45593999997E+02  0.45594000000E+02  0.51100000000E-03 0. -1.
    9900012    2    1    2    0    0 -0.97208047079E+01  0.36007611082E+02 -0.16190213036E+02  0.50528866977E+02  0.30000021664E+02 0.  0.
         12    1    1    2    0    0  0.97208047079E+01 -0.36007611082E+02  0.16190213036E+02  0.40659133023E+02  0.00000000000E+00 0. -1.
         11    1    3    3    0    0  0.10724222216E+01 -0.27033585568E+01 -0.35857417363E+01  0.46169016633E+01  0.51100000000E-03 0. -1.
        -11    1    3    3    0    0 -0.47649092651E+01  0.22067847995E+02  0.24045557537E+01  0.22704100160E+02  0.51100000000E-03 0.  1.
         12    1    3    3    0    0 -0.60283176644E+01  0.16643121644E+02 -0.15009027054E+02  0.23207865154E+02  0.00000000000E+00 0. -1.
</event>
<event>
 7    1  0.4374874E-012  0.5052887E+02  0.7816164E-02  0.1300439E+00
        -11   -1    0    0    0    0  0.00000000000E+00  0.00000000000E+00  0.45593999997E+02  0.45594000000E+02  0.51100000000E-03 0. -1.
         11   -1    0    0    0    0 -0.00000000000E+00 -0.00000000000E+00 -0.45593999997E+02  0.45594000000E+02  0.51100000000E-03 0.  1.
    9900012    2    1    2    0    0  0.37811973701E+02  0.28771296932E+01 -0.14667711044E+02  0.50528868459E+02  0.30000026168E+02 0.  0.
         12    1    1    2    0    0 -0.37811973701E+02 -0.28771296932E+01  0.14667711044E+02  0.40659131541E+02  0.00000000000E+00 0. -1.
         11    1    3    3    0    0 -0.11336396609E+01 -0.31852390798E+01  0.33078526551E+01  0.47299869265E+01  0.51100000000E-03 0. -1.
        -11    1    3    3    0    0  0.20496180978E+02 -0.11382703928E+01 -0.25297150883E+01  0.20683049893E+02  0.51100000000E-03 0.  1.
        -12    1    3    3    0    0  0.18449432383E+02  0.72006391657E+01 -0.15445848610E+02  0.25115831640E+02  0.00000000000E+00 0.  1.
</event>
<event>
 7    1  0.4374874E-012  0.5052886E+02  0.7816164E-02  0.1300439E+00
        -11   -1    0    0    0    0  0.00000000000E+00  0.00000000000E+00  0.45593999997E+02  0.45594000000E+02  0.51100000000E-03 0. -1.
         11   -1    0    0    0    0 -0.00000000000E+00 -0.00000000000E+00 -0.45593999997E+02  0.45594000000E+02  0.51100000000E-03 0.  1.
    9900012    2    1    2    0    0 -0.15912754347E+02 -0.37045479658E+02 -0.52518572249E+01  0.50528864270E+02  0.30000013436E+02 0.  0.
         12    1    1    2    0    0  0.15912754347E+02  0.37045479658E+02  0.52518572249E+01  0.40659135730E+02  0.00000000000E+00 0. -1.
         11    1    3    3    0    0 -0.51631407288E+00 -0.10907167045E+02  0.57724129967E+01  0.12351260067E+02  0.51100000000E-03 0. -1.
        -11    1    3    3    0    0 -0.37109032740E+01 -0.97631554757E+00 -0.96677254270E+01  0.10401389828E+02  0.51100000000E-03 0.  1.
         12    1    3    3    0    0 -0.11685537000E+02 -0.25161997065E+02 -0.13565447947E+01  0.27776214376E+02  0.00000000000E+00 0. -1.
</event>
<event>
 7    1  0.4630854E-012  0.5052886E+02  0.7816164E-02  0.1300439E+00
        -11   -1    0    0    0    0  0.00000000000E+00  0.00000000000E+00  0.45593999997E+02  0.45594000000E+02  0.51100000000E-03 0. -1.
         11   -1    0    0    0    0 -0.00000000000E+00 -0.00000000000E+00 -0.45593999997E+02  0.45594000000E+02  0.51100000000E-03 0.  1.
    9900012    2    1    2    0    0 -0.18457790957E+02  0.30640869566E+02 -0.19329064357E+02  0.50528860023E+02  0.30000000526E+02 0.  0.
         12    1    1    2    0    0  0.18457790957E+02 -0.30640869566E+02  0.19329064357E+02  0.40659139977E+02  0.00000000000E+00 0. -1.
         11    1    3    3    0    0 -0.11137634606E+02  0.15319278289E+02 -0.77991831613E+01  0.20483028345E+02  0.51100000000E-03 0. -1.
        -11    1    3    3    0    0  0.13685739698E+01  0.16470711964E+02 -0.13165341443E+02  0.21130157663E+02  0.51100000000E-03 0.  1.
         12    1    3    3    0    0 -0.86887303201E+01 -0.11491206868E+01  0.16354602473E+01  0.89156740154E+01  0.00000000000E+00 0. -1.
</event>
<event>
 7    1  0.4374874E-012  0.5052886E+02  0.7816164E-02  0.1300439E+00
        -11   -1    0    0    0    0  0.00000000000E+00  0.00000000000E+00  0.45593999997E+02  0.45594000000E+02  0.51100000000E-03 0. -1.
         11   -1    0    0    0    0 -0.00000000000E+00 -0.00000000000E+00 -0.45593999997E+02  0.45594000000E+02  0.51100000000E-03 0.  1.
    9900012    2    1    2    0    0  0.32259705619E+02 -0.12714833723E+02  0.21232285537E+02  0.50528861392E+02  0.30000004686E+02 0.  0.
        -12    1    1    2    0    0 -0.32259705619E+02  0.12714833723E+02 -0.21232285537E+02  0.40659138608E+02  0.00000000000E+00 0.  1.
         11    1    3    3    0    0  0.34727978142E+02 -0.14865430028E+02  0.12888707204E+02  0.39914060798E+02  0.51100000000E-03 0.  1.
        -11    1    3    3    0    0  0.43176179779E+00 -0.16339234417E+01  0.30772885140E+01  0.35108159911E+01  0.51100000000E-03 0. -1.
        -12    1    3    3    0    0 -0.29000343202E+01  0.37845197468E+01  0.52662898195E+01  0.71039846026E+01  0.00000000000E+00 0.  1.
</event>
<event>
 7    1  0.4374874E-012  0.5052887E+02  0.7816164E-02  0.1300439E+00
        -11   -1    0    0    0    0  0.00000000000E+00  0.00000000000E+00  0.45593999997E+02  0.45594000000E+02  0.51100000000E-03 0. -1.
         11   -1    0    0    0    0 -0.00000000000E+00 -0.00000000000E+00 -0.45593999997E+02  0.45594000000E+02  0.51100000000E-03 0.  1.
    9900012    2    1    2    0    0  0.19013108272E+02 -0.19380139274E+02 -0.30266766681E+02  0.50528865113E+02  0.30000015998E+02 0.  0.
         12    1    1    2    0    0 -0.19013108272E+02  0.19380139274E+02  0.30266766681E+02  0.40659134887E+02  0.00000000000E+00 0. -1.
         11    1    3    3    0    0 -0.14622924126E+01 -0.59243267470E+00 -0.23885532499E-01  0.15779246984E+01  0.51100000000E-03 0. -1.
        -11    1    3    3    0    0  0.20823548456E+02 -0.14174651779E+01 -0.19235989602E+02  0.28384021456E+02  0.51100000000E-03 0.  1.
         12    1    3    3    0    0 -0.34814777116E+00 -0.17370241422E+02 -0.11006891547E+02  0.20566918958E+02  0.00000000000E+00 0. -1.
</event>
<event>
 7    1  0.4374874E-012  0.5052887E+02  0.7816164E-02  0.1300439E+00
        -11   -1    0    0    0    0  0.00000000000E+00  0.00000000000E+00  0.45593999997E+02  0.45594000000E+02  0.51100000000E-03 0.  1.
         11   -1    0    0    0    0 -0.00000000000E+00 -0.00000000000E+00 -0.45593999997E+02  0.45594000000E+02  0.51100000000E-03 0. -1.
    9900012    2    1    2    0    0 -0.24737358405E+02 -0.31832073401E+02  0.52865302232E+01  0.50528865729E+02  0.30000017870E+02 0.  0.
         12    1    1    2    0    0  0.24737358405E+02  0.31832073401E+02 -0.52865302232E+01  0.40659134271E+02  0.00000000000E+00 0. -1.
         11    1    3    3    0    0 -0.11304404409E+02 -0.11618887527E+02  0.46752756896E+01  0.16871464354E+02  0.51100000000E-03 0. -1.
        -11    1    3    3    0    0 -0.14850634057E+02 -0.15840574781E+02  0.94611071345E+01  0.23684967590E+02  0.51100000000E-03 0.  1.
         12    1    3    3    0    0  0.14176800617E+01 -0.43726110939E+01 -0.88498526010E+01  0.99724337849E+01  0.00000000000E+00 0. -1.
</event>
<event>
 7    1  0.4374874E-012  0.5052886E+02  0.7816164E-02  0.1300439E+00
        -11   -1    0    0    0    0  0.00000000000E+00  0.00000000000E+00  0.45593999997E+02  0.45594000000E+02  0.51100000000E-03 0. -1.
         11   -1    0    0    0    0 -0.00000000000E+00 -0.00000000000E+00 -0.45593999997E+02  0.45594000000E+02  0.51100000000E-03 0.  1.
    9900012    2    1    2    0    0  0.28953126499E+02  0.19437672575E+02 -0.20905964960E+02  0.50528855640E+02  0.29999987203E+02 0.  0.
         12    1    1    2    0    0 -0.28953126499E+02 -0.19437672575E+02  0.20905964960E+02  0.40659144360E+02  0.00000000000E+00 0. -1.
         11    1    3    3    0    0  0.91342340756E+00  0.38308466774E+01  0.28060836376E+01  0.48356834294E+01  0.51100000000E-03 0. -1.
        -11    1    3    3    0    0  0.21960653086E+02  0.10985764505E+02 -0.44265878690E+01  0.24950991687E+02  0.51100000000E-03 0.  1.
        -12    1    3    3    0    0  0.60790500054E+01  0.46210613927E+01 -0.19285460729E+02  0.20742180524E+02  0.00000000000E+00 0.  1.
</event>
<event>
 7    1  0.4374874E-012  0.5052887E+02  0.7816164E-02  0.1300439E+00
        -11   -1    0    0    0    0  0.00000000000E+00  0.00000000000E+00  0.45593999997E+02  0.45594000000E+02  0.51100000000E-03 0. -1.
         11   -1    0    0    0    0 -0.00000000000E+00 -0.00000000000E+00 -0.45593999997E+02  0.45594000000E+02  0.51100000000E-03 0.  1.
    9900012    2    1    2    0    0 -0.12335083802E+02 -0.27897359767E+01 -0.38642305063E+02  0.50528872368E+02  0.30000038049E+02 0.  0.
         12    1    1    2    0    0  0.12335083802E+02  0.27897359767E+01  0.38642305063E+02  0.40659127632E+02  0.00000000000E+00 0. -1.
         11    1    3    3    0    0  0.27083780266E+01  0.42600167799E+01 -0.18883431885E+02  0.19546535614E+02  0.51100000000E-03 0. -1.
        -11    1    3    3    0    0 -0.72627402021E+01  0.30908279522E+01 -0.55344348110E+00  0.79124530090E+01  0.51100000000E-03 0.  1.
        -12    1    3    3    0    0 -0.77807216267E+01 -0.10140580709E+02 -0.19205429697E+02  0.23069883745E+02  0.00000000000E+00 0.  1.
</event>
<event>
 7    1  0.4374874E-012  0.5052887E+02  0.7816164E-02  0.1300439E+00
        -11   -1    0    0    0    0  0.00000000000E+00  0.00000000000E+00  0.45593999997E+02  0.45594000000E+02  0.51100000000E-03 0. -1.
         11   -1    0    0    0    0 -0.00000000000E+00 -0.00000000000E+00 -0.45593999997E+02  0.45594000000E+02  0.51100000000E-03 0.  1.
    9900012    2    1    2    0    0 -0.16699920467E+02  0.27865887717E+02 -0.24449332036E+02  0.50528869674E+02  0.30000029861E+02 0.  0.
         12    1    1    2    0    0  0.16699920467E+02 -0.27865887717E+02  0.24449332036E+02  0.40659130326E+02  0.00000000000E+00 0. -1.
         11    1    3    3    0    0 -0.10163350450E+02  0.24601912630E+02 -0.18290094683E+02  0.32296677247E+02  0.51100000000E-03 0. -1.
        -11    1    3    3    0    0  0.34386773136E+01  0.58481906493E+01 -0.32643348252E+01  0.75287261638E+01  0.51100000000E-03 0.  1.
         12    1    3    3    0    0 -0.99752473311E+01 -0.25842155626E+01 -0.28949025276E+01  0.10703466263E+02  0.00000000000E+00 0. -1.
</event>
<event>
 7    1  0.4374874E-012  0.5052886E+02  0.7816164E-02  0.1300439E+00
        -11   -1    0    0    0    0  0.00000000000E+00  0.00000000000E+00  0.45593999997E+02  0.45594000000E+02  0.51100000000E-03 0. -1.
         11   -1    0    0    0    0 -0.00000000000E+00 -0.00000000000E+00 -0.45593999997E+02  0.45594000000E+02  0.51100000000E-03 0.  1.
    9900012    2    1    2    0    0 -0.37095296590E+02  0.10634555414E+02 -0.12806667277E+02  0.50528861732E+02  0.30000005721E+02 0.  0.
         12    1    1    2    0    0  0.37095296590E+02 -0.10634555414E+02  0.12806667277E+02  0.40659138268E+02  0.00000000000E+00 0. -1.
         11    1    3    3    0    0 -0.33833155656E+01 -0.24595353520E+01  0.14489950480E+01  0.44267059169E+01  0.51100000000E-03 0. -1.
        -11    1    3    3    0    0  0.11068085442E+01  0.86298116360E+01 -0.20688408265E+01  0.89430854101E+01  0.51100000000E-03 0.  1.
        -12    1    3    3    0    0 -0.34818789568E+02  0.44642791301E+01 -0.12186821499E+02  0.37159070405E+02  0.00000000000E+00 0.  1.
</event>
<event>
 7    1  0.4374874E-012  0.5052883E+02  0.7816164E-02  0.1300439E+00
        -11   -1    0    0    0    0  0.00000000000E+00  0.00000000000E+00  0.45593999997E+02  0.45594000000E+02  0.51100000000E-03 0. -1.
         11   -1    0    0    0    0 -0.00000000000E+00 -0.00000000000E+00 -0.45593999997E+02  0.45594000000E+02  0.51100000000E-03 0.  1.
    9900012    2    1    2    0    0 -0.23593570338E+02 -0.19020937182E+02 -0.27105630427E+02  0.50528833587E+02  0.29999920169E+02 0.  0.
         12    1    1    2    0    0  0.23593570338E+02  0.19020937182E+02  0.27105630427E+02  0.40659166413E+02  0.00000000000E+00 0. -1.
         11    1    3    3    0    0 -0.98366096732E+01 -0.50392603463E+01 -0.11908865285E+02  0.16247279998E+02  0.51100000000E-03 0. -1.
        -11    1    3    3    0    0  0.17782832203E+01 -0.12848802054E+02 -0.13320046543E+02  0.18592408279E+02  0.51100000000E-03 0.  1.
         12    1    3    3    0    0 -0.15535243885E+02 -0.11328747818E+01 -0.18767185989E+01  0.15689145309E+02  0.00000000000E+00 0. -1.
</event>
<event>
 7    1  0.4374874E-012  0.5052886E+02  0.7816164E-02  0.1300439E+00
        -11   -1    0    0    0    0  0.00000000000E+00  0.00000000000E+00  0.45593999997E+02  0.45594000000E+02  0.51100000000E-03 0. -1.
         11   -1    0    0    0    0 -0.00000000000E+00 -0.00000000000E+00 -0.45593999997E+02  0.45594000000E+02  0.51100000000E-03 0.  1.
    9900012    2    1    2    0    0  0.32087610139E+02  0.15686443157E+02  0.19429001827E+02  0.50528864061E+02  0.30000012798E+02 0.  0.
        -12    1    1    2    0    0 -0.32087610139E+02 -0.15686443157E+02 -0.19429001827E+02  0.40659135939E+02  0.00000000000E+00 0.  1.
         11    1    3    3    0    0  0.11250461724E+02  0.13578522615E+02  0.73027471427E+01  0.19086101789E+02  0.51100000000E-03 0. -1.
        -11    1    3    3    0    0  0.54557296358E+01  0.10242194106E+02  0.45417795132E+01  0.12461752981E+02  0.51100000000E-03 0.  1.
         12    1    3    3    0    0  0.15381418779E+02 -0.81342735633E+01  0.75844751712E+01  0.18981009291E+02  0.00000000000E+00 0. -1.
</event>
<event>
 7    1  0.4374874E-012  0.5052886E+02  0.7816164E-02  0.1300439E+00
        -11   -1    0    0    0    0  0.00000000000E+00  0.00000000000E+00  0.45593999997E+02  0.45594000000E+02  0.51100000000E-03 0. -1.
         11   -1    0    0    0    0 -0.00000000000E+00 -0.00000000000E+00 -0.45593999997E+02  0.45594000000E+02  0.51100000000E-03 0.  1.
    9900012    2    1    2    0    0  0.97698090132E+01 -0.18089582951E+02 -0.35078250400E+02  0.50528857970E+02  0.29999994284E+02 0.  0.
         12    1    1    2    0    0 -0.97698090132E+01  0.18089582951E+02  0.35078250400E+02  0.40659142030E+02  0.00000000000E+00 0. -1.
         11    1    3    3    0    0 -0.43807885793E+01 -0.91114244638E+01 -0.21072859499E+01  0.10327149591E+02  0.51100000000E-03 0. -1.
        -11    1    3    3    0    0  0.11009036543E+02 -0.28721795174E+01 -0.31053638138E+02  0.33072295696E+02  0.51100000000E-03 0.  1.
         12    1    3    3    0    0  0.31415610497E+01 -0.61059789697E+01 -0.19173263131E+01  0.71294126825E+01  0.00000000000E+00 0. -1.
</event>
<event>
 7    1  0.4374874E-012  0.5052886E+02  0.7816164E-02  0.1300439E+00
        -11   -1    0    0    0    0  0.00000000000E+00  0.00000000000E+00  0.45593999997E+02  0.45594000000E+02  0.51100000000E-03 0. -1.
         11   -1    0    0    0    0 -0.00000000000E+00 -0.00000000000E+00 -0.45593999997E+02  0.45594000000E+02  0.51100000000E-03 0.  1.
    9900012    2    1    2    0    0  0.39453208700E+02  0.67681322937E+01 -0.71276024633E+01  0.50528855784E+02  0.29999987641E+02 0.  0.
        -12    1    1    2    0    0 -0.39453208700E+02 -0.67681322937E+01  0.71276024633E+01  0.40659144216E+02  0.00000000000E+00 0.  1.
         11    1    3    3    0    0 -0.73932970963E+00  0.96014767673E+00  0.48188922326E+01  0.49689248929E+01  0.51100000000E-03 0. -1.
        -11    1    3    3    0    0  0.77856424645E+01 -0.74004568420E-01 -0.98517426099E+01  0.12557011506E+02  0.51100000000E-03 0.  1.
         12    1    3    3    0    0  0.32406895946E+02  0.58819891854E+01 -0.20947520860E+01  0.33002919385E+02  0.00000000000E+00 0. -1.
</event>
<event>
 7    1  0.4374874E-012  0.5052885E+02  0.7816164E-02  0.1300439E+00
        -11   -1    0    0    0    0  0.00000000000E+00  0.00000000000E+00  0.45593999997E+02  0.45594000000E+02  0.51100000000E-03 0. -1.
         11   -1    0    0    0    0 -0.00000000000E+00 -0.00000000000E+00 -0.45593999997E+02  0.45594000000E+02  0.51100000000E-03 0.  1.
    9900012    2    1    2    0    0 -0.26257070655E+02  0.15768742283E+01  0.31003972999E+02  0.50528848098E+02  0.29999964278E+02 0.  0.
        -12    1    1    2    0    0  0.26257070655E+02 -0.15768742283E+01 -0.31003972999E+02  0.40659151902E+02  0.00000000000E+00 0.  1.
         11    1    3    3    0    0 -0.23560938495E+02  0.25401454121E+01  0.19467652010E+02  0.30668544740E+02  0.51100000000E-03 0.  1.
        -11    1    3    3    0    0  0.29566760042E+01 -0.19992525757E+01  0.13361885682E+02  0.13830362725E+02  0.51100000000E-03 0. -1.
         12    1    3    3    0    0 -0.56528081642E+01  0.10359813919E+01 -0.18255646927E+01  0.60299406326E+01  0.00000000000E+00 0. -1.
</event>
<event>
 7    1  0.4374874E-012  0.5052886E+02  0.7816164E-02  0.1300439E+00
        -11   -1    0    0    0    0  0.00000000000E+00  0.00000000000E+00  0.45593999997E+02  0.45594000000E+02  0.51100000000E-03 0. -1.
         11   -1    0    0    0    0 -0.00000000000E+00 -0.00000000000E+00 -0.45593999997E+02  0.45594000000E+02  0.51100000000E-03 0.  1.
    9900012    2    1    2    0    0  0.23314668352E+01 -0.15899925043E+02  0.37348654583E+02  0.50528863842E+02  0.30000012133E+02 0.  0.
        -12    1    1    2    0    0 -0.23314668352E+01  0.15899925043E+02 -0.37348654583E+02  0.40659136158E+02  0.00000000000E+00 0.  1.
         11    1    3    3    0    0 -0.34301134489E+01 -0.43067893296E+01  0.18335044413E+02  0.19143875430E+02  0.51100000000E-03 0. -1.
        -11    1    3    3    0    0  0.10690762878E+02 -0.31917806101E+01  0.18533402418E+02  0.21632542149E+02  0.51100000000E-03 0.  1.
        -12    1    3    3    0    0 -0.49291825940E+01 -0.84013551029E+01  0.48020775235E+00  0.97524462622E+01  0.00000000000E+00 0.  1.
</event>
<event>
 7    1  0.4374874E-012  0.5052883E+02  0.7816164E-02  0.1300439E+00
        -11   -1    0    0    0    0  0.00000000000E+00  0.00000000000E+00  0.45593999997E+02  0.45594000000E+02  0.51100000000E-03 0. -1.
         11   -1    0    0    0    0 -0.00000000000E+00 -0.00000000000E+00 -0.45593999997E+02  0.45594000000E+02  0.51100000000E-03 0.  1.
    9900012    2    1    2    0    0 -0.25974753836E+01  0.23135387229E+02 -0.33334298625E+02  0.50528825323E+02  0.29999895052E+02 0.  0.
         12    1    1    2    0    0  0.25974753836E+01 -0.23135387229E+02  0.33334298625E+02  0.40659174677E+02  0.00000000000E+00 0. -1.
         11    1    3    3    0    0  0.21472873751E+01  0.90528990223E+01  0.97808005123E+00  0.93553441747E+01  0.51100000000E-03 0. -1.
        -11    1    3    3    0    0  0.61437762524E+01  0.65099440820E+01 -0.18375279115E+02  0.20439575372E+02  0.51100000000E-03 0.  1.
         12    1    3    3    0    0 -0.10888539011E+02  0.75725441249E+01 -0.15937099561E+02  0.20733905776E+02  0.00000000000E+00 0. -1.
</event>
<event>
 7    1  0.4374874E-012  0.5052878E+02  0.7816164E-02  0.1300439E+00
        -11   -1    0    0    0    0  0.00000000000E+00  0.00000000000E+00  0.45593999997E+02  0.45594000000E+02  0.51100000000E-03 0. -1.
         11   -1    0    0    0    0 -0.00000000000E+00 -0.00000000000E+00 -0.45593999997E+02  0.45594000000E+02  0.51100000000E-03 0.  1.
    9900012    2    1    2    0    0  0.37555240583E+02  0.14023131591E+02  0.67917319299E+01  0.50528782872E+02  0.29999766017E+02 0.  0.
        -12    1    1    2    0    0 -0.37555240583E+02 -0.14023131591E+02 -0.67917319299E+01  0.40659217128E+02  0.00000000000E+00 0.  1.
         11    1    3    3    0    0  0.25232886135E+02  0.62957291064E+01  0.14661145661E+02  0.29854378909E+02  0.51100000000E-03 0. -1.
        -11    1    3    3    0    0  0.66088638360E+01  0.76440778225E+01  0.96738430943E+00  0.10151100414E+02  0.51100000000E-03 0.  1.
        -12    1    3    3    0    0  0.57134906118E+01  0.83324661969E-01 -0.88367980405E+01  0.10523303549E+02  0.00000000000E+00 0.  1.
</event>
<event>
 7    1  0.4374874E-012  0.5052886E+02  0.7816164E-02  0.1300439E+00
        -11   -1    0    0    0    0  0.00000000000E+00  0.00000000000E+00  0.45593999997E+02  0.45594000000E+02  0.51100000000E-03 0. -1.
         11   -1    0    0    0    0 -0.00000000000E+00 -0.00000000000E+00 -0.45593999997E+02  0.45594000000E+02  0.51100000000E-03 0.  1.
    9900012    2    1    2    0    0 -0.80223606304E+01  0.12533379738E+02 -0.37838099296E+02  0.50528860363E+02  0.30000001559E+02 0.  0.
         12    1    1    2    0    0  0.80223606304E+01 -0.12533379738E+02  0.37838099296E+02  0.40659139637E+02  0.00000000000E+00 0. -1.
         11    1    3    3    0    0 -0.34445816601E+01  0.72515795671E+01 -0.21719758565E+02  0.23155959523E+02  0.51100000000E-03 0. -1.
        -11    1    3    3    0    0  0.78532665717E+01  0.61692368719E+00 -0.10063469308E+02  0.12779976739E+02  0.51100000000E-03 0.  1.
         12    1    3    3    0    0 -0.12431045542E+02  0.46648764835E+01 -0.60548714226E+01  0.14592924101E+02  0.00000000000E+00 0. -1.
</event>
<event>
 7    1  0.4374874E-012  0.5052886E+02  0.7816164E-02  0.1300439E+00
        -11   -1    0    0    0    0  0.00000000000E+00  0.00000000000E+00  0.45593999997E+02  0.45594000000E+02  0.51100000000E-03 0. -1.
         11   -1    0    0    0    0 -0.00000000000E+00 -0.00000000000E+00 -0.45593999997E+02  0.45594000000E+02  0.51100000000E-03 0.  1.
    9900012    2    1    2    0    0  0.10472809457E+02 -0.17390401592E+02 -0.35228673927E+02  0.50528864838E+02  0.30000015162E+02 0.  0.
         12    1    1    2    0    0 -0.10472809457E+02  0.17390401592E+02  0.35228673927E+02  0.40659135162E+02  0.00000000000E+00 0. -1.
         11    1    3    3    0    0 -0.16728667727E+01 -0.10025141738E+02 -0.56137041105E+01  0.11611013057E+02  0.51100000000E-03 0.  1.
        -11    1    3    3    0    0  0.71392064529E+00  0.41486402976E+01  0.94805583020E+00  0.43150560976E+01  0.51100000000E-03 0. -1.
         12    1    3    3    0    0  0.11431755585E+02 -0.11513900152E+02 -0.30563025647E+02  0.34602795684E+02  0.00000000000E+00 0. -1.
</event>
<event>
 7    1  0.4374874E-012  0.5052886E+02  0.7816164E-02  0.1300439E+00
        -11   -1    0    0    0    0  0.00000000000E+00  0.00000000000E+00  0.45593999997E+02  0.45594000000E+02  0.51100000000E-03 0. -1.
         11   -1    0    0    0    0 -0.00000000000E+00 -0.00000000000E+00 -0.45593999997E+02  0.45594000000E+02  0.51100000000E-03 0.  1.
    9900012    2    1    2    0    0 -0.17048587006E+02  0.25330524377E+02 -0.26849126708E+02  0.50528863400E+02  0.30000010790E+02 0.  0.
         12    1    1    2    0    0  0.17048587006E+02 -0.25330524377E+02  0.26849126708E+02  0.40659136600E+02  0.00000000000E+00 0. -1.
         11    1    3    3    0    0 -0.90057861954E+00 -0.11796237304E+01  0.18384476286E+01  0.23627196066E+01  0.51100000000E-03 0. -1.
        -11    1    3    3    0    0  0.26717854629E+01  0.17712557010E+02 -0.13610687924E+02  0.22497198479E+02  0.51100000000E-03 0.  1.
        -12    1    3    3    0    0 -0.18819793849E+02  0.87975910973E+01 -0.15076886413E+02  0.25668945314E+02  0.00000000000E+00 0.  1.
</event>
<event>
 7    1  0.4374874E-012  0.5052886E+02  0.7816164E-02  0.1300439E+00
        -11   -1    0    0    0    0  0.00000000000E+00  0.00000000000E+00  0.45593999997E+02  0.45594000000E+02  0.51100000000E-03 0. -1.
         11   -1    0    0    0    0 -0.00000000000E+00 -0.00000000000E+00 -0.45593999997E+02  0.45594000000E+02  0.51100000000E-03 0.  1.
    9900012    2    1    2    0    0  0.13519758730E+02 -0.11099105501E+02 -0.36704114071E+02  0.50528855779E+02  0.29999987627E+02 0.  0.
         12    1    1    2    0    0 -0.13519758730E+02  0.11099105501E+02  0.36704114071E+02  0.40659144221E+02  0.00000000000E+00 0. -1.
         11    1    3    3    0    0 -0.60102807866E+01  0.30136597519E+01 -0.94202225142E+01  0.11573513413E+02  0.51100000000E-03 0. -1.
        -11    1    3    3    0    0  0.14012881094E+02 -0.83905694165E+01 -0.81863155722E+01  0.18269599191E+02  0.51100000000E-03 0.  1.
        -12    1    3    3    0    0  0.55171584224E+01 -0.57221958367E+01 -0.19097575984E+02  0.20685743176E+02  0.00000000000E+00 0.  1.
</event>
<event>
 7    1  0.4374874E-012  0.5052887E+02  0.7816164E-02  0.1300439E+00
        -11   -1    0    0    0    0  0.00000000000E+00  0.00000000000E+00  0.45593999997E+02  0.45594000000E+02  0.51100000000E-03 0. -1.
         11   -1    0    0    0    0 -0.00000000000E+00 -0.00000000000E+00 -0.45593999997E+02  0.45594000000E+02  0.51100000000E-03 0.  1.
    9900012    2    1    2    0    0  0.77717376159E+01 -0.20464361175E+02  0.34263321305E+02  0.50528866085E+02  0.30000018952E+02 0.  0.
        -12    1    1    2    0    0 -0.77717376159E+01  0.20464361175E+02 -0.34263321305E+02  0.40659133915E+02  0.00000000000E+00 0.  1.
         11    1    3    3    0    0  0.11543692821E+02 -0.20528022404E+02  0.25471781246E+02  0.34691039014E+02  0.51100000000E-03 0. -1.
        -11    1    3    3    0    0 -0.54049760761E+01 -0.40793066578E+01  0.91353082660E+01  0.11371383670E+02  0.51100000000E-03 0.  1.
        -12    1    3    3    0    0  0.16330208710E+01  0.41429678867E+01 -0.34376820720E+00  0.44664434011E+01  0.00000000000E+00 0.  1.
</event>
<event>
 7    1  0.4374874E-012  0.5052884E+02  0.7816164E-02  0.1300439E+00
        -11   -1    0    0    0    0  0.00000000000E+00  0.00000000000E+00  0.45593999997E+02  0.45594000000E+02  0.51100000000E-03 0. -1.
         11   -1    0    0    0    0 -0.00000000000E+00 -0.00000000000E+00 -0.45593999997E+02  0.45594000000E+02  0.51100000000E-03 0.  1.
    9900012    2    1    2    0    0  0.77540052074E+01 -0.36832464864E+02 -0.15375696369E+02  0.50528842317E+02  0.29999946705E+02 0.  0.
         12    1    1    2    0    0 -0.77540052074E+01  0.36832464864E+02  0.15375696369E+02  0.40659157683E+02  0.00000000000E+00 0. -1.
         11    1    3    3    0    0 -0.65301648769E+01 -0.11846425685E+02 -0.33215748011E+01  0.13928880581E+02  0.51100000000E-03 0. -1.
        -11    1    3    3    0    0  0.58589388443E-01  0.18777512860E+01 -0.50744999736E+01  0.54110934987E+01  0.51100000000E-03 0.  1.
        -12    1    3    3    0    0  0.14225580696E+02 -0.26863790465E+02 -0.69796215939E+01  0.31188868237E+02  0.00000000000E+00 0.  1.
</event>
<event>
 7    1  0.4374874E-012  0.5052886E+02  0.7816164E-02  0.1300439E+00
        -11   -1    0    0    0    0  0.00000000000E+00  0.00000000000E+00  0.45593999997E+02  0.45594000000E+02  0.51100000000E-03 0. -1.
         11   -1    0    0    0    0 -0.00000000000E+00 -0.00000000000E+00 -0.45593999997E+02  0.45594000000E+02  0.51100000000E-03 0.  1.
    9900012    2    1    2    0    0  0.93332868601E+01  0.76540255624E+01 -0.38826165436E+02  0.50528862363E+02  0.30000007638E+02 0.  0.
         12    1    1    2    0    0 -0.93332868601E+01 -0.76540255624E+01  0.38826165436E+02  0.40659137637E+02  0.00000000000E+00 0. -1.
         11    1    3    3    0    0  0.23278330736E+01 -0.43340640261E+01 -0.20297134564E+01  0.53219033040E+01  0.51100000000E-03 0. -1.
        -11    1    3    3    0    0 -0.69150811847E+01  0.58777380164E+01 -0.22810508365E+02  0.24549652627E+02  0.51100000000E-03 0.  1.
         12    1    3    3    0    0  0.13920534971E+02  0.61103515721E+01 -0.13985943615E+02  0.20657306432E+02  0.00000000000E+00 0. -1.
</event>
<event>
 7    1  0.4374874E-012  0.5052885E+02  0.7816164E-02  0.1300439E+00
        -11   -1    0    0    0    0  0.00000000000E+00  0.00000000000E+00  0.45593999997E+02  0.45594000000E+02  0.51100000000E-03 0. -1.
         11   -1    0    0    0    0 -0.00000000000E+00 -0.00000000000E+00 -0.45593999997E+02  0.45594000000E+02  0.51100000000E-03 0.  1.
    9900012    2    1    2    0    0  0.22646214392E+01  0.31068376479E+02  0.26130328210E+02  0.50528848759E+02  0.29999966287E+02 0.  0.
        -12    1    1    2    0    0 -0.22646214392E+01 -0.31068376479E+02 -0.26130328210E+02  0.40659151241E+02  0.00000000000E+00 0.  1.
         11    1    3    3    0    0  0.67997533152E+01  0.15080322656E+02  0.12210369547E+02  0.20560785523E+02  0.51100000000E-03 0. -1.
        -11    1    3    3    0    0 -0.31828734448E+01  0.97632568163E+01  0.19147705356E+02  0.21727551350E+02  0.51100000000E-03 0.  1.
        -12    1    3    3    0    0 -0.13522584312E+01  0.62247970068E+01 -0.52277466938E+01  0.82405118855E+01  0.00000000000E+00 0.  1.
</event>
<event>
 7    1  0.4374874E-012  0.5052886E+02  0.7816164E-02  0.1300439E+00
        -11   -1    0    0    0    0  0.00000000000E+00  0.00000000000E+00  0.45593999997E+02  0.45594000000E+02  0.51100000000E-03 0. -1.
         11   -1    0    0    0    0 -0.00000000000E+00 -0.00000000000E+00 -0.45593999997E+02  0.45594000000E+02  0.51100000000E-03 0.  1.
    9900012    2    1    2    0    0 -0.21343736853E+02  0.23608292143E+02 -0.25303341438E+02  0.50528860207E+02  0.30000001086E+02 0.  0.
         12    1    1    2    0    0  0.21343736853E+02 -0.23608292143E+02  0.25303341438E+02  0.40659139793E+02  0.00000000000E+00 0. -1.
         11    1    3    3    0    0 -0.16307809470E+02  0.12132235115E+02 -0.84248989352E+01  0.22002606685E+02  0.51100000000E-03 0. -1.
        -11    1    3    3    0    0 -0.10243567840E+02  0.11088914568E+02 -0.17674426822E+02  0.23243925489E+02  0.51100000000E-03 0.  1.
        -12    1    3    3    0    0  0.52076404566E+01  0.38714245964E+00  0.79598431983E+00  0.52823280329E+01  0.00000000000E+00 0.  1.
</event>
<event>
 7    1  0.4374874E-012  0.5052886E+02  0.7816164E-02  0.1300439E+00
        -11   -1    0    0    0    0  0.00000000000E+00  0.00000000000E+00  0.45593999997E+02  0.45594000000E+02  0.51100000000E-03 0. -1.
         11   -1    0    0    0    0 -0.00000000000E+00 -0.00000000000E+00 -0.45593999997E+02  0.45594000000E+02  0.51100000000E-03 0.  1.
    9900012    2    1    2    0    0 -0.15331950432E+02 -0.17793268103E+02  0.33188802654E+02  0.50528859386E+02  0.29999998591E+02 0.  0.
        -12    1    1    2    0    0  0.15331950432E+02  0.17793268103E+02 -0.33188802654E+02  0.40659140614E+02  0.00000000000E+00 0.  1.
         11    1    3    3    0    0 -0.58421234255E+01  0.20926842110E+01  0.13720450269E+02  0.15058568630E+02  0.51100000000E-03 0. -1.
        -11    1    3    3    0    0 -0.14774104090E+02 -0.10025920223E+02  0.83953756871E+01  0.19730067440E+02  0.51100000000E-03 0.  1.
         12    1    3    3    0    0  0.52842770832E+01 -0.98600320905E+01  0.11072976697E+02  0.15740223317E+02  0.00000000000E+00 0. -1.
</event>
<event>
 7    1  0.4374874E-012  0.5052891E+02  0.7816164E-02  0.1300439E+00
        -11   -1    0    0    0    0  0.00000000000E+00  0.00000000000E+00  0.45593999997E+02  0.45594000000E+02  0.51100000000E-03 0.  1.
         11   -1    0    0    0    0 -0.00000000000E+00 -0.00000000000E+00 -0.45593999997E+02  0.45594000000E+02  0.51100000000E-03 0. -1.
    9900012    2    1    2    0    0 -0.37664835114E+02  0.10208548714E+02  0.11415209362E+02  0.50528913982E+02  0.30000164540E+02 0.  0.
        -12    1    1    2    0    0  0.37664835114E+02 -0.10208548714E+02 -0.11415209362E+02  0.40659086018E+02  0.00000000000E+00 0.  1.
         11    1    3    3    0    0 -0.16410411055E+02  0.16315804152E+02  0.48132439952E+01  0.23636293579E+02  0.51100000000E-03 0. -1.
        -11    1    3    3    0    0  0.18767505530E+01 -0.15925300397E+01  0.19210708846E+00  0.24688560023E+01  0.51100000000E-03 0.  1.
         12    1    3    3    0    0 -0.23131174612E+02 -0.45147253983E+01  0.64098582787E+01  0.24423764401E+02  0.00000000000E+00 0. -1.
</event>
<event>
 7    1  0.4374874E-012  0.5052887E+02  0.7816164E-02  0.1300439E+00
        -11   -1    0    0    0    0  0.00000000000E+00  0.00000000000E+00  0.45593999997E+02  0.45594000000E+02  0.51100000000E-03 0. -1.
         11   -1    0    0    0    0 -0.00000000000E+00 -0.00000000000E+00 -0.45593999997E+02  0.45594000000E+02  0.51100000000E-03 0.  1.
    9900012    2    1    2    0    0  0.98020126119E+00 -0.34291805625E+01  0.40502407227E+02  0.50528867385E+02  0.30000022902E+02 0.  0.
        -12    1    1    2    0    0 -0.98020126119E+00  0.34291805625E+01 -0.40502407227E+02  0.40659132615E+02  0.00000000000E+00 0.  1.
         11    1    3    3    0    0 -0.43146057125E+01  0.40242448956E+01  0.41490672199E+01  0.72128446878E+01  0.51100000000E-03 0. -1.
        -11    1    3    3    0    0 -0.11213195532E+01 -0.14182389554E+02  0.20942441828E+02  0.25317649990E+02  0.51100000000E-03 0.  1.
         12    1    3    3    0    0  0.64161265269E+01  0.67289640962E+01  0.15410898179E+02  0.17998372707E+02  0.00000000000E+00 0. -1.
</event>
<event>
 7    1  0.4374874E-012  0.5052889E+02  0.7816164E-02  0.1300439E+00
        -11   -1    0    0    0    0  0.00000000000E+00  0.00000000000E+00  0.45593999997E+02  0.45594000000E+02  0.51100000000E-03 0. -1.
         11   -1    0    0    0    0 -0.00000000000E+00 -0.00000000000E+00 -0.45593999997E+02  0.45594000000E+02  0.51100000000E-03 0.  1.
    9900012    2    1    2    0    0  0.16745670441E+02 -0.10051038310E+02  0.35661219399E+02  0.50528887631E+02  0.30000084442E+02 0.  0.
        -12    1    1    2    0    0 -0.16745670441E+02  0.10051038310E+02 -0.35661219399E+02  0.40659112369E+02  0.00000000000E+00 0.  1.
         11    1    3    3    0    0  0.11059137982E+02 -0.11603233589E+02  0.34972479956E+02  0.38470949003E+02  0.51100000000E-03 0. -1.
        -11    1    3    3    0    0 -0.47568075601E+00 -0.26991302148E+00  0.45356469415E+01  0.45685028904E+01  0.51100000000E-03 0.  1.
        -12    1    3    3    0    0  0.61622132150E+01  0.18221083006E+01 -0.38469074983E+01  0.74894357376E+01  0.00000000000E+00 0.  1.
</event>
<event>
 7    1  0.4374874E-012  0.5052879E+02  0.7816164E-02  0.1300439E+00
        -11   -1    0    0    0    0  0.00000000000E+00  0.00000000000E+00  0.45593999997E+02  0.45594000000E+02  0.51100000000E-03 0. -1.
         11   -1    0    0    0    0 -0.00000000000E+00 -0.00000000000E+00 -0.45593999997E+02  0.45594000000E+02  0.51100000000E-03 0.  1.
    9900012    2    1    2    0    0  0.95512643992E+01  0.19698599947E+02 -0.34262372043E+02  0.50528786659E+02  0.29999777529E+02 0.  0.
         12    1    1    2    0    0 -0.95512643992E+01 -0.19698599947E+02  0.34262372043E+02  0.40659213341E+02  0.00000000000E+00 0. -1.
         11    1    3    3    0    0 -0.68283122190E+01  0.40755505539E+01 -0.28879690405E+01  0.84602792813E+01  0.51100000000E-03 0. -1.
        -11    1    3    3    0    0  0.20362577692E+01  0.13109229666E+02 -0.12481868773E+02  0.18215249009E+02  0.51100000000E-03 0.  1.
        -12    1    3    3    0    0  0.14343318849E+02  0.25138197269E+01 -0.18892534229E+02  0.23853258369E+02  0.00000000000E+00 0.  1.
</event>
<event>
 7    1  0.4374874E-012  0.5052886E+02  0.7816164E-02  0.1300439E+00
        -11   -1    0    0    0    0  0.00000000000E+00  0.00000000000E+00  0.45593999997E+02  0.45594000000E+02  0.51100000000E-03 0. -1.
         11   -1    0    0    0    0 -0.00000000000E+00 -0.00000000000E+00 -0.45593999997E+02  0.45594000000E+02  0.51100000000E-03 0.  1.
    9900012    2    1    2    0    0 -0.28412326719E+02  0.69738450276E+01 -0.28235983334E+02  0.50528861065E+02  0.30000003694E+02 0.  0.
         12    1    1    2    0    0  0.28412326719E+02 -0.69738450276E+01  0.28235983334E+02  0.40659138935E+02  0.00000000000E+00 0. -1.
         11    1    3    3    0    0 -0.18845555023E+02  0.14197488340E+01 -0.10301798825E+02  0.21524351098E+02  0.51100000000E-03 0. -1.
        -11    1    3    3    0    0 -0.11927704827E+02  0.82066954601E+01 -0.20154963633E+02  0.24816175211E+02  0.51100000000E-03 0.  1.
         12    1    3    3    0    0  0.23609331307E+01 -0.26525992665E+01  0.22207791237E+01  0.41883347565E+01  0.00000000000E+00 0. -1.
</event>
<event>
 7    1  0.4374874E-012  0.5052886E+02  0.7816164E-02  0.1300439E+00
        -11   -1    0    0    0    0  0.00000000000E+00  0.00000000000E+00  0.45593999997E+02  0.45594000000E+02  0.51100000000E-03 0. -1.
         11   -1    0    0    0    0 -0.00000000000E+00 -0.00000000000E+00 -0.45593999997E+02  0.45594000000E+02  0.51100000000E-03 0.  1.
    9900012    2    1    2    0    0 -0.15728441288E+02  0.20356589057E+02 -0.31486367118E+02  0.50528857145E+02  0.29999991779E+02 0.  0.
         12    1    1    2    0    0  0.15728441288E+02 -0.20356589057E+02  0.31486367118E+02  0.40659142855E+02  0.00000000000E+00 0. -1.
         11    1    3    3    0    0 -0.11860856324E+02  0.34180552331E+01 -0.56920935708E+01  0.13592753356E+02  0.51100000000E-03 0. -1.
        -11    1    3    3    0    0 -0.46345714725E+01  0.91711565884E+01 -0.27136054497E+02  0.29016457741E+02  0.51100000000E-03 0.  1.
         12    1    3    3    0    0  0.76698650821E+00  0.77673772358E+01  0.13417809498E+01  0.79196460492E+01  0.00000000000E+00 0. -1.
</event>
<event>
 7    1  0.4374874E-012  0.5052880E+02  0.7816164E-02  0.1300439E+00
        -11   -1    0    0    0    0  0.00000000000E+00  0.00000000000E+00  0.45593999997E+02  0.45594000000E+02  0.51100000000E-03 0. -1.
         11   -1    0    0    0    0 -0.00000000000E+00 -0.00000000000E+00 -0.45593999997E+02  0.45594000000E+02  0.51100000000E-03 0.  1.
    9900012    2    1    2    0    0  0.35496529744E+02  0.32698770621E+01 -0.19556966881E+02  0.50528798416E+02  0.29999813264E+02 0.  0.
         12    1    1    2    0    0 -0.35496529744E+02 -0.32698770621E+01  0.19556966881E+02  0.40659201584E+02  0.00000000000E+00 0. -1.
         11    1    3    3    0    0  0.18286222069E+02  0.85195223258E+01 -0.21079245002E+02  0.29177092870E+02  0.51100000000E-03 0.  1.
        -11    1    3    3    0    0 -0.16902193860E+01 -0.13352694614E+00 -0.13576028112E+00  0.17009121474E+01  0.51100000000E-03 0. -1.
        -12    1    3    3    0    0  0.18900527062E+02 -0.51161183176E+01  0.16580384026E+01  0.19650793399E+02  0.00000000000E+00 0.  1.
</event>
<event>
 7    1  0.4374874E-012  0.5052888E+02  0.7816164E-02  0.1300439E+00
        -11   -1    0    0    0    0  0.00000000000E+00  0.00000000000E+00  0.45593999997E+02  0.45594000000E+02  0.51100000000E-03 0. -1.
         11   -1    0    0    0    0 -0.00000000000E+00 -0.00000000000E+00 -0.45593999997E+02  0.45594000000E+02  0.51100000000E-03 0.  1.
    9900012    2    1    2    0    0 -0.10136181460E+02  0.92844410549E+01 -0.38265144070E+02  0.50528877149E+02  0.30000052583E+02 0.  0.
         12    1    1    2    0    0  0.10136181460E+02 -0.92844410549E+01  0.38265144070E+02  0.40659122851E+02  0.00000000000E+00 0. -1.
         11    1    3    3    0    0  0.16253877873E+01 -0.89804944769E+01 -0.14446113441E+02  0.17087462079E+02  0.51100000000E-03 0. -1.
        -11    1    3    3    0    0 -0.18888025037E+01  0.45169208775E+01 -0.11525515470E+02  0.12522286382E+02  0.51100000000E-03 0.  1.
        -12    1    3    3    0    0 -0.98727667437E+01  0.13748014654E+02 -0.12293515159E+02  0.20919128688E+02  0.00000000000E+00 0.  1.
</event>
<event>
 7    1  0.4374874E-012  0.5052884E+02  0.7816164E-02  0.1300439E+00
        -11   -1    0    0    0    0  0.00000000000E+00  0.00000000000E+00  0.45593999997E+02  0.45594000000E+02  0.51100000000E-03 0. -1.
         11   -1    0    0    0    0 -0.00000000000E+00 -0.00000000000E+00 -0.45593999997E+02  0.45594000000E+02  0.51100000000E-03 0.  1.
    9900012    2    1    2    0    0  0.39686453418E+02 -0.25299953163E+01 -0.84706320419E+01  0.50528842749E+02  0.29999948020E+02 0.  0.
        -12    1    1    2    0    0 -0.39686453418E+02  0.25299953163E+01  0.84706320419E+01  0.40659157251E+02  0.00000000000E+00 0.  1.
         11    1    3    3    0    0  0.31466625408E+02  0.69999822075E+01 -0.65189414366E+01  0.32888369725E+02  0.51100000000E-03 0. -1.
        -11    1    3    3    0    0  0.10244764000E+02 -0.39378745346E+01 -0.34540963949E+01  0.11506208213E+02  0.51100000000E-03 0.  1.
        -12    1    3    3    0    0 -0.20249359908E+01 -0.55921029892E+01  0.15024057895E+01  0.61342648105E+01  0.00000000000E+00 0.  1.
</event>
<event>
 7    1  0.4374874E-012  0.5052880E+02  0.7816164E-02  0.1300439E+00
        -11   -1    0    0    0    0  0.00000000000E+00  0.00000000000E+00  0.45593999997E+02  0.45594000000E+02  0.51100000000E-03 0.  1.
         11   -1    0    0    0    0 -0.00000000000E+00 -0.00000000000E+00 -0.45593999997E+02  0.45594000000E+02  0.51100000000E-03 0. -1.
    9900012    2    1    2    0    0  0.45248265020E+01  0.40345338842E+02  0.22249692253E+01  0.50528795517E+02  0.29999804454E+02 0.  0.
        -12    1    1    2    0    0 -0.45248265020E+01 -0.40345338842E+02 -0.22249692253E+01  0.40659204483E+02  0.00000000000E+00 0.  1.
         11    1    3    3    0    0  0.10161387875E+02  0.21006459016E+02  0.33607585438E+01  0.23575831315E+02  0.51100000000E-03 0. -1.
        -11    1    3    3    0    0  0.11969625366E+01 -0.28769798065E+01 -0.19846096484E+01  0.36943751621E+01  0.51100000000E-03 0.  1.
        -12    1    3    3    0    0 -0.68335239091E+01  0.22215859632E+02  0.84882032990E+00  0.23258589040E+02  0.00000000000E+00 0.  1.
</event>
<event>
 7    1  0.4374874E-012  0.5052886E+02  0.7816164E-02  0.1300439E+00
        -11   -1    0    0    0    0  0.00000000000E+00  0.00000000000E+00  0.45593999997E+02  0.45594000000E+02  0.51100000000E-03 0. -1.
         11   -1    0    0    0    0 -0.00000000000E+00 -0.00000000000E+00 -0.45593999997E+02  0.45594000000E+02  0.51100000000E-03 0.  1.
    9900012    2    1    2    0    0  0.29271458196E+02 -0.22498876505E+02 -0.17033735543E+02  0.50528857665E+02  0.29999993358E+02 0.  0.
         12    1    1    2    0    0 -0.29271458196E+02  0.22498876505E+02  0.17033735543E+02  0.40659142335E+02  0.00000000000E+00 0. -1.
         11    1    3    3    0    0  0.98756385716E+01 -0.63040167628E+01 -0.14242018689E+02  0.18441907741E+02  0.51100000000E-03 0. -1.
        -11    1    3    3    0    0  0.11993821050E+02 -0.20242191482E+02 -0.19888554240E+01  0.23612573039E+02  0.51100000000E-03 0.  1.
         12    1    3    3    0    0  0.74019985740E+01  0.40473317399E+01 -0.80286143052E+00  0.84743768844E+01  0.00000000000E+00 0. -1.
</event>
<event>
 7    1  0.4374874E-012  0.5052886E+02  0.7816164E-02  0.1300439E+00
        -11   -1    0    0    0    0  0.00000000000E+00  0.00000000000E+00  0.45593999997E+02  0.45594000000E+02  0.51100000000E-03 0. -1.
         11   -1    0    0    0    0 -0.00000000000E+00 -0.00000000000E+00 -0.45593999997E+02  0.45594000000E+02  0.51100000000E-03 0.  1.
    9900012    2    1    2    0    0  0.31427561300E+00  0.46131631539E+01 -0.40395366861E+02  0.50528859487E+02  0.29999998897E+02 0.  0.
         12    1    1    2    0    0 -0.31427561300E+00 -0.46131631539E+01  0.40395366861E+02  0.40659140513E+02  0.00000000000E+00 0. -1.
         11    1    3    3    0    0  0.16608135640E+01  0.85362532121E+01  0.48581616616E+00  0.87098759006E+01  0.51100000000E-03 0. -1.
        -11    1    3    3    0    0 -0.22541280552E+01  0.11037080263E+01 -0.25247951139E+02  0.25372392509E+02  0.51100000000E-03 0.  1.
        -12    1    3    3    0    0  0.90759010419E+00 -0.50267980844E+01 -0.15633231888E+02  0.16446591077E+02  0.00000000000E+00 0.  1.
</event>
<event>
 7    1  0.4374874E-012  0.5052886E+02  0.7816164E-02  0.1300439E+00
        -11   -1    0    0    0    0  0.00000000000E+00  0.00000000000E+00  0.45593999997E+02  0.45594000000E+02  0.51100000000E-03 0. -1.
         11   -1    0    0    0    0 -0.00000000000E+00 -0.00000000000E+00 -0.45593999997E+02  0.45594000000E+02  0.51100000000E-03 0.  1.
    9900012    2    1    2    0    0  0.13236172299E+02  0.10013397036E+02  0.37117397553E+02  0.50528861071E+02  0.30000003712E+02 0.  0.
        -12    1    1    2    0    0 -0.13236172299E+02 -0.10013397036E+02 -0.37117397553E+02  0.40659138929E+02  0.00000000000E+00 0.  1.
         11    1    3    3    0    0  0.16951353489E+01  0.27853661943E+01 -0.36130706961E+01  0.48668294406E+01  0.51100000000E-03 0. -1.
        -11    1    3    3    0    0  0.92832776831E+01  0.29361773768E+01  0.80775831005E+01  0.12650997239E+02  0.51100000000E-03 0.  1.
         12    1    3    3    0    0  0.22577592667E+01  0.42918534652E+01  0.32652885149E+02  0.33011034392E+02  0.00000000000E+00 0. -1.
</event>
<event>
 7    1  0.4447048E-012  0.5052886E+02  0.7816164E-02  0.1300439E+00
        -11   -1    0    0    0    0  0.00000000000E+00  0.00000000000E+00  0.45593999997E+02  0.45594000000E+02  0.51100000000E-03 0. -1.
         11   -1    0    0    0    0 -0.00000000000E+00 -0.00000000000E+00 -0.45593999997E+02  0.45594000000E+02  0.51100000000E-03 0.  1.
    9900012    2    1    2    0    0 -0.10992231359E+02 -0.11486355660E+02 -0.37421920803E+02  0.50528859906E+02  0.30000000171E+02 0.  0.
         12    1    1    2    0    0  0.10992231359E+02  0.11486355660E+02  0.37421920803E+02  0.40659140094E+02  0.00000000000E+00 0. -1.
         11    1    3    3    0    0 -0.39527325428E+01 -0.12124234908E+01  0.18691551279E+01  0.45373788060E+01  0.51100000000E-03 0. -1.
        -11    1    3    3    0    0 -0.10471933700E+02 -0.14500143557E+02 -0.33901725289E+02  0.38330699660E+02  0.51100000000E-03 0.  1.
         12    1    3    3    0    0  0.34324348838E+01  0.42262113884E+01 -0.53893506420E+01  0.76607814401E+01  0.00000000000E+00 0. -1.
</event>
<event>
 7    1  0.4374874E-012  0.5052886E+02  0.7816164E-02  0.1300439E+00
        -11   -1    0    0    0    0  0.00000000000E+00  0.00000000000E+00  0.45593999997E+02  0.45594000000E+02  0.51100000000E-03 0.  1.
         11   -1    0    0    0    0 -0.00000000000E+00 -0.00000000000E+00 -0.45593999997E+02  0.45594000000E+02  0.51100000000E-03 0. -1.
    9900012    2    1    2    0    0  0.24283274906E+02 -0.29705836010E+02  0.13455537019E+02  0.50528860687E+02  0.30000002545E+02 0.  0.
        -12    1    1    2    0    0 -0.24283274906E+02  0.29705836010E+02 -0.13455537019E+02  0.40659139313E+02  0.00000000000E+00 0.  1.
         11    1    3    3    0    0  0.27147538223E+02 -0.22322899717E+02  0.99885582870E+01  0.36538636815E+02  0.51100000000E-03 0. -1.
        -11    1    3    3    0    0 -0.19530635239E+01 -0.10228855613E+02  0.17986963889E+01  0.10567840519E+02  0.51100000000E-03 0.  1.
        -12    1    3    3    0    0 -0.91119979346E+00  0.28459193205E+01  0.16682823427E+01  0.34223833534E+01  0.00000000000E+00 0.  1.
</event>
<event>
 7    1  0.5127696E-012  0.5052886E+02  0.7816164E-02  0.1300439E+00
        -11   -1    0    0    0    0  0.00000000000E+00  0.00000000000E+00  0.45593999997E+02  0.45594000000E+02  0.51100000000E-03 0. -1.
         11   -1    0    0    0    0 -0.00000000000E+00 -0.00000000000E+00 -0.45593999997E+02  0.45594000000E+02  0.51100000000E-03 0.  1.
    9900012    2    1    2    0    0 -0.16727630879E+02 -0.11139462365E+01 -0.37042019739E+02  0.50528859117E+02  0.29999997771E+02 0.  0.
         12    1    1    2    0    0  0.16727630879E+02  0.11139462365E+01  0.37042019739E+02  0.40659140883E+02  0.00000000000E+00 0. -1.
         11    1    3    3    0    0 -0.10554162882E+02  0.56015041894E+01 -0.90222302705E+01  0.14972235726E+02  0.51100000000E-03 0. -1.
        -11    1    3    3    0    0 -0.12899783103E+02 -0.34828190746E+01 -0.22877649180E+02  0.26493796728E+02  0.51100000000E-03 0.  1.
         12    1    3    3    0    0  0.67263151064E+01 -0.32326313512E+01 -0.51421402883E+01  0.90628266621E+01  0.00000000000E+00 0. -1.
</event>
<event>
 7    1  0.4374874E-012  0.5052886E+02  0.7816164E-02  0.1300439E+00
        -11   -1    0    0    0    0  0.00000000000E+00  0.00000000000E+00  0.45593999997E+02  0.45594000000E+02  0.51100000000E-03 0. -1.
         11   -1    0    0    0    0 -0.00000000000E+00 -0.00000000000E+00 -0.45593999997E+02  0.45594000000E+02  0.51100000000E-03 0.  1.
    9900012    2    1    2    0    0  0.27595376656E+02  0.14721552111E+02 -0.25979538187E+02  0.50528864326E+02  0.30000013606E+02 0.  0.
         12    1    1    2    0    0 -0.27595376656E+02 -0.14721552111E+02  0.25979538187E+02  0.40659135674E+02  0.00000000000E+00 0. -1.
         11    1    3    3    0    0  0.19718993874E+00 -0.21239215345E+01  0.20668743994E+01  0.29701677732E+01  0.51100000000E-03 0. -1.
        -11    1    3    3    0    0  0.17136666923E+02  0.68736541603E+00 -0.21111799416E+02  0.27200108443E+02  0.51100000000E-03 0.  1.
        -12    1    3    3    0    0  0.10261519795E+02  0.16158108229E+02 -0.69346131697E+01  0.20358588111E+02  0.00000000000E+00 0.  1.
</event>
<event>
 7    1  0.4374874E-012  0.5052884E+02  0.7816164E-02  0.1300439E+00
        -11   -1    0    0    0    0  0.00000000000E+00  0.00000000000E+00  0.45593999997E+02  0.45594000000E+02  0.51100000000E-03 0. -1.
         11   -1    0    0    0    0 -0.00000000000E+00 -0.00000000000E+00 -0.45593999997E+02  0.45594000000E+02  0.51100000000E-03 0.  1.
    9900012    2    1    2    0    0 -0.28884313539E+02  0.31665943788E+01  0.28440055611E+02  0.50528835575E+02  0.29999926214E+02 0.  0.
        -12    1    1    2    0    0  0.28884313539E+02 -0.31665943788E+01 -0.28440055611E+02  0.40659164425E+02  0.00000000000E+00 0.  1.
         11    1    3    3    0    0 -0.10042455101E+01 -0.76269278140E+01  0.10803209171E+02  0.13262272263E+02  0.51100000000E-03 0. -1.
        -11    1    3    3    0    0 -0.15042747601E+01  0.36725951775E+01 -0.11242778463E+01  0.41248998568E+01  0.51100000000E-03 0.  1.
         12    1    3    3    0    0 -0.26375793268E+02  0.71209270153E+01  0.18761124286E+02  0.33141663455E+02  0.00000000000E+00 0. -1.
</event>
<event>
 7    1  0.4374874E-012  0.5052886E+02  0.7816164E-02  0.1300439E+00
        -11   -1    0    0    0    0  0.00000000000E+00  0.00000000000E+00  0.45593999997E+02  0.45594000000E+02  0.51100000000E-03 0. -1.
         11   -1    0    0    0    0 -0.00000000000E+00 -0.00000000000E+00 -0.45593999997E+02  0.45594000000E+02  0.51100000000E-03 0.  1.
    9900012    2    1    2    0    0  0.21017178018E+02 -0.10346854402E+02  0.33232314563E+02  0.50528857128E+02  0.29999991727E+02 0.  0.
        -12    1    1    2    0    0 -0.21017178018E+02  0.10346854402E+02 -0.33232314563E+02  0.40659142872E+02  0.00000000000E+00 0.  1.
         11    1    3    3    0    0  0.12469011840E+02 -0.42290036728E+01  0.13623665209E+02  0.18946371218E+02  0.51100000000E-03 0. -1.
        -11    1    3    3    0    0  0.90289710102E+01  0.60667025839E+01  0.35989136275E+01  0.11457721296E+02  0.51100000000E-03 0.  1.
         12    1    3    3    0    0 -0.48080483262E+00 -0.12184553313E+02  0.16009735727E+02  0.20124764614E+02  0.00000000000E+00 0. -1.
</event>
<event>
 7    1  0.4374874E-012  0.5052886E+02  0.7816164E-02  0.1300439E+00
        -11   -1    0    0    0    0  0.00000000000E+00  0.00000000000E+00  0.45593999997E+02  0.45594000000E+02  0.51100000000E-03 0. -1.
         11   -1    0    0    0    0 -0.00000000000E+00 -0.00000000000E+00 -0.45593999997E+02  0.45594000000E+02  0.51100000000E-03 0.  1.
    9900012    2    1    2    0    0  0.21311977885E+02  0.14439480454E+02 -0.31471682703E+02  0.50528858232E+02  0.29999995083E+02 0.  0.
         12    1    1    2    0    0 -0.21311977885E+02 -0.14439480454E+02  0.31471682703E+02  0.40659141768E+02  0.00000000000E+00 0. -1.
         11    1    3    3    0    0  0.62033740501E+01 -0.28423482395E+01 -0.20572976079E+02  0.21675057973E+02  0.51100000000E-03 0. -1.
        -11    1    3    3    0    0 -0.24787930637E+01  0.36209943500E+01 -0.25191412791E+01  0.50598506085E+01  0.51100000000E-03 0.  1.
        -12    1    3    3    0    0  0.17587396899E+02  0.13660834343E+02 -0.83795653445E+01  0.23793949651E+02  0.00000000000E+00 0.  1.
</event>
<event>
 7    1  0.4374874E-012  0.5052885E+02  0.7816164E-02  0.1300439E+00
        -11   -1    0    0    0    0  0.00000000000E+00  0.00000000000E+00  0.45593999997E+02  0.45594000000E+02  0.51100000000E-03 0. -1.
         11   -1    0    0    0    0 -0.00000000000E+00 -0.00000000000E+00 -0.45593999997E+02  0.45594000000E+02  0.51100000000E-03 0.  1.
    9900012    2    1    2    0    0  0.22332375887E+01 -0.14839127929E+01 -0.40570640957E+02  0.50528852752E+02  0.29999978424E+02 0.  0.
         12    1    1    2    0    0 -0.22332375887E+01  0.14839127929E+01  0.40570640957E+02  0.40659147248E+02  0.00000000000E+00 0. -1.
         11    1    3    3    0    0 -0.35081500939E+01  0.10992523881E+02 -0.10311334121E+02  0.15474699027E+02  0.51100000000E-03 0. -1.
        -11    1    3    3    0    0 -0.51460800696E+00 -0.55473325199E+01 -0.21648686743E+02  0.22354045661E+02  0.51100000000E-03 0.  1.
        -12    1    3    3    0    0  0.62559956895E+01 -0.69291041538E+01 -0.86106200929E+01  0.12700108064E+02  0.00000000000E+00 0.  1.
</event>
<event>
 7    1  0.4374874E-012  0.5052886E+02  0.7816164E-02  0.1300439E+00
        -11   -1    0    0    0    0  0.00000000000E+00  0.00000000000E+00  0.45593999997E+02  0.45594000000E+02  0.51100000000E-03 0. -1.
         11   -1    0    0    0    0 -0.00000000000E+00 -0.00000000000E+00 -0.45593999997E+02  0.45594000000E+02  0.51100000000E-03 0.  1.
    9900012    2    1    2    0    0 -0.75853387118E+01 -0.28465719066E+02 -0.28023757721E+02  0.50528861764E+02  0.30000005818E+02 0.  0.
         12    1    1    2    0    0  0.75853387118E+01  0.28465719066E+02  0.28023757721E+02  0.40659138236E+02  0.00000000000E+00 0. -1.
         11    1    3    3    0    0  0.84465319153E+01 -0.63401405960E+01 -0.26704112204E+01  0.10893685351E+02  0.51100000000E-03 0. -1.
        -11    1    3    3    0    0 -0.19655433344E+01 -0.25834124331E+01 -0.11297549962E+02  0.11754659323E+02  0.51100000000E-03 0.  1.
        -12    1    3    3    0    0 -0.14066327293E+02 -0.19542166037E+02 -0.14055796539E+02  0.27880517091E+02  0.00000000000E+00 0.  1.
</event>
<event>
 7    1  0.4374874E-012  0.5052888E+02  0.7816164E-02  0.1300439E+00
        -11   -1    0    0    0    0  0.00000000000E+00  0.00000000000E+00  0.45593999997E+02  0.45594000000E+02  0.51100000000E-03 0. -1.
         11   -1    0    0    0    0 -0.00000000000E+00 -0.00000000000E+00 -0.45593999997E+02  0.45594000000E+02  0.51100000000E-03 0.  1.
    9900012    2    1    2    0    0  0.19805399832E+02 -0.97980063336E+01 -0.34130770837E+02  0.50528876687E+02  0.30000051179E+02 0.  0.
         12    1    1    2    0    0 -0.19805399832E+02  0.97980063336E+01  0.34130770837E+02  0.40659123313E+02  0.00000000000E+00 0. -1.
         11    1    3    3    0    0  0.51164043284E+00 -0.10372796387E+02 -0.14244573172E+02  0.17628515137E+02  0.51100000000E-03 0. -1.
        -11    1    3    3    0    0 -0.12641220103E+01 -0.33595210157E+01 -0.81457232655E+01  0.89015276044E+01  0.51100000000E-03 0.  1.
         12    1    3    3    0    0  0.20557881410E+02  0.39343110688E+01 -0.11740474399E+02  0.23998833946E+02  0.00000000000E+00 0. -1.
</event>
<event>
 7    1  0.4374874E-012  0.5052886E+02  0.7816164E-02  0.1300439E+00
        -11   -1    0    0    0    0  0.00000000000E+00  0.00000000000E+00  0.45593999997E+02  0.45594000000E+02  0.51100000000E-03 0. -1.
         11   -1    0    0    0    0 -0.00000000000E+00 -0.00000000000E+00 -0.45593999997E+02  0.45594000000E+02  0.51100000000E-03 0.  1.
    9900012    2    1    2    0    0 -0.21194382132E+01 -0.10651075407E+02  0.39181988892E+02  0.50528859832E+02  0.29999999944E+02 0.  0.
        -12    1    1    2    0    0  0.21194382132E+01  0.10651075407E+02 -0.39181988892E+02  0.40659140168E+02  0.00000000000E+00 0.  1.
         11    1    3    3    0    0  0.45021863334E+01  0.25815866864E+01  0.68098137893E+01  0.85619995156E+01  0.51100000000E-03 0. -1.
        -11    1    3    3    0    0 -0.47641965457E+01 -0.26156750615E+00 -0.20061636901E+01  0.51759713387E+01  0.51100000000E-03 0.  1.
        -12    1    3    3    0    0 -0.18574280009E+01 -0.12971094587E+02  0.34378338793E+02  0.36790888977E+02  0.00000000000E+00 0.  1.
</event>
<event>
 7    1  0.4374874E-012  0.5052887E+02  0.7816164E-02  0.1300439E+00
        -11   -1    0    0    0    0  0.00000000000E+00  0.00000000000E+00  0.45593999997E+02  0.45594000000E+02  0.51100000000E-03 0.  1.
         11   -1    0    0    0    0 -0.00000000000E+00 -0.00000000000E+00 -0.45593999997E+02  0.45594000000E+02  0.51100000000E-03 0. -1.
    9900012    2    1    2    0    0  0.24700407843E+02  0.32294518320E+02  0.34496093497E+00  0.50528867456E+02  0.30000023120E+02 0.  0.
        -12    1    1    2    0    0 -0.24700407843E+02 -0.32294518320E+02 -0.34496093497E+00  0.40659132544E+02  0.00000000000E+00 0.  1.
         11    1    3    3    0    0  0.17741686412E+02  0.18650184774E+02  0.94276052375E+01  0.27413072969E+02  0.51100000000E-03 0. -1.
        -11    1    3    3    0    0 -0.61076172237E+00  0.37383509244E+01  0.36753021803E+01  0.52778919933E+01  0.51100000000E-03 0.  1.
        -12    1    3    3    0    0  0.75694831534E+01  0.99059826221E+01 -0.12757946483E+02  0.17837902494E+02  0.00000000000E+00 0.  1.
</event>
<event>
 7    1  0.4374874E-012  0.5052886E+02  0.7816164E-02  0.1300439E+00
        -11   -1    0    0    0    0  0.00000000000E+00  0.00000000000E+00  0.45593999997E+02  0.45594000000E+02  0.51100000000E-03 0.  1.
         11   -1    0    0    0    0 -0.00000000000E+00 -0.00000000000E+00 -0.45593999997E+02  0.45594000000E+02  0.51100000000E-03 0. -1.
    9900012    2    1    2    0    0 -0.30721483279E+02 -0.25983661692E+02 -0.58485769880E+01  0.50528855118E+02  0.29999985617E+02 0.  0.
        -12    1    1    2    0    0  0.30721483279E+02  0.25983661692E+02  0.58485769880E+01  0.40659144882E+02  0.00000000000E+00 0.  1.
         11    1    3    3    0    0  0.21838238319E+01 -0.35997537225E+01 -0.85301450341E+01  0.95126593524E+01  0.51100000000E-03 0. -1.
        -11    1    3    3    0    0 -0.74121819522E+01 -0.87507652549E+01  0.38106891628E+01  0.12084605331E+02  0.51100000000E-03 0.  1.
        -12    1    3    3    0    0 -0.25493125158E+02 -0.13633142714E+02 -0.11291211168E+01  0.28931590435E+02  0.00000000000E+00 0.  1.
</event>
<event>
 7    1  0.4374874E-012  0.5052886E+02  0.7816164E-02  0.1300439E+00
        -11   -1    0    0    0    0  0.00000000000E+00  0.00000000000E+00  0.45593999997E+02  0.45594000000E+02  0.51100000000E-03 0. -1.
         11   -1    0    0    0    0 -0.00000000000E+00 -0.00000000000E+00 -0.45593999997E+02  0.45594000000E+02  0.51100000000E-03 0.  1.
    9900012    2    1    2    0    0  0.10863178123E+02 -0.17885141312E+02  0.34860847812E+02  0.50528860452E+02  0.30000001828E+02 0.  0.
        -12    1    1    2    0    0 -0.10863178123E+02  0.17885141312E+02 -0.34860847812E+02  0.40659139548E+02  0.00000000000E+00 0.  1.
         11    1    3    3    0    0 -0.20313066996E+01 -0.64241639110E+01  0.83982541843E+01  0.10766929110E+02  0.51100000000E-03 0. -1.
        -11    1    3    3    0    0 -0.16219260012E+01  0.19184766911E+01  0.18180600447E+02  0.18353349275E+02  0.51100000000E-03 0.  1.
        -12    1    3    3    0    0  0.14516410824E+02 -0.13379454092E+02  0.82819931807E+01  0.21408582066E+02  0.00000000000E+00 0.  1.
</event>
<event>
 7    1  0.4374874E-012  0.5052888E+02  0.7816164E-02  0.1300439E+00
        -11   -1    0    0    0    0  0.00000000000E+00  0.00000000000E+00  0.45593999997E+02  0.45594000000E+02  0.51100000000E-03 0. -1.
         11   -1    0    0    0    0 -0.00000000000E+00 -0.00000000000E+00 -0.45593999997E+02  0.45594000000E+02  0.51100000000E-03 0.  1.
    9900012    2    1    2    0    0  0.37010008117E+02 -0.13375426729E+02 -0.10223557883E+02  0.50528881997E+02  0.30000067318E+02 0.  0.
        -12    1    1    2    0    0 -0.37010008117E+02  0.13375426729E+02  0.10223557883E+02  0.40659118003E+02  0.00000000000E+00 0.  1.
         11    1    3    3    0    0  0.32448117919E+02 -0.15638121378E+02 -0.51667843924E+01  0.36388553942E+02  0.51100000000E-03 0. -1.
        -11    1    3    3    0    0  0.21870211116E+00 -0.28136936570E+01  0.26981970597E+01  0.39044807905E+01  0.51100000000E-03 0.  1.
         12    1    3    3    0    0  0.43431880863E+01  0.50763883061E+01 -0.77549705508E+01  0.10235847265E+02  0.00000000000E+00 0. -1.
</event>
<event>
 7    1  0.4374874E-012  0.5052878E+02  0.7816164E-02  0.1300439E+00
        -11   -1    0    0    0    0  0.00000000000E+00  0.00000000000E+00  0.45593999997E+02  0.45594000000E+02  0.51100000000E-03 0. -1.
         11   -1    0    0    0    0 -0.00000000000E+00 -0.00000000000E+00 -0.45593999997E+02  0.45594000000E+02  0.51100000000E-03 0.  1.
    9900012    2    1    2    0    0 -0.94010069732E+01  0.32313059350E+02  0.22817971246E+02  0.50528775359E+02  0.29999743179E+02 0.  0.
        -12    1    1    2    0    0  0.94010069732E+01 -0.32313059350E+02 -0.22817971246E+02  0.40659224641E+02  0.00000000000E+00 0.  1.
         11    1    3    3    0    0  0.24873153524E+01  0.63294559032E+01  0.96386890031E+01  0.11796316190E+02  0.51100000000E-03 0. -1.
        -11    1    3    3    0    0 -0.53988167766E+01  0.31098427903E+01 -0.56441453221E+01  0.84068258841E+01  0.51100000000E-03 0.  1.
         12    1    3    3    0    0 -0.64895055490E+01  0.22873760656E+02  0.18823427565E+02  0.30325633285E+02  0.00000000000E+00 0. -1.
</event>
<event>
 7    1  0.4374874E-012  0.5052885E+02  0.7816164E-02  0.1300439E+00
        -11   -1    0    0    0    0  0.00000000000E+00  0.00000000000E+00  0.45593999997E+02  0.45594000000E+02  0.51100000000E-03 0. -1.
         11   -1    0    0    0    0 -0.00000000000E+00 -0.00000000000E+00 -0.45593999997E+02  0.45594000000E+02  0.51100000000E-03 0.  1.
    9900012    2    1    2    0    0  0.32740654837E+02 -0.53328896993E+00 -0.24102529507E+02  0.50528845989E+02  0.29999957867E+02 0.  0.
         12    1    1    2    0    0 -0.32740654837E+02  0.53328896993E+00  0.24102529507E+02  0.40659154011E+02  0.00000000000E+00 0. -1.
         11    1    3    3    0    0  0.80026344438E+01 -0.14043889477E+00  0.29634931775E+01  0.85348797999E+01  0.51100000000E-03 0. -1.
        -11    1    3    3    0    0 -0.14560209792E+01  0.45619186068E+01 -0.14020291125E+01  0.49896677605E+01  0.51100000000E-03 0.  1.
        -12    1    3    3    0    0  0.26194041372E+02 -0.49547686820E+01 -0.25663993572E+02  0.37004298428E+02  0.00000000000E+00 0.  1.
</event>
<event>
 7    1  0.4374874E-012  0.5052887E+02  0.7816164E-02  0.1300439E+00
        -11   -1    0    0    0    0  0.00000000000E+00  0.00000000000E+00  0.45593999997E+02  0.45594000000E+02  0.51100000000E-03 0. -1.
         11   -1    0    0    0    0 -0.00000000000E+00 -0.00000000000E+00 -0.45593999997E+02  0.45594000000E+02  0.51100000000E-03 0.  1.
    9900012    2    1    2    0    0 -0.35119653383E+02  0.27409722643E+01 -0.20304228892E+02  0.50528871953E+02  0.30000036788E+02 0.  0.
         12    1    1    2    0    0  0.35119653383E+02 -0.27409722643E+01  0.20304228892E+02  0.40659128047E+02  0.00000000000E+00 0. -1.
         11    1    3    3    0    0 -0.11661306305E+02  0.95037134651E+01 -0.57402319875E+01  0.16101456390E+02  0.51100000000E-03 0. -1.
        -11    1    3    3    0    0 -0.15742439843E+02  0.53923224822E+01 -0.60796814280E+01  0.17716209541E+02  0.51100000000E-03 0.  1.
         12    1    3    3    0    0 -0.77159072346E+01 -0.12155063683E+02 -0.84843154760E+01  0.16711206021E+02  0.00000000000E+00 0. -1.
</event>
<event>
 7    1  0.4374874E-012  0.5052886E+02  0.7816164E-02  0.1300439E+00
        -11   -1    0    0    0    0  0.00000000000E+00  0.00000000000E+00  0.45593999997E+02  0.45594000000E+02  0.51100000000E-03 0.  1.
         11   -1    0    0    0    0 -0.00000000000E+00 -0.00000000000E+00 -0.45593999997E+02  0.45594000000E+02  0.51100000000E-03 0. -1.
    9900012    2    1    2    0    0  0.35480946942E+02 -0.20243932258E+00 -0.19855160500E+02  0.50528856181E+02  0.29999988849E+02 0.  0.
         12    1    1    2    0    0 -0.35480946942E+02  0.20243932258E+00  0.19855160500E+02  0.40659143819E+02  0.00000000000E+00 0. -1.
         11    1    3    3    0    0  0.15515137914E+02 -0.47105134995E+01 -0.11701979308E+02  0.19996118671E+02  0.51100000000E-03 0. -1.
        -11    1    3    3    0    0  0.21278224911E+02  0.73036521880E+01 -0.12081628570E+02  0.25535699321E+02  0.51100000000E-03 0.  1.
        -12    1    3    3    0    0 -0.13124158835E+01 -0.27955780111E+01  0.39284473775E+01  0.49970381892E+01  0.00000000000E+00 0.  1.
</event>
<event>
 7    1  0.4374874E-012  0.5052885E+02  0.7816164E-02  0.1300439E+00
        -11   -1    0    0    0    0  0.00000000000E+00  0.00000000000E+00  0.45593999997E+02  0.45594000000E+02  0.51100000000E-03 0. -1.
         11   -1    0    0    0    0 -0.00000000000E+00 -0.00000000000E+00 -0.45593999997E+02  0.45594000000E+02  0.51100000000E-03 0.  1.
    9900012    2    1    2    0    0  0.72279091457E+01  0.19290231028E+02  0.35054396490E+02  0.50528851005E+02  0.29999973114E+02 0.  0.
        -12    1    1    2    0    0 -0.72279091457E+01 -0.19290231028E+02 -0.35054396490E+02  0.40659148995E+02  0.00000000000E+00 0.  1.
         11    1    3    3    0    0  0.65829060793E+01  0.51247236959E+01 -0.51948731272E+00  0.83586669235E+01  0.51100000000E-03 0. -1.
        -11    1    3    3    0    0  0.76944092784E+01  0.11470255916E+01  0.13761629725E+02  0.15808290698E+02  0.51100000000E-03 0.  1.
         12    1    3    3    0    0 -0.70494062120E+01  0.13018481741E+02  0.21812254078E+02  0.26361893383E+02  0.00000000000E+00 0. -1.
</event>
<event>
 7    1  0.4374874E-012  0.5052885E+02  0.7816164E-02  0.1300439E+00
        -11   -1    0    0    0    0  0.00000000000E+00  0.00000000000E+00  0.45593999997E+02  0.45594000000E+02  0.51100000000E-03 0. -1.
         11   -1    0    0    0    0 -0.00000000000E+00 -0.00000000000E+00 -0.45593999997E+02  0.45594000000E+02  0.51100000000E-03 0.  1.
    9900012    2    1    2    0    0 -0.16398388158E+02 -0.63754308350E+01 -0.36655331067E+02  0.50528849147E+02  0.29999967467E+02 0.  0.
         12    1    1    2    0    0  0.16398388158E+02  0.63754308350E+01  0.36655331067E+02  0.40659150853E+02  0.00000000000E+00 0. -1.
         11    1    3    3    0    0 -0.57626264349E+01 -0.97526774351E+01 -0.64397666509E+01  0.13030471034E+02  0.51100000000E-03 0. -1.
        -11    1    3    3    0    0 -0.25287293895E+01 -0.64186907931E+01 -0.20097049057E+02  0.21248186861E+02  0.51100000000E-03 0.  1.
         12    1    3    3    0    0 -0.81070323333E+01  0.97959373931E+01 -0.10118515359E+02  0.16250191252E+02  0.00000000000E+00 0. -1.
</event>
<event>
 7    1  0.4374874E-012  0.5052886E+02  0.7816164E-02  0.1300439E+00
        -11   -1    0    0    0    0  0.00000000000E+00  0.00000000000E+00  0.45593999997E+02  0.45594000000E+02  0.51100000000E-03 0.  1.
         11   -1    0    0    0    0 -0.00000000000E+00 -0.00000000000E+00 -0.45593999997E+02  0.45594000000E+02  0.51100000000E-03 0. -1.
    9900012    2    1    2    0    0 -0.36363802416E+02  0.24198626008E+01 -0.18027304110E+02  0.50528861364E+02  0.30000004602E+02 0.  0.
         12    1    1    2    0    0  0.36363802416E+02 -0.24198626008E+01  0.18027304110E+02  0.40659138636E+02  0.00000000000E+00 0. -1.
         11    1    3    3    0    0 -0.60870853597E+01  0.18358074990E+01 -0.12719538033E+02  0.14220036757E+02  0.51100000000E-03 0. -1.
        -11    1    3    3    0    0 -0.77902772320E+01  0.20732790351E+01 -0.10445862096E+02  0.13194807331E+02  0.51100000000E-03 0.  1.
        -12    1    3    3    0    0 -0.22486439824E+02 -0.14892239333E+01  0.51380960199E+01  0.23114017275E+02  0.00000000000E+00 0.  1.
</event>
<event>
 7    1  0.4374874E-012  0.5052886E+02  0.7816164E-02  0.1300439E+00
        -11   -1    0    0    0    0  0.00000000000E+00  0.00000000000E+00  0.45593999997E+02  0.45594000000E+02  0.51100000000E-03 0. -1.
         11   -1    0    0    0    0 -0.00000000000E+00 -0.00000000000E+00 -0.45593999997E+02  0.45594000000E+02  0.51100000000E-03 0.  1.
    9900012    2    1    2    0    0 -0.61604887922E+01  0.16237228460E+02  0.36763656524E+02  0.50528860176E+02  0.30000000991E+02 0.  0.
        -12    1    1    2    0    0  0.61604887922E+01 -0.16237228460E+02 -0.36763656524E+02  0.40659139824E+02  0.00000000000E+00 0.  1.
         11    1    3    3    0    0  0.55650490473E+01 -0.26447372487E+01  0.37942694977E+01  0.72360823169E+01  0.51100000000E-03 0. -1.
        -11    1    3    3    0    0  0.28567694747E+01  0.58756286443E+01  0.16470392647E+02  0.17718859388E+02  0.51100000000E-03 0.  1.
         12    1    3    3    0    0 -0.14582307314E+02  0.13006337064E+02  0.16498994379E+02  0.25573918471E+02  0.00000000000E+00 0. -1.
</event>
<event>
 7    1  0.4374874E-012  0.5052886E+02  0.7816164E-02  0.1300439E+00
        -11   -1    0    0    0    0  0.00000000000E+00  0.00000000000E+00  0.45593999997E+02  0.45594000000E+02  0.51100000000E-03 0. -1.
         11   -1    0    0    0    0 -0.00000000000E+00 -0.00000000000E+00 -0.45593999997E+02  0.45594000000E+02  0.51100000000E-03 0.  1.
    9900012    2    1    2    0    0 -0.10081865229E+01  0.18196987752E+01  0.40605881269E+02  0.50528864036E+02  0.30000012724E+02 0.  0.
        -12    1    1    2    0    0  0.10081865229E+01 -0.18196987752E+01 -0.40605881269E+02  0.40659135964E+02  0.00000000000E+00 0.  1.
         11    1    3    3    0    0 -0.60324399934E+01  0.10520476110E+01  0.33748800395E+02  0.34299834764E+02  0.51100000000E-03 0. -1.
        -11    1    3    3    0    0 -0.32389289711E+01 -0.25445333421E+01  0.60107617654E+01  0.72866019564E+01  0.51100000000E-03 0.  1.
        -12    1    3    3    0    0  0.82631824417E+01  0.33121845062E+01  0.84631910872E+00  0.89424273160E+01  0.00000000000E+00 0.  1.
</event>
<event>
 7    1  0.4374874E-012  0.5052886E+02  0.7816164E-02  0.1300439E+00
        -11   -1    0    0    0    0  0.00000000000E+00  0.00000000000E+00  0.45593999997E+02  0.45594000000E+02  0.51100000000E-03 0. -1.
         11   -1    0    0    0    0 -0.00000000000E+00 -0.00000000000E+00 -0.45593999997E+02  0.45594000000E+02  0.51100000000E-03 0.  1.
    9900012    2    1    2    0    0 -0.26590127458E+02 -0.18268975634E+02  0.24746218671E+02  0.50528859730E+02  0.29999999637E+02 0.  0.
        -12    1    1    2    0    0  0.26590127458E+02  0.18268975634E+02 -0.24746218671E+02  0.40659140270E+02  0.00000000000E+00 0.  1.
         11    1    3    3    0    0  0.31357462681E+01 -0.27410659604E+01  0.12858191287E+01  0.43588620476E+01  0.51100000000E-03 0. -1.
        -11    1    3    3    0    0 -0.17713714148E+02  0.72912108363E-02  0.32856335503E+01  0.18015857187E+02  0.51100000000E-03 0.  1.
         12    1    3    3    0    0 -0.12012159578E+02 -0.15535200884E+02  0.20174765992E+02  0.28154140496E+02  0.00000000000E+00 0. -1.
</event>
<event>
 7    1  0.4374874E-012  0.5052886E+02  0.7816164E-02  0.1300439E+00
        -11   -1    0    0    0    0  0.00000000000E+00  0.00000000000E+00  0.45593999997E+02  0.45594000000E+02  0.51100000000E-03 0. -1.
         11   -1    0    0    0    0 -0.00000000000E+00 -0.00000000000E+00 -0.45593999997E+02  0.45594000000E+02  0.51100000000E-03 0.  1.
    9900012    2    1    2    0    0  0.17238998635E+02  0.10034629566E+02  0.35430057007E+02  0.50528858298E+02  0.29999995281E+02 0.  0.
        -12    1    1    2    0    0 -0.17238998635E+02 -0.10034629566E+02 -0.35430057007E+02  0.40659141702E+02  0.00000000000E+00 0.  1.
         11    1    3    3    0    0  0.82040957848E+01  0.12791197726E+02  0.66105477965E+01  0.16571700858E+02  0.51100000000E-03 0. -1.
        -11    1    3    3    0    0  0.60555077879E+01 -0.40386738492E+01  0.28995045080E+01  0.78349976186E+01  0.51100000000E-03 0.  1.
        -12    1    3    3    0    0  0.29793950621E+01  0.12821056901E+01  0.25920004702E+02  0.26122159821E+02  0.00000000000E+00 0.  1.
</event>
<event>
 7    1  0.4374874E-012  0.5052885E+02  0.7816164E-02  0.1300439E+00
        -11   -1    0    0    0    0  0.00000000000E+00  0.00000000000E+00  0.45593999997E+02  0.45594000000E+02  0.51100000000E-03 0. -1.
         11   -1    0    0    0    0 -0.00000000000E+00 -0.00000000000E+00 -0.45593999997E+02  0.45594000000E+02  0.51100000000E-03 0.  1.
    9900012    2    1    2    0    0  0.23408750353E+02  0.13158965229E+02 -0.30529299320E+02  0.50528854953E+02  0.29999985115E+02 0.  0.
         12    1    1    2    0    0 -0.23408750353E+02 -0.13158965229E+02  0.30529299320E+02  0.40659145047E+02  0.00000000000E+00 0. -1.
         11    1    3    3    0    0 -0.43785338225E+01  0.65438283539E+01 -0.60163816906E+01  0.99090916268E+01  0.51100000000E-03 0. -1.
        -11    1    3    3    0    0  0.25485834192E+01 -0.42144751017E+01 -0.36582920532E+01  0.61351592347E+01  0.51100000000E-03 0.  1.
        -12    1    3    3    0    0  0.25238700756E+02  0.10829611977E+02 -0.20854625576E+02  0.34484604092E+02  0.00000000000E+00 0.  1.
</event>
<event>
 7    1  0.4374874E-012  0.5052886E+02  0.7816164E-02  0.1300439E+00
        -11   -1    0    0    0    0  0.00000000000E+00  0.00000000000E+00  0.45593999997E+02  0.45594000000E+02  0.51100000000E-03 0. -1.
         11   -1    0    0    0    0 -0.00000000000E+00 -0.00000000000E+00 -0.45593999997E+02  0.45594000000E+02  0.51100000000E-03 0.  1.
    9900012    2    1    2    0    0  0.93281404855E+01  0.28660643827E+02  0.27289536515E+02  0.50528861880E+02  0.30000006170E+02 0.  0.
        -12    1    1    2    0    0 -0.93281404855E+01 -0.28660643827E+02 -0.27289536515E+02  0.40659138120E+02  0.00000000000E+00 0.  1.
         11    1    3    3    0    0  0.10289548396E+02  0.20020439211E+02  0.11575136487E+02  0.25311589783E+02  0.51100000000E-03 0. -1.
        -11    1    3    3    0    0  0.42485791615E+01 -0.17400911311E+01 -0.11569729156E+01  0.47346519011E+01  0.51100000000E-03 0.  1.
         12    1    3    3    0    0 -0.52099870723E+01  0.10380295747E+02  0.16871372943E+02  0.20482620195E+02  0.00000000000E+00 0. -1.
</event>
<event>
 7    1  0.4374874E-012  0.5052891E+02  0.7816164E-02  0.1300439E+00
        -11   -1    0    0    0    0  0.00000000000E+00  0.00000000000E+00  0.45593999997E+02  0.45594000000E+02  0.51100000000E-03 0. -1.
         11   -1    0    0    0    0 -0.00000000000E+00 -0.00000000000E+00 -0.45593999997E+02  0.45594000000E+02  0.51100000000E-03 0.  1.
    9900012    2    1    2    0    0  0.12191065150E+02  0.24288604649E+02 -0.30242406464E+02  0.50528910807E+02  0.30000154887E+02 0.  0.
         12    1    1    2    0    0 -0.12191065150E+02 -0.24288604649E+02  0.30242406464E+02  0.40659089193E+02  0.00000000000E+00 0. -1.
         11    1    3    3    0    0  0.20819994491E+01 -0.87100812436E+00  0.30050501122E+01  0.37581515798E+01  0.51100000000E-03 0. -1.
        -11    1    3    3    0    0  0.87989213705E+01  0.11803455954E+01 -0.92397019662E+01  0.12813521206E+02  0.51100000000E-03 0.  1.
        -12    1    3    3    0    0  0.13101443299E+01  0.23979267178E+02 -0.24007754610E+02  0.33957238021E+02  0.00000000000E+00 0.  1.
</event>
<event>
 7    1  0.4374874E-012  0.5052887E+02  0.7816164E-02  0.1300439E+00
        -11   -1    0    0    0    0  0.00000000000E+00  0.00000000000E+00  0.45593999997E+02  0.45594000000E+02  0.51100000000E-03 0.  1.
         11   -1    0    0    0    0 -0.00000000000E+00 -0.00000000000E+00 -0.45593999997E+02  0.45594000000E+02  0.51100000000E-03 0. -1.
    9900012    2    1    2    0    0 -0.89665343621E+01  0.38941468395E+02  0.75052330577E+01  0.50528865449E+02  0.30000017018E+02 0.  0.
         12    1    1    2    0    0  0.89665343621E+01 -0.38941468395E+02 -0.75052330577E+01  0.40659134551E+02  0.00000000000E+00 0. -1.
         11    1    3    3    0    0 -0.10718682962E+02  0.24816973475E+02  0.17730362170E+02  0.32328595389E+02  0.51100000000E-03 0.  1.
        -11    1    3    3    0    0 -0.10268680106E+01  0.47746213545E+01 -0.14886260755E+01  0.51056316792E+01  0.51100000000E-03 0. -1.
         12    1    3    3    0    0  0.27790166101E+01  0.93498735652E+01 -0.87365030368E+01  0.13094638380E+02  0.00000000000E+00 0. -1.
</event>
<event>
 7    1  0.4374874E-012  0.5052886E+02  0.7816164E-02  0.1300439E+00
        -11   -1    0    0    0    0  0.00000000000E+00  0.00000000000E+00  0.45593999997E+02  0.45594000000E+02  0.51100000000E-03 0. -1.
         11   -1    0    0    0    0 -0.00000000000E+00 -0.00000000000E+00 -0.45593999997E+02  0.45594000000E+02  0.51100000000E-03 0.  1.
    9900012    2    1    2    0    0 -0.93010911518E+01 -0.17137128688E+02 -0.35678762491E+02  0.50528861186E+02  0.30000004060E+02 0.  0.
         12    1    1    2    0    0  0.93010911518E+01  0.17137128688E+02  0.35678762491E+02  0.40659138814E+02  0.00000000000E+00 0. -1.
         11    1    3    3    0    0  0.27754431066E+01 -0.34769822726E+01  0.30259161647E+01  0.53803958087E+01  0.51100000000E-03 0. -1.
        -11    1    3    3    0    0 -0.63066531802E+01 -0.13258319419E+02 -0.15985773451E+02  0.21704881046E+02  0.51100000000E-03 0.  1.
        -12    1    3    3    0    0 -0.57698810782E+01 -0.40182699651E+00 -0.22718905205E+02  0.23443584331E+02  0.00000000000E+00 0.  1.
</event>
<event>
 7    1  0.4374874E-012  0.5052886E+02  0.7816164E-02  0.1300439E+00
        -11   -1    0    0    0    0  0.00000000000E+00  0.00000000000E+00  0.45593999997E+02  0.45594000000E+02  0.51100000000E-03 0. -1.
         11   -1    0    0    0    0 -0.00000000000E+00 -0.00000000000E+00 -0.45593999997E+02  0.45594000000E+02  0.51100000000E-03 0.  1.
    9900012    2    1    2    0    0  0.13737052663E+02  0.85875855022E+01  0.37292261926E+02  0.50528855393E+02  0.29999986454E+02 0.  0.
        -12    1    1    2    0    0 -0.13737052663E+02 -0.85875855022E+01 -0.37292261926E+02  0.40659144607E+02  0.00000000000E+00 0.  1.
         11    1    3    3    0    0 -0.30936361900E+01  0.49676101332E+01  0.23914948216E+01  0.63219445628E+01  0.51100000000E-03 0. -1.
        -11    1    3    3    0    0 -0.42386160033E+01  0.13373393191E+01  0.15788050594E+01  0.47166691377E+01  0.51100000000E-03 0.  1.
         12    1    3    3    0    0  0.21069304856E+02  0.22826360499E+01  0.33321962045E+02  0.39490241693E+02  0.00000000000E+00 0. -1.
</event>
<event>
 7    1  0.4374874E-012  0.5052886E+02  0.7816164E-02  0.1300439E+00
        -11   -1    0    0    0    0  0.00000000000E+00  0.00000000000E+00  0.45593999997E+02  0.45594000000E+02  0.51100000000E-03 0. -1.
         11   -1    0    0    0    0 -0.00000000000E+00 -0.00000000000E+00 -0.45593999997E+02  0.45594000000E+02  0.51100000000E-03 0.  1.
    9900012    2    1    2    0    0  0.30978883470E+02  0.12735020390E+02 -0.23049805731E+02  0.50528861917E+02  0.30000006284E+02 0.  0.
         12    1    1    2    0    0 -0.30978883470E+02 -0.12735020390E+02  0.23049805731E+02  0.40659138083E+02  0.00000000000E+00 0. -1.
         11    1    3    3    0    0  0.23442721216E+01  0.32244423130E+01  0.27126061486E+01  0.48219158422E+01  0.51100000000E-03 0. -1.
        -11    1    3    3    0    0  0.20141992463E+02  0.30940698457E+00 -0.39084782635E+01  0.20520034007E+02  0.51100000000E-03 0.  1.
        -12    1    3    3    0    0  0.84926188853E+01  0.92011710925E+01 -0.21853933616E+02  0.25186912068E+02  0.00000000000E+00 0.  1.
</event>
<event>
 7    1  0.4374874E-012  0.5052885E+02  0.7816164E-02  0.1300439E+00
        -11   -1    0    0    0    0  0.00000000000E+00  0.00000000000E+00  0.45593999997E+02  0.45594000000E+02  0.51100000000E-03 0.  1.
         11   -1    0    0    0    0 -0.00000000000E+00 -0.00000000000E+00 -0.45593999997E+02  0.45594000000E+02  0.51100000000E-03 0. -1.
    9900012    2    1    2    0    0 -0.32756467402E+02  0.17830580068E+02 -0.16194151230E+02  0.50528852489E+02  0.29999977626E+02 0.  0.
        -12    1    1    2    0    0  0.32756467402E+02 -0.17830580068E+02  0.16194151230E+02  0.40659147511E+02  0.00000000000E+00 0.  1.
         11    1    3    3    0    0 -0.14024448345E+02  0.57625721327E+01 -0.18413177328E+02  0.23852410539E+02  0.51100000000E-03 0. -1.
        -11    1    3    3    0    0 -0.59616960832E+01  0.12156707697E+02 -0.76633055855E+00  0.13561512637E+02  0.51100000000E-03 0.  1.
        -12    1    3    3    0    0 -0.12770322974E+02 -0.88699761886E-01  0.29853566559E+01  0.13114929313E+02  0.00000000000E+00 0.  1.
</event>
<event>
 7    1  0.4374874E-012  0.5052886E+02  0.7816164E-02  0.1300439E+00
        -11   -1    0    0    0    0  0.00000000000E+00  0.00000000000E+00  0.45593999997E+02  0.45594000000E+02  0.51100000000E-03 0.  1.
         11   -1    0    0    0    0 -0.00000000000E+00 -0.00000000000E+00 -0.45593999997E+02  0.45594000000E+02  0.51100000000E-03 0. -1.
    9900012    2    1    2    0    0 -0.33875623280E+02  0.21686453146E+02  0.59418628747E+01  0.50528857890E+02  0.29999994043E+02 0.  0.
         12    1    1    2    0    0  0.33875623280E+02 -0.21686453146E+02 -0.59418628747E+01  0.40659142110E+02  0.00000000000E+00 0. -1.
         11    1    3    3    0    0 -0.21083924824E+01 -0.51103981572E+01  0.14443158490E+01  0.57138022995E+01  0.51100000000E-03 0. -1.
        -11    1    3    3    0    0 -0.36903948050E+01 -0.11974130564E+01  0.33885960709E+01  0.51512518321E+01  0.51100000000E-03 0.  1.
         12    1    3    3    0    0 -0.28076835992E+02  0.27994264360E+02  0.11089509549E+01  0.39663803759E+02  0.00000000000E+00 0. -1.
</event>
<event>
 7    1  0.4374874E-012  0.5052886E+02  0.7816164E-02  0.1300439E+00
        -11   -1    0    0    0    0  0.00000000000E+00  0.00000000000E+00  0.45593999997E+02  0.45594000000E+02  0.51100000000E-03 0. -1.
         11   -1    0    0    0    0 -0.00000000000E+00 -0.00000000000E+00 -0.45593999997E+02  0.45594000000E+02  0.51100000000E-03 0.  1.
    9900012    2    1    2    0    0 -0.37183761433E+01 -0.16272294502E+02  0.37074951096E+02  0.50528857261E+02  0.29999992130E+02 0.  0.
        -12    1    1    2    0    0  0.37183761433E+01  0.16272294502E+02 -0.37074951096E+02  0.40659142739E+02  0.00000000000E+00 0.  1.
         11    1    3    3    0    0 -0.48978381722E+01 -0.25928765377E+01  0.21764686397E+02  0.22459149621E+02  0.51100000000E-03 0. -1.
        -11    1    3    3    0    0  0.80635958846E+01 -0.24163718484E+01  0.11646972253E+02  0.14370539114E+02  0.51100000000E-03 0.  1.
        -12    1    3    3    0    0 -0.68841338557E+01 -0.11263046116E+02  0.36632924464E+01  0.13699168526E+02  0.00000000000E+00 0.  1.
</event>
<event>
 7    1  0.4374874E-012  0.5052886E+02  0.7816164E-02  0.1300439E+00
        -11   -1    0    0    0    0  0.00000000000E+00  0.00000000000E+00  0.45593999997E+02  0.45594000000E+02  0.51100000000E-03 0. -1.
         11   -1    0    0    0    0 -0.00000000000E+00 -0.00000000000E+00 -0.45593999997E+02  0.45594000000E+02  0.51100000000E-03 0.  1.
    9900012    2    1    2    0    0 -0.22657563417E+00  0.80890820537E+01 -0.39845714504E+02  0.50528861429E+02  0.30000004801E+02 0.  0.
         12    1    1    2    0    0  0.22657563417E+00 -0.80890820537E+01  0.39845714504E+02  0.40659138571E+02  0.00000000000E+00 0. -1.
         11    1    3    3    0    0  0.46586495291E+01 -0.46791059136E+01  0.25344078464E+00  0.66076682784E+01  0.51100000000E-03 0. -1.
        -11    1    3    3    0    0 -0.48543135113E+00  0.63151020951E+01 -0.53070760319E+01  0.82632447826E+01  0.51100000000E-03 0.  1.
        -12    1    3    3    0    0 -0.43997938121E+01  0.64530858722E+01 -0.34792079256E+02  0.35657948368E+02  0.00000000000E+00 0.  1.
</event>
<event>
 7    1  0.4374874E-012  0.5052886E+02  0.7816164E-02  0.1300439E+00
        -11   -1    0    0    0    0  0.00000000000E+00  0.00000000000E+00  0.45593999997E+02  0.45594000000E+02  0.51100000000E-03 0. -1.
         11   -1    0    0    0    0 -0.00000000000E+00 -0.00000000000E+00 -0.45593999997E+02  0.45594000000E+02  0.51100000000E-03 0.  1.
    9900012    2    1    2    0    0 -0.14643723845E+02 -0.18817576090E+02 -0.32933662334E+02  0.50528856715E+02  0.29999990470E+02 0.  0.
         12    1    1    2    0    0  0.14643723845E+02  0.18817576090E+02  0.32933662334E+02  0.40659143285E+02  0.00000000000E+00 0. -1.
         11    1    3    3    0    0 -0.17526956752E+01 -0.10048291710E+02 -0.74007648754E+01  0.12602040685E+02  0.51100000000E-03 0. -1.
        -11    1    3    3    0    0 -0.22535391381E+01 -0.91728655840E+01 -0.25594144175E+02  0.27281497723E+02  0.51100000000E-03 0.  1.
         12    1    3    3    0    0 -0.10637489032E+02  0.40358120405E+00  0.61246717128E-01  0.10645318307E+02  0.00000000000E+00 0. -1.
</event>
<event>
 7    1  0.4374874E-012  0.5052885E+02  0.7816164E-02  0.1300439E+00
        -11   -1    0    0    0    0  0.00000000000E+00  0.00000000000E+00  0.45593999997E+02  0.45594000000E+02  0.51100000000E-03 0. -1.
         11   -1    0    0    0    0 -0.00000000000E+00 -0.00000000000E+00 -0.45593999997E+02  0.45594000000E+02  0.51100000000E-03 0.  1.
    9900012    2    1    2    0    0  0.97186030548E+01  0.88368691083E+01  0.38478884996E+02  0.50528854762E+02  0.29999984534E+02 0.  0.
        -12    1    1    2    0    0 -0.97186030548E+01 -0.88368691083E+01 -0.38478884996E+02  0.40659145238E+02  0.00000000000E+00 0.  1.
         11    1    3    3    0    0  0.78147310308E+00  0.20724712252E+01  0.31736836787E+02  0.31814032230E+02  0.51100000000E-03 0. -1.
        -11    1    3    3    0    0  0.27448334065E+01 -0.67307553189E+00  0.84297897500E+01  0.88909221451E+01  0.51100000000E-03 0.  1.
        -12    1    3    3    0    0  0.61922965452E+01  0.74374734150E+01 -0.16877415414E+01  0.98239003869E+01  0.00000000000E+00 0.  1.
</event>
<event>
 7    1  0.4374874E-012  0.5052888E+02  0.7816164E-02  0.1300439E+00
        -11   -1    0    0    0    0  0.00000000000E+00  0.00000000000E+00  0.45593999997E+02  0.45594000000E+02  0.51100000000E-03 0. -1.
         11   -1    0    0    0    0 -0.00000000000E+00 -0.00000000000E+00 -0.45593999997E+02  0.45594000000E+02  0.51100000000E-03 0.  1.
    9900012    2    1    2    0    0 -0.15874636144E+02  0.20153623532E+02  0.31543488784E+02  0.50528876807E+02  0.30000051542E+02 0.  0.
        -12    1    1    2    0    0  0.15874636144E+02 -0.20153623532E+02 -0.31543488784E+02  0.40659123193E+02  0.00000000000E+00 0.  1.
         11    1    3    3    0    0 -0.15419003247E+02  0.48680234250E+01  0.16654437295E+02  0.23212358671E+02  0.51100000000E-03 0. -1.
        -11    1    3    3    0    0 -0.73129914234E+01  0.14161784887E+02  0.10816394770E+02  0.19262149175E+02  0.51100000000E-03 0.  1.
        -12    1    3    3    0    0  0.68573585266E+01  0.11238152201E+01  0.40726567193E+01  0.80543689613E+01  0.00000000000E+00 0.  1.
</event>
<event>
 7    1  0.4374874E-012  0.5052887E+02  0.7816164E-02  0.1300439E+00
        -11   -1    0    0    0    0  0.00000000000E+00  0.00000000000E+00  0.45593999997E+02  0.45594000000E+02  0.51100000000E-03 0. -1.
         11   -1    0    0    0    0 -0.00000000000E+00 -0.00000000000E+00 -0.45593999997E+02  0.45594000000E+02  0.51100000000E-03 0.  1.
    9900012    2    1    2    0    0  0.15171267726E+02  0.10670631033E+02 -0.36181974258E+02  0.50528868280E+02  0.30000025623E+02 0.  0.
         12    1    1    2    0    0 -0.15171267726E+02 -0.10670631033E+02  0.36181974258E+02  0.40659131720E+02  0.00000000000E+00 0. -1.
         11    1    3    3    0    0  0.70337992852E+01 -0.53214227086E+01 -0.21780743246E+01  0.90849259795E+01  0.51100000000E-03 0. -1.
        -11    1    3    3    0    0 -0.51338485359E+00  0.88269041763E+00 -0.17254296057E+02  0.17284485502E+02  0.51100000000E-03 0.  1.
         12    1    3    3    0    0  0.86508532946E+01  0.15109363324E+02 -0.16749603876E+02  0.24159456798E+02  0.00000000000E+00 0. -1.
</event>
<event>
 7    1  0.4374874E-012  0.5052885E+02  0.7816164E-02  0.1300439E+00
        -11   -1    0    0    0    0  0.00000000000E+00  0.00000000000E+00  0.45593999997E+02  0.45594000000E+02  0.51100000000E-03 0. -1.
         11   -1    0    0    0    0 -0.00000000000E+00 -0.00000000000E+00 -0.45593999997E+02  0.45594000000E+02  0.51100000000E-03 0.  1.
    9900012    2    1    2    0    0 -0.89964610556E+01  0.28623507816E+02 -0.27439480051E+02  0.50528848795E+02  0.29999966397E+02 0.  0.
         12    1    1    2    0    0  0.89964610556E+01 -0.28623507816E+02  0.27439480051E+02  0.40659151205E+02  0.00000000000E+00 0. -1.
         11    1    3    3    0    0 -0.12091758305E+02  0.62582034164E+01 -0.14181065972E+02  0.19659052909E+02  0.51100000000E-03 0. -1.
        -11    1    3    3    0    0 -0.41393718958E+01  0.36562490646E+01 -0.86907588336E+01  0.10297176617E+02  0.51100000000E-03 0.  1.
        -12    1    3    3    0    0  0.72346691449E+01  0.18709055335E+02 -0.45676552457E+01  0.20572619270E+02  0.00000000000E+00 0.  1.
</event>
<event>
 7    1  0.4374874E-012  0.5052885E+02  0.7816164E-02  0.1300439E+00
        -11   -1    0    0    0    0  0.00000000000E+00  0.00000000000E+00  0.45593999997E+02  0.45594000000E+02  0.51100000000E-03 0.  1.
         11   -1    0    0    0    0 -0.00000000000E+00 -0.00000000000E+00 -0.45593999997E+02  0.45594000000E+02  0.51100000000E-03 0. -1.
    9900012    2    1    2    0    0 -0.20194478889E+01  0.38058730647E+02 -0.14164078860E+02  0.50528852466E+02  0.29999977555E+02 0.  0.
         12    1    1    2    0    0  0.20194478889E+01 -0.38058730647E+02  0.14164078860E+02  0.40659147534E+02  0.00000000000E+00 0. -1.
         11    1    3    3    0    0  0.33856233989E+01  0.18127364230E+02 -0.19328327638E+02  0.26714191533E+02  0.51100000000E-03 0. -1.
        -11    1    3    3    0    0  0.10574649191E-01 -0.13172966237E+01  0.20934127266E+00  0.13338689020E+01  0.51100000000E-03 0.  1.
        -12    1    3    3    0    0 -0.54156459370E+01  0.21248663041E+02  0.49549075052E+01  0.22480792031E+02  0.00000000000E+00 0.  1.
</event>
<event>
 7    1  0.4374874E-012  0.5052885E+02  0.7816164E-02  0.1300439E+00
        -11   -1    0    0    0    0  0.00000000000E+00  0.00000000000E+00  0.45593999997E+02  0.45594000000E+02  0.51100000000E-03 0.  1.
         11   -1    0    0    0    0 -0.00000000000E+00 -0.00000000000E+00 -0.45593999997E+02  0.45594000000E+02  0.51100000000E-03 0. -1.
    9900012    2    1    2    0    0  0.20645171731E+02  0.32187591959E+02  0.13816735414E+02  0.50528851344E+02  0.29999974145E+02 0.  0.
        -12    1    1    2    0    0 -0.20645171731E+02 -0.32187591959E+02 -0.13816735414E+02  0.40659148656E+02  0.00000000000E+00 0.  1.
         11    1    3    3    0    0  0.69769517551E+00  0.22406843836E+02  0.73842265282E+01  0.23602547128E+02  0.51100000000E-03 0. -1.
        -11    1    3    3    0    0 -0.10517658333E+00  0.61323520273E+00  0.47748540728E+01  0.48152207846E+01  0.51100000000E-03 0.  1.
         12    1    3    3    0    0  0.20052653138E+02  0.91675129207E+01  0.16576548132E+01  0.22111083432E+02  0.00000000000E+00 0. -1.
</event>
<event>
 7    1  0.4374874E-012  0.5052887E+02  0.7816164E-02  0.1300439E+00
        -11   -1    0    0    0    0  0.00000000000E+00  0.00000000000E+00  0.45593999997E+02  0.45594000000E+02  0.51100000000E-03 0.  1.
         11   -1    0    0    0    0 -0.00000000000E+00 -0.00000000000E+00 -0.45593999997E+02  0.45594000000E+02  0.51100000000E-03 0. -1.
    9900012    2    1    2    0    0 -0.34407784721E+02 -0.19189975611E+02  0.10050582976E+02  0.50528867797E+02  0.30000024157E+02 0.  0.
        -12    1    1    2    0    0  0.34407784721E+02  0.19189975611E+02 -0.10050582976E+02  0.40659132203E+02  0.00000000000E+00 0.  1.
         11    1    3    3    0    0 -0.28690089080E+02 -0.18651831457E+02  0.88134412006E+01  0.35336790660E+02  0.51100000000E-03 0. -1.
        -11    1    3    3    0    0 -0.37832257058E+01 -0.31280626787E+01  0.70205505271E+01  0.85665455598E+01  0.51100000000E-03 0.  1.
         12    1    3    3    0    0 -0.19344699346E+01  0.25899185246E+01 -0.57834087516E+01  0.66255315772E+01  0.00000000000E+00 0. -1.
</event>
<event>
 7    1  0.4374874E-012  0.5052886E+02  0.7816164E-02  0.1300439E+00
        -11   -1    0    0    0    0  0.00000000000E+00  0.00000000000E+00  0.45593999997E+02  0.45594000000E+02  0.51100000000E-03 0. -1.
         11   -1    0    0    0    0 -0.00000000000E+00 -0.00000000000E+00 -0.45593999997E+02  0.45594000000E+02  0.51100000000E-03 0.  1.
    9900012    2    1    2    0    0 -0.16508026901E+02 -0.24245402238E+02 -0.28156901060E+02  0.50528861308E+02  0.30000004432E+02 0.  0.
         12    1    1    2    0    0  0.16508026901E+02  0.24245402238E+02  0.28156901060E+02  0.40659138692E+02  0.00000000000E+00 0. -1.
         11    1    3    3    0    0 -0.58783002349E+00  0.49550840639E+01 -0.10095800903E+02  0.11261598393E+02  0.51100000000E-03 0. -1.
        -11    1    3    3    0    0 -0.90016218878E+01 -0.18136127223E+02 -0.16511481250E+02  0.26126180750E+02  0.51100000000E-03 0.  1.
        -12    1    3    3    0    0 -0.69185749896E+01 -0.11064359079E+02 -0.15496189074E+01  0.13141082165E+02  0.00000000000E+00 0.  1.
</event>
<event>
 7    1  0.4374874E-012  0.5052886E+02  0.7816164E-02  0.1300439E+00
        -11   -1    0    0    0    0  0.00000000000E+00  0.00000000000E+00  0.45593999997E+02  0.45594000000E+02  0.51100000000E-03 0. -1.
         11   -1    0    0    0    0 -0.00000000000E+00 -0.00000000000E+00 -0.45593999997E+02  0.45594000000E+02  0.51100000000E-03 0.  1.
    9900012    2    1    2    0    0  0.10957701584E+02  0.70497299127E+01 -0.38514876188E+02  0.50528860761E+02  0.30000002771E+02 0.  0.
         12    1    1    2    0    0 -0.10957701584E+02 -0.70497299127E+01  0.38514876188E+02  0.40659139239E+02  0.00000000000E+00 0. -1.
         11    1    3    3    0    0  0.61354823936E+01 -0.42226087677E+01 -0.14935999462E+02  0.16690076369E+02  0.51100000000E-03 0. -1.
        -11    1    3    3    0    0  0.34966360615E+01 -0.37684969618E+01 -0.16271629115E+02  0.17064405862E+02  0.51100000000E-03 0.  1.
        -12    1    3    3    0    0  0.13255831288E+01  0.15040835642E+02 -0.73072476109E+01  0.16774378531E+02  0.00000000000E+00 0.  1.
</event>
<event>
 7    1  0.4374874E-012  0.5052890E+02  0.7816164E-02  0.1300439E+00
        -11   -1    0    0    0    0  0.00000000000E+00  0.00000000000E+00  0.45593999997E+02  0.45594000000E+02  0.51100000000E-03 0. -1.
         11   -1    0    0    0    0 -0.00000000000E+00 -0.00000000000E+00 -0.45593999997E+02  0.45594000000E+02  0.51100000000E-03 0.  1.
    9900012    2    1    2    0    0 -0.34996936098E+02 -0.94797783607E+01 -0.18398649121E+02  0.50528904788E+02  0.30000136592E+02 0.  0.
         12    1    1    2    0    0  0.34996936098E+02  0.94797783607E+01  0.18398649121E+02  0.40659095212E+02  0.00000000000E+00 0. -1.
         11    1    3    3    0    0  0.62749905689E+00  0.17911427928E+01  0.57597354644E+00  0.19833540677E+01  0.51100000000E-03 0. -1.
        -11    1    3    3    0    0 -0.42940978565E+01 -0.12358911687E+02 -0.32869896687E+01  0.13490228902E+02  0.51100000000E-03 0.  1.
         12    1    3    3    0    0 -0.31330337298E+02  0.10879905338E+01 -0.15687632998E+02  0.35055321818E+02  0.00000000000E+00 0. -1.
</event>
<event>
 7    1  0.4374874E-012  0.5052886E+02  0.7816164E-02  0.1300439E+00
        -11   -1    0    0    0    0  0.00000000000E+00  0.00000000000E+00  0.45593999997E+02  0.45594000000E+02  0.51100000000E-03 0. -1.
         11   -1    0    0    0    0 -0.00000000000E+00 -0.00000000000E+00 -0.45593999997E+02  0.45594000000E+02  0.51100000000E-03 0.  1.
    9900012    2    1    2    0    0 -0.23188105618E+02 -0.28937795255E+02  0.16675779242E+02  0.50528857735E+02  0.29999993572E+02 0.  0.
        -12    1    1    2    0    0  0.23188105618E+02  0.28937795255E+02 -0.16675779242E+02  0.40659142265E+02  0.00000000000E+00 0.  1.
         11    1    3    3    0    0 -0.16103732317E+02 -0.14630261771E+02  0.11408116274E+01  0.21787065095E+02  0.51100000000E-03 0. -1.
        -11    1    3    3    0    0  0.23896870511E+01 -0.42109314458E+01 -0.29324355075E+01  0.56605411499E+01  0.51100000000E-03 0.  1.
        -12    1    3    3    0    0 -0.94740603526E+01 -0.10096602038E+02  0.18467403123E+02  0.23081251491E+02  0.00000000000E+00 0.  1.
</event>
<event>
 7    1  0.4374874E-012  0.5052886E+02  0.7816164E-02  0.1300439E+00
        -11   -1    0    0    0    0  0.00000000000E+00  0.00000000000E+00  0.45593999997E+02  0.45594000000E+02  0.51100000000E-03 0. -1.
         11   -1    0    0    0    0 -0.00000000000E+00 -0.00000000000E+00 -0.45593999997E+02  0.45594000000E+02  0.51100000000E-03 0.  1.
    9900012    2    1    2    0    0  0.12952489050E+02 -0.12708298545E+02 -0.36385410895E+02  0.50528856496E+02  0.29999989804E+02 0.  0.
         12    1    1    2    0    0 -0.12952489050E+02  0.12708298545E+02  0.36385410895E+02  0.40659143504E+02  0.00000000000E+00 0. -1.
         11    1    3    3    0    0  0.17492841871E+02 -0.75339564289E+00 -0.14983410103E+02  0.23044949561E+02  0.51100000000E-03 0. -1.
        -11    1    3    3    0    0  0.71107964946E+00 -0.79081331936E+01 -0.18716187847E+02  0.20330762226E+02  0.51100000000E-03 0.  1.
        -12    1    3    3    0    0 -0.52514324696E+01 -0.40467697081E+01 -0.26858129448E+01  0.71531447090E+01  0.00000000000E+00 0.  1.
</event>
<event>
 7    1  0.4374874E-012  0.5052886E+02  0.7816164E-02  0.1300439E+00
        -11   -1    0    0    0    0  0.00000000000E+00  0.00000000000E+00  0.45593999997E+02  0.45594000000E+02  0.51100000000E-03 0. -1.
         11   -1    0    0    0    0 -0.00000000000E+00 -0.00000000000E+00 -0.45593999997E+02  0.45594000000E+02  0.51100000000E-03 0.  1.
    9900012    2    1    2    0    0 -0.32484909660E+02 -0.18272171499E+02  0.16248821388E+02  0.50528858304E+02  0.29999995302E+02 0.  0.
        -12    1    1    2    0    0  0.32484909660E+02  0.18272171499E+02 -0.16248821388E+02  0.40659141696E+02  0.00000000000E+00 0.  1.
         11    1    3    3    0    0  0.31998767030E+01 -0.20780715997E+01  0.15848067061E+01  0.41314894463E+01  0.51100000000E-03 0. -1.
        -11    1    3    3    0    0 -0.16896519050E+02 -0.14080581200E+01 -0.22598054860E+01  0.17105019870E+02  0.51100000000E-03 0.  1.
         12    1    3    3    0    0 -0.18788267313E+02 -0.14786041779E+02  0.16923820168E+02  0.29292348988E+02  0.00000000000E+00 0. -1.
</event>
<event>
 7    1  0.4374874E-012  0.5052886E+02  0.7816164E-02  0.1300439E+00
        -11   -1    0    0    0    0  0.00000000000E+00  0.00000000000E+00  0.45593999997E+02  0.45594000000E+02  0.51100000000E-03 0. -1.
         11   -1    0    0    0    0 -0.00000000000E+00 -0.00000000000E+00 -0.45593999997E+02  0.45594000000E+02  0.51100000000E-03 0.  1.
    9900012    2    1    2    0    0 -0.11251388642E+02 -0.33523702931E+02  0.20068212795E+02  0.50528861182E+02  0.30000004050E+02 0.  0.
        -12    1    1    2    0    0  0.11251388642E+02  0.33523702931E+02 -0.20068212795E+02  0.40659138818E+02  0.00000000000E+00 0.  1.
         11    1    3    3    0    0 -0.56013061006E+01 -0.16483873142E+02  0.10277122083E+02  0.20216625395E+02  0.51100000000E-03 0. -1.
        -11    1    3    3    0    0  0.71309246285E+01 -0.10423777197E+02  0.96923490684E+01  0.15920014065E+02  0.51100000000E-03 0.  1.
         12    1    3    3    0    0 -0.12781007170E+02 -0.66160525932E+01  0.98741643248E-01  0.14392221722E+02  0.00000000000E+00 0. -1.
</event>
<event>
 7    1  0.4374874E-012  0.5052886E+02  0.7816164E-02  0.1300439E+00
        -11   -1    0    0    0    0  0.00000000000E+00  0.00000000000E+00  0.45593999997E+02  0.45594000000E+02  0.51100000000E-03 0. -1.
         11   -1    0    0    0    0 -0.00000000000E+00 -0.00000000000E+00 -0.45593999997E+02  0.45594000000E+02  0.51100000000E-03 0.  1.
    9900012    2    1    2    0    0 -0.22824836773E+02 -0.27696409307E+02 -0.19107632692E+02  0.50528857249E+02  0.29999992093E+02 0.  0.
         12    1    1    2    0    0  0.22824836773E+02  0.27696409307E+02  0.19107632692E+02  0.40659142751E+02  0.00000000000E+00 0. -1.
         11    1    3    3    0    0 -0.73142680471E+01 -0.46977270259E+01 -0.82160273144E+01  0.11961198158E+02  0.51100000000E-03 0.  1.
        -11    1    3    3    0    0 -0.11536191596E+02 -0.17522883435E+01 -0.12240020777E+02  0.16910716717E+02  0.51100000000E-03 0. -1.
        -12    1    3    3    0    0 -0.39743771293E+01 -0.21246393937E+02  0.13484153995E+01  0.21656942374E+02  0.00000000000E+00 0.  1.
</event>
<event>
 7    1  0.4374874E-012  0.5052882E+02  0.7816164E-02  0.1300439E+00
        -11   -1    0    0    0    0  0.00000000000E+00  0.00000000000E+00  0.45593999997E+02  0.45594000000E+02  0.51100000000E-03 0. -1.
         11   -1    0    0    0    0 -0.00000000000E+00 -0.00000000000E+00 -0.45593999997E+02  0.45594000000E+02  0.51100000000E-03 0.  1.
    9900012    2    1    2    0    0 -0.19285976705E+01  0.20538803001E+02  0.35037221957E+02  0.50528820961E+02  0.29999881791E+02 0.  0.
        -12    1    1    2    0    0  0.19285976705E+01 -0.20538803001E+02 -0.35037221957E+02  0.40659179039E+02  0.00000000000E+00 0.  1.
         11    1    3    3    0    0 -0.67106598959E+01  0.69684081883E+01  0.26046077572E+02  0.27784704894E+02  0.51100000000E-03 0. -1.
        -11    1    3    3    0    0  0.27745995965E+00  0.10790128122E+02  0.12406367720E+02  0.16444506961E+02  0.51100000000E-03 0.  1.
        -12    1    3    3    0    0  0.45046022658E+01  0.27802666908E+01 -0.34152233354E+01  0.62996091050E+01  0.00000000000E+00 0.  1.
</event>
<event>
 7    1  0.4374874E-012  0.5052886E+02  0.7816164E-02  0.1300439E+00
        -11   -1    0    0    0    0  0.00000000000E+00  0.00000000000E+00  0.45593999997E+02  0.45594000000E+02  0.51100000000E-03 0. -1.
         11   -1    0    0    0    0 -0.00000000000E+00 -0.00000000000E+00 -0.45593999997E+02  0.45594000000E+02  0.51100000000E-03 0.  1.
    9900012    2    1    2    0    0  0.46795815474E+01  0.29832408743E+02  0.27226728607E+02  0.50528857787E+02  0.29999993730E+02 0.  0.
        -12    1    1    2    0    0 -0.46795815474E+01 -0.29832408743E+02 -0.27226728607E+02  0.40659142213E+02  0.00000000000E+00 0.  1.
         11    1    3    3    0    0  0.37582393804E+01  0.10986762052E+02  0.95650599133E+01  0.15044057798E+02  0.51100000000E-03 0. -1.
        -11    1    3    3    0    0 -0.64017191920E+00  0.18677231947E+02  0.96359311432E+00  0.18713025550E+02  0.51100000000E-03 0.  1.
         12    1    3    3    0    0  0.15615140862E+01  0.16841474343E+00  0.16698075579E+02  0.16771774439E+02  0.00000000000E+00 0. -1.
</event>
<event>
 7    1  0.4374874E-012  0.5052886E+02  0.7816164E-02  0.1300439E+00
        -11   -1    0    0    0    0  0.00000000000E+00  0.00000000000E+00  0.45593999997E+02  0.45594000000E+02  0.51100000000E-03 0. -1.
         11   -1    0    0    0    0 -0.00000000000E+00 -0.00000000000E+00 -0.45593999997E+02  0.45594000000E+02  0.51100000000E-03 0.  1.
    9900012    2    1    2    0    0 -0.74035789566E+01 -0.11263469439E+02  0.38359968576E+02  0.50528856941E+02  0.29999991156E+02 0.  0.
        -12    1    1    2    0    0  0.74035789566E+01  0.11263469439E+02 -0.38359968576E+02  0.40659143059E+02  0.00000000000E+00 0.  1.
         11    1    3    3    0    0 -0.54941790647E+01 -0.11583459127E+02  0.20554239681E+02  0.24224766213E+02  0.51100000000E-03 0. -1.
        -11    1    3    3    0    0 -0.10082198389E+01  0.57493852469E+00  0.21987812409E+02  0.22018423112E+02  0.51100000000E-03 0.  1.
        -12    1    3    3    0    0 -0.90118005309E+00 -0.25494883692E+00 -0.41820835137E+01  0.42856676158E+01  0.00000000000E+00 0.  1.
</event>
<event>
 7    1  0.4374874E-012  0.5052885E+02  0.7816164E-02  0.1300439E+00
        -11   -1    0    0    0    0  0.00000000000E+00  0.00000000000E+00  0.45593999997E+02  0.45594000000E+02  0.51100000000E-03 0.  1.
         11   -1    0    0    0    0 -0.00000000000E+00 -0.00000000000E+00 -0.45593999997E+02  0.45594000000E+02  0.51100000000E-03 0. -1.
    9900012    2    1    2    0    0 -0.84983081615E+01 -0.37934020350E+02 -0.11914494145E+02  0.50528852047E+02  0.29999976282E+02 0.  0.
         12    1    1    2    0    0  0.84983081615E+01  0.37934020350E+02  0.11914494145E+02  0.40659147953E+02  0.00000000000E+00 0. -1.
         11    1    3    3    0    0  0.28423640828E+01 -0.28349857534E+02 -0.28682478553E+01  0.28635996609E+02  0.51100000000E-03 0.  1.
        -11    1    3    3    0    0 -0.55116032087E+01 -0.85886614827E+01  0.98067733021E+00  0.10252053662E+02  0.51100000000E-03 0. -1.
         12    1    3    3    0    0 -0.58290690356E+01 -0.99550133381E+00 -0.10026923620E+02  0.11640801777E+02  0.00000000000E+00 0. -1.
</event>
<event>
 7    1  0.4374874E-012  0.5052886E+02  0.7816164E-02  0.1300439E+00
        -11   -1    0    0    0    0  0.00000000000E+00  0.00000000000E+00  0.45593999997E+02  0.45594000000E+02  0.51100000000E-03 0. -1.
         11   -1    0    0    0    0 -0.00000000000E+00 -0.00000000000E+00 -0.45593999997E+02  0.45594000000E+02  0.51100000000E-03 0.  1.
    9900012    2    1    2    0    0  0.11960069547E+02 -0.85589127503E+01  0.37906034297E+02  0.50528859734E+02  0.29999999649E+02 0.  0.
        -12    1    1    2    0    0 -0.11960069547E+02  0.85589127503E+01 -0.37906034297E+02  0.40659140266E+02  0.00000000000E+00 0.  1.
         11    1    3    3    0    0  0.44603417207E+01 -0.90713345008E+01  0.55041833554E+01  0.11509986645E+02  0.51100000000E-03 0. -1.
        -11    1    3    3    0    0  0.11087255479E+02 -0.71075752545E+01  0.21925902194E+02  0.25577139155E+02  0.51100000000E-03 0.  1.
        -12    1    3    3    0    0 -0.35875276530E+01  0.76199970050E+01  0.10475948747E+02  0.13441733935E+02  0.00000000000E+00 0.  1.
</event>
<event>
 7    1  0.4374874E-012  0.5052886E+02  0.7816164E-02  0.1300439E+00
        -11   -1    0    0    0    0  0.00000000000E+00  0.00000000000E+00  0.45593999997E+02  0.45594000000E+02  0.51100000000E-03 0.  1.
         11   -1    0    0    0    0 -0.00000000000E+00 -0.00000000000E+00 -0.45593999997E+02  0.45594000000E+02  0.51100000000E-03 0. -1.
    9900012    2    1    2    0    0 -0.20438224066E+02  0.35116524881E+02  0.15081589263E+01  0.50528857535E+02  0.29999992962E+02 0.  0.
        -12    1    1    2    0    0  0.20438224066E+02 -0.35116524881E+02 -0.15081589263E+01  0.40659142465E+02  0.00000000000E+00 0.  1.
         11    1    3    3    0    0 -0.87347628641E+01  0.11302280380E+02 -0.11232571778E+02  0.18171634299E+02  0.51100000000E-03 0. -1.
        -11    1    3    3    0    0 -0.75769697169E+01  0.30746998712E+01  0.11933255385E+01  0.82636720343E+01  0.51100000000E-03 0.  1.
        -12    1    3    3    0    0 -0.41264914846E+01  0.20739544630E+02  0.11547405166E+02  0.24093551201E+02  0.00000000000E+00 0.  1.
</event>
<event>
 7    1  0.4374874E-012  0.5052886E+02  0.7816164E-02  0.1300439E+00
        -11   -1    0    0    0    0  0.00000000000E+00  0.00000000000E+00  0.45593999997E+02  0.45594000000E+02  0.51100000000E-03 0. -1.
         11   -1    0    0    0    0 -0.00000000000E+00 -0.00000000000E+00 -0.45593999997E+02  0.45594000000E+02  0.51100000000E-03 0.  1.
    9900012    2    1    2    0    0 -0.68506744998E+01 -0.16561955732E+02 -0.36495691124E+02  0.50528860936E+02  0.30000003302E+02 0.  0.
         12    1    1    2    0    0  0.68506744998E+01  0.16561955732E+02  0.36495691124E+02  0.40659139064E+02  0.00000000000E+00 0. -1.
         11    1    3    3    0    0  0.22416472645E+01 -0.15822444995E+02 -0.23783850886E+02  0.28653905690E+02  0.51100000000E-03 0. -1.
        -11    1    3    3    0    0  0.41080063844E+01  0.14113555678E+01 -0.40627447888E+01  0.59475655922E+01  0.51100000000E-03 0.  1.
        -12    1    3    3    0    0 -0.13200328149E+02 -0.21508663051E+01 -0.86490954491E+01  0.15927389654E+02  0.00000000000E+00 0.  1.
</event>
<event>
 7    1  0.4374874E-012  0.5052886E+02  0.7816164E-02  0.1300439E+00
        -11   -1    0    0    0    0  0.00000000000E+00  0.00000000000E+00  0.45593999997E+02  0.45594000000E+02  0.51100000000E-03 0. -1.
         11   -1    0    0    0    0 -0.00000000000E+00 -0.00000000000E+00 -0.45593999997E+02  0.45594000000E+02  0.51100000000E-03 0.  1.
    9900012    2    1    2    0    0  0.31776770870E+02  0.91613581557E+01  0.23653160463E+02  0.50528860190E+02  0.30000001035E+02 0.  0.
        -12    1    1    2    0    0 -0.31776770870E+02 -0.91613581557E+01 -0.23653160463E+02  0.40659139810E+02  0.00000000000E+00 0.  1.
         11    1    3    3    0    0  0.13746845018E+02  0.88477376443E+01  0.99858055044E+01  0.19156579058E+02  0.51100000000E-03 0. -1.
        -11    1    3    3    0    0  0.79037724346E+01 -0.26392567191E+01  0.18103730372E+02  0.19929384044E+02  0.51100000000E-03 0.  1.
         12    1    3    3    0    0  0.10126153417E+02  0.29528772305E+01 -0.44363754136E+01  0.11442897088E+02  0.00000000000E+00 0. -1.
</event>
<event>
 7    1  0.4374874E-012  0.5052886E+02  0.7816164E-02  0.1300439E+00
        -11   -1    0    0    0    0  0.00000000000E+00  0.00000000000E+00  0.45593999997E+02  0.45594000000E+02  0.51100000000E-03 0. -1.
         11   -1    0    0    0    0 -0.00000000000E+00 -0.00000000000E+00 -0.45593999997E+02  0.45594000000E+02  0.51100000000E-03 0.  1.
    9900012    2    1    2    0    0  0.18480813811E+02  0.32831134863E+02 -0.15288619890E+02  0.50528858425E+02  0.29999995668E+02 0.  0.
         12    1    1    2    0    0 -0.18480813811E+02 -0.32831134863E+02  0.15288619890E+02  0.40659141575E+02  0.00000000000E+00 0. -1.
         11    1    3    3    0    0  0.16636622365E+01  0.13450300405E+02  0.55562469461E+01  0.14647533356E+02  0.51100000000E-03 0. -1.
        -11    1    3    3    0    0  0.46643678086E+01 -0.13900994882E+01 -0.17897761245E+01  0.51857499436E+01  0.51100000000E-03 0.  1.
         12    1    3    3    0    0  0.12152783766E+02  0.20770933946E+02 -0.19055090712E+02  0.30695575125E+02  0.00000000000E+00 0. -1.
</event>
<event>
 7    1  0.4374874E-012  0.5052888E+02  0.7816164E-02  0.1300439E+00
        -11   -1    0    0    0    0  0.00000000000E+00  0.00000000000E+00  0.45593999997E+02  0.45594000000E+02  0.51100000000E-03 0. -1.
         11   -1    0    0    0    0 -0.00000000000E+00 -0.00000000000E+00 -0.45593999997E+02  0.45594000000E+02  0.51100000000E-03 0.  1.
    9900012    2    1    2    0    0 -0.13364091019E+02  0.33126098839E+02  0.19422322361E+02  0.50528880987E+02  0.30000064247E+02 0.  0.
        -12    1    1    2    0    0  0.13364091019E+02 -0.33126098839E+02 -0.19422322361E+02  0.40659119013E+02  0.00000000000E+00 0.  1.
         11    1    3    3    0    0 -0.66707275994E+01 -0.28537497115E+01  0.12078751725E+01  0.73553692507E+01  0.51100000000E-03 0. -1.
        -11    1    3    3    0    0  0.23044799988E+01  0.68595737235E+01 -0.75209741537E+00  0.72753027783E+01  0.51100000000E-03 0.  1.
         12    1    3    3    0    0 -0.89978434185E+01  0.29120274827E+02  0.18966544604E+02  0.35898208958E+02  0.00000000000E+00 0. -1.
</event>
<event>
 7    1  0.4374874E-012  0.5052886E+02  0.7816164E-02  0.1300439E+00
        -11   -1    0    0    0    0  0.00000000000E+00  0.00000000000E+00  0.45593999997E+02  0.45594000000E+02  0.51100000000E-03 0. -1.
         11   -1    0    0    0    0 -0.00000000000E+00 -0.00000000000E+00 -0.45593999997E+02  0.45594000000E+02  0.51100000000E-03 0.  1.
    9900012    2    1    2    0    0 -0.20464177803E+02  0.26772740852E+02  0.22750894158E+02  0.50528863131E+02  0.30000009974E+02 0.  0.
        -12    1    1    2    0    0  0.20464177803E+02 -0.26772740852E+02 -0.22750894158E+02  0.40659136869E+02  0.00000000000E+00 0.  1.
         11    1    3    3    0    0 -0.10302974263E+02  0.13291986486E+02  0.11854300141E+02  0.20575534392E+02  0.51100000000E-03 0. -1.
        -11    1    3    3    0    0 -0.15144153420E+02  0.21549103415E+01  0.41027381326E+01  0.15837344532E+02  0.51100000000E-03 0.  1.
         12    1    3    3    0    0  0.49829498795E+01  0.11325844025E+02  0.67938558842E+01  0.14115984208E+02  0.00000000000E+00 0. -1.
</event>
<event>
 7    1  0.4374874E-012  0.5052886E+02  0.7816164E-02  0.1300439E+00
        -11   -1    0    0    0    0  0.00000000000E+00  0.00000000000E+00  0.45593999997E+02  0.45594000000E+02  0.51100000000E-03 0.  1.
         11   -1    0    0    0    0 -0.00000000000E+00 -0.00000000000E+00 -0.45593999997E+02  0.45594000000E+02  0.51100000000E-03 0. -1.
    9900012    2    1    2    0    0 -0.28770853008E+02  0.14894115041E+02  0.24567640833E+02  0.50528860538E+02  0.30000002092E+02 0.  0.
        -12    1    1    2    0    0  0.28770853008E+02 -0.14894115041E+02 -0.24567640833E+02  0.40659139462E+02  0.00000000000E+00 0.  1.
         11    1    3    3    0    0 -0.88151796174E+01  0.38958838440E+01 -0.65040064232E+00  0.96596233813E+01  0.51100000000E-03 0. -1.
        -11    1    3    3    0    0 -0.18219107045E+02  0.17081697730E+02  0.15899285648E+02  0.29605870080E+02  0.51100000000E-03 0.  1.
        -12    1    3    3    0    0 -0.17365663455E+01 -0.60834665327E+01  0.93187558278E+01  0.11263367077E+02  0.00000000000E+00 0.  1.
</event>
<event>
 7    1  0.4374874E-012  0.5052887E+02  0.7816164E-02  0.1300439E+00
        -11   -1    0    0    0    0  0.00000000000E+00  0.00000000000E+00  0.45593999997E+02  0.45594000000E+02  0.51100000000E-03 0.  1.
         11   -1    0    0    0    0 -0.00000000000E+00 -0.00000000000E+00 -0.45593999997E+02  0.45594000000E+02  0.51100000000E-03 0. -1.
    9900012    2    1    2    0    0 -0.32361190681E+02  0.24528513995E+02 -0.20664444898E+01  0.50528869981E+02  0.30000030794E+02 0.  0.
        -12    1    1    2    0    0  0.32361190681E+02 -0.24528513995E+02  0.20664444898E+01  0.40659130019E+02  0.00000000000E+00 0.  1.
         11    1    3    3    0    0 -0.74860973589E+01  0.17594177087E+02  0.96809995923E+01  0.21431716553E+02  0.51100000000E-03 0.  1.
        -11    1    3    3    0    0 -0.15422356816E+02  0.64427959832E+01 -0.49096542231E+01  0.17420201339E+02  0.51100000000E-03 0. -1.
        -12    1    3    3    0    0 -0.94527365059E+01  0.49154092504E+00 -0.68377898590E+01  0.11676952089E+02  0.00000000000E+00 0.  1.
</event>
<event>
 7    1  0.4374874E-012  0.5052886E+02  0.7816164E-02  0.1300439E+00
        -11   -1    0    0    0    0  0.00000000000E+00  0.00000000000E+00  0.45593999997E+02  0.45594000000E+02  0.51100000000E-03 0. -1.
         11   -1    0    0    0    0 -0.00000000000E+00 -0.00000000000E+00 -0.45593999997E+02  0.45594000000E+02  0.51100000000E-03 0.  1.
    9900012    2    1    2    0    0 -0.17876747051E+02  0.22825014822E+02  0.28506248435E+02  0.50528860971E+02  0.30000003407E+02 0.  0.
        -12    1    1    2    0    0  0.17876747051E+02 -0.22825014822E+02 -0.28506248435E+02  0.40659139029E+02  0.00000000000E+00 0.  1.
         11    1    3    3    0    0 -0.12930038717E+02  0.17338086958E+01  0.24745878781E+02  0.27974104288E+02  0.51100000000E-03 0. -1.
        -11    1    3    3    0    0  0.22976657393E+00  0.95530419622E+01  0.97432090582E+00  0.96053477240E+01  0.51100000000E-03 0.  1.
        -12    1    3    3    0    0 -0.51764749082E+01  0.11538164164E+02  0.27860487478E+01  0.12949408959E+02  0.00000000000E+00 0.  1.
</event>
<event>
 7    1  0.4374874E-012  0.5052887E+02  0.7816164E-02  0.1300439E+00
        -11   -1    0    0    0    0  0.00000000000E+00  0.00000000000E+00  0.45593999997E+02  0.45594000000E+02  0.51100000000E-03 0. -1.
         11   -1    0    0    0    0 -0.00000000000E+00 -0.00000000000E+00 -0.45593999997E+02  0.45594000000E+02  0.51100000000E-03 0.  1.
    9900012    2    1    2    0    0  0.33682256928E+01 -0.14226899919E+02 -0.37939629425E+02  0.50528866874E+02  0.30000021351E+02 0.  0.
         12    1    1    2    0    0 -0.33682256928E+01  0.14226899919E+02  0.37939629425E+02  0.40659133126E+02  0.00000000000E+00 0. -1.
         11    1    3    3    0    0  0.24300421976E+01  0.37486901419E+01 -0.48843328474E+01  0.66192515051E+01  0.51100000000E-03 0. -1.
        -11    1    3    3    0    0  0.11593183252E+02 -0.11631013776E+02 -0.17200171742E+02  0.23780838665E+02  0.51100000000E-03 0.  1.
        -12    1    3    3    0    0 -0.10654999757E+02 -0.63445762845E+01 -0.15855124836E+02  0.20128776704E+02  0.00000000000E+00 0.  1.
</event>
<event>
 7    1  0.4374874E-012  0.5052887E+02  0.7816164E-02  0.1300439E+00
        -11   -1    0    0    0    0  0.00000000000E+00  0.00000000000E+00  0.45593999997E+02  0.45594000000E+02  0.51100000000E-03 0. -1.
         11   -1    0    0    0    0 -0.00000000000E+00 -0.00000000000E+00 -0.45593999997E+02  0.45594000000E+02  0.51100000000E-03 0.  1.
    9900012    2    1    2    0    0 -0.18255314477E+02 -0.72286381065E+01 -0.35604147702E+02  0.50528867581E+02  0.30000023498E+02 0.  0.
         12    1    1    2    0    0  0.18255314477E+02  0.72286381065E+01  0.35604147702E+02  0.40659132419E+02  0.00000000000E+00 0. -1.
         11    1    3    3    0    0  0.68246685529E+00  0.20370115538E+01 -0.85870689796E+00  0.23135589201E+01  0.51100000000E-03 0. -1.
        -11    1    3    3    0    0 -0.12205986390E+02  0.42124852963E+00 -0.34301172515E+02  0.36410630182E+02  0.51100000000E-03 0.  1.
         12    1    3    3    0    0 -0.67317949415E+01 -0.96868981899E+01 -0.44426828934E+00  0.11804678479E+02  0.00000000000E+00 0. -1.
</event>
<event>
 7    1  0.4374874E-012  0.5052885E+02  0.7816164E-02  0.1300439E+00
        -11   -1    0    0    0    0  0.00000000000E+00  0.00000000000E+00  0.45593999997E+02  0.45594000000E+02  0.51100000000E-03 0. -1.
         11   -1    0    0    0    0 -0.00000000000E+00 -0.00000000000E+00 -0.45593999997E+02  0.45594000000E+02  0.51100000000E-03 0.  1.
    9900012    2    1    2    0    0  0.12403995287E+02  0.17021782220E+02 -0.34778822107E+02  0.50528848064E+02  0.29999964175E+02 0.  0.
         12    1    1    2    0    0 -0.12403995287E+02 -0.17021782220E+02  0.34778822107E+02  0.40659151936E+02  0.00000000000E+00 0. -1.
         11    1    3    3    0    0  0.22792961669E+01 -0.23864506349E+01 -0.83719534068E-01  0.33011129746E+01  0.51100000000E-03 0. -1.
        -11    1    3    3    0    0 -0.32005742842E+01  0.16000162061E+02 -0.26777752899E+02  0.31357565472E+02  0.51100000000E-03 0.  1.
         12    1    3    3    0    0  0.13325273404E+02  0.34080707941E+01 -0.79173496737E+01  0.15870169618E+02  0.00000000000E+00 0. -1.
</event>
<event>
 7    1  0.4374874E-012  0.5052886E+02  0.7816164E-02  0.1300439E+00
        -11   -1    0    0    0    0  0.00000000000E+00  0.00000000000E+00  0.45593999997E+02  0.45594000000E+02  0.51100000000E-03 0. -1.
         11   -1    0    0    0    0 -0.00000000000E+00 -0.00000000000E+00 -0.45593999997E+02  0.45594000000E+02  0.51100000000E-03 0.  1.
    9900012    2    1    2    0    0 -0.27959514159E+02 -0.18186194904E+02  0.23252818853E+02  0.50528859555E+02  0.29999999103E+02 0.  0.
        -12    1    1    2    0    0  0.27959514159E+02  0.18186194904E+02 -0.23252818853E+02  0.40659140445E+02  0.00000000000E+00 0.  1.
         11    1    3    3    0    0  0.10841425217E+01  0.30916502562E+01  0.64832325048E+01  0.72640188798E+01  0.51100000000E-03 0. -1.
        -11    1    3    3    0    0 -0.17358791795E+02 -0.56257304001E+01  0.15056061099E+02  0.23657165325E+02  0.51100000000E-03 0.  1.
        -12    1    3    3    0    0 -0.11684864886E+02 -0.15652114760E+02  0.17135252490E+01  0.19607675350E+02  0.00000000000E+00 0.  1.
</event>
<event>
 7    1  0.4374874E-012  0.5052887E+02  0.7816164E-02  0.1300439E+00
        -11   -1    0    0    0    0  0.00000000000E+00  0.00000000000E+00  0.45593999997E+02  0.45594000000E+02  0.51100000000E-03 0. -1.
         11   -1    0    0    0    0 -0.00000000000E+00 -0.00000000000E+00 -0.45593999997E+02  0.45594000000E+02  0.51100000000E-03 0.  1.
    9900012    2    1    2    0    0 -0.13344695984E+02 -0.37281139994E+02  0.92304212813E+01  0.50528868342E+02  0.30000025812E+02 0.  0.
        -12    1    1    2    0    0  0.13344695984E+02  0.37281139994E+02 -0.92304212813E+01  0.40659131658E+02  0.00000000000E+00 0.  1.
         11    1    3    3    0    0 -0.12302456891E+02 -0.22165289802E+02 -0.16831794900E+01  0.25406369497E+02  0.51100000000E-03 0. -1.
        -11    1    3    3    0    0 -0.87321349458E+01 -0.92976323705E+01  0.44303577571E+01  0.13502748555E+02  0.51100000000E-03 0.  1.
         12    1    3    3    0    0  0.76898958524E+01 -0.58182178216E+01  0.64832430142E+01  0.11619750291E+02  0.00000000000E+00 0. -1.
</event>
<event>
 7    1  0.4374874E-012  0.5052887E+02  0.7816164E-02  0.1300439E+00
        -11   -1    0    0    0    0  0.00000000000E+00  0.00000000000E+00  0.45593999997E+02  0.45594000000E+02  0.51100000000E-03 0. -1.
         11   -1    0    0    0    0 -0.00000000000E+00 -0.00000000000E+00 -0.45593999997E+02  0.45594000000E+02  0.51100000000E-03 0.  1.
    9900012    2    1    2    0    0 -0.31591435357E+02  0.24229692127E+02  0.82503600055E+01  0.50528865618E+02  0.30000017532E+02 0.  0.
        -12    1    1    2    0    0  0.31591435357E+02 -0.24229692127E+02 -0.82503600055E+01  0.40659134382E+02  0.00000000000E+00 0.  1.
         11    1    3    3    0    0  0.56342347880E+00 -0.40701204796E+01  0.32760254700E+01  0.52550613579E+01  0.51100000000E-03 0.  1.
        -11    1    3    3    0    0 -0.80791037929E+01  0.14757905824E+02 -0.15343724145E+01  0.16894436995E+02  0.51100000000E-03 0. -1.
        -12    1    3    3    0    0 -0.24075755043E+02  0.13541906782E+02  0.65087069500E+01  0.28379367265E+02  0.00000000000E+00 0.  1.
</event>
<event>
 7    1  0.4374874E-012  0.5052893E+02  0.7816164E-02  0.1300439E+00
        -11   -1    0    0    0    0  0.00000000000E+00  0.00000000000E+00  0.45593999997E+02  0.45594000000E+02  0.51100000000E-03 0. -1.
         11   -1    0    0    0    0 -0.00000000000E+00 -0.00000000000E+00 -0.45593999997E+02  0.45594000000E+02  0.51100000000E-03 0.  1.
    9900012    2    1    2    0    0  0.24869405615E+02  0.72235281007E+01 -0.31344750427E+02  0.50528928771E+02  0.30000209491E+02 0.  0.
         12    1    1    2    0    0 -0.24869405615E+02 -0.72235281007E+01  0.31344750427E+02  0.40659071229E+02  0.00000000000E+00 0. -1.
         11    1    3    3    0    0  0.16453361009E+02  0.85982622798E+01 -0.70739571804E+01  0.19866657322E+02  0.51100000000E-03 0. -1.
        -11    1    3    3    0    0  0.14015947354E+00 -0.74362650389E+01 -0.54265975519E+01  0.92068259275E+01  0.51100000000E-03 0.  1.
         12    1    3    3    0    0  0.82758851330E+01  0.60615308598E+01 -0.18844195695E+02  0.21455445521E+02  0.00000000000E+00 0. -1.
</event>
<event>
 7    1  0.4374874E-012  0.5052886E+02  0.7816164E-02  0.1300439E+00
        -11   -1    0    0    0    0  0.00000000000E+00  0.00000000000E+00  0.45593999997E+02  0.45594000000E+02  0.51100000000E-03 0. -1.
         11   -1    0    0    0    0 -0.00000000000E+00 -0.00000000000E+00 -0.45593999997E+02  0.45594000000E+02  0.51100000000E-03 0.  1.
    9900012    2    1    2    0    0  0.91900005472E+01 -0.28330871200E+02 -0.27677995059E+02  0.50528858550E+02  0.29999996047E+02 0.  0.
         12    1    1    2    0    0 -0.91900005472E+01  0.28330871200E+02  0.27677995059E+02  0.40659141450E+02  0.00000000000E+00 0. -1.
         11    1    3    3    0    0  0.56013985591E+01 -0.14111892229E+02  0.30524937218E+00  0.15185991753E+02  0.51100000000E-03 0. -1.
        -11    1    3    3    0    0  0.35789884623E+01 -0.78027976101E+01 -0.23238303790E+01  0.88934243601E+01  0.51100000000E-03 0.  1.
        -12    1    3    3    0    0  0.96135258432E-02 -0.64161813610E+01 -0.25659414052E+02  0.26449442436E+02  0.00000000000E+00 0.  1.
</event>
<event>
 7    1  0.4374874E-012  0.5052886E+02  0.7816164E-02  0.1300439E+00
        -11   -1    0    0    0    0  0.00000000000E+00  0.00000000000E+00  0.45593999997E+02  0.45594000000E+02  0.51100000000E-03 0. -1.
         11   -1    0    0    0    0 -0.00000000000E+00 -0.00000000000E+00 -0.45593999997E+02  0.45594000000E+02  0.51100000000E-03 0.  1.
    9900012    2    1    2    0    0 -0.13633866077E+02  0.35440611059E+01  0.38140825948E+02  0.50528864775E+02  0.30000014969E+02 0.  0.
        -12    1    1    2    0    0  0.13633866077E+02 -0.35440611059E+01 -0.38140825948E+02  0.40659135225E+02  0.00000000000E+00 0.  1.
         11    1    3    3    0    0  0.55216906661E+01 -0.96156815175E+00  0.12292163154E+00  0.56061386988E+01  0.51100000000E-03 0. -1.
        -11    1    3    3    0    0 -0.48954419205E+01 -0.91724339289E+00  0.12793285106E+01  0.51423116142E+01  0.51100000000E-03 0.  1.
         12    1    3    3    0    0 -0.14260114822E+02  0.54228726505E+01  0.36738575805E+02  0.39780414462E+02  0.00000000000E+00 0. -1.
</event>
<event>
 7    1  0.4374874E-012  0.5052891E+02  0.7816164E-02  0.1300439E+00
        -11   -1    0    0    0    0  0.00000000000E+00  0.00000000000E+00  0.45593999997E+02  0.45594000000E+02  0.51100000000E-03 0. -1.
         11   -1    0    0    0    0 -0.00000000000E+00 -0.00000000000E+00 -0.45593999997E+02  0.45594000000E+02  0.51100000000E-03 0.  1.
    9900012    2    1    2    0    0 -0.29312355835E+02  0.98533745351E+01  0.26398077026E+02  0.50528909196E+02  0.30000149992E+02 0.  0.
        -12    1    1    2    0    0  0.29312355835E+02 -0.98533745351E+01 -0.26398077026E+02  0.40659090804E+02  0.00000000000E+00 0.  1.
         11    1    3    3    0    0 -0.13404504705E+01  0.63693693736E+01  0.47912305294E+01  0.80821756928E+01  0.51100000000E-03 0. -1.
        -11    1    3    3    0    0 -0.31509243874E+01 -0.56589779878E+01 -0.22193011366E+01  0.68467257983E+01  0.51100000000E-03 0.  1.
        -12    1    3    3    0    0 -0.24820980977E+02  0.91429831492E+01  0.23826147633E+02  0.35600007705E+02  0.00000000000E+00 0.  1.
</event>
<event>
 7    1  0.4374874E-012  0.5052886E+02  0.7816164E-02  0.1300439E+00
        -11   -1    0    0    0    0  0.00000000000E+00  0.00000000000E+00  0.45593999997E+02  0.45594000000E+02  0.51100000000E-03 0. -1.
         11   -1    0    0    0    0 -0.00000000000E+00 -0.00000000000E+00 -0.45593999997E+02  0.45594000000E+02  0.51100000000E-03 0.  1.
    9900012    2    1    2    0    0 -0.37988459210E+02 -0.67684731641E+01 -0.12815249930E+02  0.50528857204E+02  0.29999991957E+02 0.  0.
         12    1    1    2    0    0  0.37988459210E+02  0.67684731641E+01  0.12815249930E+02  0.40659142796E+02  0.00000000000E+00 0. -1.
         11    1    3    3    0    0 -0.16929758028E+02  0.28493041356E+00  0.11762079770E+00  0.16932564104E+02  0.51100000000E-03 0. -1.
        -11    1    3    3    0    0 -0.21668019261E+02 -0.49951183969E+01 -0.18563378119E+01  0.22313678693E+02  0.51100000000E-03 0.  1.
         12    1    3    3    0    0  0.60931807857E+00 -0.20582851808E+01 -0.11076532916E+02  0.11282614407E+02  0.00000000000E+00 0. -1.
</event>
<event>
 7    1  0.4802896E-012  0.5052886E+02  0.7816164E-02  0.1300439E+00
        -11   -1    0    0    0    0  0.00000000000E+00  0.00000000000E+00  0.45593999997E+02  0.45594000000E+02  0.51100000000E-03 0.  1.
         11   -1    0    0    0    0 -0.00000000000E+00 -0.00000000000E+00 -0.45593999997E+02  0.45594000000E+02  0.51100000000E-03 0. -1.
    9900012    2    1    2    0    0  0.90116755116E+01 -0.31873663448E+02 -0.23580180639E+02  0.50528860362E+02  0.30000001557E+02 0.  0.
         12    1    1    2    0    0 -0.90116755116E+01  0.31873663448E+02  0.23580180639E+02  0.40659139638E+02  0.00000000000E+00 0. -1.
         11    1    3    3    0    0 -0.35969601616E+01 -0.12827248644E+02 -0.19292887440E+02  0.23445509937E+02  0.51100000000E-03 0. -1.
        -11    1    3    3    0    0  0.45688975692E+00 -0.12162104235E+02 -0.48602823126E+01  0.13105261238E+02  0.51100000000E-03 0.  1.
         12    1    3    3    0    0  0.12151745916E+02 -0.68843105688E+01  0.57298911390E+00  0.13978089188E+02  0.00000000000E+00 0. -1.
</event>
<event>
 7    1  0.4374874E-012  0.5052886E+02  0.7816164E-02  0.1300439E+00
        -11   -1    0    0    0    0  0.00000000000E+00  0.00000000000E+00  0.45593999997E+02  0.45594000000E+02  0.51100000000E-03 0. -1.
         11   -1    0    0    0    0 -0.00000000000E+00 -0.00000000000E+00 -0.45593999997E+02  0.45594000000E+02  0.51100000000E-03 0.  1.
    9900012    2    1    2    0    0 -0.12986433206E+02 -0.22805779929E+02 -0.31055021169E+02  0.50528863445E+02  0.30000010929E+02 0.  0.
         12    1    1    2    0    0  0.12986433206E+02  0.22805779929E+02  0.31055021169E+02  0.40659136555E+02  0.00000000000E+00 0. -1.
         11    1    3    3    0    0  0.17476203092E+01 -0.72100132863E+01 -0.16087084674E+02  0.17715325622E+02  0.51100000000E-03 0.  1.
        -11    1    3    3    0    0  0.39272980260E+01 -0.78350701037E+01 -0.26993967010E+01  0.91705363052E+01  0.51100000000E-03 0. -1.
        -12    1    3    3    0    0 -0.18661351541E+02 -0.77606965387E+01 -0.12268539794E+02  0.23643001518E+02  0.00000000000E+00 0.  1.
</event>
<event>
 7    1  0.4374874E-012  0.5052880E+02  0.7816164E-02  0.1300439E+00
        -11   -1    0    0    0    0  0.00000000000E+00  0.00000000000E+00  0.45593999997E+02  0.45594000000E+02  0.51100000000E-03 0.  1.
         11   -1    0    0    0    0 -0.00000000000E+00 -0.00000000000E+00 -0.45593999997E+02  0.45594000000E+02  0.51100000000E-03 0. -1.
    9900012    2    1    2    0    0  0.88892672833E+01  0.36333720604E+02 -0.15937768286E+02  0.50528797060E+02  0.29999809143E+02 0.  0.
         12    1    1    2    0    0 -0.88892672833E+01 -0.36333720604E+02  0.15937768286E+02  0.40659202940E+02  0.00000000000E+00 0. -1.
         11    1    3    3    0    0  0.16394299937E+02  0.10008877912E+02 -0.54438687766E+01  0.19964629097E+02  0.51100000000E-03 0. -1.
        -11    1    3    3    0    0  0.14442574352E+00  0.12939069018E+02 -0.24326431000E+01  0.13166553025E+02  0.51100000000E-03 0.  1.
        -12    1    3    3    0    0 -0.76494583969E+01  0.13385773674E+02 -0.80612564095E+01  0.17397614938E+02  0.00000000000E+00 0.  1.
</event>
<event>
 7    1  0.4374874E-012  0.5052886E+02  0.7816164E-02  0.1300439E+00
        -11   -1    0    0    0    0  0.00000000000E+00  0.00000000000E+00  0.45593999997E+02  0.45594000000E+02  0.51100000000E-03 0.  1.
         11   -1    0    0    0    0 -0.00000000000E+00 -0.00000000000E+00 -0.45593999997E+02  0.45594000000E+02  0.51100000000E-03 0. -1.
    9900012    2    1    2    0    0  0.32462610158E+01  0.39150560028E+02  0.10481450220E+02  0.50528863759E+02  0.30000011883E+02 0.  0.
        -12    1    1    2    0    0 -0.32462610158E+01 -0.39150560028E+02 -0.10481450220E+02  0.40659136241E+02  0.00000000000E+00 0.  1.
         11    1    3    3    0    0 -0.39757263164E+01  0.18692953304E+02  0.12997561582E+01  0.19155215199E+02  0.51100000000E-03 0. -1.
        -11    1    3    3    0    0 -0.38582490255E+01  0.60890398897E+00 -0.35851680011E+01  0.53019128121E+01  0.51100000000E-03 0.  1.
        -12    1    3    3    0    0  0.11080236358E+02  0.19848702735E+02  0.12766862063E+02  0.26071735748E+02  0.00000000000E+00 0.  1.
</event>
<event>
 7    1  0.4374874E-012  0.5052887E+02  0.7816164E-02  0.1300439E+00
        -11   -1    0    0    0    0  0.00000000000E+00  0.00000000000E+00  0.45593999997E+02  0.45594000000E+02  0.51100000000E-03 0. -1.
         11   -1    0    0    0    0 -0.00000000000E+00 -0.00000000000E+00 -0.45593999997E+02  0.45594000000E+02  0.51100000000E-03 0.  1.
    9900012    2    1    2    0    0  0.52935726745E+01  0.39300205111E+02  0.89798060839E+01  0.50528868791E+02  0.30000027176E+02 0.  0.
        -12    1    1    2    0    0 -0.52935726745E+01 -0.39300205111E+02 -0.89798060839E+01  0.40659131209E+02  0.00000000000E+00 0.  1.
         11    1    3    3    0    0 -0.51892707294E+01  0.45396702457E+00  0.10454710922E+01  0.53129677985E+01  0.51100000000E-03 0. -1.
        -11    1    3    3    0    0  0.99114526918E+00  0.11224498583E+01 -0.42070275687E+01  0.44655731831E+01  0.51100000000E-03 0.  1.
         12    1    3    3    0    0  0.94916981347E+01  0.37723788228E+02  0.12141362560E+02  0.40750327809E+02  0.00000000000E+00 0. -1.
</event>
<event>
 7    1  0.4374874E-012  0.5052891E+02  0.7816164E-02  0.1300439E+00
        -11   -1    0    0    0    0  0.00000000000E+00  0.00000000000E+00  0.45593999997E+02  0.45594000000E+02  0.51100000000E-03 0. -1.
         11   -1    0    0    0    0 -0.00000000000E+00 -0.00000000000E+00 -0.45593999997E+02  0.45594000000E+02  0.51100000000E-03 0.  1.
    9900012    2    1    2    0    0 -0.17553453716E+02 -0.17787697809E+02 -0.32072354369E+02  0.50528906977E+02  0.30000143247E+02 0.  0.
         12    1    1    2    0    0  0.17553453716E+02  0.17787697809E+02  0.32072354369E+02  0.40659093023E+02  0.00000000000E+00 0. -1.
         11    1    3    3    0    0 -0.12186642750E+01 -0.23795610412E+01 -0.14853082524E+02  0.15091769746E+02  0.51100000000E-03 0. -1.
        -11    1    3    3    0    0 -0.14659810569E+02 -0.14394569167E+01 -0.15299357754E+02  0.21237994964E+02  0.51100000000E-03 0.  1.
        -12    1    3    3    0    0 -0.16749788719E+01 -0.13968679851E+02 -0.19199140911E+01  0.14199142267E+02  0.00000000000E+00 0.  1.
</event>
<event>
 7    1  0.4374874E-012  0.5052883E+02  0.7816164E-02  0.1300439E+00
        -11   -1    0    0    0    0  0.00000000000E+00  0.00000000000E+00  0.45593999997E+02  0.45594000000E+02  0.51100000000E-03 0. -1.
         11   -1    0    0    0    0 -0.00000000000E+00 -0.00000000000E+00 -0.45593999997E+02  0.45594000000E+02  0.51100000000E-03 0.  1.
    9900012    2    1    2    0    0 -0.53558859977E+01  0.17808009616E+02 -0.36157397765E+02  0.50528829638E+02  0.29999908169E+02 0.  0.
         12    1    1    2    0    0  0.53558859977E+01 -0.17808009616E+02  0.36157397765E+02  0.40659170362E+02  0.00000000000E+00 0. -1.
         11    1    3    3    0    0 -0.10448956071E+02 -0.19548720597E+01 -0.22132837962E+02  0.24553303734E+02  0.51100000000E-03 0. -1.
        -11    1    3    3    0    0 -0.18998902068E+01  0.66642360841E+01 -0.55547630367E+01  0.88812734468E+01  0.51100000000E-03 0.  1.
         12    1    3    3    0    0  0.69929602797E+01  0.13098645592E+02 -0.84697967666E+01  0.17094252458E+02  0.00000000000E+00 0. -1.
</event>
<event>
 7    1  0.4374874E-012  0.5052886E+02  0.7816164E-02  0.1300439E+00
        -11   -1    0    0    0    0  0.00000000000E+00  0.00000000000E+00  0.45593999997E+02  0.45594000000E+02  0.51100000000E-03 0. -1.
         11   -1    0    0    0    0 -0.00000000000E+00 -0.00000000000E+00 -0.45593999997E+02  0.45594000000E+02  0.51100000000E-03 0.  1.
    9900012    2    1    2    0    0  0.16914067143E+00  0.34080775876E+02 -0.22172908281E+02  0.50528858906E+02  0.29999997129E+02 0.  0.
         12    1    1    2    0    0 -0.16914067143E+00 -0.34080775876E+02  0.22172908281E+02  0.40659141094E+02  0.00000000000E+00 0. -1.
         11    1    3    3    0    0 -0.22053117523E+00  0.90973074201E+00 -0.14835662012E+02  0.14865164365E+02  0.51100000000E-03 0. -1.
        -11    1    3    3    0    0  0.53839205564E+01  0.13557716729E+02 -0.19307960200E+01  0.14714831191E+02  0.51100000000E-03 0.  1.
        -12    1    3    3    0    0 -0.49942487098E+01  0.19613328405E+02 -0.54064502493E+01  0.20948863349E+02  0.00000000000E+00 0.  1.
</event>
<event>
 7    1  0.4374874E-012  0.5052886E+02  0.7816164E-02  0.1300439E+00
        -11   -1    0    0    0    0  0.00000000000E+00  0.00000000000E+00  0.45593999997E+02  0.45594000000E+02  0.51100000000E-03 0. -1.
         11   -1    0    0    0    0 -0.00000000000E+00 -0.00000000000E+00 -0.45593999997E+02  0.45594000000E+02  0.51100000000E-03 0.  1.
    9900012    2    1    2    0    0 -0.92409767353E+01 -0.25046138110E+01  0.39515777953E+02  0.50528862668E+02  0.30000008565E+02 0.  0.
        -12    1    1    2    0    0  0.92409767353E+01  0.25046138110E+01 -0.39515777953E+02  0.40659137332E+02  0.00000000000E+00 0.  1.
         11    1    3    3    0    0 -0.42814333643E+01  0.34441968598E+01  0.26533263557E+02  0.27096258762E+02  0.51100000000E-03 0. -1.
        -11    1    3    3    0    0 -0.71482183182E+01 -0.80709976852E+01  0.15901514800E+02  0.19211876586E+02  0.51100000000E-03 0.  1.
        -12    1    3    3    0    0  0.21886749472E+01  0.21221870145E+01 -0.29190004041E+01  0.42207273198E+01  0.00000000000E+00 0.  1.
</event>
<event>
 7    1  0.4374874E-012  0.5052886E+02  0.7816164E-02  0.1300439E+00
        -11   -1    0    0    0    0  0.00000000000E+00  0.00000000000E+00  0.45593999997E+02  0.45594000000E+02  0.51100000000E-03 0. -1.
         11   -1    0    0    0    0 -0.00000000000E+00 -0.00000000000E+00 -0.45593999997E+02  0.45594000000E+02  0.51100000000E-03 0.  1.
    9900012    2    1    2    0    0 -0.80166607208E+01 -0.30800232780E+02 -0.25303049261E+02  0.50528862155E+02  0.30000007006E+02 0.  0.
         12    1    1    2    0    0  0.80166607208E+01  0.30800232780E+02  0.25303049261E+02  0.40659137845E+02  0.00000000000E+00 0. -1.
         11    1    3    3    0    0  0.54949657999E+01 -0.96285897066E+01 -0.64369424405E+01  0.12819462435E+02  0.51100000000E-03 0. -1.
        -11    1    3    3    0    0  0.12530943016E+01 -0.21260553692E+01  0.38624857383E+01  0.45835742714E+01  0.51100000000E-03 0.  1.
        -12    1    3    3    0    0 -0.14764720822E+02 -0.19045587704E+02 -0.22728592559E+02  0.33125825449E+02  0.00000000000E+00 0.  1.
</event>
<event>
 7    1  0.4374874E-012  0.5052886E+02  0.7816164E-02  0.1300439E+00
        -11   -1    0    0    0    0  0.00000000000E+00  0.00000000000E+00  0.45593999997E+02  0.45594000000E+02  0.51100000000E-03 0. -1.
         11   -1    0    0    0    0 -0.00000000000E+00 -0.00000000000E+00 -0.45593999997E+02  0.45594000000E+02  0.51100000000E-03 0.  1.
    9900012    2    1    2    0    0 -0.34031903696E+02  0.99219842697E+01  0.19913558459E+02  0.50528855253E+02  0.29999986028E+02 0.  0.
        -12    1    1    2    0    0  0.34031903696E+02 -0.99219842697E+01 -0.19913558459E+02  0.40659144747E+02  0.00000000000E+00 0.  1.
         11    1    3    3    0    0 -0.32242674344E+02  0.58667265145E+01  0.23643332629E+02  0.40410589045E+02  0.51100000000E-03 0. -1.
        -11    1    3    3    0    0  0.11728679892E+01  0.30958989967E+01  0.18028641160E+01  0.37696855572E+01  0.51100000000E-03 0.  1.
        -12    1    3    3    0    0 -0.29620973412E+01  0.95935875851E+00 -0.55326382861E+01  0.63485806516E+01  0.00000000000E+00 0.  1.
</event>
<event>
 7    1  0.4374874E-012  0.5052885E+02  0.7816164E-02  0.1300439E+00
        -11   -1    0    0    0    0  0.00000000000E+00  0.00000000000E+00  0.45593999997E+02  0.45594000000E+02  0.51100000000E-03 0. -1.
         11   -1    0    0    0    0 -0.00000000000E+00 -0.00000000000E+00 -0.45593999997E+02  0.45594000000E+02  0.51100000000E-03 0.  1.
    9900012    2    1    2    0    0 -0.98073733651E+01 -0.12514259639E+02  0.37421582131E+02  0.50528854954E+02  0.29999985119E+02 0.  0.
        -12    1    1    2    0    0  0.98073733651E+01  0.12514259639E+02 -0.37421582131E+02  0.40659145046E+02  0.00000000000E+00 0.  1.
         11    1    3    3    0    0  0.34395824033E+01 -0.79887606617E+01  0.18302029852E+01  0.88882319528E+01  0.51100000000E-03 0.  1.
        -11    1    3    3    0    0 -0.57883681497E+01 -0.10545551080E+02  0.19775918581E+02  0.23147371544E+02  0.51100000000E-03 0. -1.
         12    1    3    3    0    0 -0.74585876187E+01  0.60200521022E+01  0.15815460565E+02  0.18493251457E+02  0.00000000000E+00 0. -1.
</event>
<event>
 7    1  0.4374874E-012  0.5052873E+02  0.7816164E-02  0.1300439E+00
        -11   -1    0    0    0    0  0.00000000000E+00  0.00000000000E+00  0.45593999997E+02  0.45594000000E+02  0.51100000000E-03 0. -1.
         11   -1    0    0    0    0 -0.00000000000E+00 -0.00000000000E+00 -0.45593999997E+02  0.45594000000E+02  0.51100000000E-03 0.  1.
    9900012    2    1    2    0    0  0.16785772183E+02  0.17450540116E+02 -0.32663319525E+02  0.50528733645E+02  0.29999616386E+02 0.  0.
         12    1    1    2    0    0 -0.16785772183E+02 -0.17450540116E+02  0.32663319525E+02  0.40659266355E+02  0.00000000000E+00 0. -1.
         11    1    3    3    0    0  0.10483678132E+02  0.36600883326E+01 -0.33016596074E+01  0.11584675662E+02  0.51100000000E-03 0. -1.
        -11    1    3    3    0    0  0.10676195882E+01  0.87551290559E+01 -0.12725549493E+00  0.88209007813E+01  0.51100000000E-03 0.  1.
        -12    1    3    3    0    0  0.52344744630E+01  0.50353227275E+01 -0.29234404422E+02  0.30123157202E+02  0.00000000000E+00 0.  1.
</event>
<event>
 7    1  0.4374874E-012  0.5052885E+02  0.7816164E-02  0.1300439E+00
        -11   -1    0    0    0    0  0.00000000000E+00  0.00000000000E+00  0.45593999997E+02  0.45594000000E+02  0.51100000000E-03 0.  1.
         11   -1    0    0    0    0 -0.00000000000E+00 -0.00000000000E+00 -0.45593999997E+02  0.45594000000E+02  0.51100000000E-03 0. -1.
    9900012    2    1    2    0    0 -0.11315575255E+02 -0.21921356461E+02  0.32319938198E+02  0.50528849522E+02  0.29999968607E+02 0.  0.
        -12    1    1    2    0    0  0.11315575255E+02  0.21921356461E+02 -0.32319938198E+02  0.40659150478E+02  0.00000000000E+00 0.  1.
         11    1    3    3    0    0 -0.75220252719E+01  0.18020831268E+00  0.11449584910E+02  0.13700596122E+02  0.51100000000E-03 0. -1.
        -11    1    3    3    0    0 -0.11868181333E+02 -0.15714317288E+02  0.10955102454E+02  0.22534590434E+02  0.51100000000E-03 0.  1.
        -12    1    3    3    0    0  0.80746313498E+01 -0.63872474856E+01  0.99152508348E+01  0.14293662966E+02  0.00000000000E+00 0.  1.
</event>
<event>
 7    1  0.4374874E-012  0.5052886E+02  0.7816164E-02  0.1300439E+00
        -11   -1    0    0    0    0  0.00000000000E+00  0.00000000000E+00  0.45593999997E+02  0.45594000000E+02  0.51100000000E-03 0. -1.
         11   -1    0    0    0    0 -0.00000000000E+00 -0.00000000000E+00 -0.45593999997E+02  0.45594000000E+02  0.51100000000E-03 0.  1.
    9900012    2    1    2    0    0  0.12247860293E+02 -0.12510682594E+02  0.36696577174E+02  0.50528855432E+02  0.29999986570E+02 0.  0.
        -12    1    1    2    0    0 -0.12247860293E+02  0.12510682594E+02 -0.36696577174E+02  0.40659144568E+02  0.00000000000E+00 0.  1.
         11    1    3    3    0    0  0.10104761126E+02 -0.16886696184E+02  0.29664525650E+02  0.35598466087E+02  0.51100000000E-03 0. -1.
        -11    1    3    3    0    0 -0.39646423763E+01  0.29718829193E+01  0.71059955436E+01  0.86628892516E+01  0.51100000000E-03 0.  1.
        -12    1    3    3    0    0  0.61077415435E+01  0.14041306708E+01 -0.73944019070E-01  0.62675000934E+01  0.00000000000E+00 0.  1.
</event>
<event>
 7    1  0.4374874E-012  0.5052886E+02  0.7816164E-02  0.1300439E+00
        -11   -1    0    0    0    0  0.00000000000E+00  0.00000000000E+00  0.45593999997E+02  0.45594000000E+02  0.51100000000E-03 0. -1.
         11   -1    0    0    0    0 -0.00000000000E+00 -0.00000000000E+00 -0.45593999997E+02  0.45594000000E+02  0.51100000000E-03 0.  1.
    9900012    2    1    2    0    0  0.92382301392E+01  0.26391454847E+02  0.29517992545E+02  0.50528859959E+02  0.30000000330E+02 0.  0.
        -12    1    1    2    0    0 -0.92382301392E+01 -0.26391454847E+02 -0.29517992545E+02  0.40659140041E+02  0.00000000000E+00 0.  1.
         11    1    3    3    0    0  0.10136542624E+02  0.10087175396E+02  0.66561975286E+01  0.15773571873E+02  0.51100000000E-03 0. -1.
        -11    1    3    3    0    0 -0.64155019918E+01  0.48185242452E+01 -0.61123573480E+00  0.80467664992E+01  0.51100000000E-03 0.  1.
         12    1    3    3    0    0  0.55171895070E+01  0.11485755206E+02  0.23473030751E+02  0.26708521586E+02  0.00000000000E+00 0. -1.
</event>
<event>
 7    1  0.4374874E-012  0.5052885E+02  0.7816164E-02  0.1300439E+00
        -11   -1    0    0    0    0  0.00000000000E+00  0.00000000000E+00  0.45593999997E+02  0.45594000000E+02  0.51100000000E-03 0. -1.
         11   -1    0    0    0    0 -0.00000000000E+00 -0.00000000000E+00 -0.45593999997E+02  0.45594000000E+02  0.51100000000E-03 0.  1.
    9900012    2    1    2    0    0  0.12430807833E+02  0.21599706317E+02 -0.32126222416E+02  0.50528850192E+02  0.29999970645E+02 0.  0.
         12    1    1    2    0    0 -0.12430807833E+02 -0.21599706317E+02  0.32126222416E+02  0.40659149808E+02  0.00000000000E+00 0. -1.
         11    1    3    3    0    0  0.48783987862E+01  0.17396681637E+01 -0.23423650238E+02  0.23989427062E+02  0.51100000000E-03 0. -1.
        -11    1    3    3    0    0 -0.34210114185E+01  0.48637685219E+01 -0.45787892575E+01  0.75049899857E+01  0.51100000000E-03 0.  1.
        -12    1    3    3    0    0  0.10973420465E+02  0.14996269631E+02 -0.41237829208E+01  0.19034433145E+02  0.00000000000E+00 0.  1.
</event>
<event>
 7    1  0.4374874E-012  0.5052886E+02  0.7816164E-02  0.1300439E+00
        -11   -1    0    0    0    0  0.00000000000E+00  0.00000000000E+00  0.45593999997E+02  0.45594000000E+02  0.51100000000E-03 0.  1.
         11   -1    0    0    0    0 -0.00000000000E+00 -0.00000000000E+00 -0.45593999997E+02  0.45594000000E+02  0.51100000000E-03 0. -1.
    9900012    2    1    2    0    0 -0.52899190043E+01 -0.37017722496E+02 -0.15964659720E+02  0.50528863489E+02  0.30000011060E+02 0.  0.
         12    1    1    2    0    0  0.52899190043E+01  0.37017722496E+02  0.15964659720E+02  0.40659136511E+02  0.00000000000E+00 0. -1.
         11    1    3    3    0    0  0.13358796820E+01  0.28224833976E+01 -0.15778429271E+00  0.31266408810E+01  0.51100000000E-03 0. -1.
        -11    1    3    3    0    0 -0.21592236100E+01 -0.11635642472E+02  0.41752210737E+01  0.12549218845E+02  0.51100000000E-03 0.  1.
        -12    1    3    3    0    0 -0.44665750763E+01 -0.28204563422E+02 -0.19982096501E+02  0.34853003763E+02  0.00000000000E+00 0.  1.
</event>
<event>
 7    1  0.4374874E-012  0.5052887E+02  0.7816164E-02  0.1300439E+00
        -11   -1    0    0    0    0  0.00000000000E+00  0.00000000000E+00  0.45593999997E+02  0.45594000000E+02  0.51100000000E-03 0. -1.
         11   -1    0    0    0    0 -0.00000000000E+00 -0.00000000000E+00 -0.45593999997E+02  0.45594000000E+02  0.51100000000E-03 0.  1.
    9900012    2    1    2    0    0 -0.14903653745E+02 -0.29736497489E+02 -0.23383472127E+02  0.50528868841E+02  0.30000027330E+02 0.  0.
         12    1    1    2    0    0  0.14903653745E+02  0.29736497489E+02  0.23383472127E+02  0.40659131159E+02  0.00000000000E+00 0. -1.
         11    1    3    3    0    0  0.86601144949E+01 -0.54532943515E+01 -0.74512028804E+01  0.12659242749E+02  0.51100000000E-03 0. -1.
        -11    1    3    3    0    0 -0.35234386435E+01 -0.72194111660E+01 -0.38403564590E+01  0.89040920621E+01  0.51100000000E-03 0.  1.
         12    1    3    3    0    0 -0.20040329597E+02 -0.17063791971E+02 -0.12091912788E+02  0.28965534030E+02  0.00000000000E+00 0. -1.
</event>
<event>
 7    1  0.4374874E-012  0.5052886E+02  0.7816164E-02  0.1300439E+00
        -11   -1    0    0    0    0  0.00000000000E+00  0.00000000000E+00  0.45593999997E+02  0.45594000000E+02  0.51100000000E-03 0.  1.
         11   -1    0    0    0    0 -0.00000000000E+00 -0.00000000000E+00 -0.45593999997E+02  0.45594000000E+02  0.51100000000E-03 0. -1.
    9900012    2    1    2    0    0 -0.14136513004E+02  0.28663627996E+02  0.25134064521E+02  0.50528858726E+02  0.29999996582E+02 0.  0.
        -12    1    1    2    0    0  0.14136513004E+02 -0.28663627996E+02 -0.25134064521E+02  0.40659141274E+02  0.00000000000E+00 0.  1.
         11    1    3    3    0    0 -0.50203102671E+01  0.15019468606E+02  0.15324855150E+02  0.22037221649E+02  0.51100000000E-03 0.  1.
        -11    1    3    3    0    0 -0.51378263847E+01  0.17737964637E+02  0.12378138329E+02  0.22231755625E+02  0.51100000000E-03 0. -1.
        -12    1    3    3    0    0 -0.39783763521E+01 -0.40938052462E+01 -0.25689289584E+01  0.62598814515E+01  0.00000000000E+00 0.  1.
</event>
<event>
 7    1  0.4374874E-012  0.5052886E+02  0.7816164E-02  0.1300439E+00
        -11   -1    0    0    0    0  0.00000000000E+00  0.00000000000E+00  0.45593999997E+02  0.45594000000E+02  0.51100000000E-03 0. -1.
         11   -1    0    0    0    0 -0.00000000000E+00 -0.00000000000E+00 -0.45593999997E+02  0.45594000000E+02  0.51100000000E-03 0.  1.
    9900012    2    1    2    0    0 -0.18561555462E+02 -0.32965273750E+02 -0.14897156094E+02  0.50528857433E+02  0.29999992654E+02 0.  0.
         12    1    1    2    0    0  0.18561555462E+02  0.32965273750E+02  0.14897156094E+02  0.40659142567E+02  0.00000000000E+00 0. -1.
         11    1    3    3    0    0  0.47825931438E+01  0.12331757129E+01  0.15904558223E+00  0.49415802408E+01  0.51100000000E-03 0. -1.
        -11    1    3    3    0    0 -0.46127885238E+01 -0.15896307921E+02 -0.32843366437E+01  0.16874753062E+02  0.51100000000E-03 0.  1.
        -12    1    3    3    0    0 -0.18731360082E+02 -0.18302141543E+02 -0.11771865032E+02  0.28712524130E+02  0.00000000000E+00 0.  1.
</event>
<event>
 7    1  0.4374874E-012  0.5052887E+02  0.7816164E-02  0.1300439E+00
        -11   -1    0    0    0    0  0.00000000000E+00  0.00000000000E+00  0.45593999997E+02  0.45594000000E+02  0.51100000000E-03 0. -1.
         11   -1    0    0    0    0 -0.00000000000E+00 -0.00000000000E+00 -0.45593999997E+02  0.45594000000E+02  0.51100000000E-03 0.  1.
    9900012    2    1    2    0    0 -0.22167226420E+02 -0.61264701970E+01 -0.33529764548E+02  0.50528872183E+02  0.30000037487E+02 0.  0.
         12    1    1    2    0    0  0.22167226420E+02  0.61264701970E+01  0.33529764548E+02  0.40659127817E+02  0.00000000000E+00 0. -1.
         11    1    3    3    0    0 -0.11999392373E+01 -0.42353758665E+00 -0.17725063689E+02  0.17770681509E+02  0.51100000000E-03 0. -1.
        -11    1    3    3    0    0  0.44887670947E+00 -0.49219308422E+01 -0.90098154060E+01  0.10276364504E+02  0.51100000000E-03 0.  1.
         12    1    3    3    0    0 -0.21416163892E+02 -0.78100176813E+00 -0.67948854533E+01  0.22481826170E+02  0.00000000000E+00 0. -1.
</event>
<event>
 7    1  0.4374874E-012  0.5052886E+02  0.7816164E-02  0.1300439E+00
        -11   -1    0    0    0    0  0.00000000000E+00  0.00000000000E+00  0.45593999997E+02  0.45594000000E+02  0.51100000000E-03 0. -1.
         11   -1    0    0    0    0 -0.00000000000E+00 -0.00000000000E+00 -0.45593999997E+02  0.45594000000E+02  0.51100000000E-03 0.  1.
    9900012    2    1    2    0    0 -0.28966571023E+02 -0.19473189462E+02 -0.20854211590E+02  0.50528862212E+02  0.30000007180E+02 0.  0.
         12    1    1    2    0    0  0.28966571023E+02  0.19473189462E+02  0.20854211590E+02  0.40659137788E+02  0.00000000000E+00 0. -1.
         11    1    3    3    0    0 -0.84668294389E+01 -0.16815883554E+01 -0.25122076264E+01  0.89903352309E+01  0.51100000000E-03 0. -1.
        -11    1    3    3    0    0 -0.49436633914E+01  0.15208909604E+01 -0.15782366105E+02  0.16608311087E+02  0.51100000000E-03 0.  1.
        -12    1    3    3    0    0 -0.15556078192E+02 -0.19312492066E+02 -0.25596378586E+01  0.24930215894E+02  0.00000000000E+00 0.  1.
</event>
<event>
 7    1  0.4374874E-012  0.5052884E+02  0.7816164E-02  0.1300439E+00
        -11   -1    0    0    0    0  0.00000000000E+00  0.00000000000E+00  0.45593999997E+02  0.45594000000E+02  0.51100000000E-03 0. -1.
         11   -1    0    0    0    0 -0.00000000000E+00 -0.00000000000E+00 -0.45593999997E+02  0.45594000000E+02  0.51100000000E-03 0.  1.
    9900012    2    1    2    0    0 -0.17275349600E+01 -0.47662716644E+01 -0.40341855645E+02  0.50528843104E+02  0.29999949099E+02 0.  0.
         12    1    1    2    0    0  0.17275349600E+01  0.47662716644E+01  0.40341855645E+02  0.40659156896E+02  0.00000000000E+00 0. -1.
         11    1    3    3    0    0  0.29260034992E+01  0.98397370415E+01 -0.14788810152E+02  0.18002522809E+02  0.51100000000E-03 0. -1.
        -11    1    3    3    0    0 -0.81542554352E+01 -0.50703255765E+01 -0.15510689635E+02  0.18242301839E+02  0.51100000000E-03 0.  1.
        -12    1    3    3    0    0  0.35007169760E+01 -0.95356831294E+01 -0.10042355858E+02  0.14284018456E+02  0.00000000000E+00 0.  1.
</event>
<event>
 7    1  0.4374874E-012  0.5052886E+02  0.7816164E-02  0.1300439E+00
        -11   -1    0    0    0    0  0.00000000000E+00  0.00000000000E+00  0.45593999997E+02  0.45594000000E+02  0.51100000000E-03 0. -1.
         11   -1    0    0    0    0 -0.00000000000E+00 -0.00000000000E+00 -0.45593999997E+02  0.45594000000E+02  0.51100000000E-03 0.  1.
    9900012    2    1    2    0    0  0.29404181737E+02  0.24196266455E+02 -0.14251328378E+02  0.50528861119E+02  0.30000003857E+02 0.  0.
         12    1    1    2    0    0 -0.29404181737E+02 -0.24196266455E+02  0.14251328378E+02  0.40659138881E+02  0.00000000000E+00 0. -1.
         11    1    3    3    0    0  0.16143257329E+02  0.63067806084E+01 -0.49474755524E+01  0.18023810736E+02  0.51100000000E-03 0. -1.
        -11    1    3    3    0    0  0.98729327902E+01  0.65589525715E+01 -0.15212367988E+02  0.19284989001E+02  0.51100000000E-03 0.  1.
         12    1    3    3    0    0  0.33879916178E+01  0.11330533276E+02  0.59085151625E+01  0.13220061382E+02  0.00000000000E+00 0. -1.
</event>
<event>
 7    1  0.4374874E-012  0.5052886E+02  0.7816164E-02  0.1300439E+00
        -11   -1    0    0    0    0  0.00000000000E+00  0.00000000000E+00  0.45593999997E+02  0.45594000000E+02  0.51100000000E-03 0. -1.
         11   -1    0    0    0    0 -0.00000000000E+00 -0.00000000000E+00 -0.45593999997E+02  0.45594000000E+02  0.51100000000E-03 0.  1.
    9900012    2    1    2    0    0  0.43638496271E+01 -0.57991040853E+01 -0.40006163127E+02  0.50528857364E+02  0.29999992445E+02 0.  0.
         12    1    1    2    0    0 -0.43638496271E+01  0.57991040853E+01  0.40006163127E+02  0.40659142636E+02  0.00000000000E+00 0. -1.
         11    1    3    3    0    0  0.20818597174E+01 -0.35521668885E+01 -0.31140868681E+02  0.31411872468E+02  0.51100000000E-03 0.  1.
        -11    1    3    3    0    0  0.72715832477E+01  0.43873226899E+01 -0.57231005458E+01  0.10241015742E+02  0.51100000000E-03 0. -1.
        -12    1    3    3    0    0 -0.49895933380E+01 -0.66342598866E+01 -0.31421939001E+01  0.88759691543E+01  0.00000000000E+00 0.  1.
</event>
<event>
 7    1  0.4374874E-012  0.5052885E+02  0.7816164E-02  0.1300439E+00
        -11   -1    0    0    0    0  0.00000000000E+00  0.00000000000E+00  0.45593999997E+02  0.45594000000E+02  0.51100000000E-03 0. -1.
         11   -1    0    0    0    0 -0.00000000000E+00 -0.00000000000E+00 -0.45593999997E+02  0.45594000000E+02  0.51100000000E-03 0.  1.
    9900012    2    1    2    0    0  0.21990591611E+02 -0.54259560185E+01 -0.33765944155E+02  0.50528854622E+02  0.29999984111E+02 0.  0.
         12    1    1    2    0    0 -0.21990591611E+02  0.54259560185E+01  0.33765944155E+02  0.40659145378E+02  0.00000000000E+00 0. -1.
         11    1    3    3    0    0 -0.23138332955E+01 -0.11508421953E+01 -0.35009100689E+01  0.43513944719E+01  0.51100000000E-03 0. -1.
        -11    1    3    3    0    0  0.18093781436E+01 -0.11114028799E+02 -0.11506699376E+02  0.16099677519E+02  0.51100000000E-03 0.  1.
        -12    1    3    3    0    0  0.22495046763E+02  0.68389149762E+01 -0.18758334710E+02  0.30077782632E+02  0.00000000000E+00 0.  1.
</event>
<event>
 7    1  0.4374874E-012  0.5052886E+02  0.7816164E-02  0.1300439E+00
        -11   -1    0    0    0    0  0.00000000000E+00  0.00000000000E+00  0.45593999997E+02  0.45594000000E+02  0.51100000000E-03 0. -1.
         11   -1    0    0    0    0 -0.00000000000E+00 -0.00000000000E+00 -0.45593999997E+02  0.45594000000E+02  0.51100000000E-03 0.  1.
    9900012    2    1    2    0    0  0.35231494511E+01  0.33322507106E+02 -0.23029626986E+02  0.50528858580E+02  0.29999996140E+02 0.  0.
         12    1    1    2    0    0 -0.35231494511E+01 -0.33322507106E+02  0.23029626986E+02  0.40659141420E+02  0.00000000000E+00 0. -1.
         11    1    3    3    0    0  0.23215852824E+01  0.74742534906E+01 -0.91072427719E+01  0.12008167830E+02  0.51100000000E-03 0. -1.
        -11    1    3    3    0    0 -0.28721729761E+01  0.17731977395E+02 -0.20538024135E+02  0.27285212764E+02  0.51100000000E-03 0.  1.
         12    1    3    3    0    0  0.40737371449E+01  0.81162762207E+01  0.66156399212E+01  0.11235477986E+02  0.00000000000E+00 0. -1.
</event>
<event>
 7    1  0.4374874E-012  0.5052877E+02  0.7816164E-02  0.1300439E+00
        -11   -1    0    0    0    0  0.00000000000E+00  0.00000000000E+00  0.45593999997E+02  0.45594000000E+02  0.51100000000E-03 0.  1.
         11   -1    0    0    0    0 -0.00000000000E+00 -0.00000000000E+00 -0.45593999997E+02  0.45594000000E+02  0.51100000000E-03 0. -1.
    9900012    2    1    2    0    0 -0.40501330438E+02  0.35351394293E+01  0.56392977810E+00  0.50528769869E+02  0.29999726493E+02 0.  0.
        -12    1    1    2    0    0  0.40501330438E+02 -0.35351394293E+01 -0.56392977810E+00  0.40659230131E+02  0.00000000000E+00 0.  1.
         11    1    3    3    0    0 -0.22923871960E+02  0.36956604974E+01 -0.10566765988E+02  0.25511141799E+02  0.51100000000E-03 0. -1.
        -11    1    3    3    0    0 -0.57695526790E+01  0.66240319754E+01  0.41832546709E+01  0.97296021311E+01  0.51100000000E-03 0.  1.
        -12    1    3    3    0    0 -0.11807905799E+02 -0.67845530434E+01  0.69474410950E+01  0.15288025939E+02  0.00000000000E+00 0.  1.
</event>
<event>
 7    1  0.4374874E-012  0.5052886E+02  0.7816164E-02  0.1300439E+00
        -11   -1    0    0    0    0  0.00000000000E+00  0.00000000000E+00  0.45593999997E+02  0.45594000000E+02  0.51100000000E-03 0.  1.
         11   -1    0    0    0    0 -0.00000000000E+00 -0.00000000000E+00 -0.45593999997E+02  0.45594000000E+02  0.51100000000E-03 0. -1.
    9900012    2    1    2    0    0  0.32513538361E+00  0.40471291823E+02  0.38903282534E+01  0.50528857992E+02  0.29999994354E+02 0.  0.
        -12    1    1    2    0    0 -0.32513538361E+00 -0.40471291823E+02 -0.38903282534E+01  0.40659142008E+02  0.00000000000E+00 0.  1.
         11    1    3    3    0    0  0.82959554944E+01  0.75207537468E+01  0.41751077678E+01  0.11950570682E+02  0.51100000000E-03 0. -1.
        -11    1    3    3    0    0  0.10857866023E+01 -0.23727312621E+00  0.37777919901E+01  0.39378856844E+01  0.51100000000E-03 0.  1.
         12    1    3    3    0    0 -0.90566067131E+01  0.33187811203E+02 -0.40625715045E+01  0.34640401626E+02  0.00000000000E+00 0. -1.
</event>
<event>
 7    1  0.4374874E-012  0.5052887E+02  0.7816164E-02  0.1300439E+00
        -11   -1    0    0    0    0  0.00000000000E+00  0.00000000000E+00  0.45593999997E+02  0.45594000000E+02  0.51100000000E-03 0. -1.
         11   -1    0    0    0    0 -0.00000000000E+00 -0.00000000000E+00 -0.45593999997E+02  0.45594000000E+02  0.51100000000E-03 0.  1.
    9900012    2    1    2    0    0 -0.16691531875E+02 -0.10208624914E+02  0.35641850451E+02  0.50528871104E+02  0.30000034208E+02 0.  0.
        -12    1    1    2    0    0  0.16691531875E+02  0.10208624914E+02 -0.35641850451E+02  0.40659128896E+02  0.00000000000E+00 0.  1.
         11    1    3    3    0    0  0.35241085392E+01  0.26164926755E+01  0.26201372892E+01  0.51117995454E+01  0.51100000000E-03 0. -1.
        -11    1    3    3    0    0 -0.19008052049E+02 -0.40275475866E+01  0.12625929297E+02  0.23171993292E+02  0.51100000000E-03 0.  1.
         12    1    3    3    0    0 -0.12075883651E+01 -0.87975700034E+01  0.20395783865E+02  0.22245078267E+02  0.00000000000E+00 0. -1.
</event>
<event>
 7    1  0.4374874E-012  0.5052886E+02  0.7816164E-02  0.1300439E+00
        -11   -1    0    0    0    0  0.00000000000E+00  0.00000000000E+00  0.45593999997E+02  0.45594000000E+02  0.51100000000E-03 0. -1.
         11   -1    0    0    0    0 -0.00000000000E+00 -0.00000000000E+00 -0.45593999997E+02  0.45594000000E+02  0.51100000000E-03 0.  1.
    9900012    2    1    2    0    0 -0.14762323742E+02  0.13405631418E+02  0.35433439962E+02  0.50528858058E+02  0.29999994552E+02 0.  0.
        -12    1    1    2    0    0  0.14762323742E+02 -0.13405631418E+02 -0.35433439962E+02  0.40659141942E+02  0.00000000000E+00 0.  1.
         11    1    3    3    0    0 -0.44231715127E+01  0.10122838740E+02  0.27075137459E+02  0.29242082331E+02  0.51100000000E-03 0. -1.
        -11    1    3    3    0    0 -0.10317319130E+02 -0.20593149369E+01  0.11090211060E+02  0.15286616161E+02  0.51100000000E-03 0.  1.
        -12    1    3    3    0    0 -0.21833098826E-01  0.53421076151E+01 -0.27319085563E+01  0.60001595658E+01  0.00000000000E+00 0.  1.
</event>
<event>
 7    1  0.4374874E-012  0.5052885E+02  0.7816164E-02  0.1300439E+00
        -11   -1    0    0    0    0  0.00000000000E+00  0.00000000000E+00  0.45593999997E+02  0.45594000000E+02  0.51100000000E-03 0. -1.
         11   -1    0    0    0    0 -0.00000000000E+00 -0.00000000000E+00 -0.45593999997E+02  0.45594000000E+02  0.51100000000E-03 0.  1.
    9900012    2    1    2    0    0 -0.30697878071E+02  0.26310708031E+02 -0.43073503314E+01  0.50528851681E+02  0.29999975170E+02 0.  0.
        -12    1    1    2    0    0  0.30697878071E+02 -0.26310708031E+02  0.43073503314E+01  0.40659148319E+02  0.00000000000E+00 0.  1.
         11    1    3    3    0    0  0.29015122509E+01 -0.11848985944E+01 -0.25471476431E+01  0.40386531664E+01  0.51100000000E-03 0. -1.
        -11    1    3    3    0    0 -0.80900097820E+01  0.38918435781E+01  0.61054643552E+01  0.10856859581E+02  0.51100000000E-03 0.  1.
         12    1    3    3    0    0 -0.25509380540E+02  0.23603763047E+02 -0.78656670435E+01  0.35633338934E+02  0.00000000000E+00 0. -1.
</event>
<event>
 7    1  0.4374874E-012  0.5052886E+02  0.7816164E-02  0.1300439E+00
        -11   -1    0    0    0    0  0.00000000000E+00  0.00000000000E+00  0.45593999997E+02  0.45594000000E+02  0.51100000000E-03 0. -1.
         11   -1    0    0    0    0 -0.00000000000E+00 -0.00000000000E+00 -0.45593999997E+02  0.45594000000E+02  0.51100000000E-03 0.  1.
    9900012    2    1    2    0    0 -0.15752216792E+02 -0.64952774560E+01  0.36916728700E+02  0.50528858088E+02  0.29999994645E+02 0.  0.
        -12    1    1    2    0    0  0.15752216792E+02  0.64952774560E+01 -0.36916728700E+02  0.40659141912E+02  0.00000000000E+00 0.  1.
         11    1    3    3    0    0 -0.22615417959E+01  0.49278773553E+01  0.10643648394E+02  0.11945116070E+02  0.51100000000E-03 0. -1.
        -11    1    3    3    0    0 -0.14587053039E+02 -0.83381222933E+01  0.56861006616E+01  0.17738042190E+02  0.51100000000E-03 0.  1.
         12    1    3    3    0    0  0.10963780432E+01 -0.30850325179E+01  0.20586979644E+02  0.20845699828E+02  0.00000000000E+00 0. -1.
</event>
<event>
 7    1  0.4374874E-012  0.5052886E+02  0.7816164E-02  0.1300439E+00
        -11   -1    0    0    0    0  0.00000000000E+00  0.00000000000E+00  0.45593999997E+02  0.45594000000E+02  0.51100000000E-03 0. -1.
         11   -1    0    0    0    0 -0.00000000000E+00 -0.00000000000E+00 -0.45593999997E+02  0.45594000000E+02  0.51100000000E-03 0.  1.
    9900012    2    1    2    0    0  0.13833803489E+01 -0.22682708666E+02  0.33715673480E+02  0.50528860168E+02  0.30000000968E+02 0.  0.
        -12    1    1    2    0    0 -0.13833803489E+01  0.22682708666E+02 -0.33715673480E+02  0.40659139832E+02  0.00000000000E+00 0.  1.
         11    1    3    3    0    0 -0.33932534080E+01 -0.11586924196E+02  0.13846740386E+02  0.18371260180E+02  0.51100000000E-03 0. -1.
        -11    1    3    3    0    0  0.16648788950E+01 -0.76409365741E+01 -0.33282671133E+01  0.84990055715E+01  0.51100000000E-03 0.  1.
         12    1    3    3    0    0  0.31117548619E+01 -0.34548478952E+01  0.23197200208E+02  0.23658594417E+02  0.00000000000E+00 0. -1.
</event>
<event>
 7    1  0.4374874E-012  0.5052886E+02  0.7816164E-02  0.1300439E+00
        -11   -1    0    0    0    0  0.00000000000E+00  0.00000000000E+00  0.45593999997E+02  0.45594000000E+02  0.51100000000E-03 0. -1.
         11   -1    0    0    0    0 -0.00000000000E+00 -0.00000000000E+00 -0.45593999997E+02  0.45594000000E+02  0.51100000000E-03 0.  1.
    9900012    2    1    2    0    0 -0.23790587584E+02  0.15043686172E+02 -0.29340433162E+02  0.50528861182E+02  0.30000004049E+02 0.  0.
         12    1    1    2    0    0  0.23790587584E+02 -0.15043686172E+02  0.29340433162E+02  0.40659138818E+02  0.00000000000E+00 0. -1.
         11    1    3    3    0    0 -0.47003649601E+01  0.60241404912E+01  0.41312325468E+01  0.86862409610E+01  0.51100000000E-03 0. -1.
        -11    1    3    3    0    0 -0.11003503050E+02  0.23709097078E+01 -0.67056216518E+01  0.13102047710E+02  0.51100000000E-03 0.  1.
        -12    1    3    3    0    0 -0.80867195747E+01  0.66486359735E+01 -0.26766044057E+02  0.28740572511E+02  0.00000000000E+00 0.  1.
</event>
<event>
 7    1  0.4374874E-012  0.5052886E+02  0.7816164E-02  0.1300439E+00
        -11   -1    0    0    0    0  0.00000000000E+00  0.00000000000E+00  0.45593999997E+02  0.45594000000E+02  0.51100000000E-03 0. -1.
         11   -1    0    0    0    0 -0.00000000000E+00 -0.00000000000E+00 -0.45593999997E+02  0.45594000000E+02  0.51100000000E-03 0.  1.
    9900012    2    1    2    0    0 -0.19092795264E+01  0.50031527595E+01  0.40304942310E+02  0.50528864981E+02  0.30000015597E+02 0.  0.
        -12    1    1    2    0    0  0.19092795264E+01 -0.50031527595E+01 -0.40304942310E+02  0.40659135019E+02  0.00000000000E+00 0.  1.
         11    1    3    3    0    0 -0.27431884094E+01  0.50677401800E+01  0.52070134387E+00  0.57860351997E+01  0.51100000000E-03 0. -1.
        -11    1    3    3    0    0 -0.46092553656E+01 -0.72959073093E+01  0.82631248164E+01  0.11948001108E+02  0.51100000000E-03 0.  1.
         12    1    3    3    0    0  0.54431642486E+01  0.72313198888E+01  0.31521116150E+02  0.32794828673E+02  0.00000000000E+00 0. -1.
</event>
<event>
 7    1  0.4374874E-012  0.5052886E+02  0.7816164E-02  0.1300439E+00
        -11   -1    0    0    0    0  0.00000000000E+00  0.00000000000E+00  0.45593999997E+02  0.45594000000E+02  0.51100000000E-03 0. -1.
         11   -1    0    0    0    0 -0.00000000000E+00 -0.00000000000E+00 -0.45593999997E+02  0.45594000000E+02  0.51100000000E-03 0.  1.
    9900012    2    1    2    0    0 -0.30261113420E+02  0.12932140137E+02  0.23878663575E+02  0.50528858247E+02  0.29999995128E+02 0.  0.
        -12    1    1    2    0    0  0.30261113420E+02 -0.12932140137E+02 -0.23878663575E+02  0.40659141753E+02  0.00000000000E+00 0.  1.
         11    1    3    3    0    0 -0.24980554032E+02  0.53173340806E+01  0.78459711665E+01  0.26718184543E+02  0.51100000000E-03 0. -1.
        -11    1    3    3    0    0 -0.38982320235E+01  0.69023428396E+01  0.22872390464E+00  0.79303760611E+01  0.51100000000E-03 0.  1.
        -12    1    3    3    0    0 -0.13823273651E+01  0.71246321646E+00  0.15803968504E+02  0.15880297644E+02  0.00000000000E+00 0.  1.
</event>
<event>
 7    1  0.4374874E-012  0.5052888E+02  0.7816164E-02  0.1300439E+00
        -11   -1    0    0    0    0  0.00000000000E+00  0.00000000000E+00  0.45593999997E+02  0.45594000000E+02  0.51100000000E-03 0. -1.
         11   -1    0    0    0    0 -0.00000000000E+00 -0.00000000000E+00 -0.45593999997E+02  0.45594000000E+02  0.51100000000E-03 0.  1.
    9900012    2    1    2    0    0 -0.19370321339E+02 -0.34338577260E+02 -0.99406574369E+01  0.50528881622E+02  0.30000066178E+02 0.  0.
         12    1    1    2    0    0  0.19370321339E+02  0.34338577260E+02  0.99406574369E+01  0.40659118378E+02  0.00000000000E+00 0. -1.
         11    1    3    3    0    0 -0.11557884496E+01 -0.12852871979E+02  0.22912049875E+01  0.13106555063E+02  0.51100000000E-03 0. -1.
        -11    1    3    3    0    0 -0.80616710714E+01 -0.23603200069E+02 -0.95695054636E+01  0.26714734306E+02  0.51100000000E-03 0.  1.
         12    1    3    3    0    0 -0.10152861818E+02  0.21174947882E+01 -0.26623569609E+01  0.10707592253E+02  0.00000000000E+00 0. -1.
</event>
<event>
 7    1  0.4374874E-012  0.5052886E+02  0.7816164E-02  0.1300439E+00
        -11   -1    0    0    0    0  0.00000000000E+00  0.00000000000E+00  0.45593999997E+02  0.45594000000E+02  0.51100000000E-03 0. -1.
         11   -1    0    0    0    0 -0.00000000000E+00 -0.00000000000E+00 -0.45593999997E+02  0.45594000000E+02  0.51100000000E-03 0.  1.
    9900012    2    1    2    0    0 -0.97431743309E+01  0.20862285108E+02  0.33511205228E+02  0.50528864965E+02  0.30000015547E+02 0.  0.
        -12    1    1    2    0    0  0.97431743309E+01 -0.20862285108E+02 -0.33511205228E+02  0.40659135035E+02  0.00000000000E+00 0.  1.
         11    1    3    3    0    0  0.70281559165E+00  0.10923217036E+02  0.11722394009E+02  0.16038239983E+02  0.51100000000E-03 0. -1.
        -11    1    3    3    0    0  0.56214041822E+01 -0.14056951209E+01  0.10005377267E+02  0.11562168407E+02  0.51100000000E-03 0.  1.
         12    1    3    3    0    0 -0.16067394105E+02  0.11344763193E+02  0.11783433951E+02  0.22928456575E+02  0.00000000000E+00 0. -1.
</event>
<event>
 7    1  0.4374874E-012  0.5052884E+02  0.7816164E-02  0.1300439E+00
        -11   -1    0    0    0    0  0.00000000000E+00  0.00000000000E+00  0.45593999997E+02  0.45594000000E+02  0.51100000000E-03 0. -1.
         11   -1    0    0    0    0 -0.00000000000E+00 -0.00000000000E+00 -0.45593999997E+02  0.45594000000E+02  0.51100000000E-03 0.  1.
    9900012    2    1    2    0    0 -0.23111601845E+01  0.17782128494E+02 -0.36491393498E+02  0.50528839229E+02  0.29999937321E+02 0.  0.
         12    1    1    2    0    0  0.23111601845E+01 -0.17782128494E+02  0.36491393498E+02  0.40659160771E+02  0.00000000000E+00 0. -1.
         11    1    3    3    0    0 -0.26251324019E+00  0.14388119345E+02 -0.34897668054E+02  0.37748299662E+02  0.51100000000E-03 0.  1.
        -11    1    3    3    0    0 -0.67708985233E+01 -0.10654879665E+00 -0.12970059313E+01  0.68948273442E+01  0.51100000000E-03 0. -1.
         12    1    3    3    0    0  0.47222515790E+01  0.35005579457E+01 -0.29671951219E+00  0.58857122232E+01  0.00000000000E+00 0. -1.
</event>
<event>
 7    1  0.4374874E-012  0.5052885E+02  0.7816164E-02  0.1300439E+00
        -11   -1    0    0    0    0  0.00000000000E+00  0.00000000000E+00  0.45593999997E+02  0.45594000000E+02  0.51100000000E-03 0. -1.
         11   -1    0    0    0    0 -0.00000000000E+00 -0.00000000000E+00 -0.45593999997E+02  0.45594000000E+02  0.51100000000E-03 0.  1.
    9900012    2    1    2    0    0  0.44899706277E+01  0.36288115895E+02  0.17781421148E+02  0.50528854295E+02  0.29999983115E+02 0.  0.
        -12    1    1    2    0    0 -0.44899706277E+01 -0.36288115895E+02 -0.17781421148E+02  0.40659145705E+02  0.00000000000E+00 0.  1.
         11    1    3    3    0    0 -0.60602452912E+01  0.43142933897E+01 -0.15591447762E+01  0.76006995163E+01  0.51100000000E-03 0. -1.
        -11    1    3    3    0    0  0.14350392860E+01  0.24877261774E+02  0.66989194699E+01  0.25803352756E+02  0.51100000000E-03 0.  1.
         12    1    3    3    0    0  0.91151766329E+01  0.70965607313E+01  0.12641646454E+02  0.17124802023E+02  0.00000000000E+00 0. -1.
</event>
<event>
 7    1  0.4374874E-012  0.5052886E+02  0.7816164E-02  0.1300439E+00
        -11   -1    0    0    0    0  0.00000000000E+00  0.00000000000E+00  0.45593999997E+02  0.45594000000E+02  0.51100000000E-03 0. -1.
         11   -1    0    0    0    0 -0.00000000000E+00 -0.00000000000E+00 -0.45593999997E+02  0.45594000000E+02  0.51100000000E-03 0.  1.
    9900012    2    1    2    0    0 -0.68465444697E+01  0.24989766611E+02 -0.31333716809E+02  0.50528863074E+02  0.30000009800E+02 0.  0.
         12    1    1    2    0    0  0.68465444697E+01 -0.24989766611E+02  0.31333716809E+02  0.40659136926E+02  0.00000000000E+00 0. -1.
         11    1    3    3    0    0  0.83046163786E+00  0.46296974186E+01  0.18763229400E+01  0.50640253510E+01  0.51100000000E-03 0. -1.
        -11    1    3    3    0    0 -0.12399372713E+02  0.57048971320E+01 -0.77075618214E+01  0.15674718641E+02  0.51100000000E-03 0.  1.
         12    1    3    3    0    0  0.47223666057E+01  0.14655172061E+02 -0.25502477928E+02  0.29790119083E+02  0.00000000000E+00 0. -1.
</event>
<event>
 7    1  0.4374874E-012  0.5052887E+02  0.7816164E-02  0.1300439E+00
        -11   -1    0    0    0    0  0.00000000000E+00  0.00000000000E+00  0.45593999997E+02  0.45594000000E+02  0.51100000000E-03 0. -1.
         11   -1    0    0    0    0 -0.00000000000E+00 -0.00000000000E+00 -0.45593999997E+02  0.45594000000E+02  0.51100000000E-03 0.  1.
    9900012    2    1    2    0    0  0.11362406250E+02  0.31168556843E+02  0.23507056681E+02  0.50528869103E+02  0.30000028125E+02 0.  0.
        -12    1    1    2    0    0 -0.11362406250E+02 -0.31168556843E+02 -0.23507056681E+02  0.40659130897E+02  0.00000000000E+00 0.  1.
         11    1    3    3    0    0  0.52591512866E+01 -0.44017107505E+01  0.45516051950E+01  0.82310898367E+01  0.51100000000E-03 0. -1.
        -11    1    3    3    0    0  0.60235868124E+01  0.69974317026E+01  0.42891450948E+01  0.10180590082E+02  0.51100000000E-03 0.  1.
        -12    1    3    3    0    0  0.79668150911E-01  0.28572835891E+02  0.14666306392E+02  0.32117189184E+02  0.00000000000E+00 0.  1.
</event>
<event>
 7    1  0.4374874E-012  0.5052887E+02  0.7816164E-02  0.1300439E+00
        -11   -1    0    0    0    0  0.00000000000E+00  0.00000000000E+00  0.45593999997E+02  0.45594000000E+02  0.51100000000E-03 0. -1.
         11   -1    0    0    0    0 -0.00000000000E+00 -0.00000000000E+00 -0.45593999997E+02  0.45594000000E+02  0.51100000000E-03 0.  1.
    9900012    2    1    2    0    0  0.44003311009E+01 -0.27803656434E+02  0.29338690477E+02  0.50528868383E+02  0.30000025938E+02 0.  0.
        -12    1    1    2    0    0 -0.44003311009E+01  0.27803656434E+02 -0.29338690477E+02  0.40659131617E+02  0.00000000000E+00 0.  1.
         11    1    3    3    0    0  0.36239244135E+01 -0.51236066351E+01  0.98161194800E+01  0.11650767143E+02  0.51100000000E-03 0. -1.
        -11    1    3    3    0    0  0.86508792174E+00 -0.96003456029E+01  0.23340228757E+02  0.25252352197E+02  0.51100000000E-03 0.  1.
        -12    1    3    3    0    0 -0.88681234337E-01 -0.13079704196E+02 -0.38176577596E+01  0.13625749043E+02  0.00000000000E+00 0.  1.
</event>
<event>
 7    1  0.4374874E-012  0.5052877E+02  0.7816164E-02  0.1300439E+00
        -11   -1    0    0    0    0  0.00000000000E+00  0.00000000000E+00  0.45593999997E+02  0.45594000000E+02  0.51100000000E-03 0. -1.
         11   -1    0    0    0    0 -0.00000000000E+00 -0.00000000000E+00 -0.45593999997E+02  0.45594000000E+02  0.51100000000E-03 0.  1.
    9900012    2    1    2    0    0  0.22348965265E+02  0.22945597911E+02  0.25043889169E+02  0.50528768618E+02  0.29999722689E+02 0.  0.
        -12    1    1    2    0    0 -0.22348965265E+02 -0.22945597911E+02 -0.25043889169E+02  0.40659231382E+02  0.00000000000E+00 0.  1.
         11    1    3    3    0    0  0.18280339819E+02  0.10971309269E+02  0.12807244104E+02  0.24870986164E+02  0.51100000000E-03 0. -1.
        -11    1    3    3    0    0  0.10855622008E+02  0.59235620878E+01  0.30604355365E+01  0.12739677505E+02  0.51100000000E-03 0.  1.
         12    1    3    3    0    0 -0.67869965617E+01  0.60507265537E+01  0.91762095280E+01  0.12918104948E+02  0.00000000000E+00 0. -1.
</event>
<event>
 7    1  0.4374874E-012  0.5052886E+02  0.7816164E-02  0.1300439E+00
        -11   -1    0    0    0    0  0.00000000000E+00  0.00000000000E+00  0.45593999997E+02  0.45594000000E+02  0.51100000000E-03 0. -1.
         11   -1    0    0    0    0 -0.00000000000E+00 -0.00000000000E+00 -0.45593999997E+02  0.45594000000E+02  0.51100000000E-03 0.  1.
    9900012    2    1    2    0    0  0.30752163773E+02 -0.19241912462E+02 -0.18363525445E+02  0.50528857870E+02  0.29999993982E+02 0.  0.
         12    1    1    2    0    0 -0.30752163773E+02  0.19241912462E+02  0.18363525445E+02  0.40659142130E+02  0.00000000000E+00 0. -1.
         11    1    3    3    0    0  0.34036214890E+01  0.14443531477E+01 -0.44616930928E+01  0.57946096306E+01  0.51100000000E-03 0. -1.
        -11    1    3    3    0    0  0.17238250330E+02 -0.22212815130E+02 -0.18359075143E+02  0.33580084438E+02  0.51100000000E-03 0.  1.
         12    1    3    3    0    0  0.10110291954E+02  0.15265495205E+01  0.44572427902E+01  0.11154163802E+02  0.00000000000E+00 0. -1.
</event>
<event>
 7    1  0.4374874E-012  0.5052886E+02  0.7816164E-02  0.1300439E+00
        -11   -1    0    0    0    0  0.00000000000E+00  0.00000000000E+00  0.45593999997E+02  0.45594000000E+02  0.51100000000E-03 0. -1.
         11   -1    0    0    0    0 -0.00000000000E+00 -0.00000000000E+00 -0.45593999997E+02  0.45594000000E+02  0.51100000000E-03 0.  1.
    9900012    2    1    2    0    0  0.28990936306E+02 -0.18206427806E+02  0.21936668401E+02  0.50528858077E+02  0.29999994612E+02 0.  0.
        -12    1    1    2    0    0 -0.28990936306E+02  0.18206427806E+02 -0.21936668401E+02  0.40659141923E+02  0.00000000000E+00 0.  1.
         11    1    3    3    0    0  0.40080715320E+01  0.11833253453E+01  0.19506065241E+00  0.41836521363E+01  0.51100000000E-03 0.  1.
        -11    1    3    3    0    0  0.30351376273E+02 -0.18063637086E+02  0.19755353813E+02  0.40469433292E+02  0.51100000000E-03 0. -1.
        -12    1    3    3    0    0 -0.53685114988E+01 -0.13261160646E+01  0.19862539363E+01  0.58757726495E+01  0.00000000000E+00 0.  1.
</event>
<event>
 7    1  0.4374874E-012  0.5052885E+02  0.7816164E-02  0.1300439E+00
        -11   -1    0    0    0    0  0.00000000000E+00  0.00000000000E+00  0.45593999997E+02  0.45594000000E+02  0.51100000000E-03 0. -1.
         11   -1    0    0    0    0 -0.00000000000E+00 -0.00000000000E+00 -0.45593999997E+02  0.45594000000E+02  0.51100000000E-03 0.  1.
    9900012    2    1    2    0    0 -0.10677470560E+02 -0.80157404244E+01  0.38404503125E+02  0.50528851800E+02  0.29999975531E+02 0.  0.
        -12    1    1    2    0    0  0.10677470560E+02  0.80157404244E+01 -0.38404503125E+02  0.40659148200E+02  0.00000000000E+00 0.  1.
         11    1    3    3    0    0 -0.67605413004E+01  0.79083729414E+01  0.58397364905E+01  0.11931043701E+02  0.51100000000E-03 0. -1.
        -11    1    3    3    0    0  0.68388706288E+00 -0.35531806654E+00 -0.10298198035E+01  0.12862665089E+01  0.51100000000E-03 0.  1.
         12    1    3    3    0    0 -0.46008163228E+01 -0.15568795299E+02  0.33594586438E+02  0.37311541590E+02  0.00000000000E+00 0. -1.
</event>
<event>
 7    1  0.4374874E-012  0.5052886E+02  0.7816164E-02  0.1300439E+00
        -11   -1    0    0    0    0  0.00000000000E+00  0.00000000000E+00  0.45593999997E+02  0.45594000000E+02  0.51100000000E-03 0. -1.
         11   -1    0    0    0    0 -0.00000000000E+00 -0.00000000000E+00 -0.45593999997E+02  0.45594000000E+02  0.51100000000E-03 0.  1.
    9900012    2    1    2    0    0 -0.12452555271E+02 -0.18123425381E+02 -0.34200010716E+02  0.50528863102E+02  0.30000009884E+02 0.  0.
         12    1    1    2    0    0  0.12452555271E+02  0.18123425381E+02  0.34200010716E+02  0.40659136898E+02  0.00000000000E+00 0. -1.
         11    1    3    3    0    0 -0.99234841689E+01 -0.90638408254E+01  0.87779431825E+00  0.13468454688E+02  0.51100000000E-03 0. -1.
        -11    1    3    3    0    0 -0.44722793735E+01 -0.62992018217E+01 -0.17039934907E+02  0.18709372204E+02  0.51100000000E-03 0.  1.
        -12    1    3    3    0    0  0.19432082712E+01 -0.27603827342E+01 -0.18037870127E+02  0.18351036209E+02  0.00000000000E+00 0.  1.
</event>
<event>
 7    1  0.4374874E-012  0.5052885E+02  0.7816164E-02  0.1300439E+00
        -11   -1    0    0    0    0  0.00000000000E+00  0.00000000000E+00  0.45593999997E+02  0.45594000000E+02  0.51100000000E-03 0. -1.
         11   -1    0    0    0    0 -0.00000000000E+00 -0.00000000000E+00 -0.45593999997E+02  0.45594000000E+02  0.51100000000E-03 0.  1.
    9900012    2    1    2    0    0  0.25342927352E+02 -0.73747677251E+01  0.30927579698E+02  0.50528851562E+02  0.29999974807E+02 0.  0.
        -12    1    1    2    0    0 -0.25342927352E+02  0.73747677251E+01 -0.30927579698E+02  0.40659148438E+02  0.00000000000E+00 0.  1.
         11    1    3    3    0    0 -0.43930031330E+01  0.51985905007E+01  0.47543448099E+01  0.83022656277E+01  0.51100000000E-03 0. -1.
        -11    1    3    3    0    0  0.82127842925E+01 -0.42461305928E+00  0.46142071021E+01  0.94297947765E+01  0.51100000000E-03 0.  1.
        -12    1    3    3    0    0  0.21523146193E+02 -0.12148745167E+02  0.21559027786E+02  0.32796791157E+02  0.00000000000E+00 0.  1.
</event>
<event>
 7    1  0.4374874E-012  0.5052886E+02  0.7816164E-02  0.1300439E+00
        -11   -1    0    0    0    0  0.00000000000E+00  0.00000000000E+00  0.45593999997E+02  0.45594000000E+02  0.51100000000E-03 0. -1.
         11   -1    0    0    0    0 -0.00000000000E+00 -0.00000000000E+00 -0.45593999997E+02  0.45594000000E+02  0.51100000000E-03 0.  1.
    9900012    2    1    2    0    0  0.50867459705E+01 -0.17437937923E+01 -0.40301985652E+02  0.50528857746E+02  0.29999993604E+02 0.  0.
         12    1    1    2    0    0 -0.50867459705E+01  0.17437937923E+01  0.40301985652E+02  0.40659142254E+02  0.00000000000E+00 0. -1.
         11    1    3    3    0    0  0.98316255110E+01  0.32886273772E+00 -0.75173935145E+01  0.12380638772E+02  0.51100000000E-03 0. -1.
        -11    1    3    3    0    0  0.56429090511E+01 -0.34508533415E+01 -0.22552067309E+02  0.23502054198E+02  0.51100000000E-03 0.  1.
        -12    1    3    3    0    0 -0.10387788592E+02  0.13781968115E+01 -0.10232524828E+02  0.14646164776E+02  0.00000000000E+00 0.  1.
</event>
<event>
 7    1  0.4374874E-012  0.5052886E+02  0.7816164E-02  0.1300439E+00
        -11   -1    0    0    0    0  0.00000000000E+00  0.00000000000E+00  0.45593999997E+02  0.45594000000E+02  0.51100000000E-03 0. -1.
         11   -1    0    0    0    0 -0.00000000000E+00 -0.00000000000E+00 -0.45593999997E+02  0.45594000000E+02  0.51100000000E-03 0.  1.
    9900012    2    1    2    0    0 -0.35934779509E+02  0.14818188185E+02  0.11928066137E+02  0.50528857839E+02  0.29999993889E+02 0.  0.
        -12    1    1    2    0    0  0.35934779509E+02 -0.14818188185E+02 -0.11928066137E+02  0.40659142161E+02  0.00000000000E+00 0.  1.
         11    1    3    3    0    0 -0.16947488240E+01 -0.25614421054E+00  0.10542910866E+02  0.10681327316E+02  0.51100000000E-03 0.  1.
        -11    1    3    3    0    0 -0.13417108043E+02 -0.53210075333E+00  0.30585261082E+01  0.13771583121E+02  0.51100000000E-03 0. -1.
        -12    1    3    3    0    0 -0.20822922643E+02  0.15606433148E+02 -0.16733708367E+01  0.26075947403E+02  0.00000000000E+00 0.  1.
</event>
<event>
 7    1  0.4374874E-012  0.5052894E+02  0.7816164E-02  0.1300439E+00
        -11   -1    0    0    0    0  0.00000000000E+00  0.00000000000E+00  0.45593999997E+02  0.45594000000E+02  0.51100000000E-03 0. -1.
         11   -1    0    0    0    0 -0.00000000000E+00 -0.00000000000E+00 -0.45593999997E+02  0.45594000000E+02  0.51100000000E-03 0.  1.
    9900012    2    1    2    0    0 -0.64670028280E+01  0.56936809679E+01  0.39735614886E+02  0.50528939276E+02  0.30000241423E+02 0.  0.
        -12    1    1    2    0    0  0.64670028280E+01 -0.56936809679E+01 -0.39735614886E+02  0.40659060724E+02  0.00000000000E+00 0.  1.
         11    1    3    3    0    0 -0.54039250684E+01  0.11300253294E+02  0.12384808663E+02  0.17614812419E+02  0.51100000000E-03 0. -1.
        -11    1    3    3    0    0 -0.28973558146E+01  0.38348457280E+01  0.10635110166E+01  0.49225774161E+01  0.51100000000E-03 0.  1.
         12    1    3    3    0    0  0.18342780550E+01 -0.94414180542E+01  0.26287295206E+02  0.27991549441E+02  0.00000000000E+00 0. -1.
</event>
<event>
 7    1  0.4374874E-012  0.5052886E+02  0.7816164E-02  0.1300439E+00
        -11   -1    0    0    0    0  0.00000000000E+00  0.00000000000E+00  0.45593999997E+02  0.45594000000E+02  0.51100000000E-03 0. -1.
         11   -1    0    0    0    0 -0.00000000000E+00 -0.00000000000E+00 -0.45593999997E+02  0.45594000000E+02  0.51100000000E-03 0.  1.
    9900012    2    1    2    0    0 -0.16977999894E+02 -0.23860102621E+02  0.28206540712E+02  0.50528856915E+02  0.29999991078E+02 0.  0.
        -12    1    1    2    0    0  0.16977999894E+02  0.23860102621E+02 -0.28206540712E+02  0.40659143085E+02  0.00000000000E+00 0.  1.
         11    1    3    3    0    0 -0.36431641560E+01 -0.16268991593E+02  0.12277492197E+02  0.20704819425E+02  0.51100000000E-03 0. -1.
        -11    1    3    3    0    0 -0.77849283097E+01 -0.11269669648E+02  0.13093803161E+01  0.13759543591E+02  0.51100000000E-03 0.  1.
        -12    1    3    3    0    0 -0.55499074283E+01  0.36785586195E+01  0.14619668199E+02  0.16064493899E+02  0.00000000000E+00 0.  1.
</event>
<event>
 7    1  0.4374874E-012  0.5052887E+02  0.7816164E-02  0.1300439E+00
        -11   -1    0    0    0    0  0.00000000000E+00  0.00000000000E+00  0.45593999997E+02  0.45594000000E+02  0.51100000000E-03 0. -1.
         11   -1    0    0    0    0 -0.00000000000E+00 -0.00000000000E+00 -0.45593999997E+02  0.45594000000E+02  0.51100000000E-03 0.  1.
    9900012    2    1    2    0    0 -0.28059517127E+02 -0.56955946024E+01  0.28868466073E+02  0.50528872702E+02  0.30000039064E+02 0.  0.
        -12    1    1    2    0    0  0.28059517127E+02  0.56955946024E+01 -0.28868466073E+02  0.40659127298E+02  0.00000000000E+00 0.  1.
         11    1    3    3    0    0 -0.14154547490E+02 -0.83806059931E+01  0.10996053074E+02  0.19786332528E+02  0.51100000000E-03 0.  1.
        -11    1    3    3    0    0  0.48212682497E+01  0.62788020025E+00  0.12951917187E+00  0.48637060518E+01  0.51100000000E-03 0. -1.
         12    1    3    3    0    0 -0.18726237887E+02  0.20571311904E+01  0.17742893827E+02  0.25878834122E+02  0.00000000000E+00 0. -1.
</event>
<event>
 7    1  0.4374874E-012  0.5052886E+02  0.7816164E-02  0.1300439E+00
        -11   -1    0    0    0    0  0.00000000000E+00  0.00000000000E+00  0.45593999997E+02  0.45594000000E+02  0.51100000000E-03 0.  1.
         11   -1    0    0    0    0 -0.00000000000E+00 -0.00000000000E+00 -0.45593999997E+02  0.45594000000E+02  0.51100000000E-03 0. -1.
    9900012    2    1    2    0    0 -0.52461731322E+01  0.36940666404E+02 -0.16156428185E+02  0.50528864020E+02  0.30000012677E+02 0.  0.
         12    1    1    2    0    0  0.52461731322E+01 -0.36940666404E+02  0.16156428185E+02  0.40659135980E+02  0.00000000000E+00 0. -1.
         11    1    3    3    0    0  0.49108534613E+01  0.51406323533E+01 -0.10205773241E+02  0.12437861167E+02  0.51100000000E-03 0. -1.
        -11    1    3    3    0    0 -0.14581944080E+02  0.19424442426E+02 -0.56863371700E+01  0.24945470278E+02  0.51100000000E-03 0.  1.
         12    1    3    3    0    0  0.44249174863E+01  0.12375591624E+02 -0.26431777498E+00  0.13145532576E+02  0.00000000000E+00 0. -1.
</event>
<event>
 7    1  0.4374874E-012  0.5052887E+02  0.7816164E-02  0.1300439E+00
        -11   -1    0    0    0    0  0.00000000000E+00  0.00000000000E+00  0.45593999997E+02  0.45594000000E+02  0.51100000000E-03 0. -1.
         11   -1    0    0    0    0 -0.00000000000E+00 -0.00000000000E+00 -0.45593999997E+02  0.45594000000E+02  0.51100000000E-03 0.  1.
    9900012    2    1    2    0    0  0.46038768587E+01 -0.90057320200E+01  0.39381037721E+02  0.50528867898E+02  0.30000024461E+02 0.  0.
        -12    1    1    2    0    0 -0.46038768587E+01  0.90057320200E+01 -0.39381037721E+02  0.40659132102E+02  0.00000000000E+00 0.  1.
         11    1    3    3    0    0  0.10618759409E+02 -0.20096844246E+01  0.20433634375E+02  0.23115585585E+02  0.51100000000E-03 0. -1.
        -11    1    3    3    0    0 -0.30671379494E+01 -0.77033392489E+01  0.67705474495E-01  0.82917642922E+01  0.51100000000E-03 0.  1.
         12    1    3    3    0    0 -0.29477446009E+01  0.70729165352E+00  0.18879697871E+02  0.19121518021E+02  0.00000000000E+00 0. -1.
</event>
<event>
 7    1  0.4374874E-012  0.5052884E+02  0.7816164E-02  0.1300439E+00
        -11   -1    0    0    0    0  0.00000000000E+00  0.00000000000E+00  0.45593999997E+02  0.45594000000E+02  0.51100000000E-03 0.  1.
         11   -1    0    0    0    0 -0.00000000000E+00 -0.00000000000E+00 -0.45593999997E+02  0.45594000000E+02  0.51100000000E-03 0. -1.
    9900012    2    1    2    0    0  0.13737452505E+01  0.37964406022E+02  0.14490810656E+02  0.50528844892E+02  0.29999954534E+02 0.  0.
        -12    1    1    2    0    0 -0.13737452505E+01 -0.37964406022E+02 -0.14490810656E+02  0.40659155108E+02  0.00000000000E+00 0.  1.
         11    1    3    3    0    0 -0.67998537117E+01  0.26474018837E+02  0.15279617173E+02  0.31314188240E+02  0.51100000000E-03 0. -1.
        -11    1    3    3    0    0 -0.26215672866E+01 -0.89217588875E+00 -0.23620686599E-01  0.27693232121E+01  0.51100000000E-03 0.  1.
         12    1    3    3    0    0  0.10795166249E+02  0.12382563074E+02 -0.76518583111E+00  0.16445333441E+02  0.00000000000E+00 0. -1.
</event>
<event>
 7    1  0.4374874E-012  0.5052887E+02  0.7816164E-02  0.1300439E+00
        -11   -1    0    0    0    0  0.00000000000E+00  0.00000000000E+00  0.45593999997E+02  0.45594000000E+02  0.51100000000E-03 0. -1.
         11   -1    0    0    0    0 -0.00000000000E+00 -0.00000000000E+00 -0.45593999997E+02  0.45594000000E+02  0.51100000000E-03 0.  1.
    9900012    2    1    2    0    0  0.22687260062E+02 -0.33136550680E+02  0.63578668717E+01  0.50528865341E+02  0.30000016690E+02 0.  0.
        -12    1    1    2    0    0 -0.22687260062E+02  0.33136550680E+02 -0.63578668717E+01  0.40659134659E+02  0.00000000000E+00 0.  1.
         11    1    3    3    0    0  0.11219909535E+02 -0.12197656863E+02 -0.31152311089E+00  0.16576074621E+02  0.51100000000E-03 0. -1.
        -11    1    3    3    0    0  0.47409177690E+01 -0.11965179730E+02  0.15160038834E+02  0.19886392458E+02  0.51100000000E-03 0.  1.
         12    1    3    3    0    0  0.67264327577E+01 -0.89737140867E+01 -0.84906488516E+01  0.14066398262E+02  0.00000000000E+00 0. -1.
</event>
<event>
 7    1  0.4374874E-012  0.5052886E+02  0.7816164E-02  0.1300439E+00
        -11   -1    0    0    0    0  0.00000000000E+00  0.00000000000E+00  0.45593999997E+02  0.45594000000E+02  0.51100000000E-03 0. -1.
         11   -1    0    0    0    0 -0.00000000000E+00 -0.00000000000E+00 -0.45593999997E+02  0.45594000000E+02  0.51100000000E-03 0.  1.
    9900012    2    1    2    0    0 -0.48052357593E+01 -0.10441947144E+02  0.39000529989E+02  0.50528857237E+02  0.29999992056E+02 0.  0.
        -12    1    1    2    0    0  0.48052357593E+01  0.10441947144E+02 -0.39000529989E+02  0.40659142763E+02  0.00000000000E+00 0.  1.
         11    1    3    3    0    0 -0.12168757581E+02 -0.11314474773E+01  0.11988058009E+02  0.17119356575E+02  0.51100000000E-03 0. -1.
        -11    1    3    3    0    0 -0.30308158281E+01 -0.87394319622E+01  0.12664351066E+02  0.15682770922E+02  0.51100000000E-03 0.  1.
        -12    1    3    3    0    0  0.10394337650E+02 -0.57106770479E+00  0.14348120913E+02  0.17726729739E+02  0.00000000000E+00 0.  1.
</event>
<event>
 7    1  0.4374874E-012  0.5052886E+02  0.7816164E-02  0.1300439E+00
        -11   -1    0    0    0    0  0.00000000000E+00  0.00000000000E+00  0.45593999997E+02  0.45594000000E+02  0.51100000000E-03 0. -1.
         11   -1    0    0    0    0 -0.00000000000E+00 -0.00000000000E+00 -0.45593999997E+02  0.45594000000E+02  0.51100000000E-03 0.  1.
    9900012    2    1    2    0    0 -0.17480730480E+02 -0.11792281114E+02 -0.34763947019E+02  0.50528857802E+02  0.29999993774E+02 0.  0.
         12    1    1    2    0    0  0.17480730480E+02  0.11792281114E+02  0.34763947019E+02  0.40659142198E+02  0.00000000000E+00 0. -1.
         11    1    3    3    0    0 -0.18057575967E+02 -0.41928999580E+01 -0.28862288186E+02  0.34302888209E+02  0.51100000000E-03 0.  1.
        -11    1    3    3    0    0  0.40612349522E+01  0.13874284627E+01 -0.49332704322E+01  0.65387876930E+01  0.51100000000E-03 0. -1.
        -12    1    3    3    0    0 -0.34843894650E+01 -0.89868096185E+01 -0.96838840041E+00  0.96871818996E+01  0.00000000000E+00 0.  1.
</event>
<event>
 7    1  0.4374874E-012  0.5052886E+02  0.7816164E-02  0.1300439E+00
        -11   -1    0    0    0    0  0.00000000000E+00  0.00000000000E+00  0.45593999997E+02  0.45594000000E+02  0.51100000000E-03 0. -1.
         11   -1    0    0    0    0 -0.00000000000E+00 -0.00000000000E+00 -0.45593999997E+02  0.45594000000E+02  0.51100000000E-03 0.  1.
    9900012    2    1    2    0    0  0.13061910589E+02  0.38351274684E+01  0.38312446538E+02  0.50528864856E+02  0.30000015217E+02 0.  0.
        -12    1    1    2    0    0 -0.13061910589E+02 -0.38351274684E+01 -0.38312446538E+02  0.40659135144E+02  0.00000000000E+00 0.  1.
         11    1    3    3    0    0  0.68891413343E+01  0.58362604019E+01  0.92289425518E+01  0.12911064429E+02  0.51100000000E-03 0. -1.
        -11    1    3    3    0    0 -0.31668162424E+01  0.44792959360E+01 -0.89332064349E+00  0.55579527911E+01  0.51100000000E-03 0.  1.
         12    1    3    3    0    0  0.93395854968E+01 -0.64804288695E+01  0.29976824629E+02  0.32059847636E+02  0.00000000000E+00 0. -1.
</event>
<event>
 7    1  0.4374874E-012  0.5052884E+02  0.7816164E-02  0.1300439E+00
        -11   -1    0    0    0    0  0.00000000000E+00  0.00000000000E+00  0.45593999997E+02  0.45594000000E+02  0.51100000000E-03 0. -1.
         11   -1    0    0    0    0 -0.00000000000E+00 -0.00000000000E+00 -0.45593999997E+02  0.45594000000E+02  0.51100000000E-03 0.  1.
    9900012    2    1    2    0    0  0.13511977749E+02  0.34152985137E+01  0.38195940675E+02  0.50528835096E+02  0.29999924759E+02 0.  0.
        -12    1    1    2    0    0 -0.13511977749E+02 -0.34152985137E+01 -0.38195940675E+02  0.40659164904E+02  0.00000000000E+00 0.  1.
         11    1    3    3    0    0  0.94129095701E+01 -0.35058898365E+01  0.23015127714E+02  0.25111555788E+02  0.51100000000E-03 0. -1.
        -11    1    3    3    0    0  0.52416903094E+01 -0.33960428246E+01 -0.86631963360E+00  0.63054685897E+01  0.51100000000E-03 0.  1.
        -12    1    3    3    0    0 -0.11426221311E+01  0.10317231175E+02  0.16047132594E+02  0.19111810719E+02  0.00000000000E+00 0.  1.
</event>
<event>
 7    1  0.4374874E-012  0.5052886E+02  0.7816164E-02  0.1300439E+00
        -11   -1    0    0    0    0  0.00000000000E+00  0.00000000000E+00  0.45593999997E+02  0.45594000000E+02  0.51100000000E-03 0. -1.
         11   -1    0    0    0    0 -0.00000000000E+00 -0.00000000000E+00 -0.45593999997E+02  0.45594000000E+02  0.51100000000E-03 0.  1.
    9900012    2    1    2    0    0  0.99649493384E+01  0.38521210586E+02 -0.83655080742E+01  0.50528860736E+02  0.30000002693E+02 0.  0.
         12    1    1    2    0    0 -0.99649493384E+01 -0.38521210586E+02  0.83655080742E+01  0.40659139264E+02  0.00000000000E+00 0. -1.
         11    1    3    3    0    0  0.13976582619E+01  0.30740297002E+01 -0.11370360334E+02  0.11861205740E+02  0.51100000000E-03 0. -1.
        -11    1    3    3    0    0  0.52510872937E+01  0.14131780528E+02 -0.46519599869E+01  0.15777258020E+02  0.51100000000E-03 0.  1.
         12    1    3    3    0    0  0.33162037828E+01  0.21315400358E+02  0.76568122465E+01  0.22890396976E+02  0.00000000000E+00 0. -1.
</event>
<event>
 7    1  0.4374874E-012  0.5052886E+02  0.7816164E-02  0.1300439E+00
        -11   -1    0    0    0    0  0.00000000000E+00  0.00000000000E+00  0.45593999997E+02  0.45594000000E+02  0.51100000000E-03 0. -1.
         11   -1    0    0    0    0 -0.00000000000E+00 -0.00000000000E+00 -0.45593999997E+02  0.45594000000E+02  0.51100000000E-03 0.  1.
    9900012    2    1    2    0    0  0.29091253714E+02 -0.13134188570E+02 -0.25186457844E+02  0.50528860673E+02  0.30000002502E+02 0.  0.
         12    1    1    2    0    0 -0.29091253714E+02  0.13134188570E+02  0.25186457844E+02  0.40659139327E+02  0.00000000000E+00 0. -1.
         11    1    3    3    0    0  0.67928175468E+01 -0.10041711516E+02  0.25831187668E+01  0.12395597735E+02  0.51100000000E-03 0. -1.
        -11    1    3    3    0    0  0.40105234008E+01 -0.63932761589E+01 -0.77305162983E+01  0.10803664216E+02  0.51100000000E-03 0.  1.
        -12    1    3    3    0    0  0.18287912767E+02  0.33007991041E+01 -0.20039060312E+02  0.27329598722E+02  0.00000000000E+00 0.  1.
</event>
<event>
 7    1  0.4374874E-012  0.5052886E+02  0.7816164E-02  0.1300439E+00
        -11   -1    0    0    0    0  0.00000000000E+00  0.00000000000E+00  0.45593999997E+02  0.45594000000E+02  0.51100000000E-03 0. -1.
         11   -1    0    0    0    0 -0.00000000000E+00 -0.00000000000E+00 -0.45593999997E+02  0.45594000000E+02  0.51100000000E-03 0.  1.
    9900012    2    1    2    0    0 -0.69460301317E+01  0.28406546509E+02  0.28248653498E+02  0.50528860270E+02  0.30000001276E+02 0.  0.
        -12    1    1    2    0    0  0.69460301317E+01 -0.28406546509E+02 -0.28248653498E+02  0.40659139730E+02  0.00000000000E+00 0.  1.
         11    1    3    3    0    0 -0.81379465918E+00 -0.34386217359E+01  0.74905025969E+00  0.36121264849E+01  0.51100000000E-03 0. -1.
        -11    1    3    3    0    0  0.71349090762E+01  0.86002443951E+01  0.67930445717E+01  0.13077330997E+02  0.51100000000E-03 0.  1.
         12    1    3    3    0    0 -0.13267144549E+02  0.23244923850E+02  0.20706558667E+02  0.33839402788E+02  0.00000000000E+00 0. -1.
</event>
<event>
 7    1  0.4374874E-012  0.5052886E+02  0.7816164E-02  0.1300439E+00
        -11   -1    0    0    0    0  0.00000000000E+00  0.00000000000E+00  0.45593999997E+02  0.45594000000E+02  0.51100000000E-03 0. -1.
         11   -1    0    0    0    0 -0.00000000000E+00 -0.00000000000E+00 -0.45593999997E+02  0.45594000000E+02  0.51100000000E-03 0.  1.
    9900012    2    1    2    0    0 -0.26897060429E+02 -0.16045373133E+02 -0.25927972021E+02  0.50528860907E+02  0.30000003214E+02 0.  0.
         12    1    1    2    0    0  0.26897060429E+02  0.16045373133E+02  0.25927972021E+02  0.40659139093E+02  0.00000000000E+00 0. -1.
         11    1    3    3    0    0 -0.90517538812E+00  0.45088334395E+01 -0.53590168161E+01  0.70617266277E+01  0.51100000000E-03 0. -1.
        -11    1    3    3    0    0 -0.25813045834E+02 -0.10295447678E+02 -0.17130298063E+02  0.32645929150E+02  0.51100000000E-03 0.  1.
        -12    1    3    3    0    0 -0.17883920658E+00 -0.10258758894E+02 -0.34386571420E+01  0.10821205129E+02  0.00000000000E+00 0.  1.
</event>
<event>
 7    1  0.4374874E-012  0.5052886E+02  0.7816164E-02  0.1300439E+00
        -11   -1    0    0    0    0  0.00000000000E+00  0.00000000000E+00  0.45593999997E+02  0.45594000000E+02  0.51100000000E-03 0. -1.
         11   -1    0    0    0    0 -0.00000000000E+00 -0.00000000000E+00 -0.45593999997E+02  0.45594000000E+02  0.51100000000E-03 0.  1.
    9900012    2    1    2    0    0  0.16384822592E+02  0.32202355390E+02 -0.18647023713E+02  0.50528860838E+02  0.30000003004E+02 0.  0.
         12    1    1    2    0    0 -0.16384822592E+02 -0.32202355390E+02  0.18647023713E+02  0.40659139162E+02  0.00000000000E+00 0. -1.
         11    1    3    3    0    0  0.18061181907E+02  0.13933448150E+02 -0.75847061298E+01  0.24039031523E+02  0.51100000000E-03 0. -1.
        -11    1    3    3    0    0  0.29258507620E+00  0.64119494596E+01  0.37349165718E+01  0.74261904068E+01  0.51100000000E-03 0.  1.
        -12    1    3    3    0    0 -0.19689443907E+01  0.11856957780E+02 -0.14797234154E+02  0.19063638908E+02  0.00000000000E+00 0.  1.
</event>
<event>
 7    1  0.4374874E-012  0.5052880E+02  0.7816164E-02  0.1300439E+00
        -11   -1    0    0    0    0  0.00000000000E+00  0.00000000000E+00  0.45593999997E+02  0.45594000000E+02  0.51100000000E-03 0. -1.
         11   -1    0    0    0    0 -0.00000000000E+00 -0.00000000000E+00 -0.45593999997E+02  0.45594000000E+02  0.51100000000E-03 0.  1.
    9900012    2    1    2    0    0  0.27611654294E+02 -0.29845215761E+02 -0.17352503401E+00  0.50528800947E+02  0.29999820959E+02 0.  0.
         12    1    1    2    0    0 -0.27611654294E+02  0.29845215761E+02  0.17352503401E+00  0.40659199053E+02  0.00000000000E+00 0. -1.
         11    1    3    3    0    0  0.41856905986E+01  0.13253470307E+01 -0.13595106866E+01  0.45961745079E+01  0.51100000000E-03 0. -1.
        -11    1    3    3    0    0  0.14809218222E+02 -0.31889070300E+02 -0.46999796614E+01  0.35472743875E+02  0.51100000000E-03 0.  1.
         12    1    3    3    0    0  0.86167454729E+01  0.71850750805E+00  0.58859653139E+01  0.10459882564E+02  0.00000000000E+00 0. -1.
</event>
<event>
 7    1  0.4374874E-012  0.5052886E+02  0.7816164E-02  0.1300439E+00
        -11   -1    0    0    0    0  0.00000000000E+00  0.00000000000E+00  0.45593999997E+02  0.45594000000E+02  0.51100000000E-03 0. -1.
         11   -1    0    0    0    0 -0.00000000000E+00 -0.00000000000E+00 -0.45593999997E+02  0.45594000000E+02  0.51100000000E-03 0.  1.
    9900012    2    1    2    0    0 -0.11657459255E+02  0.19305606208E+02 -0.33831385494E+02  0.50528862875E+02  0.30000009195E+02 0.  0.
         12    1    1    2    0    0  0.11657459255E+02 -0.19305606208E+02  0.33831385494E+02  0.40659137125E+02  0.00000000000E+00 0. -1.
         11    1    3    3    0    0  0.53222163997E+01  0.54023544328E+01 -0.11236968399E+01  0.76664278300E+01  0.51100000000E-03 0. -1.
        -11    1    3    3    0    0 -0.42755868514E+01 -0.28994673498E+01 -0.13109577732E+02  0.14090726823E+02  0.51100000000E-03 0.  1.
        -12    1    3    3    0    0 -0.12704088803E+02  0.16802719125E+02 -0.19598110922E+02  0.28771708222E+02  0.00000000000E+00 0.  1.
</event>
<event>
 7    1  0.4374874E-012  0.5052886E+02  0.7816164E-02  0.1300439E+00
        -11   -1    0    0    0    0  0.00000000000E+00  0.00000000000E+00  0.45593999997E+02  0.45594000000E+02  0.51100000000E-03 0. -1.
         11   -1    0    0    0    0 -0.00000000000E+00 -0.00000000000E+00 -0.45593999997E+02  0.45594000000E+02  0.51100000000E-03 0.  1.
    9900012    2    1    2    0    0  0.12483316912E+02  0.20784993614E+02 -0.32639185567E+02  0.50528860865E+02  0.30000003086E+02 0.  0.
         12    1    1    2    0    0 -0.12483316912E+02 -0.20784993614E+02  0.32639185567E+02  0.40659139135E+02  0.00000000000E+00 0. -1.
         11    1    3    3    0    0  0.93984091727E+01  0.12880294691E+00 -0.42582590048E+00  0.94089326246E+01  0.51100000000E-03 0. -1.
        -11    1    3    3    0    0  0.49789819308E+01  0.96246795994E+01 -0.54909322956E+01  0.12148047423E+02  0.51100000000E-03 0.  1.
        -12    1    3    3    0    0 -0.18940741912E+01  0.11031511068E+02 -0.26722427371E+02  0.28971880817E+02  0.00000000000E+00 0.  1.
</event>
<event>
 7    1  0.4374874E-012  0.5052887E+02  0.7816164E-02  0.1300439E+00
        -11   -1    0    0    0    0  0.00000000000E+00  0.00000000000E+00  0.45593999997E+02  0.45594000000E+02  0.51100000000E-03 0. -1.
         11   -1    0    0    0    0 -0.00000000000E+00 -0.00000000000E+00 -0.45593999997E+02  0.45594000000E+02  0.51100000000E-03 0.  1.
    9900012    2    1    2    0    0  0.16204338548E+02 -0.25293895625E+02 -0.27400793222E+02  0.50528865567E+02  0.30000017377E+02 0.  0.
         12    1    1    2    0    0 -0.16204338548E+02  0.25293895625E+02  0.27400793222E+02  0.40659134433E+02  0.00000000000E+00 0. -1.
         11    1    3    3    0    0  0.90253112092E+00 -0.20237586864E+01 -0.10773522325E+02  0.10999042922E+02  0.51100000000E-03 0. -1.
        -11    1    3    3    0    0 -0.27879794730E+01 -0.14392910619E+02 -0.11773884574E+02  0.18803006777E+02  0.51100000000E-03 0.  1.
         12    1    3    3    0    0  0.18089786900E+02 -0.88772263194E+01 -0.48533863227E+01  0.20726815868E+02  0.00000000000E+00 0. -1.
</event>
<event>
 7    1  0.4374874E-012  0.5052886E+02  0.7816164E-02  0.1300439E+00
        -11   -1    0    0    0    0  0.00000000000E+00  0.00000000000E+00  0.45593999997E+02  0.45594000000E+02  0.51100000000E-03 0. -1.
         11   -1    0    0    0    0 -0.00000000000E+00 -0.00000000000E+00 -0.45593999997E+02  0.45594000000E+02  0.51100000000E-03 0.  1.
    9900012    2    1    2    0    0 -0.19952162674E+02  0.21083698068E+02 -0.28470244071E+02  0.50528856907E+02  0.29999991054E+02 0.  0.
         12    1    1    2    0    0  0.19952162674E+02 -0.21083698068E+02  0.28470244071E+02  0.40659143093E+02  0.00000000000E+00 0. -1.
         11    1    3    3    0    0 -0.23327908051E+02  0.20704104710E+02 -0.26486827359E+02  0.40919472989E+02  0.51100000000E-03 0.  1.
        -11    1    3    3    0    0 -0.11854816728E+01 -0.56144143166E+00  0.27016898971E+01  0.30032835096E+01  0.51100000000E-03 0. -1.
        -12    1    3    3    0    0  0.45612270493E+01  0.94103478970E+00 -0.46851066085E+01  0.66061004082E+01  0.00000000000E+00 0.  1.
</event>
<event>
 7    1  0.4374874E-012  0.5052886E+02  0.7816164E-02  0.1300439E+00
        -11   -1    0    0    0    0  0.00000000000E+00  0.00000000000E+00  0.45593999997E+02  0.45594000000E+02  0.51100000000E-03 0. -1.
         11   -1    0    0    0    0 -0.00000000000E+00 -0.00000000000E+00 -0.45593999997E+02  0.45594000000E+02  0.51100000000E-03 0.  1.
    9900012    2    1    2    0    0 -0.10859133648E+01 -0.40536285249E+02  0.29658378865E+01  0.50528858051E+02  0.29999994532E+02 0.  0.
        -12    1    1    2    0    0  0.10859133648E+01  0.40536285249E+02 -0.29658378865E+01  0.40659141949E+02  0.00000000000E+00 0.  1.
         11    1    3    3    0    0  0.69718209334E+01 -0.19498574032E+02  0.10394351461E+02  0.23169877405E+02  0.51100000000E-03 0. -1.
        -11    1    3    3    0    0 -0.34616534370E+01 -0.15153172550E+01  0.29339141640E+01  0.47840446783E+01  0.51100000000E-03 0.  1.
         12    1    3    3    0    0 -0.45960808613E+01 -0.19522393962E+02 -0.10362427739E+02  0.22574935967E+02  0.00000000000E+00 0. -1.
</event>
<event>
 7    1  0.4374874E-012  0.5052886E+02  0.7816164E-02  0.1300439E+00
        -11   -1    0    0    0    0  0.00000000000E+00  0.00000000000E+00  0.45593999997E+02  0.45594000000E+02  0.51100000000E-03 0. -1.
         11   -1    0    0    0    0 -0.00000000000E+00 -0.00000000000E+00 -0.45593999997E+02  0.45594000000E+02  0.51100000000E-03 0.  1.
    9900012    2    1    2    0    0 -0.68689141936E+01 -0.88481641595E+01 -0.39085721852E+02  0.50528860266E+02  0.30000001264E+02 0.  0.
         12    1    1    2    0    0  0.68689141936E+01  0.88481641595E+01  0.39085721852E+02  0.40659139734E+02  0.00000000000E+00 0. -1.
         11    1    3    3    0    0 -0.28151799058E+01  0.28181456731E+01  0.16816909445E+01  0.43238024505E+01  0.51100000000E-03 0. -1.
        -11    1    3    3    0    0 -0.16276896221E+00 -0.81666553407E+01 -0.40511379084E+01  0.91177010152E+01  0.51100000000E-03 0.  1.
        -12    1    3    3    0    0 -0.38909653256E+01 -0.34996544920E+01 -0.36716274889E+02  0.37087356800E+02  0.00000000000E+00 0.  1.
</event>
<event>
 7    1  0.4374874E-012  0.5052886E+02  0.7816164E-02  0.1300439E+00
        -11   -1    0    0    0    0  0.00000000000E+00  0.00000000000E+00  0.45593999997E+02  0.45594000000E+02  0.51100000000E-03 0. -1.
         11   -1    0    0    0    0 -0.00000000000E+00 -0.00000000000E+00 -0.45593999997E+02  0.45594000000E+02  0.51100000000E-03 0.  1.
    9900012    2    1    2    0    0 -0.27173539176E+02  0.92550286757E+01  0.28794249396E+02  0.50528860985E+02  0.30000003451E+02 0.  0.
        -12    1    1    2    0    0  0.27173539176E+02 -0.92550286757E+01 -0.28794249396E+02  0.40659139015E+02  0.00000000000E+00 0.  1.
         11    1    3    3    0    0 -0.14909766352E+02  0.98048699756E+00  0.15344667341E+02  0.21417780079E+02  0.51100000000E-03 0. -1.
        -11    1    3    3    0    0 -0.17234172032E+02  0.10369644178E+02  0.86631706887E+01  0.21899697091E+02  0.51100000000E-03 0.  1.
        -12    1    3    3    0    0  0.49703992081E+01 -0.20951025003E+01  0.47864113661E+01  0.72113838159E+01  0.00000000000E+00 0.  1.
</event>
<event>
 7    1  0.4374874E-012  0.5052886E+02  0.7816164E-02  0.1300439E+00
        -11   -1    0    0    0    0  0.00000000000E+00  0.00000000000E+00  0.45593999997E+02  0.45594000000E+02  0.51100000000E-03 0. -1.
         11   -1    0    0    0    0 -0.00000000000E+00 -0.00000000000E+00 -0.45593999997E+02  0.45594000000E+02  0.51100000000E-03 0.  1.
    9900012    2    1    2    0    0 -0.63372634739E+01 -0.13644801383E+02  0.37773326661E+02  0.50528859328E+02  0.29999998414E+02 0.  0.
        -12    1    1    2    0    0  0.63372634739E+01  0.13644801383E+02 -0.37773326661E+02  0.40659140672E+02  0.00000000000E+00 0.  1.
         11    1    3    3    0    0  0.53974719679E+01 -0.44907615977E-01  0.14500360861E+02  0.15472400773E+02  0.51100000000E-03 0.  1.
        -11    1    3    3    0    0 -0.15428261533E+02 -0.45624434593E+01  0.17233895635E+02  0.23576562584E+02  0.51100000000E-03 0. -1.
         12    1    3    3    0    0  0.36935260908E+01 -0.90374503075E+01  0.60390701652E+01  0.11479895971E+02  0.00000000000E+00 0. -1.
</event>
<event>
 7    1  0.4374874E-012  0.5052887E+02  0.7816164E-02  0.1300439E+00
        -11   -1    0    0    0    0  0.00000000000E+00  0.00000000000E+00  0.45593999997E+02  0.45594000000E+02  0.51100000000E-03 0. -1.
         11   -1    0    0    0    0 -0.00000000000E+00 -0.00000000000E+00 -0.45593999997E+02  0.45594000000E+02  0.51100000000E-03 0.  1.
    9900012    2    1    2    0    0  0.18029639065E+02 -0.25122587662E+02 -0.26399866357E+02  0.50528865241E+02  0.30000016388E+02 0.  0.
         12    1    1    2    0    0 -0.18029639065E+02  0.25122587662E+02  0.26399866357E+02  0.40659134759E+02  0.00000000000E+00 0. -1.
         11    1    3    3    0    0 -0.49218551801E+01 -0.88318968387E+01  0.50961603041E+00  0.10123574909E+02  0.51100000000E-03 0. -1.
        -11    1    3    3    0    0  0.12168948901E+02 -0.22016193190E+01 -0.11983091021E+02  0.17219898828E+02  0.51100000000E-03 0.  1.
        -12    1    3    3    0    0  0.10782545344E+02 -0.14089071505E+02 -0.14926391367E+02  0.23185391504E+02  0.00000000000E+00 0.  1.
</event>
<event>
 7    1  0.4374874E-012  0.5052886E+02  0.7816164E-02  0.1300439E+00
        -11   -1    0    0    0    0  0.00000000000E+00  0.00000000000E+00  0.45593999997E+02  0.45594000000E+02  0.51100000000E-03 0. -1.
         11   -1    0    0    0    0 -0.00000000000E+00 -0.00000000000E+00 -0.45593999997E+02  0.45594000000E+02  0.51100000000E-03 0.  1.
    9900012    2    1    2    0    0 -0.39879751058E+02 -0.27785082855E+01 -0.74196433512E+01  0.50528858836E+02  0.29999996918E+02 0.  0.
        -12    1    1    2    0    0  0.39879751058E+02  0.27785082855E+01  0.74196433512E+01  0.40659141164E+02  0.00000000000E+00 0.  1.
         11    1    3    3    0    0 -0.69191488985E+01 -0.33770899825E+01  0.75350576628E+01  0.10772950036E+02  0.51100000000E-03 0. -1.
        -11    1    3    3    0    0 -0.80855202546E+00  0.43420349976E+01 -0.24856666369E+01  0.50680926580E+01  0.51100000000E-03 0.  1.
         12    1    3    3    0    0 -0.32152050134E+02 -0.37434533006E+01 -0.12469034377E+02  0.34687816142E+02  0.00000000000E+00 0. -1.
</event>
<event>
 7    1  0.4374874E-012  0.5052891E+02  0.7816164E-02  0.1300439E+00
        -11   -1    0    0    0    0  0.00000000000E+00  0.00000000000E+00  0.45593999997E+02  0.45594000000E+02  0.51100000000E-03 0. -1.
         11   -1    0    0    0    0 -0.00000000000E+00 -0.00000000000E+00 -0.45593999997E+02  0.45594000000E+02  0.51100000000E-03 0.  1.
    9900012    2    1    2    0    0  0.22016761640E+02  0.16057735907E+02 -0.30175706251E+02  0.50528906019E+02  0.30000140336E+02 0.  0.
         12    1    1    2    0    0 -0.22016761640E+02 -0.16057735907E+02  0.30175706251E+02  0.40659093981E+02  0.00000000000E+00 0. -1.
         11    1    3    3    0    0  0.40674293814E+01  0.97836006359E+01 -0.16000120424E+02  0.19190275585E+02  0.51100000000E-03 0. -1.
        -11    1    3    3    0    0  0.91584489180E+01 -0.14726066760E+01 -0.16927652954E+02  0.19302621371E+02  0.51100000000E-03 0.  1.
         12    1    3    3    0    0  0.87908833407E+01  0.77467419476E+01  0.27520671270E+01  0.12036009064E+02  0.00000000000E+00 0. -1.
</event>
<event>
 7    1  0.4374874E-012  0.5052885E+02  0.7816164E-02  0.1300439E+00
        -11   -1    0    0    0    0  0.00000000000E+00  0.00000000000E+00  0.45593999997E+02  0.45594000000E+02  0.51100000000E-03 0. -1.
         11   -1    0    0    0    0 -0.00000000000E+00 -0.00000000000E+00 -0.45593999997E+02  0.45594000000E+02  0.51100000000E-03 0.  1.
    9900012    2    1    2    0    0 -0.29617769463E+02  0.12396725517E+02 -0.24945446232E+02  0.50528851470E+02  0.29999974528E+02 0.  0.
         12    1    1    2    0    0  0.29617769463E+02 -0.12396725517E+02  0.24945446232E+02  0.40659148530E+02  0.00000000000E+00 0. -1.
         11    1    3    3    0    0 -0.11547395017E+02  0.11826482707E+02 -0.36095406489E+00  0.16532946289E+02  0.51100000000E-03 0. -1.
        -11    1    3    3    0    0  0.79461334053E+00  0.40382079757E+01 -0.60939728739E+01  0.73535732583E+01  0.51100000000E-03 0.  1.
         12    1    3    3    0    0 -0.18864987786E+02 -0.34679651657E+01 -0.18490519293E+02  0.26642331923E+02  0.00000000000E+00 0. -1.
</event>
<event>
 7    1  0.4374874E-012  0.5052886E+02  0.7816164E-02  0.1300439E+00
        -11   -1    0    0    0    0  0.00000000000E+00  0.00000000000E+00  0.45593999997E+02  0.45594000000E+02  0.51100000000E-03 0. -1.
         11   -1    0    0    0    0 -0.00000000000E+00 -0.00000000000E+00 -0.45593999997E+02  0.45594000000E+02  0.51100000000E-03 0.  1.
    9900012    2    1    2    0    0  0.16261407455E+02  0.19779096770E+02  0.31583539311E+02  0.50528855926E+02  0.29999988072E+02 0.  0.
        -12    1    1    2    0    0 -0.16261407455E+02 -0.19779096770E+02 -0.31583539311E+02  0.40659144074E+02  0.00000000000E+00 0.  1.
         11    1    3    3    0    0  0.29317179225E+01  0.39888349870E+01  0.15932925085E+01  0.52004188110E+01  0.51100000000E-03 0. -1.
        -11    1    3    3    0    0  0.88820205736E+01 -0.66074358768E+01  0.11309838928E+02  0.15825958271E+02  0.51100000000E-03 0.  1.
        -12    1    3    3    0    0  0.44476689593E+01  0.22397697660E+02  0.18680407874E+02  0.29502478844E+02  0.00000000000E+00 0.  1.
</event>
<event>
 7    1  0.4374874E-012  0.5052888E+02  0.7816164E-02  0.1300439E+00
        -11   -1    0    0    0    0  0.00000000000E+00  0.00000000000E+00  0.45593999997E+02  0.45594000000E+02  0.51100000000E-03 0. -1.
         11   -1    0    0    0    0 -0.00000000000E+00 -0.00000000000E+00 -0.45593999997E+02  0.45594000000E+02  0.51100000000E-03 0.  1.
    9900012    2    1    2    0    0 -0.35466319959E+01  0.35353838449E+02  0.19765917795E+02  0.50528880508E+02  0.30000062791E+02 0.  0.
        -12    1    1    2    0    0  0.35466319959E+01 -0.35353838449E+02 -0.19765917795E+02  0.40659119492E+02  0.00000000000E+00 0.  1.
         11    1    3    3    0    0 -0.85173237816E+00  0.61581408197E+01  0.93176968745E+01  0.11201233044E+02  0.51100000000E-03 0. -1.
        -11    1    3    3    0    0 -0.90887940334E+01  0.13421516650E+01  0.10662223484E+01  0.92490204038E+01  0.51100000000E-03 0.  1.
        -12    1    3    3    0    0  0.63938944156E+01  0.27853545965E+02  0.93819985718E+01  0.30078627060E+02  0.00000000000E+00 0.  1.
</event>
<event>
 7    1  0.4374874E-012  0.5052885E+02  0.7816164E-02  0.1300439E+00
        -11   -1    0    0    0    0  0.00000000000E+00  0.00000000000E+00  0.45593999997E+02  0.45594000000E+02  0.51100000000E-03 0.  1.
         11   -1    0    0    0    0 -0.00000000000E+00 -0.00000000000E+00 -0.45593999997E+02  0.45594000000E+02  0.51100000000E-03 0. -1.
    9900012    2    1    2    0    0  0.38626729947E+02  0.68218883279E+01 -0.10705312902E+02  0.50528854029E+02  0.29999982306E+02 0.  0.
         12    1    1    2    0    0 -0.38626729947E+02 -0.68218883279E+01  0.10705312902E+02  0.40659145971E+02  0.00000000000E+00 0. -1.
         11    1    3    3    0    0 -0.37736134089E+01  0.21657551158E+01 -0.25964534086E+01  0.50667764847E+01  0.51100000000E-03 0. -1.
        -11    1    3    3    0    0  0.24494155176E+02 -0.32062796567E+01 -0.12388097464E+01  0.24734156886E+02  0.51100000000E-03 0.  1.
        -12    1    3    3    0    0  0.17906188181E+02  0.78624128688E+01 -0.68700497469E+01  0.20727920658E+02  0.00000000000E+00 0.  1.
</event>
<event>
 7    1  0.4374874E-012  0.5052886E+02  0.7816164E-02  0.1300439E+00
        -11   -1    0    0    0    0  0.00000000000E+00  0.00000000000E+00  0.45593999997E+02  0.45594000000E+02  0.51100000000E-03 0. -1.
         11   -1    0    0    0    0 -0.00000000000E+00 -0.00000000000E+00 -0.45593999997E+02  0.45594000000E+02  0.51100000000E-03 0.  1.
    9900012    2    1    2    0    0  0.37127740198E+02  0.92676737177E+01 -0.13740695795E+02  0.50528860937E+02  0.30000003306E+02 0.  0.
         12    1    1    2    0    0 -0.37127740198E+02 -0.92676737177E+01  0.13740695795E+02  0.40659139063E+02  0.00000000000E+00 0. -1.
         11    1    3    3    0    0  0.10434882637E+02  0.90323058995E+01 -0.39486101267E+01  0.14354819668E+02  0.51100000000E-03 0. -1.
        -11    1    3    3    0    0  0.25783649251E+02  0.29696892630E+01  0.13210487283E-01  0.25954109459E+02  0.51100000000E-03 0.  1.
         12    1    3    3    0    0  0.90920831005E+00 -0.27343214448E+01 -0.98052961553E+01  0.10219931810E+02  0.00000000000E+00 0. -1.
</event>
<event>
 7    1  0.4374874E-012  0.5052886E+02  0.7816164E-02  0.1300439E+00
        -11   -1    0    0    0    0  0.00000000000E+00  0.00000000000E+00  0.45593999997E+02  0.45594000000E+02  0.51100000000E-03 0. -1.
         11   -1    0    0    0    0 -0.00000000000E+00 -0.00000000000E+00 -0.45593999997E+02  0.45594000000E+02  0.51100000000E-03 0.  1.
    9900012    2    1    2    0    0  0.13457554622E+02  0.35577679566E+02 -0.14362736664E+02  0.50528864935E+02  0.30000015457E+02 0.  0.
         12    1    1    2    0    0 -0.13457554622E+02 -0.35577679566E+02  0.14362736664E+02  0.40659135065E+02  0.00000000000E+00 0. -1.
         11    1    3    3    0    0  0.12545073770E+01  0.89209190107E+01  0.66455381491E+01  0.11194630959E+02  0.51100000000E-03 0. -1.
        -11    1    3    3    0    0  0.90084876860E+01  0.60356791686E+01 -0.18381080073E+01  0.10998223253E+02  0.51100000000E-03 0.  1.
        -12    1    3    3    0    0  0.31945595592E+01  0.20621081387E+02 -0.19170166806E+02  0.28336010723E+02  0.00000000000E+00 0.  1.
</event>
<event>
 7    1  0.4374874E-012  0.5052884E+02  0.7816164E-02  0.1300439E+00
        -11   -1    0    0    0    0  0.00000000000E+00  0.00000000000E+00  0.45593999997E+02  0.45594000000E+02  0.51100000000E-03 0. -1.
         11   -1    0    0    0    0 -0.00000000000E+00 -0.00000000000E+00 -0.45593999997E+02  0.45594000000E+02  0.51100000000E-03 0.  1.
    9900012    2    1    2    0    0 -0.22186147721E+02 -0.17847712124E+02 -0.29024148958E+02  0.50528841112E+02  0.29999943043E+02 0.  0.
         12    1    1    2    0    0  0.22186147721E+02  0.17847712124E+02  0.29024148958E+02  0.40659158888E+02  0.00000000000E+00 0. -1.
         11    1    3    3    0    0 -0.86410336168E+01  0.27345827972E+01 -0.11543365419E+02  0.14676330961E+02  0.51100000000E-03 0. -1.
        -11    1    3    3    0    0 -0.31045879765E+01 -0.87077642951E+00  0.38274918841E+01  0.50046390957E+01  0.51100000000E-03 0.  1.
        -12    1    3    3    0    0 -0.10440526128E+02 -0.19711518492E+02 -0.21308275423E+02  0.30847871055E+02  0.00000000000E+00 0.  1.
</event>
<event>
 7    1  0.4374874E-012  0.5052885E+02  0.7816164E-02  0.1300439E+00
        -11   -1    0    0    0    0  0.00000000000E+00  0.00000000000E+00  0.45593999997E+02  0.45594000000E+02  0.51100000000E-03 0. -1.
         11   -1    0    0    0    0 -0.00000000000E+00 -0.00000000000E+00 -0.45593999997E+02  0.45594000000E+02  0.51100000000E-03 0.  1.
    9900012    2    1    2    0    0  0.52578330698E+01  0.20025809966E+02 -0.34992695023E+02  0.50528848774E+02  0.29999966334E+02 0.  0.
         12    1    1    2    0    0 -0.52578330698E+01 -0.20025809966E+02  0.34992695023E+02  0.40659151226E+02  0.00000000000E+00 0. -1.
         11    1    3    3    0    0 -0.44233686009E+01  0.34921594400E+01 -0.71961641247E+01  0.91403580731E+01  0.51100000000E-03 0. -1.
        -11    1    3    3    0    0  0.77332747356E+01  0.23598310743E+01 -0.25683690673E+02  0.26926275414E+02  0.51100000000E-03 0.  1.
        -12    1    3    3    0    0  0.19479269351E+01  0.14173819452E+02 -0.21128402261E+01  0.14462215287E+02  0.00000000000E+00 0.  1.
</event>
<event>
 7    1  0.4374874E-012  0.5052886E+02  0.7816164E-02  0.1300439E+00
        -11   -1    0    0    0    0  0.00000000000E+00  0.00000000000E+00  0.45593999997E+02  0.45594000000E+02  0.51100000000E-03 0. -1.
         11   -1    0    0    0    0 -0.00000000000E+00 -0.00000000000E+00 -0.45593999997E+02  0.45594000000E+02  0.51100000000E-03 0.  1.
    9900012    2    1    2    0    0 -0.20841043041E+02 -0.18317293552E+02  0.29720251852E+02  0.50528859721E+02  0.29999999607E+02 0.  0.
        -12    1    1    2    0    0  0.20841043041E+02  0.18317293552E+02 -0.29720251852E+02  0.40659140279E+02  0.00000000000E+00 0.  1.
         11    1    3    3    0    0  0.12702319083E+00 -0.88255436923E+01  0.18522489155E+02  0.20518015525E+02  0.51100000000E-03 0.  1.
        -11    1    3    3    0    0 -0.62789104952E+01  0.43108072603E+01  0.21289461994E+01  0.79082354810E+01  0.51100000000E-03 0. -1.
        -12    1    3    3    0    0 -0.14689155737E+02 -0.13802557120E+02  0.90688164978E+01  0.22102608714E+02  0.00000000000E+00 0.  1.
</event>
<event>
 7    1  0.4374874E-012  0.5052887E+02  0.7816164E-02  0.1300439E+00
        -11   -1    0    0    0    0  0.00000000000E+00  0.00000000000E+00  0.45593999997E+02  0.45594000000E+02  0.51100000000E-03 0. -1.
         11   -1    0    0    0    0 -0.00000000000E+00 -0.00000000000E+00 -0.45593999997E+02  0.45594000000E+02  0.51100000000E-03 0.  1.
    9900012    2    1    2    0    0 -0.87528932950E+01  0.76034867364E+01 -0.38971002245E+02  0.50528866124E+02  0.30000019070E+02 0.  0.
         12    1    1    2    0    0  0.87528932950E+01 -0.76034867364E+01  0.38971002245E+02  0.40659133876E+02  0.00000000000E+00 0. -1.
         11    1    3    3    0    0  0.15720116475E+01  0.49698262984E+01 -0.49511057293E+01  0.71891475336E+01  0.51100000000E-03 0. -1.
        -11    1    3    3    0    0  0.53114850942E+01  0.82699208828E+01 -0.16381542493E+02  0.19103884423E+02  0.51100000000E-03 0.  1.
         12    1    3    3    0    0 -0.15636390037E+02 -0.56362604448E+01 -0.17638354022E+02  0.24235834168E+02  0.00000000000E+00 0. -1.
</event>
<event>
 7    1  0.4374874E-012  0.5052886E+02  0.7816164E-02  0.1300439E+00
        -11   -1    0    0    0    0  0.00000000000E+00  0.00000000000E+00  0.45593999997E+02  0.45594000000E+02  0.51100000000E-03 0. -1.
         11   -1    0    0    0    0 -0.00000000000E+00 -0.00000000000E+00 -0.45593999997E+02  0.45594000000E+02  0.51100000000E-03 0.  1.
    9900012    2    1    2    0    0  0.79480125871E+00  0.19508001497E+02 -0.35664714116E+02  0.50528860014E+02  0.30000000498E+02 0.  0.
         12    1    1    2    0    0 -0.79480125871E+00 -0.19508001497E+02  0.35664714116E+02  0.40659139986E+02  0.00000000000E+00 0. -1.
         11    1    3    3    0    0  0.69688338867E+00  0.72889654153E+01 -0.25889868505E+02  0.26905388954E+02  0.51100000000E-03 0. -1.
        -11    1    3    3    0    0  0.88102652512E+01  0.76490278776E+01 -0.52082142408E+01  0.12777084844E+02  0.51100000000E-03 0.  1.
         12    1    3    3    0    0 -0.87123473812E+01  0.45700082046E+01 -0.45666313696E+01  0.10846386216E+02  0.00000000000E+00 0. -1.
</event>
<event>
 7    1  0.4374874E-012  0.5052883E+02  0.7816164E-02  0.1300439E+00
        -11   -1    0    0    0    0  0.00000000000E+00  0.00000000000E+00  0.45593999997E+02  0.45594000000E+02  0.51100000000E-03 0. -1.
         11   -1    0    0    0    0 -0.00000000000E+00 -0.00000000000E+00 -0.45593999997E+02  0.45594000000E+02  0.51100000000E-03 0.  1.
    9900012    2    1    2    0    0  0.60131887275E+01 -0.27551371788E+02  0.29290462838E+02  0.50528834498E+02  0.29999922939E+02 0.  0.
        -12    1    1    2    0    0 -0.60131887275E+01  0.27551371788E+02 -0.29290462838E+02  0.40659165502E+02  0.00000000000E+00 0.  1.
         11    1    3    3    0    0  0.10370820578E+02 -0.30819050805E+01  0.29409425593E+01  0.11211654730E+02  0.51100000000E-03 0. -1.
        -11    1    3    3    0    0  0.81829980216E-01  0.11037638140E+01  0.66261296113E+01  0.67179300822E+01  0.51100000000E-03 0.  1.
         12    1    3    3    0    0 -0.44394618305E+01 -0.25573230522E+02  0.19723390667E+02  0.32599249686E+02  0.00000000000E+00 0. -1.
</event>
<event>
 7    1  0.4374874E-012  0.5052887E+02  0.7816164E-02  0.1300439E+00
        -11   -1    0    0    0    0  0.00000000000E+00  0.00000000000E+00  0.45593999997E+02  0.45594000000E+02  0.51100000000E-03 0. -1.
         11   -1    0    0    0    0 -0.00000000000E+00 -0.00000000000E+00 -0.45593999997E+02  0.45594000000E+02  0.51100000000E-03 0.  1.
    9900012    2    1    2    0    0  0.23428879026E+02 -0.94964791105E+01  0.31844455998E+02  0.50528869835E+02  0.30000030352E+02 0.  0.
        -12    1    1    2    0    0 -0.23428879026E+02  0.94964791105E+01 -0.31844455998E+02  0.40659130165E+02  0.00000000000E+00 0.  1.
         11    1    3    3    0    0 -0.54711580879E+01  0.20314401811E+01  0.59439117805E+01  0.83300904886E+01  0.51100000000E-03 0.  1.
        -11    1    3    3    0    0 -0.20956204811E+00 -0.83382740735E+00  0.43502878649E+01  0.44344322258E+01  0.51100000000E-03 0. -1.
        -12    1    3    3    0    0  0.29109599162E+02 -0.10694091884E+02  0.21550256353E+02  0.37764347121E+02  0.00000000000E+00 0.  1.
</event>
<event>
 7    1  0.4374874E-012  0.5052886E+02  0.7816164E-02  0.1300439E+00
        -11   -1    0    0    0    0  0.00000000000E+00  0.00000000000E+00  0.45593999997E+02  0.45594000000E+02  0.51100000000E-03 0. -1.
         11   -1    0    0    0    0 -0.00000000000E+00 -0.00000000000E+00 -0.45593999997E+02  0.45594000000E+02  0.51100000000E-03 0.  1.
    9900012    2    1    2    0    0 -0.24036277077E+01 -0.23020079248E+02  0.33428493725E+02  0.50528859976E+02  0.30000000384E+02 0.  0.
        -12    1    1    2    0    0  0.24036277077E+01  0.23020079248E+02 -0.33428493725E+02  0.40659140024E+02  0.00000000000E+00 0.  1.
         11    1    3    3    0    0 -0.10308029524E+01  0.20953882850E+00  0.23508411194E+01  0.25754447144E+01  0.51100000000E-03 0. -1.
        -11    1    3    3    0    0  0.97279254672E+01 -0.22753064315E+02  0.17013628783E+02  0.30029952285E+02  0.51100000000E-03 0.  1.
        -12    1    3    3    0    0 -0.11100750222E+02 -0.47655376165E+00  0.14064023823E+02  0.17923462977E+02  0.00000000000E+00 0.  1.
</event>
<event>
 7    1  0.4374874E-012  0.5052886E+02  0.7816164E-02  0.1300439E+00
        -11   -1    0    0    0    0  0.00000000000E+00  0.00000000000E+00  0.45593999997E+02  0.45594000000E+02  0.51100000000E-03 0.  1.
         11   -1    0    0    0    0 -0.00000000000E+00 -0.00000000000E+00 -0.45593999997E+02  0.45594000000E+02  0.51100000000E-03 0. -1.
    9900012    2    1    2    0    0 -0.23039312062E+02 -0.31109568770E+00  0.33500130914E+02  0.50528862626E+02  0.30000008437E+02 0.  0.
        -12    1    1    2    0    0  0.23039312062E+02  0.31109568770E+00 -0.33500130914E+02  0.40659137374E+02  0.00000000000E+00 0.  1.
         11    1    3    3    0    0 -0.14174747822E+02 -0.89868071859E+01  0.17045091922E+02  0.23921148344E+02  0.51100000000E-03 0. -1.
        -11    1    3    3    0    0 -0.24613689268E-01  0.93604241851E+00  0.14697903984E+02  0.14727700534E+02  0.51100000000E-03 0.  1.
        -12    1    3    3    0    0 -0.88399505505E+01  0.77396690797E+01  0.17571350075E+01  0.11880013747E+02  0.00000000000E+00 0.  1.
</event>
<event>
 7    1  0.4374874E-012  0.5052890E+02  0.7816164E-02  0.1300439E+00
        -11   -1    0    0    0    0  0.00000000000E+00  0.00000000000E+00  0.45593999997E+02  0.45594000000E+02  0.51100000000E-03 0. -1.
         11   -1    0    0    0    0 -0.00000000000E+00 -0.00000000000E+00 -0.45593999997E+02  0.45594000000E+02  0.51100000000E-03 0.  1.
    9900012    2    1    2    0    0 -0.15958937749E+02  0.79647995180E+01 -0.36538158298E+02  0.50528896010E+02  0.30000109912E+02 0.  0.
         12    1    1    2    0    0  0.15958937749E+02 -0.79647995180E+01  0.36538158298E+02  0.40659103990E+02  0.00000000000E+00 0. -1.
         11    1    3    3    0    0 -0.92386760383E+01 -0.62597916738E+01 -0.21401928627E+02  0.24136708059E+02  0.51100000000E-03 0. -1.
        -11    1    3    3    0    0  0.44379799049E+01  0.66939111752E+01 -0.70623058621E+01  0.10694871519E+02  0.51100000000E-03 0.  1.
        -12    1    3    3    0    0 -0.11158241616E+02  0.75306800166E+01 -0.80739238093E+01  0.15697316431E+02  0.00000000000E+00 0.  1.
</event>
<event>
 7    1  0.4374874E-012  0.5052885E+02  0.7816164E-02  0.1300439E+00
        -11   -1    0    0    0    0  0.00000000000E+00  0.00000000000E+00  0.45593999997E+02  0.45594000000E+02  0.51100000000E-03 0. -1.
         11   -1    0    0    0    0 -0.00000000000E+00 -0.00000000000E+00 -0.45593999997E+02  0.45594000000E+02  0.51100000000E-03 0.  1.
    9900012    2    1    2    0    0  0.21618762534E+02 -0.19500739648E+01  0.34380120166E+02  0.50528851649E+02  0.29999975073E+02 0.  0.
        -12    1    1    2    0    0 -0.21618762534E+02  0.19500739648E+01 -0.34380120166E+02  0.40659148351E+02  0.00000000000E+00 0.  1.
         11    1    3    3    0    0  0.18358873885E+02 -0.28218575369E+01  0.18880466195E+02  0.26485526883E+02  0.51100000000E-03 0. -1.
        -11    1    3    3    0    0 -0.35288948082E+01 -0.66618441236E+01  0.99485834472E+01  0.12482290598E+02  0.51100000000E-03 0.  1.
         12    1    3    3    0    0  0.67887834564E+01  0.75336276957E+01  0.55510705244E+01  0.11561034168E+02  0.00000000000E+00 0. -1.
</event>
<event>
 7    1  0.4374874E-012  0.5052886E+02  0.7816164E-02  0.1300439E+00
        -11   -1    0    0    0    0  0.00000000000E+00  0.00000000000E+00  0.45593999997E+02  0.45594000000E+02  0.51100000000E-03 0. -1.
         11   -1    0    0    0    0 -0.00000000000E+00 -0.00000000000E+00 -0.45593999997E+02  0.45594000000E+02  0.51100000000E-03 0.  1.
    9900012    2    1    2    0    0  0.25584980207E+01 -0.18791698574E+02  0.35965150826E+02  0.50528856854E+02  0.29999990894E+02 0.  0.
        -12    1    1    2    0    0 -0.25584980207E+01  0.18791698574E+02 -0.35965150826E+02  0.40659143146E+02  0.00000000000E+00 0.  1.
         11    1    3    3    0    0  0.80272016313E+01 -0.13556382258E+02  0.29872036167E+02  0.33772030010E+02  0.51100000000E-03 0. -1.
        -11    1    3    3    0    0  0.57540199682E-01  0.27902499752E+01  0.64271408730E+01  0.70069212826E+01  0.51100000000E-03 0.  1.
         12    1    3    3    0    0 -0.55262438103E+01 -0.80255662913E+01 -0.33402621455E+00  0.97499055615E+01  0.00000000000E+00 0. -1.
</event>
<event>
 7    1  0.4374874E-012  0.5052886E+02  0.7816164E-02  0.1300439E+00
        -11   -1    0    0    0    0  0.00000000000E+00  0.00000000000E+00  0.45593999997E+02  0.45594000000E+02  0.51100000000E-03 0. -1.
         11   -1    0    0    0    0 -0.00000000000E+00 -0.00000000000E+00 -0.45593999997E+02  0.45594000000E+02  0.51100000000E-03 0.  1.
    9900012    2    1    2    0    0 -0.14688214817E+02  0.35499821769E+02 -0.13311070158E+02  0.50528860943E+02  0.30000003323E+02 0.  0.
         12    1    1    2    0    0  0.14688214817E+02 -0.35499821769E+02  0.13311070158E+02  0.40659139057E+02  0.00000000000E+00 0. -1.
         11    1    3    3    0    0  0.10072123317E+01 -0.46187245838E-01 -0.27518913204E+01  0.29307876148E+01  0.51100000000E-03 0. -1.
        -11    1    3    3    0    0 -0.77422411535E+01  0.26608286147E+02 -0.18426833838E+02  0.33278993304E+02  0.51100000000E-03 0.  1.
        -12    1    3    3    0    0 -0.79531859951E+01  0.89377228676E+01  0.78676550011E+01  0.14319080025E+02  0.00000000000E+00 0.  1.
</event>
<event>
 7    1  0.4374874E-012  0.5052886E+02  0.7816164E-02  0.1300439E+00
        -11   -1    0    0    0    0  0.00000000000E+00  0.00000000000E+00  0.45593999997E+02  0.45594000000E+02  0.51100000000E-03 0. -1.
         11   -1    0    0    0    0 -0.00000000000E+00 -0.00000000000E+00 -0.45593999997E+02  0.45594000000E+02  0.51100000000E-03 0.  1.
    9900012    2    1    2    0    0  0.48274326405E+01 -0.37093902164E+02 -0.15934368510E+02  0.50528858550E+02  0.29999996049E+02 0.  0.
         12    1    1    2    0    0 -0.48274326405E+01  0.37093902164E+02  0.15934368510E+02  0.40659141450E+02  0.00000000000E+00 0. -1.
         11    1    3    3    0    0 -0.47590592660E+01 -0.78438320037E+01  0.29732798439E+01  0.96444149066E+01  0.51100000000E-03 0. -1.
        -11    1    3    3    0    0 -0.18571860333E+01 -0.22234696458E+02 -0.15066928290E+02  0.26922912081E+02  0.51100000000E-03 0.  1.
         12    1    3    3    0    0  0.11443677940E+02 -0.70153737023E+01 -0.38407200634E+01  0.13961531563E+02  0.00000000000E+00 0. -1.
</event>
<event>
 7    1  0.4374874E-012  0.5052887E+02  0.7816164E-02  0.1300439E+00
        -11   -1    0    0    0    0  0.00000000000E+00  0.00000000000E+00  0.45593999997E+02  0.45594000000E+02  0.51100000000E-03 0. -1.
         11   -1    0    0    0    0 -0.00000000000E+00 -0.00000000000E+00 -0.45593999997E+02  0.45594000000E+02  0.51100000000E-03 0.  1.
    9900012    2    1    2    0    0  0.12836887061E+01 -0.24686347487E+02 -0.32281592731E+02  0.50528870174E+02  0.30000031382E+02 0.  0.
         12    1    1    2    0    0 -0.12836887061E+01  0.24686347487E+02  0.32281592731E+02  0.40659129826E+02  0.00000000000E+00 0. -1.
         11    1    3    3    0    0 -0.26603150042E+01 -0.57200576001E+01 -0.34045302932E+01  0.71684839156E+01  0.51100000000E-03 0. -1.
        -11    1    3    3    0    0 -0.10406330639E+02 -0.12942232354E+02 -0.12650028465E+02  0.20876214123E+02  0.51100000000E-03 0.  1.
        -12    1    3    3    0    0  0.14350334349E+02 -0.60240575325E+01 -0.16227033973E+02  0.22484172136E+02  0.00000000000E+00 0.  1.
</event>
<event>
 7    1  0.4374874E-012  0.5052887E+02  0.7816164E-02  0.1300439E+00
        -11   -1    0    0    0    0  0.00000000000E+00  0.00000000000E+00  0.45593999997E+02  0.45594000000E+02  0.51100000000E-03 0. -1.
         11   -1    0    0    0    0 -0.00000000000E+00 -0.00000000000E+00 -0.45593999997E+02  0.45594000000E+02  0.51100000000E-03 0.  1.
    9900012    2    1    2    0    0 -0.37276312118E+02  0.13896321964E+02 -0.83984473583E+01  0.50528866619E+02  0.30000020575E+02 0.  0.
         12    1    1    2    0    0  0.37276312118E+02 -0.13896321964E+02  0.83984473583E+01  0.40659133381E+02  0.00000000000E+00 0. -1.
         11    1    3    3    0    0 -0.16181834637E+02  0.69197820982E-01 -0.37602730108E+01  0.16613133778E+02  0.51100000000E-03 0. -1.
        -11    1    3    3    0    0 -0.80202185361E+01  0.16209254918E+02 -0.86316365910E+01  0.20039186632E+02  0.51100000000E-03 0.  1.
         12    1    3    3    0    0 -0.13074258946E+02 -0.23821307755E+01  0.39934622435E+01  0.13876546209E+02  0.00000000000E+00 0. -1.
</event>
<event>
 7    1  0.4374874E-012  0.5052886E+02  0.7816164E-02  0.1300439E+00
        -11   -1    0    0    0    0  0.00000000000E+00  0.00000000000E+00  0.45593999997E+02  0.45594000000E+02  0.51100000000E-03 0. -1.
         11   -1    0    0    0    0 -0.00000000000E+00 -0.00000000000E+00 -0.45593999997E+02  0.45594000000E+02  0.51100000000E-03 0.  1.
    9900012    2    1    2    0    0  0.32811920360E+01 -0.14925494142E+02 -0.37677969449E+02  0.50528856153E+02  0.29999988763E+02 0.  0.
         12    1    1    2    0    0 -0.32811920360E+01  0.14925494142E+02  0.37677969449E+02  0.40659143847E+02  0.00000000000E+00 0. -1.
         11    1    3    3    0    0 -0.73222823033E+01 -0.26756364849E+00 -0.25157633739E+01  0.77470300148E+01  0.51100000000E-03 0. -1.
        -11    1    3    3    0    0  0.58924570986E+01  0.24343717921E+01 -0.12262614622E+02  0.13820959963E+02  0.51100000000E-03 0.  1.
        -12    1    3    3    0    0  0.47110172407E+01 -0.17092302286E+02 -0.22899591454E+02  0.28960866175E+02  0.00000000000E+00 0.  1.
</event>
<event>
 7    1  0.4374874E-012  0.5052887E+02  0.7816164E-02  0.1300439E+00
        -11   -1    0    0    0    0  0.00000000000E+00  0.00000000000E+00  0.45593999997E+02  0.45594000000E+02  0.51100000000E-03 0. -1.
         11   -1    0    0    0    0 -0.00000000000E+00 -0.00000000000E+00 -0.45593999997E+02  0.45594000000E+02  0.51100000000E-03 0.  1.
    9900012    2    1    2    0    0  0.22191742890E+02 -0.60779549576E+01 -0.33522376680E+02  0.50528871539E+02  0.30000035530E+02 0.  0.
         12    1    1    2    0    0 -0.22191742890E+02  0.60779549576E+01  0.33522376680E+02  0.40659128461E+02  0.00000000000E+00 0. -1.
         11    1    3    3    0    0 -0.36709205698E+00  0.67634299410E+01 -0.42723352081E+00  0.67868453561E+01  0.51100000000E-03 0. -1.
        -11    1    3    3    0    0  0.37107348597E+01  0.16416916872E+01 -0.91145846368E+01  0.99769914382E+01  0.51100000000E-03 0.  1.
        -12    1    3    3    0    0  0.18848100087E+02 -0.14483076586E+02 -0.23980558522E+02  0.33765034745E+02  0.00000000000E+00 0.  1.
</event>
<event>
 7    1  0.4374874E-012  0.5052886E+02  0.7816164E-02  0.1300439E+00
        -11   -1    0    0    0    0  0.00000000000E+00  0.00000000000E+00  0.45593999997E+02  0.45594000000E+02  0.51100000000E-03 0. -1.
         11   -1    0    0    0    0 -0.00000000000E+00 -0.00000000000E+00 -0.45593999997E+02  0.45594000000E+02  0.51100000000E-03 0.  1.
    9900012    2    1    2    0    0 -0.24818430775E+01 -0.40550726135E+02 -0.16262706953E+01  0.50528859681E+02  0.29999999486E+02 0.  0.
         12    1    1    2    0    0  0.24818430775E+01  0.40550726135E+02  0.16262706953E+01  0.40659140319E+02  0.00000000000E+00 0. -1.
         11    1    3    3    0    0  0.26012806485E+01  0.32719033147E+01  0.30409871387E+00  0.41910009069E+01  0.51100000000E-03 0. -1.
        -11    1    3    3    0    0  0.28971815609E+01 -0.79077881107E+01  0.35531895323E+01  0.91406744781E+01  0.51100000000E-03 0.  1.
        -12    1    3    3    0    0 -0.79803052868E+01 -0.35914841339E+02 -0.54835589415E+01  0.37197184296E+02  0.00000000000E+00 0.  1.
</event>
<event>
 7    1  0.4374874E-012  0.5052886E+02  0.7816164E-02  0.1300439E+00
        -11   -1    0    0    0    0  0.00000000000E+00  0.00000000000E+00  0.45593999997E+02  0.45594000000E+02  0.51100000000E-03 0. -1.
         11   -1    0    0    0    0 -0.00000000000E+00 -0.00000000000E+00 -0.45593999997E+02  0.45594000000E+02  0.51100000000E-03 0.  1.
    9900012    2    1    2    0    0 -0.32082039767E+02  0.19419929483E+02  0.15709074133E+02  0.50528856541E+02  0.29999989941E+02 0.  0.
        -12    1    1    2    0    0  0.32082039767E+02 -0.19419929483E+02 -0.15709074133E+02  0.40659143459E+02  0.00000000000E+00 0.  1.
         11    1    3    3    0    0 -0.26011352819E+01  0.12150446191E+01  0.58541567115E+01  0.65202292326E+01  0.51100000000E-03 0. -1.
        -11    1    3    3    0    0 -0.22339018182E+01 -0.57326646990E+00  0.10661146377E+02  0.10907749269E+02  0.51100000000E-03 0.  1.
        -12    1    3    3    0    0 -0.27247002667E+02  0.18778151334E+02 -0.80622895563E+00  0.33100878039E+02  0.00000000000E+00 0.  1.
</event>
<event>
 7    1  0.4374874E-012  0.5052886E+02  0.7816164E-02  0.1300439E+00
        -11   -1    0    0    0    0  0.00000000000E+00  0.00000000000E+00  0.45593999997E+02  0.45594000000E+02  0.51100000000E-03 0.  1.
         11   -1    0    0    0    0 -0.00000000000E+00 -0.00000000000E+00 -0.45593999997E+02  0.45594000000E+02  0.51100000000E-03 0. -1.
    9900012    2    1    2    0    0 -0.23818609884E+02 -0.21382716078E+02 -0.25072272835E+02  0.50528860944E+02  0.30000003324E+02 0.  0.
         12    1    1    2    0    0  0.23818609884E+02  0.21382716078E+02  0.25072272835E+02  0.40659139056E+02  0.00000000000E+00 0. -1.
         11    1    3    3    0    0  0.33779416436E+01 -0.55460521106E+00 -0.63322260247E+01  0.71982750278E+01  0.51100000000E-03 0. -1.
        -11    1    3    3    0    0 -0.81396398966E+01  0.26452049682E+01 -0.63416740286E+01  0.10652120761E+02  0.51100000000E-03 0.  1.
        -12    1    3    3    0    0 -0.19056911631E+02 -0.23473315835E+02 -0.12398372782E+02  0.32678465154E+02  0.00000000000E+00 0.  1.
</event>
<event>
 7    1  0.4374874E-012  0.5052886E+02  0.7816164E-02  0.1300439E+00
        -11   -1    0    0    0    0  0.00000000000E+00  0.00000000000E+00  0.45593999997E+02  0.45594000000E+02  0.51100000000E-03 0. -1.
         11   -1    0    0    0    0 -0.00000000000E+00 -0.00000000000E+00 -0.45593999997E+02  0.45594000000E+02  0.51100000000E-03 0.  1.
    9900012    2    1    2    0    0  0.34919978368E+01  0.69197305140E+01  0.39913521249E+02  0.50528857144E+02  0.29999991774E+02 0.  0.
        -12    1    1    2    0    0 -0.34919978368E+01 -0.69197305140E+01 -0.39913521249E+02  0.40659142856E+02  0.00000000000E+00 0.  1.
         11    1    3    3    0    0 -0.88731222621E+01  0.28583109733E+01  0.86728095831E+01  0.12732629996E+02  0.51100000000E-03 0. -1.
        -11    1    3    3    0    0  0.11189955974E+01 -0.60259240147E+01  0.10056945880E+02  0.11777354205E+02  0.51100000000E-03 0.  1.
        -12    1    3    3    0    0  0.11246124502E+02  0.10087343555E+02  0.21183765786E+02  0.26018872942E+02  0.00000000000E+00 0.  1.
</event>
<event>
 7    1  0.4374874E-012  0.5052886E+02  0.7816164E-02  0.1300439E+00
        -11   -1    0    0    0    0  0.00000000000E+00  0.00000000000E+00  0.45593999997E+02  0.45594000000E+02  0.51100000000E-03 0.  1.
         11   -1    0    0    0    0 -0.00000000000E+00 -0.00000000000E+00 -0.45593999997E+02  0.45594000000E+02  0.51100000000E-03 0. -1.
    9900012    2    1    2    0    0  0.22622926601E+02  0.33224999589E+02 -0.61211589011E+01  0.50528855986E+02  0.29999988254E+02 0.  0.
        -12    1    1    2    0    0 -0.22622926601E+02 -0.33224999589E+02  0.61211589011E+01  0.40659144014E+02  0.00000000000E+00 0.  1.
         11    1    3    3    0    0  0.14867983039E+02  0.22392639540E+02 -0.16918219511E+01  0.26932313064E+02  0.51100000000E-03 0. -1.
        -11    1    3    3    0    0  0.22061779083E+01  0.15307758719E+02 -0.54438470419E+01  0.16396041255E+02  0.51100000000E-03 0.  1.
        -12    1    3    3    0    0  0.55487656540E+01 -0.44753986694E+01  0.10145100919E+01  0.72005016672E+01  0.00000000000E+00 0.  1.
</event>
<event>
 7    1  0.4374874E-012  0.5052886E+02  0.7816164E-02  0.1300439E+00
        -11   -1    0    0    0    0  0.00000000000E+00  0.00000000000E+00  0.45593999997E+02  0.45594000000E+02  0.51100000000E-03 0.  1.
         11   -1    0    0    0    0 -0.00000000000E+00 -0.00000000000E+00 -0.45593999997E+02  0.45594000000E+02  0.51100000000E-03 0. -1.
    9900012    2    1    2    0    0  0.38457980117E+01 -0.37763257635E+02 -0.14570924764E+02  0.50528860338E+02  0.30000001484E+02 0.  0.
         12    1    1    2    0    0 -0.38457980117E+01  0.37763257635E+02  0.14570924764E+02  0.40659139662E+02  0.00000000000E+00 0. -1.
         11    1    3    3    0    0  0.27886173987E+01 -0.38806584442E+00  0.76335280994E+00  0.29171372730E+01  0.51100000000E-03 0. -1.
        -11    1    3    3    0    0 -0.10056734695E+02 -0.28227241395E+02 -0.63104055475E+01  0.30622480108E+02  0.51100000000E-03 0.  1.
         12    1    3    3    0    0  0.11113915308E+02 -0.91479503952E+01 -0.90238720267E+01  0.16989242957E+02  0.00000000000E+00 0. -1.
</event>
<event>
 7    1  0.4374874E-012  0.5052885E+02  0.7816164E-02  0.1300439E+00
        -11   -1    0    0    0    0  0.00000000000E+00  0.00000000000E+00  0.45593999997E+02  0.45594000000E+02  0.51100000000E-03 0. -1.
         11   -1    0    0    0    0 -0.00000000000E+00 -0.00000000000E+00 -0.45593999997E+02  0.45594000000E+02  0.51100000000E-03 0.  1.
    9900012    2    1    2    0    0  0.11737573939E+02 -0.17900452421E+02  0.34568332128E+02  0.50528850661E+02  0.29999972069E+02 0.  0.
        -12    1    1    2    0    0 -0.11737573939E+02  0.17900452421E+02 -0.34568332128E+02  0.40659149339E+02  0.00000000000E+00 0.  1.
         11    1    3    3    0    0  0.58225486367E+01 -0.43886214108E+01  0.21580867922E+02  0.22779287325E+02  0.51100000000E-03 0. -1.
        -11    1    3    3    0    0 -0.22810726209E+01 -0.46865575780E+01  0.14688522567E+02  0.15585884951E+02  0.51100000000E-03 0.  1.
        -12    1    3    3    0    0  0.81960979227E+01 -0.88252734319E+01 -0.17010583609E+01  0.12163678385E+02  0.00000000000E+00 0.  1.
</event>
<event>
 7    1  0.4374874E-012  0.5052886E+02  0.7816164E-02  0.1300439E+00
        -11   -1    0    0    0    0  0.00000000000E+00  0.00000000000E+00  0.45593999997E+02  0.45594000000E+02  0.51100000000E-03 0. -1.
         11   -1    0    0    0    0 -0.00000000000E+00 -0.00000000000E+00 -0.45593999997E+02  0.45594000000E+02  0.51100000000E-03 0.  1.
    9900012    2    1    2    0    0 -0.75642648674E+01 -0.23112623048E+02  0.32584567453E+02  0.50528862242E+02  0.30000007271E+02 0.  0.
        -12    1    1    2    0    0  0.75642648674E+01  0.23112623048E+02 -0.32584567453E+02  0.40659137758E+02  0.00000000000E+00 0.  1.
         11    1    3    3    0    0  0.19853763395E+01 -0.71851050630E+01  0.97888248272E+01  0.12304005272E+02  0.51100000000E-03 0. -1.
        -11    1    3    3    0    0 -0.67390778771E+00  0.37793292281E+01 -0.27798972223E+01  0.47397584272E+01  0.51100000000E-03 0.  1.
         12    1    3    3    0    0 -0.88757334192E+01 -0.19706847213E+02  0.25575639848E+02  0.33485098543E+02  0.00000000000E+00 0. -1.
</event>
<event>
 7    1  0.4374874E-012  0.5052886E+02  0.7816164E-02  0.1300439E+00
        -11   -1    0    0    0    0  0.00000000000E+00  0.00000000000E+00  0.45593999997E+02  0.45594000000E+02  0.51100000000E-03 0. -1.
         11   -1    0    0    0    0 -0.00000000000E+00 -0.00000000000E+00 -0.45593999997E+02  0.45594000000E+02  0.51100000000E-03 0.  1.
    9900012    2    1    2    0    0  0.17725557632E+02 -0.11087223477E+02  0.34871823171E+02  0.50528856268E+02  0.29999989111E+02 0.  0.
        -12    1    1    2    0    0 -0.17725557632E+02  0.11087223477E+02 -0.34871823171E+02  0.40659143732E+02  0.00000000000E+00 0.  1.
         11    1    3    3    0    0  0.77968826336E+01 -0.33420132165E+01  0.28573778175E+01  0.89512590955E+01  0.51100000000E-03 0. -1.
        -11    1    3    3    0    0  0.16693377177E+02 -0.16654004120E+01  0.24928391727E+02  0.30047747244E+02  0.51100000000E-03 0.  1.
        -12    1    3    3    0    0 -0.67647021791E+01 -0.60798098482E+01  0.70860536266E+01  0.11529849928E+02  0.00000000000E+00 0.  1.
</event>
<event>
 7    1  0.4374874E-012  0.5052886E+02  0.7816164E-02  0.1300439E+00
        -11   -1    0    0    0    0  0.00000000000E+00  0.00000000000E+00  0.45593999997E+02  0.45594000000E+02  0.51100000000E-03 0. -1.
         11   -1    0    0    0    0 -0.00000000000E+00 -0.00000000000E+00 -0.45593999997E+02  0.45594000000E+02  0.51100000000E-03 0.  1.
    9900012    2    1    2    0    0 -0.11870326034E+02 -0.29097169116E+01 -0.38778790247E+02  0.50528859998E+02  0.30000000451E+02 0.  0.
         12    1    1    2    0    0  0.11870326034E+02  0.29097169116E+01  0.38778790247E+02  0.40659140002E+02  0.00000000000E+00 0. -1.
         11    1    3    3    0    0  0.80851463319E+01  0.10511575046E+01 -0.74401990571E+01  0.11037711972E+02  0.51100000000E-03 0. -1.
        -11    1    3    3    0    0 -0.12302189095E+01 -0.47778242916E+01 -0.95578721631E+01  0.10756112870E+02  0.51100000000E-03 0.  1.
         12    1    3    3    0    0 -0.18725253457E+02  0.81694987548E+00 -0.21780719027E+02  0.28735035156E+02  0.00000000000E+00 0. -1.
</event>
<event>
 7    1  0.4374874E-012  0.5052889E+02  0.7816164E-02  0.1300439E+00
        -11   -1    0    0    0    0  0.00000000000E+00  0.00000000000E+00  0.45593999997E+02  0.45594000000E+02  0.51100000000E-03 0. -1.
         11   -1    0    0    0    0 -0.00000000000E+00 -0.00000000000E+00 -0.45593999997E+02  0.45594000000E+02  0.51100000000E-03 0.  1.
    9900012    2    1    2    0    0 -0.14604100262E+02  0.24719643736E+02  0.28789279040E+02  0.50528891321E+02  0.30000095660E+02 0.  0.
        -12    1    1    2    0    0  0.14604100262E+02 -0.24719643736E+02 -0.28789279040E+02  0.40659108679E+02  0.00000000000E+00 0.  1.
         11    1    3    3    0    0 -0.56741738333E+01  0.56280767241E+01  0.78942573663E+01  0.11233467672E+02  0.51100000000E-03 0. -1.
        -11    1    3    3    0    0  0.40715967130E+01  0.17064270852E+02  0.42016928081E+01  0.18039441849E+02  0.51100000000E-03 0.  1.
         12    1    3    3    0    0 -0.13001523142E+02  0.20272961604E+01  0.16693328865E+02  0.21255981801E+02  0.00000000000E+00 0. -1.
</event>
<event>
 7    1  0.4374874E-012  0.5052887E+02  0.7816164E-02  0.1300439E+00
        -11   -1    0    0    0    0  0.00000000000E+00  0.00000000000E+00  0.45593999997E+02  0.45594000000E+02  0.51100000000E-03 0. -1.
         11   -1    0    0    0    0 -0.00000000000E+00 -0.00000000000E+00 -0.45593999997E+02  0.45594000000E+02  0.51100000000E-03 0.  1.
    9900012    2    1    2    0    0 -0.48955625453E+01 -0.31134017732E+02 -0.25687953895E+02  0.50528873495E+02  0.30000041476E+02 0.  0.
         12    1    1    2    0    0  0.48955625453E+01  0.31134017732E+02  0.25687953895E+02  0.40659126505E+02  0.00000000000E+00 0. -1.
         11    1    3    3    0    0  0.89342885807E+01 -0.16462268496E+02 -0.18593192310E+02  0.26391941895E+02  0.51100000000E-03 0. -1.
        -11    1    3    3    0    0 -0.40221753386E+01 -0.10204553081E+02 -0.76059285914E+01  0.13347694484E+02  0.51100000000E-03 0.  1.
         12    1    3    3    0    0 -0.98076757874E+01 -0.44671961552E+01  0.51116700558E+00  0.10789237116E+02  0.00000000000E+00 0. -1.
</event>
<event>
 7    1  0.4374874E-012  0.5052885E+02  0.7816164E-02  0.1300439E+00
        -11   -1    0    0    0    0  0.00000000000E+00  0.00000000000E+00  0.45593999997E+02  0.45594000000E+02  0.51100000000E-03 0. -1.
         11   -1    0    0    0    0 -0.00000000000E+00 -0.00000000000E+00 -0.45593999997E+02  0.45594000000E+02  0.51100000000E-03 0.  1.
    9900012    2    1    2    0    0 -0.23329574626E+02 -0.15778369987E+01  0.33262712710E+02  0.50528847542E+02  0.29999962587E+02 0.  0.
        -12    1    1    2    0    0  0.23329574626E+02  0.15778369987E+01 -0.33262712710E+02  0.40659152458E+02  0.00000000000E+00 0.  1.
         11    1    3    3    0    0 -0.67706483019E+01 -0.10935930357E+02  0.11652784107E+02  0.17355795254E+02  0.51100000000E-03 0. -1.
        -11    1    3    3    0    0 -0.49170858696E+01  0.26827467715E+01 -0.20562192401E+01  0.59668166985E+01  0.51100000000E-03 0.  1.
        -12    1    3    3    0    0 -0.11641840455E+02  0.66753465863E+01  0.23666147843E+02  0.27206235589E+02  0.00000000000E+00 0.  1.
</event>
<event>
 7    1  0.4374874E-012  0.5052886E+02  0.7816164E-02  0.1300439E+00
        -11   -1    0    0    0    0  0.00000000000E+00  0.00000000000E+00  0.45593999997E+02  0.45594000000E+02  0.51100000000E-03 0. -1.
         11   -1    0    0    0    0 -0.00000000000E+00 -0.00000000000E+00 -0.45593999997E+02  0.45594000000E+02  0.51100000000E-03 0.  1.
    9900012    2    1    2    0    0 -0.72233013517E+01  0.23031568653E+02  0.32719047283E+02  0.50528864592E+02  0.30000014414E+02 0.  0.
        -12    1    1    2    0    0  0.72233013517E+01 -0.23031568653E+02 -0.32719047283E+02  0.40659135408E+02  0.00000000000E+00 0.  1.
         11    1    3    3    0    0  0.40005542653E+01  0.42684170139E+01  0.73090707536E+01  0.93619620688E+01  0.51100000000E-03 0. -1.
        -11    1    3    3    0    0 -0.56292616041E+01  0.23436459918E+02  0.14767447932E+02  0.28267185187E+02  0.51100000000E-03 0.  1.
        -12    1    3    3    0    0 -0.55945940129E+01 -0.46733082782E+01  0.10642528597E+02  0.12899717337E+02  0.00000000000E+00 0.  1.
</event>
<event>
 7    1  0.4374874E-012  0.5052886E+02  0.7816164E-02  0.1300439E+00
        -11   -1    0    0    0    0  0.00000000000E+00  0.00000000000E+00  0.45593999997E+02  0.45594000000E+02  0.51100000000E-03 0. -1.
         11   -1    0    0    0    0 -0.00000000000E+00 -0.00000000000E+00 -0.45593999997E+02  0.45594000000E+02  0.51100000000E-03 0.  1.
    9900012    2    1    2    0    0  0.10297850031E+02  0.82391694249E+01 -0.38460840508E+02  0.50528857354E+02  0.29999992414E+02 0.  0.
         12    1    1    2    0    0 -0.10297850031E+02 -0.82391694249E+01  0.38460840508E+02  0.40659142646E+02  0.00000000000E+00 0. -1.
         11    1    3    3    0    0  0.66891015638E+01 -0.24456135559E+01 -0.84772357370E+00  0.71724292198E+01  0.51100000000E-03 0. -1.
        -11    1    3    3    0    0  0.59686324942E+01 -0.32163468852E+01 -0.17722400099E+02  0.18975060650E+02  0.51100000000E-03 0.  1.
         12    1    3    3    0    0 -0.23598840272E+01  0.13901129866E+02 -0.19890716835E+02  0.24381367484E+02  0.00000000000E+00 0. -1.
</event>
<event>
 7    1  0.4374874E-012  0.5052883E+02  0.7816164E-02  0.1300439E+00
        -11   -1    0    0    0    0  0.00000000000E+00  0.00000000000E+00  0.45593999997E+02  0.45594000000E+02  0.51100000000E-03 0. -1.
         11   -1    0    0    0    0 -0.00000000000E+00 -0.00000000000E+00 -0.45593999997E+02  0.45594000000E+02  0.51100000000E-03 0.  1.
    9900012    2    1    2    0    0  0.17574721577E+02 -0.34857756079E+02 -0.11368125564E+02  0.50528827896E+02  0.29999902873E+02 0.  0.
         12    1    1    2    0    0 -0.17574721577E+02  0.34857756079E+02  0.11368125564E+02  0.40659172104E+02  0.00000000000E+00 0. -1.
         11    1    3    3    0    0  0.59479214626E+01 -0.23653961920E+01 -0.14330700392E+01  0.65594633065E+01  0.51100000000E-03 0. -1.
        -11    1    3    3    0    0  0.13223829822E+02 -0.49491177477E+01 -0.81939939943E+01  0.16324980229E+02  0.51100000000E-03 0.  1.
        -12    1    3    3    0    0 -0.15970297079E+01 -0.27543242139E+02 -0.17410615305E+01  0.27644384360E+02  0.00000000000E+00 0.  1.
</event>
<event>
 7    1  0.4374874E-012  0.5052886E+02  0.7816164E-02  0.1300439E+00
        -11   -1    0    0    0    0  0.00000000000E+00  0.00000000000E+00  0.45593999997E+02  0.45594000000E+02  0.51100000000E-03 0. -1.
         11   -1    0    0    0    0 -0.00000000000E+00 -0.00000000000E+00 -0.45593999997E+02  0.45594000000E+02  0.51100000000E-03 0.  1.
    9900012    2    1    2    0    0  0.60121382636E+01 -0.36868890991E+02 -0.16053177648E+02  0.50528862749E+02  0.30000008810E+02 0.  0.
         12    1    1    2    0    0 -0.60121382636E+01  0.36868890991E+02  0.16053177648E+02  0.40659137251E+02  0.00000000000E+00 0. -1.
         11    1    3    3    0    0  0.89506704612E+01 -0.11522376064E+02 -0.74403401490E+01  0.16377982588E+02  0.51100000000E-03 0. -1.
        -11    1    3    3    0    0 -0.30701233535E+01 -0.71747945369E+01 -0.13267048300E+02  0.15392137762E+02  0.51100000000E-03 0.  1.
        -12    1    3    3    0    0  0.13159115598E+00 -0.18171720391E+02  0.46542108002E+01  0.18758742398E+02  0.00000000000E+00 0.  1.
</event>
<event>
 7    1  0.4374874E-012  0.5052885E+02  0.7816164E-02  0.1300439E+00
        -11   -1    0    0    0    0  0.00000000000E+00  0.00000000000E+00  0.45593999997E+02  0.45594000000E+02  0.51100000000E-03 0. -1.
         11   -1    0    0    0    0 -0.00000000000E+00 -0.00000000000E+00 -0.45593999997E+02  0.45594000000E+02  0.51100000000E-03 0.  1.
    9900012    2    1    2    0    0 -0.14803260072E+02 -0.32667285217E+02 -0.19154077392E+02  0.50528847120E+02  0.29999961305E+02 0.  0.
         12    1    1    2    0    0  0.14803260072E+02  0.32667285217E+02  0.19154077392E+02  0.40659152880E+02  0.00000000000E+00 0. -1.
         11    1    3    3    0    0 -0.21854793606E+01 -0.42228889296E+01 -0.10406495021E+02  0.11441339512E+02  0.51100000000E-03 0.  1.
        -11    1    3    3    0    0 -0.95241506607E+01 -0.13462923673E+02 -0.15253518407E+02  0.22463961888E+02  0.51100000000E-03 0. -1.
         12    1    3    3    0    0 -0.30936300510E+01 -0.14981472614E+02  0.65059360363E+01  0.16623545719E+02  0.00000000000E+00 0. -1.
</event>
<event>
 7    1  0.4374874E-012  0.5052884E+02  0.7816164E-02  0.1300439E+00
        -11   -1    0    0    0    0  0.00000000000E+00  0.00000000000E+00  0.45593999997E+02  0.45594000000E+02  0.51100000000E-03 0.  1.
         11   -1    0    0    0    0 -0.00000000000E+00 -0.00000000000E+00 -0.45593999997E+02  0.45594000000E+02  0.51100000000E-03 0. -1.
    9900012    2    1    2    0    0 -0.34709639483E+02  0.11228279917E+02 -0.17953651200E+02  0.50528844397E+02  0.29999953029E+02 0.  0.
         12    1    1    2    0    0  0.34709639483E+02 -0.11228279917E+02  0.17953651200E+02  0.40659155603E+02  0.00000000000E+00 0. -1.
         11    1    3    3    0    0 -0.57458234813E+00 -0.52330461315E+01  0.32139568252E+01  0.61680171388E+01  0.51100000000E-03 0. -1.
        -11    1    3    3    0    0 -0.23096672958E+01  0.43233692405E+01 -0.21809072876E+01  0.53649269767E+01  0.51100000000E-03 0.  1.
        -12    1    3    3    0    0 -0.31825389839E+02  0.12137956808E+02 -0.18986700737E+02  0.38995900282E+02  0.00000000000E+00 0.  1.
</event>
<event>
 7    1  0.4374874E-012  0.5052885E+02  0.7816164E-02  0.1300439E+00
        -11   -1    0    0    0    0  0.00000000000E+00  0.00000000000E+00  0.45593999997E+02  0.45594000000E+02  0.51100000000E-03 0. -1.
         11   -1    0    0    0    0 -0.00000000000E+00 -0.00000000000E+00 -0.45593999997E+02  0.45594000000E+02  0.51100000000E-03 0.  1.
    9900012    2    1    2    0    0 -0.16293417655E+02 -0.21806862291E+02  0.30201851827E+02  0.50528849054E+02  0.29999967185E+02 0.  0.
        -12    1    1    2    0    0  0.16293417655E+02  0.21806862291E+02 -0.30201851827E+02  0.40659150946E+02  0.00000000000E+00 0.  1.
         11    1    3    3    0    0 -0.77690011613E+01  0.45505931917E+01  0.43618685278E+01  0.10004557699E+02  0.51100000000E-03 0. -1.
        -11    1    3    3    0    0  0.20557039697E+01 -0.27500698023E+01  0.90605594586E+01  0.96893003201E+01  0.51100000000E-03 0.  1.
         12    1    3    3    0    0 -0.10580120463E+02 -0.23607385681E+02  0.16779423841E+02  0.30834991035E+02  0.00000000000E+00 0. -1.
</event>
<event>
 7    1  0.4374874E-012  0.5052886E+02  0.7816164E-02  0.1300439E+00
        -11   -1    0    0    0    0  0.00000000000E+00  0.00000000000E+00  0.45593999997E+02  0.45594000000E+02  0.51100000000E-03 0. -1.
         11   -1    0    0    0    0 -0.00000000000E+00 -0.00000000000E+00 -0.45593999997E+02  0.45594000000E+02  0.51100000000E-03 0.  1.
    9900012    2    1    2    0    0 -0.43612934683E+01  0.29512357000E+02  0.27625444254E+02  0.50528864905E+02  0.30000015366E+02 0.  0.
        -12    1    1    2    0    0  0.43612934683E+01 -0.29512357000E+02 -0.27625444254E+02  0.40659135095E+02  0.00000000000E+00 0.  1.
         11    1    3    3    0    0  0.65553718950E+01  0.12280363159E+02  0.57194462448E+01  0.15049660648E+02  0.51100000000E-03 0. -1.
        -11    1    3    3    0    0 -0.75374330843E+01  0.10359999273E+02  0.58555990244E+00  0.12825184720E+02  0.51100000000E-03 0.  1.
         12    1    3    3    0    0 -0.33792322790E+01  0.68719945681E+01  0.21320438107E+02  0.22654019538E+02  0.00000000000E+00 0. -1.
</event>
<event>
 7    1  0.4374874E-012  0.5052886E+02  0.7816164E-02  0.1300439E+00
        -11   -1    0    0    0    0  0.00000000000E+00  0.00000000000E+00  0.45593999997E+02  0.45594000000E+02  0.51100000000E-03 0. -1.
         11   -1    0    0    0    0 -0.00000000000E+00 -0.00000000000E+00 -0.45593999997E+02  0.45594000000E+02  0.51100000000E-03 0.  1.
    9900012    2    1    2    0    0  0.39847790401E+02 -0.66035049750E+01  0.46597383903E+01  0.50528857858E+02  0.29999993946E+02 0.  0.
        -12    1    1    2    0    0 -0.39847790401E+02  0.66035049750E+01 -0.46597383903E+01  0.40659142142E+02  0.00000000000E+00 0.  1.
         11    1    3    3    0    0  0.21548787088E+02  0.63444708389E+01  0.40218728730E+01  0.22820560836E+02  0.51100000000E-03 0. -1.
        -11    1    3    3    0    0 -0.26081327358E+01  0.50550364096E+00  0.10143791446E+01  0.28437397224E+01  0.51100000000E-03 0.  1.
        -12    1    3    3    0    0  0.20907136049E+02 -0.13453479455E+02 -0.37651362736E+00  0.24864557300E+02  0.00000000000E+00 0.  1.
</event>
<event>
 7    1  0.4374874E-012  0.5052886E+02  0.7816164E-02  0.1300439E+00
        -11   -1    0    0    0    0  0.00000000000E+00  0.00000000000E+00  0.45593999997E+02  0.45594000000E+02  0.51100000000E-03 0. -1.
         11   -1    0    0    0    0 -0.00000000000E+00 -0.00000000000E+00 -0.45593999997E+02  0.45594000000E+02  0.51100000000E-03 0.  1.
    9900012    2    1    2    0    0 -0.12755287232E+02  0.30923751280E+02  0.23112543032E+02  0.50528863376E+02  0.30000010718E+02 0.  0.
        -12    1    1    2    0    0  0.12755287232E+02 -0.30923751280E+02 -0.23112543032E+02  0.40659136624E+02  0.00000000000E+00 0.  1.
         11    1    3    3    0    0  0.91720083463E+00  0.39664373771E+01  0.15905622629E+01  0.43707861319E+01  0.51100000000E-03 0. -1.
        -11    1    3    3    0    0  0.66795636276E+01  0.92997595240E+01  0.14191124861E+02  0.18234311682E+02  0.51100000000E-03 0.  1.
         12    1    3    3    0    0 -0.20352051694E+02  0.17657554379E+02  0.73308559088E+01  0.27923765562E+02  0.00000000000E+00 0. -1.
</event>
<event>
 7    1  0.4374874E-012  0.5052886E+02  0.7816164E-02  0.1300439E+00
        -11   -1    0    0    0    0  0.00000000000E+00  0.00000000000E+00  0.45593999997E+02  0.45594000000E+02  0.51100000000E-03 0. -1.
         11   -1    0    0    0    0 -0.00000000000E+00 -0.00000000000E+00 -0.45593999997E+02  0.45594000000E+02  0.51100000000E-03 0.  1.
    9900012    2    1    2    0    0 -0.27179087188E+02 -0.21037606562E+02 -0.21722846159E+02  0.50528859386E+02  0.29999998588E+02 0.  0.
         12    1    1    2    0    0  0.27179087188E+02  0.21037606562E+02  0.21722846159E+02  0.40659140614E+02  0.00000000000E+00 0. -1.
         11    1    3    3    0    0  0.58966273830E+00  0.27108061448E+01 -0.26713424403E+01  0.38512650901E+01  0.51100000000E-03 0. -1.
        -11    1    3    3    0    0 -0.15441759341E+02 -0.62159264658E+01 -0.18979831374E+02  0.25245191079E+02  0.51100000000E-03 0.  1.
        -12    1    3    3    0    0 -0.12326990585E+02 -0.17532486241E+02 -0.71672344465E-01  0.21432403216E+02  0.00000000000E+00 0.  1.
</event>
<event>
 7    1  0.4374874E-012  0.5052886E+02  0.7816164E-02  0.1300439E+00
        -11   -1    0    0    0    0  0.00000000000E+00  0.00000000000E+00  0.45593999997E+02  0.45594000000E+02  0.51100000000E-03 0. -1.
         11   -1    0    0    0    0 -0.00000000000E+00 -0.00000000000E+00 -0.45593999997E+02  0.45594000000E+02  0.51100000000E-03 0.  1.
    9900012    2    1    2    0    0  0.11305575968E+02  0.25910844281E+02  0.29222893125E+02  0.50528863488E+02  0.30000011057E+02 0.  0.
        -12    1    1    2    0    0 -0.11305575968E+02 -0.25910844281E+02 -0.29222893125E+02  0.40659136512E+02  0.00000000000E+00 0.  1.
         11    1    3    3    0    0  0.15809877775E+02  0.13306001046E+02  0.24548493525E+02  0.32087854925E+02  0.51100000000E-03 0. -1.
        -11    1    3    3    0    0 -0.65404483980E-01 -0.22846819667E+01  0.34105678349E+00  0.23109239335E+01  0.51100000000E-03 0.  1.
         12    1    3    3    0    0 -0.44388973239E+01  0.14889525201E+02  0.43333428175E+01  0.16130084629E+02  0.00000000000E+00 0. -1.
</event>
<event>
 7    1  0.4374874E-012  0.5052887E+02  0.7816164E-02  0.1300439E+00
        -11   -1    0    0    0    0  0.00000000000E+00  0.00000000000E+00  0.45593999997E+02  0.45594000000E+02  0.51100000000E-03 0. -1.
         11   -1    0    0    0    0 -0.00000000000E+00 -0.00000000000E+00 -0.45593999997E+02  0.45594000000E+02  0.51100000000E-03 0.  1.
    9900012    2    1    2    0    0  0.11356342642E+02  0.22200919513E+01  0.38977806920E+02  0.50528871151E+02  0.30000034350E+02 0.  0.
        -12    1    1    2    0    0 -0.11356342642E+02 -0.22200919513E+01 -0.38977806920E+02  0.40659128849E+02  0.00000000000E+00 0.  1.
         11    1    3    3    0    0  0.78123823935E+01 -0.61759866603E+01  0.28996457805E+02  0.30658941524E+02  0.51100000000E-03 0. -1.
        -11    1    3    3    0    0  0.12654083349E+01 -0.39090642158E+01  0.43820192647E+00  0.41320772605E+01  0.51100000000E-03 0.  1.
         12    1    3    3    0    0  0.22785519135E+01  0.12305142827E+02  0.95431471889E+01  0.15737852366E+02  0.00000000000E+00 0. -1.
</event>
<event>
 7    1  0.4374874E-012  0.5052888E+02  0.7816164E-02  0.1300439E+00
        -11   -1    0    0    0    0  0.00000000000E+00  0.00000000000E+00  0.45593999997E+02  0.45594000000E+02  0.51100000000E-03 0. -1.
         11   -1    0    0    0    0 -0.00000000000E+00 -0.00000000000E+00 -0.45593999997E+02  0.45594000000E+02  0.51100000000E-03 0.  1.
    9900012    2    1    2    0    0 -0.11884815371E+02 -0.30961033342E+02  0.23522956710E+02  0.50528881535E+02  0.30000065913E+02 0.  0.
        -12    1    1    2    0    0  0.11884815371E+02  0.30961033342E+02 -0.23522956710E+02  0.40659118465E+02  0.00000000000E+00 0.  1.
         11    1    3    3    0    0 -0.11261601656E+02 -0.17817414218E+02  0.21251317184E+02  0.29931628816E+02  0.51100000000E-03 0. -1.
        -11    1    3    3    0    0 -0.64783445888E-01  0.74568073848E+00  0.61265533860E+01  0.61721060677E+01  0.51100000000E-03 0.  1.
        -12    1    3    3    0    0 -0.55843026994E+00 -0.13889299862E+02 -0.38549138603E+01  0.14425146651E+02  0.00000000000E+00 0.  1.
</event>
<event>
 7    1  0.4374874E-012  0.5052885E+02  0.7816164E-02  0.1300439E+00
        -11   -1    0    0    0    0  0.00000000000E+00  0.00000000000E+00  0.45593999997E+02  0.45594000000E+02  0.51100000000E-03 0.  1.
         11   -1    0    0    0    0 -0.00000000000E+00 -0.00000000000E+00 -0.45593999997E+02  0.45594000000E+02  0.51100000000E-03 0. -1.
    9900012    2    1    2    0    0 -0.40344876686E+02  0.35410701660E+00  0.50330912730E+01  0.50528850054E+02  0.29999970225E+02 0.  0.
         12    1    1    2    0    0  0.40344876686E+02 -0.35410701660E+00 -0.50330912730E+01  0.40659149946E+02  0.00000000000E+00 0. -1.
         11    1    3    3    0    0 -0.94038482703E+00  0.42050092974E+01  0.13655707932E+01  0.45200896746E+01  0.51100000000E-03 0. -1.
        -11    1    3    3    0    0 -0.84873555936E+01  0.77459214914E+01 -0.38958514787E+01  0.12133101983E+02  0.51100000000E-03 0.  1.
         12    1    3    3    0    0 -0.30917136265E+02 -0.11596823772E+02  0.75633719585E+01  0.33875658397E+02  0.00000000000E+00 0. -1.
</event>
<event>
 7    1  0.4374874E-012  0.5052886E+02  0.7816164E-02  0.1300439E+00
        -11   -1    0    0    0    0  0.00000000000E+00  0.00000000000E+00  0.45593999997E+02  0.45594000000E+02  0.51100000000E-03 0. -1.
         11   -1    0    0    0    0 -0.00000000000E+00 -0.00000000000E+00 -0.45593999997E+02  0.45594000000E+02  0.51100000000E-03 0.  1.
    9900012    2    1    2    0    0 -0.24061824602E+02  0.77479546060E+01  0.31845937619E+02  0.50528856544E+02  0.29999989951E+02 0.  0.
        -12    1    1    2    0    0  0.24061824602E+02 -0.77479546060E+01 -0.31845937619E+02  0.40659143456E+02  0.00000000000E+00 0.  1.
         11    1    3    3    0    0 -0.59039815838E+01 -0.16229595551E+01  0.34872830631E+01  0.70464274411E+01  0.51100000000E-03 0. -1.
        -11    1    3    3    0    0  0.51122223884E+01 -0.35842212172E+01  0.66601419938E+01  0.91290169854E+01  0.51100000000E-03 0.  1.
        -12    1    3    3    0    0 -0.23270065407E+02  0.12955135378E+02  0.21698512562E+02  0.34353412117E+02  0.00000000000E+00 0.  1.
</event>
<event>
 7    1  0.4374874E-012  0.5052888E+02  0.7816164E-02  0.1300439E+00
        -11   -1    0    0    0    0  0.00000000000E+00  0.00000000000E+00  0.45593999997E+02  0.45594000000E+02  0.51100000000E-03 0. -1.
         11   -1    0    0    0    0 -0.00000000000E+00 -0.00000000000E+00 -0.45593999997E+02  0.45594000000E+02  0.51100000000E-03 0.  1.
    9900012    2    1    2    0    0 -0.39045773148E+02 -0.12124573715E+01  0.11274817760E+02  0.50528880861E+02  0.30000063866E+02 0.  0.
        -12    1    1    2    0    0  0.39045773148E+02  0.12124573715E+01 -0.11274817760E+02  0.40659119139E+02  0.00000000000E+00 0.  1.
         11    1    3    3    0    0 -0.14324724816E+02  0.61886204000E+01  0.90729643285E+00  0.15630737365E+02  0.51100000000E-03 0. -1.
        -11    1    3    3    0    0 -0.43016431580E+01 -0.48002296886E+01 -0.58408444861E+01  0.86983793602E+01  0.51100000000E-03 0.  1.
         12    1    3    3    0    0 -0.20419405174E+02 -0.26008480828E+01  0.16208365814E+02  0.26199764136E+02  0.00000000000E+00 0. -1.
</event>
<event>
 7    1  0.4374874E-012  0.5052886E+02  0.7816164E-02  0.1300439E+00
        -11   -1    0    0    0    0  0.00000000000E+00  0.00000000000E+00  0.45593999997E+02  0.45594000000E+02  0.51100000000E-03 0. -1.
         11   -1    0    0    0    0 -0.00000000000E+00 -0.00000000000E+00 -0.45593999997E+02  0.45594000000E+02  0.51100000000E-03 0.  1.
    9900012    2    1    2    0    0  0.34578838149E+02 -0.21130301307E+02  0.33135656852E+01  0.50528863283E+02  0.30000010434E+02 0.  0.
        -12    1    1    2    0    0 -0.34578838149E+02  0.21130301307E+02 -0.33135656852E+01  0.40659136717E+02  0.00000000000E+00 0.  1.
         11    1    3    3    0    0  0.16398420674E+01 -0.67562604423E+01 -0.43008054798E+01  0.81751492467E+01  0.51100000000E-03 0. -1.
        -11    1    3    3    0    0  0.93655793729E+01  0.34248050222E+01 -0.38211731668E+01  0.10679172770E+02  0.51100000000E-03 0.  1.
         12    1    3    3    0    0  0.23573416708E+02 -0.17798845887E+02  0.11435544332E+02  0.31674541266E+02  0.00000000000E+00 0. -1.
</event>
<event>
 7    1  0.4374874E-012  0.5052886E+02  0.7816164E-02  0.1300439E+00
        -11   -1    0    0    0    0  0.00000000000E+00  0.00000000000E+00  0.45593999997E+02  0.45594000000E+02  0.51100000000E-03 0. -1.
         11   -1    0    0    0    0 -0.00000000000E+00 -0.00000000000E+00 -0.45593999997E+02  0.45594000000E+02  0.51100000000E-03 0.  1.
    9900012    2    1    2    0    0 -0.11309706842E+02  0.23160409962E+02  0.31446010688E+02  0.50528860232E+02  0.30000001161E+02 0.  0.
        -12    1    1    2    0    0  0.11309706842E+02 -0.23160409962E+02 -0.31446010688E+02  0.40659139768E+02  0.00000000000E+00 0.  1.
         11    1    3    3    0    0 -0.11722100102E+02  0.11387576355E+01  0.12610516797E+02  0.17254840883E+02  0.51100000000E-03 0. -1.
        -11    1    3    3    0    0  0.55931309351E+00  0.17894522705E+01 -0.29797912320E+01  0.35205293085E+01  0.51100000000E-03 0.  1.
        -12    1    3    3    0    0 -0.14691983368E+00  0.20232200056E+02  0.21815285124E+02  0.29753490040E+02  0.00000000000E+00 0.  1.
</event>
<event>
 7    1  0.4374874E-012  0.5052888E+02  0.7816164E-02  0.1300439E+00
        -11   -1    0    0    0    0  0.00000000000E+00  0.00000000000E+00  0.45593999997E+02  0.45594000000E+02  0.51100000000E-03 0. -1.
         11   -1    0    0    0    0 -0.00000000000E+00 -0.00000000000E+00 -0.45593999997E+02  0.45594000000E+02  0.51100000000E-03 0.  1.
    9900012    2    1    2    0    0 -0.26876485139E+02 -0.12498151421E+02  0.27831899442E+02  0.50528882093E+02  0.30000067611E+02 0.  0.
        -12    1    1    2    0    0  0.26876485139E+02  0.12498151421E+02 -0.27831899442E+02  0.40659117907E+02  0.00000000000E+00 0.  1.
         11    1    3    3    0    0 -0.17633397300E+02  0.23569645899E+01  0.14272476780E+02  0.22807796388E+02  0.51100000000E-03 0.  1.
        -11    1    3    3    0    0  0.16476808972E+00 -0.46412096820E+01 -0.34337627020E+01  0.57756992988E+01  0.51100000000E-03 0. -1.
         12    1    3    3    0    0 -0.94078559291E+01 -0.10213906329E+02  0.16993185364E+02  0.21945386406E+02  0.00000000000E+00 0. -1.
</event>
<event>
 7    1  0.4374874E-012  0.5052887E+02  0.7816164E-02  0.1300439E+00
        -11   -1    0    0    0    0  0.00000000000E+00  0.00000000000E+00  0.45593999997E+02  0.45594000000E+02  0.51100000000E-03 0. -1.
         11   -1    0    0    0    0 -0.00000000000E+00 -0.00000000000E+00 -0.45593999997E+02  0.45594000000E+02  0.51100000000E-03 0.  1.
    9900012    2    1    2    0    0 -0.70140585877E+00  0.29068461511E+01  0.40549026262E+02  0.50528865042E+02  0.30000015782E+02 0.  0.
        -12    1    1    2    0    0  0.70140585877E+00 -0.29068461511E+01 -0.40549026262E+02  0.40659134958E+02  0.00000000000E+00 0.  1.
         11    1    3    3    0    0  0.12266594683E+02 -0.62084176863E+01  0.17829339759E+02  0.22514420974E+02  0.51100000000E-03 0. -1.
        -11    1    3    3    0    0 -0.53555284714E+01  0.58011595888E+01  0.89441342111E+01  0.11930325848E+02  0.51100000000E-03 0.  1.
        -12    1    3    3    0    0 -0.76124720704E+01  0.33141042486E+01  0.13775552292E+02  0.16084118221E+02  0.00000000000E+00 0.  1.
</event>
<event>
 7    1  0.4374874E-012  0.5052886E+02  0.7816164E-02  0.1300439E+00
        -11   -1    0    0    0    0  0.00000000000E+00  0.00000000000E+00  0.45593999997E+02  0.45594000000E+02  0.51100000000E-03 0. -1.
         11   -1    0    0    0    0 -0.00000000000E+00 -0.00000000000E+00 -0.45593999997E+02  0.45594000000E+02  0.51100000000E-03 0.  1.
    9900012    2    1    2    0    0  0.19014938008E+02  0.27563354489E+02  0.23062078727E+02  0.50528857690E+02  0.29999993435E+02 0.  0.
        -12    1    1    2    0    0 -0.19014938008E+02 -0.27563354489E+02 -0.23062078727E+02  0.40659142310E+02  0.00000000000E+00 0.  1.
         11    1    3    3    0    0 -0.52576130470E+01  0.94654028457E+01  0.14039259637E+02  0.17729556041E+02  0.51100000000E-03 0. -1.
        -11    1    3    3    0    0  0.15977618806E+01  0.38515283928E+01 -0.85536027708E+00  0.42566131434E+01  0.51100000000E-03 0.  1.
        -12    1    3    3    0    0  0.22674789175E+02  0.14246423250E+02  0.98781793674E+01  0.28542688506E+02  0.00000000000E+00 0.  1.
</event>
<event>
 7    1  0.4374874E-012  0.5052886E+02  0.7816164E-02  0.1300439E+00
        -11   -1    0    0    0    0  0.00000000000E+00  0.00000000000E+00  0.45593999997E+02  0.45594000000E+02  0.51100000000E-03 0.  1.
         11   -1    0    0    0    0 -0.00000000000E+00 -0.00000000000E+00 -0.45593999997E+02  0.45594000000E+02  0.51100000000E-03 0. -1.
    9900012    2    1    2    0    0  0.30321279563E+02  0.13839644598E+02  0.23286262622E+02  0.50528858545E+02  0.29999996033E+02 0.  0.
         12    1    1    2    0    0 -0.30321279563E+02 -0.13839644598E+02 -0.23286262622E+02  0.40659141455E+02  0.00000000000E+00 0. -1.
         11    1    3    3    0    0  0.84895113365E+01  0.79716497262E+01 -0.19485082115E+01  0.11807442001E+02  0.51100000000E-03 0. -1.
        -11    1    3    3    0    0  0.20600129522E+02  0.54476271836E+01  0.10188192486E+02  0.23618663058E+02  0.51100000000E-03 0.  1.
        -12    1    3    3    0    0  0.12316387045E+01  0.42036768815E+00  0.15046578348E+02  0.15102753486E+02  0.00000000000E+00 0.  1.
</event>
<event>
 7    1  0.4374874E-012  0.5052891E+02  0.7816164E-02  0.1300439E+00
        -11   -1    0    0    0    0  0.00000000000E+00  0.00000000000E+00  0.45593999997E+02  0.45594000000E+02  0.51100000000E-03 0. -1.
         11   -1    0    0    0    0 -0.00000000000E+00 -0.00000000000E+00 -0.45593999997E+02  0.45594000000E+02  0.51100000000E-03 0.  1.
    9900012    2    1    2    0    0 -0.25405553226E+02 -0.12033119832E+02  0.29375563088E+02  0.50528907360E+02  0.30000144410E+02 0.  0.
        -12    1    1    2    0    0  0.25405553226E+02  0.12033119832E+02 -0.29375563088E+02  0.40659092640E+02  0.00000000000E+00 0.  1.
         11    1    3    3    0    0 -0.60439503092E+01  0.40106178503E+01  0.13717359608E+02  0.15517098496E+02  0.51100000000E-03 0. -1.
        -11    1    3    3    0    0 -0.52095912802E-01  0.17414658417E+01 -0.25320127768E+01  0.30735169147E+01  0.51100000000E-03 0.  1.
        -12    1    3    3    0    0 -0.19309507004E+02 -0.17785203524E+02  0.18190216257E+02  0.31938291949E+02  0.00000000000E+00 0.  1.
</event>
<event>
 7    1  0.4374874E-012  0.5052887E+02  0.7816164E-02  0.1300439E+00
        -11   -1    0    0    0    0  0.00000000000E+00  0.00000000000E+00  0.45593999997E+02  0.45594000000E+02  0.51100000000E-03 0. -1.
         11   -1    0    0    0    0 -0.00000000000E+00 -0.00000000000E+00 -0.45593999997E+02  0.45594000000E+02  0.51100000000E-03 0.  1.
    9900012    2    1    2    0    0 -0.65292148094E+01 -0.31171773630E+01 -0.40010217545E+02  0.50528868815E+02  0.30000027249E+02 0.  0.
         12    1    1    2    0    0  0.65292148094E+01  0.31171773630E+01  0.40010217545E+02  0.40659131185E+02  0.00000000000E+00 0. -1.
         11    1    3    3    0    0 -0.58107121687E+00 -0.73333749962E+01 -0.67139631464E+01  0.99595850308E+01  0.51100000000E-03 0. -1.
        -11    1    3    3    0    0  0.51712741844E+01 -0.60577817113E+01 -0.13052265257E+02  0.15290533822E+02  0.51100000000E-03 0.  1.
        -12    1    3    3    0    0 -0.11119417777E+02  0.10273979345E+02 -0.20243989142E+02  0.25278749962E+02  0.00000000000E+00 0.  1.
</event>
<event>
 7    1  0.4374874E-012  0.5052885E+02  0.7816164E-02  0.1300439E+00
        -11   -1    0    0    0    0  0.00000000000E+00  0.00000000000E+00  0.45593999997E+02  0.45594000000E+02  0.51100000000E-03 0. -1.
         11   -1    0    0    0    0 -0.00000000000E+00 -0.00000000000E+00 -0.45593999997E+02  0.45594000000E+02  0.51100000000E-03 0.  1.
    9900012    2    1    2    0    0  0.20978687851E+02  0.17113461265E+02  0.30334637204E+02  0.50528854476E+02  0.29999983666E+02 0.  0.
        -12    1    1    2    0    0 -0.20978687851E+02 -0.17113461265E+02 -0.30334637204E+02  0.40659145524E+02  0.00000000000E+00 0.  1.
         11    1    3    3    0    0  0.15560290133E+02  0.99201440598E+01  0.31087364739E+02  0.36151848278E+02  0.51100000000E-03 0. -1.
        -11    1    3    3    0    0  0.81666537790E+01  0.19589800693E+01  0.13113366995E+00  0.83993471865E+01  0.51100000000E-03 0.  1.
        -12    1    3    3    0    0 -0.27482560611E+01  0.52343371361E+01 -0.88386120553E+00  0.59776590118E+01  0.00000000000E+00 0.  1.
</event>
<event>
 7    1  0.4374874E-012  0.5052886E+02  0.7816164E-02  0.1300439E+00
        -11   -1    0    0    0    0  0.00000000000E+00  0.00000000000E+00  0.45593999997E+02  0.45594000000E+02  0.51100000000E-03 0. -1.
         11   -1    0    0    0    0 -0.00000000000E+00 -0.00000000000E+00 -0.45593999997E+02  0.45594000000E+02  0.51100000000E-03 0.  1.
    9900012    2    1    2    0    0 -0.43554929245E+01 -0.17646983393E+02 -0.36370036464E+02  0.50528857193E+02  0.29999991922E+02 0.  0.
         12    1    1    2    0    0  0.43554929245E+01  0.17646983393E+02  0.36370036464E+02  0.40659142807E+02  0.00000000000E+00 0. -1.
         11    1    3    3    0    0 -0.57894265121E+01  0.45560907830E+01 -0.20851016558E+02  0.22114255907E+02  0.51100000000E-03 0. -1.
        -11    1    3    3    0    0  0.25276279481E+01 -0.73376194359E+01 -0.96780005522E+01  0.12405372102E+02  0.51100000000E-03 0.  1.
        -12    1    3    3    0    0 -0.10936943605E+01 -0.14865454740E+02 -0.58410193533E+01  0.16009229184E+02  0.00000000000E+00 0.  1.
</event>
<event>
 7    1  0.4374874E-012  0.5052892E+02  0.7816164E-02  0.1300439E+00
        -11   -1    0    0    0    0  0.00000000000E+00  0.00000000000E+00  0.45593999997E+02  0.45594000000E+02  0.51100000000E-03 0.  1.
         11   -1    0    0    0    0 -0.00000000000E+00 -0.00000000000E+00 -0.45593999997E+02  0.45594000000E+02  0.51100000000E-03 0. -1.
    9900012    2    1    2    0    0 -0.38813720315E+02 -0.10206882113E+01 -0.12067072726E+02  0.50528918194E+02  0.30000177342E+02 0.  0.
         12    1    1    2    0    0  0.38813720315E+02  0.10206882113E+01  0.12067072726E+02  0.40659081806E+02  0.00000000000E+00 0. -1.
         11    1    3    3    0    0  0.31422127212E+01 -0.26341568551E+01  0.28927504843E+01  0.50179964875E+01  0.51100000000E-03 0. -1.
        -11    1    3    3    0    0 -0.22341615860E+02  0.15983323802E+01 -0.12747829540E+02  0.25772264624E+02  0.51100000000E-03 0.  1.
        -12    1    3    3    0    0 -0.19614317176E+02  0.15136263633E-01 -0.22119936709E+01  0.19738657082E+02  0.00000000000E+00 0.  1.
</event>
<event>
 7    1  0.4374874E-012  0.5052886E+02  0.7816164E-02  0.1300439E+00
        -11   -1    0    0    0    0  0.00000000000E+00  0.00000000000E+00  0.45593999997E+02  0.45594000000E+02  0.51100000000E-03 0. -1.
         11   -1    0    0    0    0 -0.00000000000E+00 -0.00000000000E+00 -0.45593999997E+02  0.45594000000E+02  0.51100000000E-03 0.  1.
    9900012    2    1    2    0    0  0.45883799575E+01 -0.11583336006E+02 -0.38703215104E+02  0.50528858801E+02  0.29999996811E+02 0.  0.
         12    1    1    2    0    0 -0.45883799575E+01  0.11583336006E+02  0.38703215104E+02  0.40659141199E+02  0.00000000000E+00 0. -1.
         11    1    3    3    0    0  0.37052071594E+01  0.63998706567E+01 -0.36450208496E+01  0.82445789324E+01  0.51100000000E-03 0. -1.
        -11    1    3    3    0    0  0.19755814224E+01  0.35872282852E+00 -0.14795404675E+02  0.14931028222E+02  0.51100000000E-03 0.  1.
        -12    1    3    3    0    0 -0.10924086243E+01 -0.18341929491E+02 -0.20262789580E+02  0.27353251646E+02  0.00000000000E+00 0.  1.
</event>
<event>
 7    1  0.4374874E-012  0.5052888E+02  0.7816164E-02  0.1300439E+00
        -11   -1    0    0    0    0  0.00000000000E+00  0.00000000000E+00  0.45593999997E+02  0.45594000000E+02  0.51100000000E-03 0. -1.
         11   -1    0    0    0    0 -0.00000000000E+00 -0.00000000000E+00 -0.45593999997E+02  0.45594000000E+02  0.51100000000E-03 0.  1.
    9900012    2    1    2    0    0 -0.13789175028E+02 -0.15341675973E+01  0.38218704543E+02  0.50528875623E+02  0.30000047944E+02 0.  0.
        -12    1    1    2    0    0  0.13789175028E+02  0.15341675973E+01 -0.38218704543E+02  0.40659124377E+02  0.00000000000E+00 0.  1.
         11    1    3    3    0    0 -0.17743073260E+01 -0.90431638759E+01  0.11165801007E+02  0.14477641098E+02  0.51100000000E-03 0. -1.
        -11    1    3    3    0    0 -0.14575003788E+02 -0.18909221612E+00  0.22322815966E+02  0.26660356415E+02  0.51100000000E-03 0.  1.
         12    1    3    3    0    0  0.25601360860E+01  0.76980884947E+01  0.47300875697E+01  0.93908781096E+01  0.00000000000E+00 0. -1.
</event>
<event>
 7    1  0.4374874E-012  0.5052886E+02  0.7816164E-02  0.1300439E+00
        -11   -1    0    0    0    0  0.00000000000E+00  0.00000000000E+00  0.45593999997E+02  0.45594000000E+02  0.51100000000E-03 0.  1.
         11   -1    0    0    0    0 -0.00000000000E+00 -0.00000000000E+00 -0.45593999997E+02  0.45594000000E+02  0.51100000000E-03 0. -1.
    9900012    2    1    2    0    0 -0.33134425544E+02  0.21696573511E+02  0.91942651933E+01  0.50528856248E+02  0.29999989050E+02 0.  0.
        -12    1    1    2    0    0  0.33134425544E+02 -0.21696573511E+02 -0.91942651933E+01  0.40659143752E+02  0.00000000000E+00 0.  1.
         11    1    3    3    0    0  0.33523036481E+01  0.30282009445E+01  0.40340723016E+01  0.60565402917E+01  0.51100000000E-03 0. -1.
        -11    1    3    3    0    0 -0.11737950279E+02  0.35571420256E+00  0.69274863347E+01  0.13634371146E+02  0.51100000000E-03 0.  1.
         12    1    3    3    0    0 -0.24748778912E+02  0.18312658364E+02 -0.17672934430E+01  0.30837944810E+02  0.00000000000E+00 0. -1.
</event>
<event>
 7    1  0.4374874E-012  0.5052886E+02  0.7816164E-02  0.1300439E+00
        -11   -1    0    0    0    0  0.00000000000E+00  0.00000000000E+00  0.45593999997E+02  0.45594000000E+02  0.51100000000E-03 0. -1.
         11   -1    0    0    0    0 -0.00000000000E+00 -0.00000000000E+00 -0.45593999997E+02  0.45594000000E+02  0.51100000000E-03 0.  1.
    9900012    2    1    2    0    0 -0.16272077914E+02  0.20105765904E+02  0.31371058775E+02  0.50528859934E+02  0.30000000255E+02 0.  0.
        -12    1    1    2    0    0  0.16272077914E+02 -0.20105765904E+02 -0.31371058775E+02  0.40659140066E+02  0.00000000000E+00 0.  1.
         11    1    3    3    0    0 -0.44604103043E+01  0.14955897056E+02  0.19218831867E+02  0.24757576930E+02  0.51100000000E-03 0. -1.
        -11    1    3    3    0    0 -0.14190615550E+02  0.68250018473E+01  0.28213741938E+01  0.15997323917E+02  0.51100000000E-03 0.  1.
         12    1    3    3    0    0  0.23789479402E+01 -0.16751329989E+01  0.93308527143E+01  0.97739590875E+01  0.00000000000E+00 0. -1.
</event>
<event>
 7    1  0.4374874E-012  0.5052886E+02  0.7816164E-02  0.1300439E+00
        -11   -1    0    0    0    0  0.00000000000E+00  0.00000000000E+00  0.45593999997E+02  0.45594000000E+02  0.51100000000E-03 0.  1.
         11   -1    0    0    0    0 -0.00000000000E+00 -0.00000000000E+00 -0.45593999997E+02  0.45594000000E+02  0.51100000000E-03 0. -1.
    9900012    2    1    2    0    0 -0.39337337102E+02  0.10273488623E+02  0.44130237322E+00  0.50528863185E+02  0.30000010138E+02 0.  0.
        -12    1    1    2    0    0  0.39337337102E+02 -0.10273488623E+02 -0.44130237322E+00  0.40659136815E+02  0.00000000000E+00 0.  1.
         11    1    3    3    0    0 -0.32483117694E+02  0.21072788791E+01  0.35835877868E+01  0.32748063471E+02  0.51100000000E-03 0. -1.
        -11    1    3    3    0    0 -0.98438415914E+01  0.84565045947E+01  0.58894888323E+00  0.12990787054E+02  0.51100000000E-03 0.  1.
        -12    1    3    3    0    0  0.29896221842E+01 -0.29029485085E+00 -0.37312342968E+01  0.47900126600E+01  0.00000000000E+00 0.  1.
</event>
<event>
 7    1  0.4374874E-012  0.5052886E+02  0.7816164E-02  0.1300439E+00
        -11   -1    0    0    0    0  0.00000000000E+00  0.00000000000E+00  0.45593999997E+02  0.45594000000E+02  0.51100000000E-03 0. -1.
         11   -1    0    0    0    0 -0.00000000000E+00 -0.00000000000E+00 -0.45593999997E+02  0.45594000000E+02  0.51100000000E-03 0.  1.
    9900012    2    1    2    0    0 -0.40341836449E+02  0.47640584181E+01  0.17337000487E+01  0.50528859127E+02  0.29999997803E+02 0.  0.
         12    1    1    2    0    0  0.40341836449E+02 -0.47640584181E+01 -0.17337000487E+01  0.40659140873E+02  0.00000000000E+00 0. -1.
         11    1    3    3    0    0 -0.10669970003E+02 -0.78052542617E+01  0.15034916663E+01  0.13305289978E+02  0.51100000000E-03 0. -1.
        -11    1    3    3    0    0 -0.64323113764E+00 -0.63890517945E+00 -0.48457696303E+01  0.49298508797E+01  0.51100000000E-03 0.  1.
         12    1    3    3    0    0 -0.29028635308E+02  0.13208217859E+02  0.50759780127E+01  0.32293718269E+02  0.00000000000E+00 0. -1.
</event>
<event>
 7    1  0.4374874E-012  0.5052887E+02  0.7816164E-02  0.1300439E+00
        -11   -1    0    0    0    0  0.00000000000E+00  0.00000000000E+00  0.45593999997E+02  0.45594000000E+02  0.51100000000E-03 0.  1.
         11   -1    0    0    0    0 -0.00000000000E+00 -0.00000000000E+00 -0.45593999997E+02  0.45594000000E+02  0.51100000000E-03 0. -1.
    9900012    2    1    2    0    0  0.14092089313E+02  0.37522293290E+02  0.68304990699E+01  0.50528865817E+02  0.30000018139E+02 0.  0.
         12    1    1    2    0    0 -0.14092089313E+02 -0.37522293290E+02 -0.68304990699E+01  0.40659134183E+02  0.00000000000E+00 0. -1.
         11    1    3    3    0    0 -0.15284403467E+01  0.25541919451E+01 -0.33036602826E+01  0.44468188528E+01  0.51100000000E-03 0. -1.
        -11    1    3    3    0    0  0.18429965482E+02  0.17592567817E+02 -0.56353932154E+00  0.25484890561E+02  0.51100000000E-03 0.  1.
        -12    1    3    3    0    0 -0.28094358218E+01  0.17375533527E+02  0.10697698674E+02  0.20597156404E+02  0.00000000000E+00 0.  1.
</event>
<event>
 7    1  0.4374874E-012  0.5052881E+02  0.7816164E-02  0.1300439E+00
        -11   -1    0    0    0    0  0.00000000000E+00  0.00000000000E+00  0.45593999997E+02  0.45594000000E+02  0.51100000000E-03 0. -1.
         11   -1    0    0    0    0 -0.00000000000E+00 -0.00000000000E+00 -0.45593999997E+02  0.45594000000E+02  0.51100000000E-03 0.  1.
    9900012    2    1    2    0    0 -0.31027153270E+02  0.24410585582E+02  0.97267195736E+01  0.50528806671E+02  0.29999838356E+02 0.  0.
        -12    1    1    2    0    0  0.31027153270E+02 -0.24410585582E+02 -0.97267195736E+01  0.40659193329E+02  0.00000000000E+00 0.  1.
         11    1    3    3    0    0 -0.20829011859E+02  0.72668643893E+01  0.10083110544E+02  0.24255394690E+02  0.51100000000E-03 0. -1.
        -11    1    3    3    0    0 -0.12605028054E+02  0.15578588876E+02  0.45861405123E+01  0.20557525354E+02  0.51100000000E-03 0.  1.
        -12    1    3    3    0    0  0.24068866423E+01  0.15651323167E+01 -0.49425314824E+01  0.57158866269E+01  0.00000000000E+00 0.  1.
</event>
<event>
 7    1  0.4374874E-012  0.5052888E+02  0.7816164E-02  0.1300439E+00
        -11   -1    0    0    0    0  0.00000000000E+00  0.00000000000E+00  0.45593999997E+02  0.45594000000E+02  0.51100000000E-03 0. -1.
         11   -1    0    0    0    0 -0.00000000000E+00 -0.00000000000E+00 -0.45593999997E+02  0.45594000000E+02  0.51100000000E-03 0.  1.
    9900012    2    1    2    0    0  0.35055295509E+02  0.18928964214E+02 -0.81230945151E+01  0.50528879327E+02  0.30000059201E+02 0.  0.
         12    1    1    2    0    0 -0.35055295509E+02 -0.18928964214E+02  0.81230945151E+01  0.40659120673E+02  0.00000000000E+00 0. -1.
         11    1    3    3    0    0  0.13476137530E+02  0.14853425067E+02 -0.10527243409E+02  0.22650681513E+02  0.51100000000E-03 0. -1.
        -11    1    3    3    0    0  0.20223457545E+02  0.34392400744E+01 -0.43415948069E+01  0.20968215305E+02  0.51100000000E-03 0.  1.
        -12    1    3    3    0    0  0.13557004333E+01  0.63629907322E+00  0.67457437012E+01  0.69099825078E+01  0.00000000000E+00 0.  1.
</event>
<event>
 7    1  0.4374874E-012  0.5052887E+02  0.7816164E-02  0.1300439E+00
        -11   -1    0    0    0    0  0.00000000000E+00  0.00000000000E+00  0.45593999997E+02  0.45594000000E+02  0.51100000000E-03 0. -1.
         11   -1    0    0    0    0 -0.00000000000E+00 -0.00000000000E+00 -0.45593999997E+02  0.45594000000E+02  0.51100000000E-03 0.  1.
    9900012    2    1    2    0    0 -0.69063744750E+01  0.21318959426E+02  0.33925926722E+02  0.50528873800E+02  0.30000042402E+02 0.  0.
        -12    1    1    2    0    0  0.69063744750E+01 -0.21318959426E+02 -0.33925926722E+02  0.40659126200E+02  0.00000000000E+00 0.  1.
         11    1    3    3    0    0  0.38862365382E+01  0.10253860009E+02  0.43748337901E+01  0.11806085315E+02  0.51100000000E-03 0. -1.
        -11    1    3    3    0    0  0.23714128590E+01 -0.36746740981E+01  0.10042254097E+02  0.10953250489E+02  0.51100000000E-03 0.  1.
         12    1    3    3    0    0 -0.13164023872E+02  0.14739773515E+02  0.19508838835E+02  0.27769537996E+02  0.00000000000E+00 0. -1.
</event>
<event>
 7    1  0.4374874E-012  0.5052887E+02  0.7816164E-02  0.1300439E+00
        -11   -1    0    0    0    0  0.00000000000E+00  0.00000000000E+00  0.45593999997E+02  0.45594000000E+02  0.51100000000E-03 0. -1.
         11   -1    0    0    0    0 -0.00000000000E+00 -0.00000000000E+00 -0.45593999997E+02  0.45594000000E+02  0.51100000000E-03 0.  1.
    9900012    2    1    2    0    0 -0.18896309796E+02  0.31101893936E+02  0.18131929524E+02  0.50528865742E+02  0.30000017911E+02 0.  0.
        -12    1    1    2    0    0  0.18896309796E+02 -0.31101893936E+02 -0.18131929524E+02  0.40659134258E+02  0.00000000000E+00 0.  1.
         11    1    3    3    0    0 -0.41627484242E+01  0.91234560700E+01  0.13261518761E+02  0.16626298603E+02  0.51100000000E-03 0. -1.
        -11    1    3    3    0    0 -0.16117775036E+02  0.20884413429E+02  0.10203498793E+02  0.28285204335E+02  0.51100000000E-03 0.  1.
         12    1    3    3    0    0  0.13842136647E+01  0.10940244365E+01 -0.53330880303E+01  0.56173628044E+01  0.00000000000E+00 0. -1.
</event>
<event>
 7    1  0.4374874E-012  0.5052887E+02  0.7816164E-02  0.1300439E+00
        -11   -1    0    0    0    0  0.00000000000E+00  0.00000000000E+00  0.45593999997E+02  0.45594000000E+02  0.51100000000E-03 0. -1.
         11   -1    0    0    0    0 -0.00000000000E+00 -0.00000000000E+00 -0.45593999997E+02  0.45594000000E+02  0.51100000000E-03 0.  1.
    9900012    2    1    2    0    0 -0.10793536461E+01 -0.19245923251E+02  0.35799365397E+02  0.50528866599E+02  0.30000020514E+02 0.  0.
        -12    1    1    2    0    0  0.10793536461E+01  0.19245923251E+02 -0.35799365397E+02  0.40659133401E+02  0.00000000000E+00 0.  1.
         11    1    3    3    0    0  0.19641773141E-01  0.27786673800E+01  0.21318198520E+02  0.21498534057E+02  0.51100000000E-03 0. -1.
        -11    1    3    3    0    0 -0.51708825703E+01 -0.36849753375E+01  0.42254894238E+01  0.76270460157E+01  0.51100000000E-03 0.  1.
        -12    1    3    3    0    0  0.40718871510E+01 -0.18339615294E+02  0.10255677453E+02  0.21403286526E+02  0.00000000000E+00 0.  1.
</event>
<event>
 7    1  0.4374874E-012  0.5052886E+02  0.7816164E-02  0.1300439E+00
        -11   -1    0    0    0    0  0.00000000000E+00  0.00000000000E+00  0.45593999997E+02  0.45594000000E+02  0.51100000000E-03 0. -1.
         11   -1    0    0    0    0 -0.00000000000E+00 -0.00000000000E+00 -0.45593999997E+02  0.45594000000E+02  0.51100000000E-03 0.  1.
    9900012    2    1    2    0    0 -0.64319871033E+01 -0.39589413557E+02  0.66688259039E+01  0.50528863723E+02  0.30000011771E+02 0.  0.
        -12    1    1    2    0    0  0.64319871033E+01  0.39589413557E+02 -0.66688259039E+01  0.40659136277E+02  0.00000000000E+00 0.  1.
         11    1    3    3    0    0  0.22209268178E+01 -0.28655295300E+02  0.10119514310E+02  0.30470691407E+02  0.51100000000E-03 0. -1.
        -11    1    3    3    0    0  0.34857839297E+01 -0.37341722204E+01 -0.30283438362E+01  0.59384845228E+01  0.51100000000E-03 0.  1.
        -12    1    3    3    0    0 -0.12138697851E+02 -0.71999460363E+01 -0.42234456965E+00  0.14119687793E+02  0.00000000000E+00 0.  1.
</event>
<event>
 7    1  0.4374874E-012  0.5052886E+02  0.7816164E-02  0.1300439E+00
        -11   -1    0    0    0    0  0.00000000000E+00  0.00000000000E+00  0.45593999997E+02  0.45594000000E+02  0.51100000000E-03 0. -1.
         11   -1    0    0    0    0 -0.00000000000E+00 -0.00000000000E+00 -0.45593999997E+02  0.45594000000E+02  0.51100000000E-03 0.  1.
    9900012    2    1    2    0    0  0.39143072412E+01  0.11392502959E+02 -0.38833676158E+02  0.50528864142E+02  0.30000013045E+02 0.  0.
         12    1    1    2    0    0 -0.39143072412E+01 -0.11392502959E+02  0.38833676158E+02  0.40659135858E+02  0.00000000000E+00 0. -1.
         11    1    3    3    0    0  0.32387279506E+01  0.45918281676E+01 -0.14850269043E+02  0.15877806384E+02  0.51100000000E-03 0.  1.
        -11    1    3    3    0    0  0.68407455572E+01  0.85179955201E+01 -0.25783771613E+02  0.28002766405E+02  0.51100000000E-03 0. -1.
         12    1    3    3    0    0 -0.61651662667E+01 -0.17173207291E+01  0.18003644986E+01  0.66482913527E+01  0.00000000000E+00 0. -1.
</event>
<event>
 7    1  0.4374874E-012  0.5052887E+02  0.7816164E-02  0.1300439E+00
        -11   -1    0    0    0    0  0.00000000000E+00  0.00000000000E+00  0.45593999997E+02  0.45594000000E+02  0.51100000000E-03 0. -1.
         11   -1    0    0    0    0 -0.00000000000E+00 -0.00000000000E+00 -0.45593999997E+02  0.45594000000E+02  0.51100000000E-03 0.  1.
    9900012    2    1    2    0    0 -0.30842811998E+02 -0.12277353304E+02  0.23476636106E+02  0.50528869427E+02  0.30000029111E+02 0.  0.
        -12    1    1    2    0    0  0.30842811998E+02  0.12277353304E+02 -0.23476636106E+02  0.40659130573E+02  0.00000000000E+00 0.  1.
         11    1    3    3    0    0 -0.59622474729E+01 -0.57898710674E+01 -0.35028365323E+01  0.90189171156E+01  0.51100000000E-03 0. -1.
        -11    1    3    3    0    0  0.14562454871E+00  0.39647812634E+01  0.13395339614E+01  0.41874871308E+01  0.51100000000E-03 0.  1.
         12    1    3    3    0    0 -0.25026189074E+02 -0.10452263500E+02  0.25639938677E+02  0.37322465181E+02  0.00000000000E+00 0. -1.
</event>
<event>
 7    1  0.4374874E-012  0.5052883E+02  0.7816164E-02  0.1300439E+00
        -11   -1    0    0    0    0  0.00000000000E+00  0.00000000000E+00  0.45593999997E+02  0.45594000000E+02  0.51100000000E-03 0. -1.
         11   -1    0    0    0    0 -0.00000000000E+00 -0.00000000000E+00 -0.45593999997E+02  0.45594000000E+02  0.51100000000E-03 0.  1.
    9900012    2    1    2    0    0 -0.10132462705E+01  0.41324763507E+01  0.40435920574E+02  0.50528834964E+02  0.29999924355E+02 0.  0.
        -12    1    1    2    0    0  0.10132462705E+01 -0.41324763507E+01 -0.40435920574E+02  0.40659165036E+02  0.00000000000E+00 0.  1.
         11    1    3    3    0    0  0.14027351666E+01  0.31583583273E+01  0.12763285931E+02  0.13222872656E+02  0.51100000000E-03 0. -1.
        -11    1    3    3    0    0 -0.99743893887E+01  0.92225219994E+01  0.12547451684E+02  0.18492752627E+02  0.51100000000E-03 0.  1.
        -12    1    3    3    0    0  0.75584079517E+01 -0.82484039760E+01  0.15125182959E+02  0.18813209680E+02  0.00000000000E+00 0.  1.
</event>
<event>
 7    1  0.4374874E-012  0.5052886E+02  0.7816164E-02  0.1300439E+00
        -11   -1    0    0    0    0  0.00000000000E+00  0.00000000000E+00  0.45593999997E+02  0.45594000000E+02  0.51100000000E-03 0. -1.
         11   -1    0    0    0    0 -0.00000000000E+00 -0.00000000000E+00 -0.45593999997E+02  0.45594000000E+02  0.51100000000E-03 0.  1.
    9900012    2    1    2    0    0 -0.44500431699E-01 -0.30348087721E+02  0.27058403218E+02  0.50528860888E+02  0.30000003154E+02 0.  0.
        -12    1    1    2    0    0  0.44500431699E-01  0.30348087721E+02 -0.27058403218E+02  0.40659139112E+02  0.00000000000E+00 0.  1.
         11    1    3    3    0    0 -0.80026581880E+01 -0.20939727471E+02  0.19070871562E+02  0.29431494475E+02  0.51100000000E-03 0. -1.
        -11    1    3    3    0    0 -0.32296173334E+01  0.54142809133E+00  0.47659765685E+01  0.57825691012E+01  0.51100000000E-03 0.  1.
        -12    1    3    3    0    0  0.11187775090E+02 -0.99497883416E+01  0.32215550873E+01  0.15314797311E+02  0.00000000000E+00 0.  1.
</event>
<event>
 7    1  0.4374874E-012  0.5052886E+02  0.7816164E-02  0.1300439E+00
        -11   -1    0    0    0    0  0.00000000000E+00  0.00000000000E+00  0.45593999997E+02  0.45594000000E+02  0.51100000000E-03 0. -1.
         11   -1    0    0    0    0 -0.00000000000E+00 -0.00000000000E+00 -0.45593999997E+02  0.45594000000E+02  0.51100000000E-03 0.  1.
    9900012    2    1    2    0    0 -0.34502988220E+02  0.21286991300E+02 -0.30940528480E+01  0.50528863785E+02  0.30000011962E+02 0.  0.
         12    1    1    2    0    0  0.34502988220E+02 -0.21286991300E+02  0.30940528480E+01  0.40659136215E+02  0.00000000000E+00 0. -1.
         11    1    3    3    0    0 -0.69350650092E+01 -0.67756748318E+00 -0.56317542489E+01  0.89594017968E+01  0.51100000000E-03 0. -1.
        -11    1    3    3    0    0 -0.25787345592E+02  0.18616402995E+02 -0.58736328417E+01  0.32342807797E+02  0.51100000000E-03 0.  1.
         12    1    3    3    0    0 -0.17805776188E+01  0.33481557877E+01  0.84113342426E+01  0.92266541919E+01  0.00000000000E+00 0. -1.
</event>
<event>
 7    1  0.4374874E-012  0.5052886E+02  0.7816164E-02  0.1300439E+00
        -11   -1    0    0    0    0  0.00000000000E+00  0.00000000000E+00  0.45593999997E+02  0.45594000000E+02  0.51100000000E-03 0. -1.
         11   -1    0    0    0    0 -0.00000000000E+00 -0.00000000000E+00 -0.45593999997E+02  0.45594000000E+02  0.51100000000E-03 0.  1.
    9900012    2    1    2    0    0 -0.23494660501E+02 -0.17831561571E+02 -0.27985743389E+02  0.50528862120E+02  0.30000006901E+02 0.  0.
         12    1    1    2    0    0  0.23494660501E+02  0.17831561571E+02  0.27985743389E+02  0.40659137880E+02  0.00000000000E+00 0. -1.
         11    1    3    3    0    0  0.26702745152E+01  0.54625074203E+01 -0.34931323486E+01  0.70122269765E+01  0.51100000000E-03 0. -1.
        -11    1    3    3    0    0 -0.88422205915E+01 -0.31152167270E+01 -0.63169861573E+01  0.11304589980E+02  0.51100000000E-03 0.  1.
        -12    1    3    3    0    0 -0.17322714424E+02 -0.20178852265E+02 -0.18175624883E+02  0.32212045164E+02  0.00000000000E+00 0.  1.
</event>
<event>
 7    1  0.4374874E-012  0.5052888E+02  0.7816164E-02  0.1300439E+00
        -11   -1    0    0    0    0  0.00000000000E+00  0.00000000000E+00  0.45593999997E+02  0.45594000000E+02  0.51100000000E-03 0. -1.
         11   -1    0    0    0    0 -0.00000000000E+00 -0.00000000000E+00 -0.45593999997E+02  0.45594000000E+02  0.51100000000E-03 0.  1.
    9900012    2    1    2    0    0  0.97758941602E+01  0.17676452152E+02 -0.35286522507E+02  0.50528883704E+02  0.30000072508E+02 0.  0.
         12    1    1    2    0    0 -0.97758941602E+01 -0.17676452152E+02  0.35286522507E+02  0.40659116296E+02  0.00000000000E+00 0. -1.
         11    1    3    3    0    0 -0.61962343985E+01  0.22170222187E+01 -0.12472784672E+02  0.14102441845E+02  0.51100000000E-03 0.  1.
        -11    1    3    3    0    0 -0.35751513479E+01  0.51572846186E+01 -0.57085127245E+01  0.84833018091E+01  0.51100000000E-03 0. -1.
         12    1    3    3    0    0  0.19547279907E+02  0.10302145314E+02 -0.17105225110E+02  0.27943140051E+02  0.00000000000E+00 0. -1.
</event>
<event>
 7    1  0.4374874E-012  0.5052886E+02  0.7816164E-02  0.1300439E+00
        -11   -1    0    0    0    0  0.00000000000E+00  0.00000000000E+00  0.45593999997E+02  0.45594000000E+02  0.51100000000E-03 0. -1.
         11   -1    0    0    0    0 -0.00000000000E+00 -0.00000000000E+00 -0.45593999997E+02  0.45594000000E+02  0.51100000000E-03 0.  1.
    9900012    2    1    2    0    0 -0.35088125105E+02  0.14268770948E+02 -0.14778069235E+02  0.50528859846E+02  0.29999999987E+02 0.  0.
         12    1    1    2    0    0  0.35088125105E+02 -0.14268770948E+02  0.14778069235E+02  0.40659140154E+02  0.00000000000E+00 0. -1.
         11    1    3    3    0    0 -0.27193718050E+02  0.45192740635E+01 -0.60850705121E+01  0.28230306815E+02  0.51100000000E-03 0. -1.
        -11    1    3    3    0    0 -0.95591584812E+01  0.72406380605E+01 -0.12581251932E+02  0.17380801214E+02  0.51100000000E-03 0.  1.
         12    1    3    3    0    0  0.16647514262E+01  0.25088588239E+01  0.38882532097E+01  0.49177518168E+01  0.00000000000E+00 0. -1.
</event>
<event>
 7    1  0.4374874E-012  0.5052889E+02  0.7816164E-02  0.1300439E+00
        -11   -1    0    0    0    0  0.00000000000E+00  0.00000000000E+00  0.45593999997E+02  0.45594000000E+02  0.51100000000E-03 0. -1.
         11   -1    0    0    0    0 -0.00000000000E+00 -0.00000000000E+00 -0.45593999997E+02  0.45594000000E+02  0.51100000000E-03 0.  1.
    9900012    2    1    2    0    0  0.33595352267E+02 -0.60576340358E+01 -0.22086654940E+02  0.50528893388E+02  0.30000101942E+02 0.  0.
         12    1    1    2    0    0 -0.33595352267E+02  0.60576340358E+01  0.22086654940E+02  0.40659106612E+02  0.00000000000E+00 0. -1.
         11    1    3    3    0    0  0.82610649293E+01 -0.35269141238E+00 -0.14223415562E+01  0.83900322265E+01  0.51100000000E-03 0. -1.
        -11    1    3    3    0    0  0.29317194932E+02 -0.45357124715E+00 -0.13123526181E+02  0.32123676397E+02  0.51100000000E-03 0.  1.
        -12    1    3    3    0    0 -0.39829075945E+01 -0.52513713763E+01 -0.75407872027E+01  0.10015184765E+02  0.00000000000E+00 0.  1.
</event>
<event>
 7    1  0.4374874E-012  0.5052885E+02  0.7816164E-02  0.1300439E+00
        -11   -1    0    0    0    0  0.00000000000E+00  0.00000000000E+00  0.45593999997E+02  0.45594000000E+02  0.51100000000E-03 0. -1.
         11   -1    0    0    0    0 -0.00000000000E+00 -0.00000000000E+00 -0.45593999997E+02  0.45594000000E+02  0.51100000000E-03 0.  1.
    9900012    2    1    2    0    0  0.16808227521E+00 -0.29499230976E+02 -0.27980943600E+02  0.50528854847E+02  0.29999984794E+02 0.  0.
         12    1    1    2    0    0 -0.16808227521E+00  0.29499230976E+02  0.27980943600E+02  0.40659145153E+02  0.00000000000E+00 0. -1.
         11    1    3    3    0    0  0.72603991410E+01 -0.63789230660E+00 -0.13006391803E+02  0.14909276652E+02  0.51100000000E-03 0. -1.
        -11    1    3    3    0    0 -0.30216962232E+01 -0.18349419854E+00 -0.32704203914E-01  0.30274391839E+01  0.51100000000E-03 0.  1.
        -12    1    3    3    0    0 -0.40706206426E+01 -0.28677844471E+02 -0.14941847593E+02  0.32592139012E+02  0.00000000000E+00 0.  1.
</event>
<event>
 7    1  0.4374874E-012  0.5052885E+02  0.7816164E-02  0.1300439E+00
        -11   -1    0    0    0    0  0.00000000000E+00  0.00000000000E+00  0.45593999997E+02  0.45594000000E+02  0.51100000000E-03 0. -1.
         11   -1    0    0    0    0 -0.00000000000E+00 -0.00000000000E+00 -0.45593999997E+02  0.45594000000E+02  0.51100000000E-03 0.  1.
    9900012    2    1    2    0    0 -0.38914858566E+02  0.15267351634E+01 -0.11682017949E+02  0.50528847515E+02  0.29999962506E+02 0.  0.
         12    1    1    2    0    0  0.38914858566E+02 -0.15267351634E+01  0.11682017949E+02  0.40659152485E+02  0.00000000000E+00 0. -1.
         11    1    3    3    0    0 -0.15153118057E+02 -0.26180141726E+01 -0.95853929150E+01  0.18120450951E+02  0.51100000000E-03 0. -1.
        -11    1    3    3    0    0 -0.13729541966E+02  0.96024445309E+01 -0.90451612996E+01  0.19040015934E+02  0.51100000000E-03 0.  1.
         12    1    3    3    0    0 -0.10032198543E+02 -0.54576951948E+01  0.69485362653E+01  0.13368380630E+02  0.00000000000E+00 0. -1.
</event>
<event>
 7    1  0.4374874E-012  0.5052891E+02  0.7816164E-02  0.1300439E+00
        -11   -1    0    0    0    0  0.00000000000E+00  0.00000000000E+00  0.45593999997E+02  0.45594000000E+02  0.51100000000E-03 0. -1.
         11   -1    0    0    0    0 -0.00000000000E+00 -0.00000000000E+00 -0.45593999997E+02  0.45594000000E+02  0.51100000000E-03 0.  1.
    9900012    2    1    2    0    0 -0.29652592728E+02  0.73397860378E+01  0.26833054650E+02  0.50528910777E+02  0.30000154799E+02 0.  0.
        -12    1    1    2    0    0  0.29652592728E+02 -0.73397860378E+01 -0.26833054650E+02  0.40659089223E+02  0.00000000000E+00 0.  1.
         11    1    3    3    0    0 -0.18760392729E+02  0.64273643840E+01  0.18533372292E+02  0.27143125043E+02  0.51100000000E-03 0. -1.
        -11    1    3    3    0    0 -0.85898421959E+01 -0.41645462707E+01  0.12976223543E+02  0.16109351703E+02  0.51100000000E-03 0.  1.
        -12    1    3    3    0    0 -0.23023578025E+01  0.50769679245E+01 -0.46765411856E+01  0.72764340317E+01  0.00000000000E+00 0.  1.
</event>
<event>
 7    1  0.4374874E-012  0.5052886E+02  0.7816164E-02  0.1300439E+00
        -11   -1    0    0    0    0  0.00000000000E+00  0.00000000000E+00  0.45593999997E+02  0.45594000000E+02  0.51100000000E-03 0. -1.
         11   -1    0    0    0    0 -0.00000000000E+00 -0.00000000000E+00 -0.45593999997E+02  0.45594000000E+02  0.51100000000E-03 0.  1.
    9900012    2    1    2    0    0 -0.26556898072E+02 -0.13815053209E+02  0.27514386342E+02  0.50528856057E+02  0.29999988471E+02 0.  0.
        -12    1    1    2    0    0  0.26556898072E+02  0.13815053209E+02 -0.27514386342E+02  0.40659143943E+02  0.00000000000E+00 0.  1.
         11    1    3    3    0    0 -0.36992659737E+01 -0.86324533086E+01  0.17482199414E+02  0.19845178646E+02  0.51100000000E-03 0. -1.
        -11    1    3    3    0    0 -0.24433914104E+01 -0.71700191580E+01  0.62645643531E+01  0.98297560044E+01  0.51100000000E-03 0.  1.
         12    1    3    3    0    0 -0.20414240688E+02  0.19874192577E+01  0.37676225750E+01  0.20853921407E+02  0.00000000000E+00 0. -1.
</event>
<event>
 7    1  0.4374874E-012  0.5052886E+02  0.7816164E-02  0.1300439E+00
        -11   -1    0    0    0    0  0.00000000000E+00  0.00000000000E+00  0.45593999997E+02  0.45594000000E+02  0.51100000000E-03 0.  1.
         11   -1    0    0    0    0 -0.00000000000E+00 -0.00000000000E+00 -0.45593999997E+02  0.45594000000E+02  0.51100000000E-03 0. -1.
    9900012    2    1    2    0    0 -0.19847561201E+02  0.22665405979E+02 -0.27304194243E+02  0.50528864040E+02  0.30000012736E+02 0.  0.
         12    1    1    2    0    0  0.19847561201E+02 -0.22665405979E+02  0.27304194243E+02  0.40659135960E+02  0.00000000000E+00 0. -1.
         11    1    3    3    0    0 -0.82566262232E+01 -0.38248867243E+01 -0.51661146477E+01  0.10463764899E+02  0.51100000000E-03 0. -1.
        -11    1    3    3    0    0  0.19145879670E+01  0.18748749598E+01  0.17504449060E+01  0.32007594143E+01  0.51100000000E-03 0.  1.
        -12    1    3    3    0    0 -0.13505522944E+02  0.24615417743E+02 -0.23888524501E+02  0.36864339727E+02  0.00000000000E+00 0.  1.
</event>
<event>
 7    1  0.4374874E-012  0.5052885E+02  0.7816164E-02  0.1300439E+00
        -11   -1    0    0    0    0  0.00000000000E+00  0.00000000000E+00  0.45593999997E+02  0.45594000000E+02  0.51100000000E-03 0.  1.
         11   -1    0    0    0    0 -0.00000000000E+00 -0.00000000000E+00 -0.45593999997E+02  0.45594000000E+02  0.51100000000E-03 0. -1.
    9900012    2    1    2    0    0 -0.29983605907E+02  0.26299994149E+02 -0.79031554948E+01  0.50528853646E+02  0.29999981144E+02 0.  0.
         12    1    1    2    0    0  0.29983605907E+02 -0.26299994149E+02  0.79031554948E+01  0.40659146354E+02  0.00000000000E+00 0. -1.
         11    1    3    3    0    0 -0.22025744163E+02  0.71189139212E+01 -0.96377732113E+01  0.25073871142E+02  0.51100000000E-03 0. -1.
        -11    1    3    3    0    0 -0.81251549388E+01  0.12635230935E+02 -0.52195742570E+01  0.15903180790E+02  0.51100000000E-03 0.  1.
        -12    1    3    3    0    0  0.16729319419E+00  0.65458492924E+01  0.69541919735E+01  0.95518017136E+01  0.00000000000E+00 0.  1.
</event>
<event>
 7    1  0.4374874E-012  0.5052886E+02  0.7816164E-02  0.1300439E+00
        -11   -1    0    0    0    0  0.00000000000E+00  0.00000000000E+00  0.45593999997E+02  0.45594000000E+02  0.51100000000E-03 0. -1.
         11   -1    0    0    0    0 -0.00000000000E+00 -0.00000000000E+00 -0.45593999997E+02  0.45594000000E+02  0.51100000000E-03 0.  1.
    9900012    2    1    2    0    0 -0.14773145761E+02 -0.28755911025E+02 -0.24658003414E+02  0.50528863427E+02  0.30000010872E+02 0.  0.
         12    1    1    2    0    0  0.14773145761E+02  0.28755911025E+02  0.24658003414E+02  0.40659136573E+02  0.00000000000E+00 0. -1.
         11    1    3    3    0    0 -0.35400506325E+01 -0.18312917611E+02 -0.19376402909E+02  0.26894979083E+02  0.51100000000E-03 0. -1.
        -11    1    3    3    0    0 -0.11557153582E+02 -0.12545188132E+02 -0.90479541377E+01  0.19308418334E+02  0.51100000000E-03 0.  1.
         12    1    3    3    0    0  0.32405845408E+00  0.21021947185E+01  0.37663536332E+01  0.43254660103E+01  0.00000000000E+00 0. -1.
</event>
<event>
 7    1  0.4374874E-012  0.5052886E+02  0.7816164E-02  0.1300439E+00
        -11   -1    0    0    0    0  0.00000000000E+00  0.00000000000E+00  0.45593999997E+02  0.45594000000E+02  0.51100000000E-03 0. -1.
         11   -1    0    0    0    0 -0.00000000000E+00 -0.00000000000E+00 -0.45593999997E+02  0.45594000000E+02  0.51100000000E-03 0.  1.
    9900012    2    1    2    0    0 -0.12397355487E+02  0.12173045282E+02  0.36759873305E+02  0.50528859086E+02  0.29999997677E+02 0.  0.
        -12    1    1    2    0    0  0.12397355487E+02 -0.12173045282E+02 -0.36759873305E+02  0.40659140914E+02  0.00000000000E+00 0.  1.
         11    1    3    3    0    0 -0.11869143084E+02  0.73094893927E+01  0.33911652272E+02  0.36664769914E+02  0.51100000000E-03 0. -1.
        -11    1    3    3    0    0  0.18278880945E+01 -0.16771044617E+01  0.58023463850E+01  0.63103944484E+01  0.51100000000E-03 0.  1.
        -12    1    3    3    0    0 -0.23561004970E+01  0.65406603507E+01 -0.29541253524E+01  0.75536947233E+01  0.00000000000E+00 0.  1.
</event>
<event>
 7    1  0.4374874E-012  0.5052887E+02  0.7816164E-02  0.1300439E+00
        -11   -1    0    0    0    0  0.00000000000E+00  0.00000000000E+00  0.45593999997E+02  0.45594000000E+02  0.51100000000E-03 0. -1.
         11   -1    0    0    0    0 -0.00000000000E+00 -0.00000000000E+00 -0.45593999997E+02  0.45594000000E+02  0.51100000000E-03 0.  1.
    9900012    2    1    2    0    0  0.28911531043E+02 -0.16303834778E+02  0.23483471654E+02  0.50528866996E+02  0.30000021721E+02 0.  0.
        -12    1    1    2    0    0 -0.28911531043E+02  0.16303834778E+02 -0.23483471654E+02  0.40659133004E+02  0.00000000000E+00 0.  1.
         11    1    3    3    0    0  0.33465092034E+02 -0.15029864326E+02  0.24233790283E+02  0.43966871600E+02  0.51100000000E-03 0. -1.
        -11    1    3    3    0    0 -0.64765874240E+00 -0.19031167389E+01 -0.15341829719E+01  0.25288402126E+01  0.51100000000E-03 0.  1.
         12    1    3    3    0    0 -0.39059022487E+01  0.62914628694E+00  0.78386434250E+00  0.40331551835E+01  0.00000000000E+00 0. -1.
</event>
<event>
 7    1  0.4374874E-012  0.5052889E+02  0.7816164E-02  0.1300439E+00
        -11   -1    0    0    0    0  0.00000000000E+00  0.00000000000E+00  0.45593999997E+02  0.45594000000E+02  0.51100000000E-03 0. -1.
         11   -1    0    0    0    0 -0.00000000000E+00 -0.00000000000E+00 -0.45593999997E+02  0.45594000000E+02  0.51100000000E-03 0.  1.
    9900012    2    1    2    0    0 -0.26851964297E+02 -0.13995838325E+02 -0.27133965136E+02  0.50528886126E+02  0.30000079867E+02 0.  0.
         12    1    1    2    0    0  0.26851964297E+02  0.13995838325E+02  0.27133965136E+02  0.40659113874E+02  0.00000000000E+00 0. -1.
         11    1    3    3    0    0 -0.19611679805E+02  0.38331868570E+01 -0.14479588160E+02  0.24677313059E+02  0.51100000000E-03 0. -1.
        -11    1    3    3    0    0 -0.58743681437E+01 -0.65297501288E+01  0.64877486402E-01  0.87835099580E+01  0.51100000000E-03 0.  1.
        -12    1    3    3    0    0 -0.13659163482E+01 -0.11299275053E+02 -0.12719254462E+02  0.17068063109E+02  0.00000000000E+00 0.  1.
</event>
<event>
 7    1  0.4374874E-012  0.5052885E+02  0.7816164E-02  0.1300439E+00
        -11   -1    0    0    0    0  0.00000000000E+00  0.00000000000E+00  0.45593999997E+02  0.45594000000E+02  0.51100000000E-03 0. -1.
         11   -1    0    0    0    0 -0.00000000000E+00 -0.00000000000E+00 -0.45593999997E+02  0.45594000000E+02  0.51100000000E-03 0.  1.
    9900012    2    1    2    0    0  0.17164247754E+02  0.73613601800E+01 -0.36116002833E+02  0.50528847459E+02  0.29999962337E+02 0.  0.
         12    1    1    2    0    0 -0.17164247754E+02 -0.73613601800E+01  0.36116002833E+02  0.40659152541E+02  0.00000000000E+00 0. -1.
         11    1    3    3    0    0 -0.34174957110E+01  0.92983680261E+00  0.15460489384E+01  0.38644716321E+01  0.51100000000E-03 0. -1.
        -11    1    3    3    0    0  0.63785060325E+00  0.36570872728E+01  0.26685574560E+00  0.37218749257E+01  0.51100000000E-03 0.  1.
         12    1    3    3    0    0  0.19943892862E+02  0.27744361046E+01 -0.37928907517E+02  0.42942500901E+02  0.00000000000E+00 0. -1.
</event>
<event>
 7    1  0.4374874E-012  0.5052886E+02  0.7816164E-02  0.1300439E+00
        -11   -1    0    0    0    0  0.00000000000E+00  0.00000000000E+00  0.45593999997E+02  0.45594000000E+02  0.51100000000E-03 0. -1.
         11   -1    0    0    0    0 -0.00000000000E+00 -0.00000000000E+00 -0.45593999997E+02  0.45594000000E+02  0.51100000000E-03 0.  1.
    9900012    2    1    2    0    0 -0.15867192869E+02  0.19651977734E+02 -0.31862170076E+02  0.50528856866E+02  0.29999990930E+02 0.  0.
         12    1    1    2    0    0  0.15867192869E+02 -0.19651977734E+02  0.31862170076E+02  0.40659143134E+02  0.00000000000E+00 0. -1.
         11    1    3    3    0    0  0.55357906128E+01  0.27896358599E+01 -0.56684714604E+01  0.83999175530E+01  0.51100000000E-03 0. -1.
        -11    1    3    3    0    0 -0.33397083635E+01  0.41570570279E+01  0.25257208990E+01  0.59003424822E+01  0.51100000000E-03 0.  1.
        -12    1    3    3    0    0 -0.18063275118E+02  0.12705284847E+02 -0.28719419515E+02  0.36228596831E+02  0.00000000000E+00 0.  1.
</event>
<event>
 7    1  0.4374874E-012  0.5052885E+02  0.7816164E-02  0.1300439E+00
        -11   -1    0    0    0    0  0.00000000000E+00  0.00000000000E+00  0.45593999997E+02  0.45594000000E+02  0.51100000000E-03 0. -1.
         11   -1    0    0    0    0 -0.00000000000E+00 -0.00000000000E+00 -0.45593999997E+02  0.45594000000E+02  0.51100000000E-03 0.  1.
    9900012    2    1    2    0    0  0.16462538249E+02 -0.15999686332E+02  0.33558326463E+02  0.50528850927E+02  0.29999972877E+02 0.  0.
        -12    1    1    2    0    0 -0.16462538249E+02  0.15999686332E+02 -0.33558326463E+02  0.40659149073E+02  0.00000000000E+00 0.  1.
         11    1    3    3    0    0  0.19672310304E+01 -0.13784141050E+02  0.24266570750E+02  0.27977473057E+02  0.51100000000E-03 0. -1.
        -11    1    3    3    0    0  0.92382786738E+01 -0.82525266044E+01  0.69823658695E+01  0.14219824950E+02  0.51100000000E-03 0.  1.
        -12    1    3    3    0    0  0.52570285448E+01  0.60369813221E+01  0.23093898438E+01  0.83315529198E+01  0.00000000000E+00 0.  1.
</event>
<event>
 7    1  0.4374874E-012  0.5052884E+02  0.7816164E-02  0.1300439E+00
        -11   -1    0    0    0    0  0.00000000000E+00  0.00000000000E+00  0.45593999997E+02  0.45594000000E+02  0.51100000000E-03 0.  1.
         11   -1    0    0    0    0 -0.00000000000E+00 -0.00000000000E+00 -0.45593999997E+02  0.45594000000E+02  0.51100000000E-03 0. -1.
    9900012    2    1    2    0    0  0.21856870549E+02 -0.34233202767E+02  0.18794507908E+01  0.50528839936E+02  0.29999939468E+02 0.  0.
         12    1    1    2    0    0 -0.21856870549E+02  0.34233202767E+02 -0.18794507908E+01  0.40659160064E+02  0.00000000000E+00 0. -1.
         11    1    3    3    0    0  0.46470535038E+01 -0.29500566346E+02  0.34363858025E+01  0.30061391662E+02  0.51100000000E-03 0. -1.
        -11    1    3    3    0    0  0.27155785728E+01  0.26089944713E+01 -0.18964442828E+01  0.42163633993E+01  0.51100000000E-03 0.  1.
        -12    1    3    3    0    0  0.14494238472E+02 -0.73416308920E+01  0.33950927107E+00  0.16251084874E+02  0.00000000000E+00 0.  1.
</event>
<event>
 7    1  0.4374874E-012  0.5052887E+02  0.7816164E-02  0.1300439E+00
        -11   -1    0    0    0    0  0.00000000000E+00  0.00000000000E+00  0.45593999997E+02  0.45594000000E+02  0.51100000000E-03 0. -1.
         11   -1    0    0    0    0 -0.00000000000E+00 -0.00000000000E+00 -0.45593999997E+02  0.45594000000E+02  0.51100000000E-03 0.  1.
    9900012    2    1    2    0    0  0.25186112797E+02 -0.29984435524E+02  0.10943390551E+02  0.50528874969E+02  0.30000045956E+02 0.  0.
        -12    1    1    2    0    0 -0.25186112797E+02  0.29984435524E+02 -0.10943390551E+02  0.40659125031E+02  0.00000000000E+00 0.  1.
         11    1    3    3    0    0  0.52791596457E+01  0.30150911823E+01 -0.28703895165E+00  0.60862708635E+01  0.51100000000E-03 0. -1.
        -11    1    3    3    0    0  0.87775531720E+01 -0.12741006872E+02  0.14370349173E+02  0.21116004154E+02  0.51100000000E-03 0.  1.
        -12    1    3    3    0    0  0.11129399979E+02 -0.20258519835E+02 -0.31399196707E+01  0.23326599952E+02  0.00000000000E+00 0.  1.
</event>
<event>
 7    1  0.4374874E-012  0.5052887E+02  0.7816164E-02  0.1300439E+00
        -11   -1    0    0    0    0  0.00000000000E+00  0.00000000000E+00  0.45593999997E+02  0.45594000000E+02  0.51100000000E-03 0. -1.
         11   -1    0    0    0    0 -0.00000000000E+00 -0.00000000000E+00 -0.45593999997E+02  0.45594000000E+02  0.51100000000E-03 0.  1.
    9900012    2    1    2    0    0 -0.19225539890E+02 -0.28051333843E+02  0.22286016048E+02  0.50528865409E+02  0.30000016896E+02 0.  0.
        -12    1    1    2    0    0  0.19225539890E+02  0.28051333843E+02 -0.22286016048E+02  0.40659134591E+02  0.00000000000E+00 0.  1.
         11    1    3    3    0    0 -0.12277757681E+02 -0.98761439541E+01  0.14773236101E+02  0.21599306892E+02  0.51100000000E-03 0. -1.
        -11    1    3    3    0    0 -0.82039767493E+01  0.98968104659E+00 -0.11508816412E+00  0.82642572942E+01  0.51100000000E-03 0.  1.
         12    1    3    3    0    0  0.12561945398E+01 -0.19164870935E+02  0.76278681115E+01  0.20665301222E+02  0.00000000000E+00 0. -1.
</event>
<event>
 7    1  0.5311003E-012  0.5052886E+02  0.7816164E-02  0.1300439E+00
        -11   -1    0    0    0    0  0.00000000000E+00  0.00000000000E+00  0.45593999997E+02  0.45594000000E+02  0.51100000000E-03 0. -1.
         11   -1    0    0    0    0 -0.00000000000E+00 -0.00000000000E+00 -0.45593999997E+02  0.45594000000E+02  0.51100000000E-03 0.  1.
    9900012    2    1    2    0    0 -0.80538180846E+01 -0.22858821132E+02 -0.32646224006E+02  0.50528860423E+02  0.30000001742E+02 0.  0.
         12    1    1    2    0    0  0.80538180846E+01  0.22858821132E+02  0.32646224006E+02  0.40659139577E+02  0.00000000000E+00 0. -1.
         11    1    3    3    0    0 -0.11490299913E+02 -0.10157412748E+02 -0.91301662587E+01  0.17848248149E+02  0.51100000000E-03 0. -1.
        -11    1    3    3    0    0 -0.54636696885E+01 -0.69743050233E+01 -0.19395487491E+02  0.21323169377E+02  0.51100000000E-03 0.  1.
         12    1    3    3    0    0  0.89001515165E+01 -0.57271033609E+01 -0.41205702562E+01  0.11357442897E+02  0.00000000000E+00 0. -1.
</event>
<event>
 7    1  0.4374874E-012  0.5052885E+02  0.7816164E-02  0.1300439E+00
        -11   -1    0    0    0    0  0.00000000000E+00  0.00000000000E+00  0.45593999997E+02  0.45594000000E+02  0.51100000000E-03 0. -1.
         11   -1    0    0    0    0 -0.00000000000E+00 -0.00000000000E+00 -0.45593999997E+02  0.45594000000E+02  0.51100000000E-03 0.  1.
    9900012    2    1    2    0    0 -0.36852633656E+02 -0.98801391702E+01  0.14051066535E+02  0.50528853081E+02  0.29999979426E+02 0.  0.
        -12    1    1    2    0    0  0.36852633656E+02  0.98801391702E+01 -0.14051066535E+02  0.40659146919E+02  0.00000000000E+00 0.  1.
         11    1    3    3    0    0 -0.70320743645E+01 -0.57515948495E+01 -0.51150880642E+01  0.10425691313E+02  0.51100000000E-03 0. -1.
        -11    1    3    3    0    0 -0.23794062330E+01  0.10857797721E+01 -0.33328732814E+01  0.42365712912E+01  0.51100000000E-03 0.  1.
         12    1    3    3    0    0 -0.27441153058E+02 -0.52143240927E+01  0.22499027880E+02  0.35866590477E+02  0.00000000000E+00 0. -1.
</event>
<event>
 7    1  0.4374874E-012  0.5052873E+02  0.7816164E-02  0.1300439E+00
        -11   -1    0    0    0    0  0.00000000000E+00  0.00000000000E+00  0.45593999997E+02  0.45594000000E+02  0.51100000000E-03 0. -1.
         11   -1    0    0    0    0 -0.00000000000E+00 -0.00000000000E+00 -0.45593999997E+02  0.45594000000E+02  0.51100000000E-03 0.  1.
    9900012    2    1    2    0    0 -0.30100561740E+02 -0.11992506242E+02  0.24562417642E+02  0.50528728198E+02  0.29999599829E+02 0.  0.
        -12    1    1    2    0    0  0.30100561740E+02  0.11992506242E+02 -0.24562417642E+02  0.40659271802E+02  0.00000000000E+00 0.  1.
         11    1    3    3    0    0 -0.10304902925E+02  0.72748875116E+01  0.15581377785E+01  0.12709949103E+02  0.51100000000E-03 0.  1.
        -11    1    3    3    0    0  0.35143781194E+00 -0.43459965557E+01  0.10286375661E+01  0.44798761256E+01  0.51100000000E-03 0. -1.
         12    1    3    3    0    0 -0.20147096626E+02 -0.14921397198E+02  0.21975642297E+02  0.33338902969E+02  0.00000000000E+00 0. -1.
</event>
<event>
 7    1  0.4374874E-012  0.5052884E+02  0.7816164E-02  0.1300439E+00
        -11   -1    0    0    0    0  0.00000000000E+00  0.00000000000E+00  0.45593999997E+02  0.45594000000E+02  0.51100000000E-03 0. -1.
         11   -1    0    0    0    0 -0.00000000000E+00 -0.00000000000E+00 -0.45593999997E+02  0.45594000000E+02  0.51100000000E-03 0.  1.
    9900012    2    1    2    0    0  0.18027200882E+02 -0.26737061970E+02 -0.24765240313E+02  0.50528836430E+02  0.29999928814E+02 0.  0.
         12    1    1    2    0    0 -0.18027200882E+02  0.26737061970E+02  0.24765240313E+02  0.40659163570E+02  0.00000000000E+00 0. -1.
         11    1    3    3    0    0  0.16778112084E+02 -0.12739006273E+02 -0.11033912818E+02  0.23780970507E+02  0.51100000000E-03 0. -1.
        -11    1    3    3    0    0  0.66844544122E+01 -0.14093807355E+02 -0.14451539653E+02  0.21264156112E+02  0.51100000000E-03 0.  1.
         12    1    3    3    0    0 -0.54353656141E+01  0.95751657272E-01  0.72021215921E+00  0.54837098111E+01  0.00000000000E+00 0. -1.
</event>
<event>
 7    1  0.4374874E-012  0.5052885E+02  0.7816164E-02  0.1300439E+00
        -11   -1    0    0    0    0  0.00000000000E+00  0.00000000000E+00  0.45593999997E+02  0.45594000000E+02  0.51100000000E-03 0. -1.
         11   -1    0    0    0    0 -0.00000000000E+00 -0.00000000000E+00 -0.45593999997E+02  0.45594000000E+02  0.51100000000E-03 0.  1.
    9900012    2    1    2    0    0 -0.99834703299E+01 -0.24443870362E+02 -0.30919155022E+02  0.50528848197E+02  0.29999964579E+02 0.  0.
         12    1    1    2    0    0  0.99834703299E+01  0.24443870362E+02  0.30919155022E+02  0.40659151803E+02  0.00000000000E+00 0. -1.
         11    1    3    3    0    0  0.34885271284E+01  0.24227421859E+01 -0.26097159511E+01  0.49849893512E+01  0.51100000000E-03 0. -1.
        -11    1    3    3    0    0  0.41226920845E+01 -0.52847122890E+01 -0.10609404064E+02  0.12549272045E+02  0.51100000000E-03 0.  1.
        -12    1    3    3    0    0 -0.17594689543E+02 -0.21581900259E+02 -0.17700035007E+02  0.32994586801E+02  0.00000000000E+00 0.  1.
</event>
<event>
 7    1  0.4374874E-012  0.5052888E+02  0.7816164E-02  0.1300439E+00
        -11   -1    0    0    0    0  0.00000000000E+00  0.00000000000E+00  0.45593999997E+02  0.45594000000E+02  0.51100000000E-03 0. -1.
         11   -1    0    0    0    0 -0.00000000000E+00 -0.00000000000E+00 -0.45593999997E+02  0.45594000000E+02  0.51100000000E-03 0.  1.
    9900012    2    1    2    0    0 -0.10409923301E+02  0.16889332706E+02 -0.35490112036E+02  0.50528879071E+02  0.30000058424E+02 0.  0.
         12    1    1    2    0    0  0.10409923301E+02 -0.16889332706E+02  0.35490112036E+02  0.40659120929E+02  0.00000000000E+00 0. -1.
         11    1    3    3    0    0  0.15857097396E+00 -0.33767573724E+01 -0.24981583094E+01  0.42033831976E+01  0.51100000000E-03 0. -1.
        -11    1    3    3    0    0 -0.15120414288E+02  0.89811923675E+01 -0.28227188816E+02  0.33257524462E+02  0.51100000000E-03 0.  1.
         12    1    3    3    0    0  0.45519200139E+01  0.11284897711E+02 -0.47647649106E+01  0.13067971412E+02  0.00000000000E+00 0. -1.
</event>
<event>
 7    1  0.4374874E-012  0.5052886E+02  0.7816164E-02  0.1300439E+00
        -11   -1    0    0    0    0  0.00000000000E+00  0.00000000000E+00  0.45593999997E+02  0.45594000000E+02  0.51100000000E-03 0. -1.
         11   -1    0    0    0    0 -0.00000000000E+00 -0.00000000000E+00 -0.45593999997E+02  0.45594000000E+02  0.51100000000E-03 0.  1.
    9900012    2    1    2    0    0 -0.24474223619E+02  0.23603163734E+01 -0.32382198517E+02  0.50528862085E+02  0.30000006794E+02 0.  0.
         12    1    1    2    0    0  0.24474223619E+02 -0.23603163734E+01  0.32382198517E+02  0.40659137915E+02  0.00000000000E+00 0. -1.
         11    1    3    3    0    0 -0.46193638183E+01 -0.99133695214E-01  0.10768536184E+01  0.47442558481E+01  0.51100000000E-03 0.  1.
        -11    1    3    3    0    0 -0.20649612406E+02  0.33120702012E+01 -0.36755141703E+02  0.42288494221E+02  0.51100000000E-03 0. -1.
         12    1    3    3    0    0  0.79475260527E+00 -0.85262013260E+00  0.32960895675E+01  0.34961120164E+01  0.00000000000E+00 0. -1.
</event>
<event>
 7    1  0.4374874E-012  0.5052885E+02  0.7816164E-02  0.1300439E+00
        -11   -1    0    0    0    0  0.00000000000E+00  0.00000000000E+00  0.45593999997E+02  0.45594000000E+02  0.51100000000E-03 0. -1.
         11   -1    0    0    0    0 -0.00000000000E+00 -0.00000000000E+00 -0.45593999997E+02  0.45594000000E+02  0.51100000000E-03 0.  1.
    9900012    2    1    2    0    0 -0.10278606948E+02  0.37914661160E+02  0.10487872507E+02  0.50528846524E+02  0.29999959495E+02 0.  0.
        -12    1    1    2    0    0  0.10278606948E+02 -0.37914661160E+02 -0.10487872507E+02  0.40659153476E+02  0.00000000000E+00 0.  1.
         11    1    3    3    0    0  0.98004104065E+00  0.30315868310E+00 -0.77130108632E+00  0.12834684474E+01  0.51100000000E-03 0. -1.
        -11    1    3    3    0    0 -0.12111087536E+02  0.17954199822E+02  0.18294166356E+02  0.28349748773E+02  0.51100000000E-03 0.  1.
         12    1    3    3    0    0  0.85243954769E+00  0.19657302654E+02 -0.70349927630E+01  0.20895629304E+02  0.00000000000E+00 0. -1.
</event>
<event>
 7    1  0.4374874E-012  0.5052883E+02  0.7816164E-02  0.1300439E+00
        -11   -1    0    0    0    0  0.00000000000E+00  0.00000000000E+00  0.45593999997E+02  0.45594000000E+02  0.51100000000E-03 0.  1.
         11   -1    0    0    0    0 -0.00000000000E+00 -0.00000000000E+00 -0.45593999997E+02  0.45594000000E+02  0.51100000000E-03 0. -1.
    9900012    2    1    2    0    0 -0.10205626709E+02  0.35913335526E+02  0.16101096254E+02  0.50528833927E+02  0.29999921205E+02 0.  0.
        -12    1    1    2    0    0  0.10205626709E+02 -0.35913335526E+02 -0.16101096254E+02  0.40659166073E+02  0.00000000000E+00 0.  1.
         11    1    3    3    0    0 -0.10606199573E+02  0.12665259014E+02  0.87062894436E+01  0.18673503458E+02  0.51100000000E-03 0. -1.
        -11    1    3    3    0    0 -0.32808628692E+01  0.23566986125E+02  0.11418566220E+02  0.26392244144E+02  0.51100000000E-03 0.  1.
         12    1    3    3    0    0  0.36814357334E+01 -0.31890961231E+00 -0.40237594100E+01  0.54630863246E+01  0.00000000000E+00 0. -1.
</event>
<event>
 7    1  0.4374874E-012  0.5052886E+02  0.7816164E-02  0.1300439E+00
        -11   -1    0    0    0    0  0.00000000000E+00  0.00000000000E+00  0.45593999997E+02  0.45594000000E+02  0.51100000000E-03 0. -1.
         11   -1    0    0    0    0 -0.00000000000E+00 -0.00000000000E+00 -0.45593999997E+02  0.45594000000E+02  0.51100000000E-03 0.  1.
    9900012    2    1    2    0    0  0.16662629003E+02  0.72314520223E+01  0.36376209511E+02  0.50528859305E+02  0.29999998344E+02 0.  0.
        -12    1    1    2    0    0 -0.16662629003E+02 -0.72314520223E+01 -0.36376209511E+02  0.40659140695E+02  0.00000000000E+00 0.  1.
         11    1    3    3    0    0  0.82912869465E+00  0.44432626787E+01  0.97226601851E+01  0.10721947536E+02  0.51100000000E-03 0. -1.
        -11    1    3    3    0    0 -0.29589525390E+01  0.39473476603E+01 -0.21614051166E+01  0.53859656533E+01  0.51100000000E-03 0.  1.
         12    1    3    3    0    0  0.18792452847E+02 -0.11591583167E+01  0.28814954443E+02  0.34420946116E+02  0.00000000000E+00 0. -1.
</event>
<event>
 7    1  0.4862767E-012  0.5052886E+02  0.7816164E-02  0.1300439E+00
        -11   -1    0    0    0    0  0.00000000000E+00  0.00000000000E+00  0.45593999997E+02  0.45594000000E+02  0.51100000000E-03 0. -1.
         11   -1    0    0    0    0 -0.00000000000E+00 -0.00000000000E+00 -0.45593999997E+02  0.45594000000E+02  0.51100000000E-03 0.  1.
    9900012    2    1    2    0    0 -0.20972786829E+02 -0.23647902825E+02 -0.25575077760E+02  0.50528859603E+02  0.29999999249E+02 0.  0.
         12    1    1    2    0    0  0.20972786829E+02  0.23647902825E+02  0.25575077760E+02  0.40659140397E+02  0.00000000000E+00 0. -1.
         11    1    3    3    0    0 -0.17236986691E+02 -0.11671565346E+02 -0.20919130187E+02  0.29511847720E+02  0.51100000000E-03 0.  1.
        -11    1    3    3    0    0 -0.93275625555E+01 -0.49174274500E+01  0.65063313420E+00  0.10564461164E+02  0.51100000000E-03 0. -1.
         12    1    3    3    0    0  0.55917624173E+01 -0.70589100294E+01 -0.53065807074E+01  0.10452550719E+02  0.00000000000E+00 0. -1.
</event>
<event>
 7    1  0.4374874E-012  0.5052879E+02  0.7816164E-02  0.1300439E+00
        -11   -1    0    0    0    0  0.00000000000E+00  0.00000000000E+00  0.45593999997E+02  0.45594000000E+02  0.51100000000E-03 0. -1.
         11   -1    0    0    0    0 -0.00000000000E+00 -0.00000000000E+00 -0.45593999997E+02  0.45594000000E+02  0.51100000000E-03 0.  1.
    9900012    2    1    2    0    0 -0.29034297155E+02  0.13803597899E+02 -0.24892604240E+02  0.50528788595E+02  0.29999783412E+02 0.  0.
         12    1    1    2    0    0  0.29034297155E+02 -0.13803597899E+02  0.24892604240E+02  0.40659211405E+02  0.00000000000E+00 0. -1.
         11    1    3    3    0    0 -0.80201087850E+01 -0.52712403640E+00 -0.12454550146E+01  0.81333365311E+01  0.51100000000E-03 0. -1.
        -11    1    3    3    0    0  0.50339560877E+01 -0.70795437603E+00 -0.40126132415E+01  0.64763399061E+01  0.51100000000E-03 0.  1.
        -12    1    3    3    0    0 -0.26048144458E+02  0.15038676312E+02 -0.19634535984E+02  0.35919112158E+02  0.00000000000E+00 0.  1.
</event>
<event>
 7    1  0.4374874E-012  0.5052885E+02  0.7816164E-02  0.1300439E+00
        -11   -1    0    0    0    0  0.00000000000E+00  0.00000000000E+00  0.45593999997E+02  0.45594000000E+02  0.51100000000E-03 0. -1.
         11   -1    0    0    0    0 -0.00000000000E+00 -0.00000000000E+00 -0.45593999997E+02  0.45594000000E+02  0.51100000000E-03 0.  1.
    9900012    2    1    2    0    0  0.21540788204E+02  0.21819906918E+02  0.26703039748E+02  0.50528853106E+02  0.29999979502E+02 0.  0.
        -12    1    1    2    0    0 -0.21540788204E+02 -0.21819906918E+02 -0.26703039748E+02  0.40659146894E+02  0.00000000000E+00 0.  1.
         11    1    3    3    0    0  0.22058460938E+02  0.15656626479E+02  0.17174077274E+02  0.32041450999E+02  0.51100000000E-03 0. -1.
        -11    1    3    3    0    0  0.33013647625E+01  0.88297282333E+01  0.20037528936E+01  0.96373303300E+01  0.51100000000E-03 0.  1.
        -12    1    3    3    0    0 -0.38190374963E+01 -0.26664477951E+01  0.75252095797E+01  0.88500717771E+01  0.00000000000E+00 0.  1.
</event>
<event>
 7    1  0.4374874E-012  0.5052890E+02  0.7816164E-02  0.1300439E+00
        -11   -1    0    0    0    0  0.00000000000E+00  0.00000000000E+00  0.45593999997E+02  0.45594000000E+02  0.51100000000E-03 0. -1.
         11   -1    0    0    0    0 -0.00000000000E+00 -0.00000000000E+00 -0.45593999997E+02  0.45594000000E+02  0.51100000000E-03 0.  1.
    9900012    2    1    2    0    0 -0.31380325978E+02  0.73673621493E+01  0.24782240444E+02  0.50528901081E+02  0.30000125324E+02 0.  0.
        -12    1    1    2    0    0  0.31380325978E+02 -0.73673621493E+01 -0.24782240444E+02  0.40659098919E+02  0.00000000000E+00 0.  1.
         11    1    3    3    0    0  0.69955343296E+00  0.11353399506E+01  0.80718177466E+01  0.81812354693E+01  0.51100000000E-03 0. -1.
        -11    1    3    3    0    0 -0.13369528874E+02 -0.78120303086E+01  0.74983886898E+01  0.17204591046E+02  0.51100000000E-03 0.  1.
         12    1    3    3    0    0 -0.18710350536E+02  0.14044052507E+02  0.92120340081E+01  0.25143074565E+02  0.00000000000E+00 0. -1.
</event>
<event>
 7    1  0.4374874E-012  0.5052885E+02  0.7816164E-02  0.1300439E+00
        -11   -1    0    0    0    0  0.00000000000E+00  0.00000000000E+00  0.45593999997E+02  0.45594000000E+02  0.51100000000E-03 0. -1.
         11   -1    0    0    0    0 -0.00000000000E+00 -0.00000000000E+00 -0.45593999997E+02  0.45594000000E+02  0.51100000000E-03 0.  1.
    9900012    2    1    2    0    0  0.20084354946E+02  0.24332272588E+02  0.25646156411E+02  0.50528854146E+02  0.29999982661E+02 0.  0.
        -12    1    1    2    0    0 -0.20084354946E+02 -0.24332272588E+02 -0.25646156411E+02  0.40659145854E+02  0.00000000000E+00 0.  1.
         11    1    3    3    0    0  0.34160990339E+01  0.15715803299E+02  0.61170863846E+01  0.17206828646E+02  0.51100000000E-03 0. -1.
        -11    1    3    3    0    0  0.10372836469E+02  0.39583407319E+01 -0.11960128439E+01  0.11166675635E+02  0.51100000000E-03 0.  1.
        -12    1    3    3    0    0  0.62954194433E+01  0.46581285573E+01  0.20725082871E+02  0.22155349865E+02  0.00000000000E+00 0.  1.
</event>
<event>
 7    1  0.4374874E-012  0.5052886E+02  0.7816164E-02  0.1300439E+00
        -11   -1    0    0    0    0  0.00000000000E+00  0.00000000000E+00  0.45593999997E+02  0.45594000000E+02  0.51100000000E-03 0.  1.
         11   -1    0    0    0    0 -0.00000000000E+00 -0.00000000000E+00 -0.45593999997E+02  0.45594000000E+02  0.51100000000E-03 0. -1.
    9900012    2    1    2    0    0  0.98684486059E+01 -0.10462948484E+02  0.38030328579E+02  0.50528862519E+02  0.30000008114E+02 0.  0.
        -12    1    1    2    0    0 -0.98684486059E+01  0.10462948484E+02 -0.38030328579E+02  0.40659137481E+02  0.00000000000E+00 0.  1.
         11    1    3    3    0    0  0.83565354935E+01 -0.37339568042E+01  0.24850650876E+01  0.94841798602E+01  0.51100000000E-03 0. -1.
        -11    1    3    3    0    0  0.75255732160E+01 -0.21851164307E+01  0.43726857879E+01  0.89738156492E+01  0.51100000000E-03 0.  1.
        -12    1    3    3    0    0 -0.60136601036E+01 -0.45438752493E+01  0.31172577703E+02  0.32070867010E+02  0.00000000000E+00 0.  1.
</event>
<event>
 7    1  0.4374874E-012  0.5052886E+02  0.7816164E-02  0.1300439E+00
        -11   -1    0    0    0    0  0.00000000000E+00  0.00000000000E+00  0.45593999997E+02  0.45594000000E+02  0.51100000000E-03 0. -1.
         11   -1    0    0    0    0 -0.00000000000E+00 -0.00000000000E+00 -0.45593999997E+02  0.45594000000E+02  0.51100000000E-03 0.  1.
    9900012    2    1    2    0    0  0.66892372496E+01 -0.26895501122E+02 -0.29749822012E+02  0.50528858527E+02  0.29999995978E+02 0.  0.
         12    1    1    2    0    0 -0.66892372496E+01  0.26895501122E+02  0.29749822012E+02  0.40659141473E+02  0.00000000000E+00 0. -1.
         11    1    3    3    0    0 -0.69240696205E+01 -0.10376920905E+02 -0.66360512170E+01  0.14130123977E+02  0.51100000000E-03 0. -1.
        -11    1    3    3    0    0  0.33856767283E+01  0.36068465346E+01 -0.73685780029E+01  0.88751389217E+01  0.51100000000E-03 0.  1.
         12    1    3    3    0    0  0.10227630142E+02 -0.20125426751E+02 -0.15745192792E+02  0.27523595628E+02  0.00000000000E+00 0. -1.
</event>
<event>
 7    1  0.4374874E-012  0.5052887E+02  0.7816164E-02  0.1300439E+00
        -11   -1    0    0    0    0  0.00000000000E+00  0.00000000000E+00  0.45593999997E+02  0.45594000000E+02  0.51100000000E-03 0. -1.
         11   -1    0    0    0    0 -0.00000000000E+00 -0.00000000000E+00 -0.45593999997E+02  0.45594000000E+02  0.51100000000E-03 0.  1.
    9900012    2    1    2    0    0 -0.93569958206E+01  0.10956755582E+02 -0.38020537016E+02  0.50528866971E+02  0.30000021646E+02 0.  0.
         12    1    1    2    0    0  0.93569958206E+01 -0.10956755582E+02  0.38020537016E+02  0.40659133029E+02  0.00000000000E+00 0. -1.
         11    1    3    3    0    0 -0.19762204460E-01  0.18764747309E+01  0.77839102014E+00  0.20316103962E+01  0.51100000000E-03 0. -1.
        -11    1    3    3    0    0  0.55689151410E+01 -0.54795502603E+01 -0.14636044340E+02  0.16590722742E+02  0.51100000000E-03 0.  1.
        -12    1    3    3    0    0 -0.14906148757E+02  0.14559831112E+02 -0.24162883696E+02  0.31906533833E+02  0.00000000000E+00 0.  1.
</event>
<event>
 7    1  0.4374874E-012  0.5052886E+02  0.7816164E-02  0.1300439E+00
        -11   -1    0    0    0    0  0.00000000000E+00  0.00000000000E+00  0.45593999997E+02  0.45594000000E+02  0.51100000000E-03 0.  1.
         11   -1    0    0    0    0 -0.00000000000E+00 -0.00000000000E+00 -0.45593999997E+02  0.45594000000E+02  0.51100000000E-03 0. -1.
    9900012    2    1    2    0    0  0.39469245317E+02 -0.74291621855E+01  0.63365521262E+01  0.50528859951E+02  0.30000000308E+02 0.  0.
         12    1    1    2    0    0 -0.39469245317E+02  0.74291621855E+01 -0.63365521262E+01  0.40659140049E+02  0.00000000000E+00 0. -1.
         11    1    3    3    0    0  0.75250478906E+01 -0.53358725336E-01  0.82999483480E+01  0.11203496586E+02  0.51100000000E-03 0. -1.
        -11    1    3    3    0    0  0.31247588777E+02 -0.12828790610E+02 -0.16212098552E+01  0.33817421465E+02  0.51100000000E-03 0.  1.
         12    1    3    3    0    0  0.69660864886E+00  0.54529871499E+01 -0.34218636671E+00  0.55079419002E+01  0.00000000000E+00 0. -1.
</event>
<event>
 7    1  0.4374874E-012  0.5052887E+02  0.7816164E-02  0.1300439E+00
        -11   -1    0    0    0    0  0.00000000000E+00  0.00000000000E+00  0.45593999997E+02  0.45594000000E+02  0.51100000000E-03 0. -1.
         11   -1    0    0    0    0 -0.00000000000E+00 -0.00000000000E+00 -0.45593999997E+02  0.45594000000E+02  0.51100000000E-03 0.  1.
    9900012    2    1    2    0    0  0.27683392092E+02  0.24877752291E+02  0.16367421018E+02  0.50528865386E+02  0.30000016826E+02 0.  0.
        -12    1    1    2    0    0 -0.27683392092E+02 -0.24877752291E+02 -0.16367421018E+02  0.40659134614E+02  0.00000000000E+00 0.  1.
         11    1    3    3    0    0  0.14766632642E+02  0.24556442554E+02  0.91199560217E+01  0.30070681877E+02  0.51100000000E-03 0. -1.
        -11    1    3    3    0    0  0.23646280618E+01  0.36818630723E+01  0.82499313240E+01  0.93385731600E+01  0.51100000000E-03 0.  1.
        -12    1    3    3    0    0  0.10552131389E+02 -0.33605533346E+01 -0.10024663276E+01  0.11119610348E+02  0.00000000000E+00 0.  1.
</event>
<event>
 7    1  0.4374874E-012  0.5052886E+02  0.7816164E-02  0.1300439E+00
        -11   -1    0    0    0    0  0.00000000000E+00  0.00000000000E+00  0.45593999997E+02  0.45594000000E+02  0.51100000000E-03 0. -1.
         11   -1    0    0    0    0 -0.00000000000E+00 -0.00000000000E+00 -0.45593999997E+02  0.45594000000E+02  0.51100000000E-03 0.  1.
    9900012    2    1    2    0    0 -0.12316481507E+02 -0.35656583451E+02  0.15168330329E+02  0.50528857054E+02  0.29999991502E+02 0.  0.
        -12    1    1    2    0    0  0.12316481507E+02  0.35656583451E+02 -0.15168330329E+02  0.40659142946E+02  0.00000000000E+00 0.  1.
         11    1    3    3    0    0  0.54674812122E+01 -0.24229176840E+02  0.92812994152E+01  0.26515823205E+02  0.51100000000E-03 0. -1.
        -11    1    3    3    0    0  0.14569320610E+00  0.64627427136E+00 -0.11101911596E+01  0.12928347211E+01  0.51100000000E-03 0.  1.
         12    1    3    3    0    0 -0.17929655926E+02 -0.12073680882E+02  0.69972220732E+01  0.22720199128E+02  0.00000000000E+00 0. -1.
</event>
<event>
 7    1  0.4374874E-012  0.5052886E+02  0.7816164E-02  0.1300439E+00
        -11   -1    0    0    0    0  0.00000000000E+00  0.00000000000E+00  0.45593999997E+02  0.45594000000E+02  0.51100000000E-03 0. -1.
         11   -1    0    0    0    0 -0.00000000000E+00 -0.00000000000E+00 -0.45593999997E+02  0.45594000000E+02  0.51100000000E-03 0.  1.
    9900012    2    1    2    0    0 -0.87171119325E+01 -0.18585349733E+02 -0.35096467214E+02  0.50528864790E+02  0.30000015016E+02 0.  0.
         12    1    1    2    0    0  0.87171119325E+01  0.18585349733E+02  0.35096467214E+02  0.40659135210E+02  0.00000000000E+00 0. -1.
         11    1    3    3    0    0  0.78008622701E+01  0.49916840233E+00 -0.14482417804E+02  0.16457309833E+02  0.51100000000E-03 0. -1.
        -11    1    3    3    0    0 -0.42224580927E+01  0.47879555080E-01 -0.46739855058E+01  0.62990146504E+01  0.51100000000E-03 0.  1.
        -12    1    3    3    0    0 -0.12295516110E+02 -0.19132397690E+02 -0.15940063904E+02  0.27772540306E+02  0.00000000000E+00 0.  1.
</event>
<event>
 7    1  0.4374874E-012  0.5052886E+02  0.7816164E-02  0.1300439E+00
        -11   -1    0    0    0    0  0.00000000000E+00  0.00000000000E+00  0.45593999997E+02  0.45594000000E+02  0.51100000000E-03 0. -1.
         11   -1    0    0    0    0 -0.00000000000E+00 -0.00000000000E+00 -0.45593999997E+02  0.45594000000E+02  0.51100000000E-03 0.  1.
    9900012    2    1    2    0    0 -0.16261898777E+01 -0.25123560175E+02  0.31926915077E+02  0.50528859875E+02  0.30000000076E+02 0.  0.
        -12    1    1    2    0    0  0.16261898777E+01  0.25123560175E+02 -0.31926915077E+02  0.40659140125E+02  0.00000000000E+00 0.  1.
         11    1    3    3    0    0 -0.43106679580E+01 -0.85274647587E+01  0.25548033245E+02  0.27276391191E+02  0.51100000000E-03 0. -1.
        -11    1    3    3    0    0 -0.81761245167E+00  0.17655724604E+01  0.39492988229E+01  0.44025785271E+01  0.51100000000E-03 0.  1.
         12    1    3    3    0    0  0.35020905320E+01 -0.18361667877E+02  0.24295830084E+01  0.18849890157E+02  0.00000000000E+00 0. -1.
</event>
<event>
 7    1  0.4374874E-012  0.5052885E+02  0.7816164E-02  0.1300439E+00
        -11   -1    0    0    0    0  0.00000000000E+00  0.00000000000E+00  0.45593999997E+02  0.45594000000E+02  0.51100000000E-03 0. -1.
         11   -1    0    0    0    0 -0.00000000000E+00 -0.00000000000E+00 -0.45593999997E+02  0.45594000000E+02  0.51100000000E-03 0.  1.
    9900012    2    1    2    0    0 -0.17475708121E+02 -0.82809321756E+01 -0.35765792448E+02  0.50528854393E+02  0.29999983414E+02 0.  0.
         12    1    1    2    0    0  0.17475708121E+02  0.82809321756E+01  0.35765792448E+02  0.40659145607E+02  0.00000000000E+00 0. -1.
         11    1    3    3    0    0  0.16872667901E+01 -0.44957030974E+01  0.38347339243E+01  0.61451932510E+01  0.51100000000E-03 0. -1.
        -11    1    3    3    0    0 -0.49588763203E+01 -0.17276179884E+00 -0.64496479999E+01  0.81374603276E+01  0.51100000000E-03 0.  1.
         12    1    3    3    0    0 -0.14204098590E+02 -0.36124672794E+01 -0.33150878373E+02  0.36246200815E+02  0.00000000000E+00 0. -1.
</event>
<event>
 7    1  0.4374874E-012  0.5052884E+02  0.7816164E-02  0.1300439E+00
        -11   -1    0    0    0    0  0.00000000000E+00  0.00000000000E+00  0.45593999997E+02  0.45594000000E+02  0.51100000000E-03 0. -1.
         11   -1    0    0    0    0 -0.00000000000E+00 -0.00000000000E+00 -0.45593999997E+02  0.45594000000E+02  0.51100000000E-03 0.  1.
    9900012    2    1    2    0    0  0.19752128050E+02  0.25486070688E+02  0.24768545796E+02  0.50528840854E+02  0.29999942259E+02 0.  0.
        -12    1    1    2    0    0 -0.19752128050E+02 -0.25486070688E+02 -0.24768545796E+02  0.40659159146E+02  0.00000000000E+00 0.  1.
         11    1    3    3    0    0  0.59729924487E+01 -0.15645232035E+01  0.33364071586E+01  0.70182607984E+01  0.51100000000E-03 0. -1.
        -11    1    3    3    0    0 -0.43971683479E+01 -0.44956058676E+00  0.50138548341E+01  0.66840058917E+01  0.51100000000E-03 0.  1.
         12    1    3    3    0    0  0.18176303949E+02  0.27500154478E+02  0.16418283804E+02  0.36826574164E+02  0.00000000000E+00 0. -1.
</event>
<event>
 7    1  0.4374874E-012  0.5052885E+02  0.7816164E-02  0.1300439E+00
        -11   -1    0    0    0    0  0.00000000000E+00  0.00000000000E+00  0.45593999997E+02  0.45594000000E+02  0.51100000000E-03 0. -1.
         11   -1    0    0    0    0 -0.00000000000E+00 -0.00000000000E+00 -0.45593999997E+02  0.45594000000E+02  0.51100000000E-03 0.  1.
    9900012    2    1    2    0    0  0.93237476573E+01 -0.22448335972E+02 -0.32593038077E+02  0.50528853559E+02  0.29999980877E+02 0.  0.
         12    1    1    2    0    0 -0.93237476573E+01  0.22448335972E+02  0.32593038077E+02  0.40659146441E+02  0.00000000000E+00 0. -1.
         11    1    3    3    0    0 -0.13367599592E+01 -0.18659582333E+02 -0.16708731625E+02  0.25082835821E+02  0.51100000000E-03 0. -1.
        -11    1    3    3    0    0 -0.35622306840E+01 -0.36473433286E+01 -0.70571792099E+01  0.87061116156E+01  0.51100000000E-03 0.  1.
        -12    1    3    3    0    0  0.14222738300E+02 -0.14141030965E+00 -0.88271272420E+01  0.16739906122E+02  0.00000000000E+00 0.  1.
</event>
<event>
 7    1  0.7200123E-012  0.5052893E+02  0.7816164E-02  0.1300439E+00
        -11   -1    0    0    0    0  0.00000000000E+00  0.00000000000E+00  0.45593999997E+02  0.45594000000E+02  0.51100000000E-03 0. -1.
         11   -1    0    0    0    0 -0.00000000000E+00 -0.00000000000E+00 -0.45593999997E+02  0.45594000000E+02  0.51100000000E-03 0.  1.
    9900012    2    1    2    0    0  0.18749331902E+02 -0.11440011863E+02 -0.34216206485E+02  0.50528928387E+02  0.30000208325E+02 0.  0.
         12    1    1    2    0    0 -0.18749331902E+02  0.11440011863E+02  0.34216206485E+02  0.40659071613E+02  0.00000000000E+00 0. -1.
         11    1    3    3    0    0  0.15805900779E+02 -0.89254474490E+01 -0.14461958794E+02  0.23208583844E+02  0.51100000000E-03 0.  1.
        -11    1    3    3    0    0  0.47155400412E+00 -0.75960409144E+01 -0.20264522355E+02  0.21646548623E+02  0.51100000000E-03 0. -1.
         12    1    3    3    0    0  0.24718771189E+01  0.50814765005E+01  0.51027466388E+00  0.56737959206E+01  0.00000000000E+00 0. -1.
</event>
<event>
 7    1  0.4374874E-012  0.5052883E+02  0.7816164E-02  0.1300439E+00
        -11   -1    0    0    0    0  0.00000000000E+00  0.00000000000E+00  0.45593999997E+02  0.45594000000E+02  0.51100000000E-03 0.  1.
         11   -1    0    0    0    0 -0.00000000000E+00 -0.00000000000E+00 -0.45593999997E+02  0.45594000000E+02  0.51100000000E-03 0. -1.
    9900012    2    1    2    0    0  0.17604273444E+02  0.24025374272E+02  0.27677412835E+02  0.50528828419E+02  0.29999904463E+02 0.  0.
        -12    1    1    2    0    0 -0.17604273444E+02 -0.24025374272E+02 -0.27677412835E+02  0.40659171581E+02  0.00000000000E+00 0.  1.
         11    1    3    3    0    0  0.39614026047E+00 -0.78477141172E+00 -0.50337059130E+01  0.51098912664E+01  0.51100000000E-03 0. -1.
        -11    1    3    3    0    0  0.48704278009E+01  0.17281897143E+01  0.37588039706E+01  0.63903297413E+01  0.51100000000E-03 0.  1.
        -12    1    3    3    0    0  0.12337705382E+02  0.23081955970E+02  0.28952314778E+02  0.39028607411E+02  0.00000000000E+00 0.  1.
</event>
<event>
 7    1  0.4374874E-012  0.5052885E+02  0.7816164E-02  0.1300439E+00
        -11   -1    0    0    0    0  0.00000000000E+00  0.00000000000E+00  0.45593999997E+02  0.45594000000E+02  0.51100000000E-03 0. -1.
         11   -1    0    0    0    0 -0.00000000000E+00 -0.00000000000E+00 -0.45593999997E+02  0.45594000000E+02  0.51100000000E-03 0.  1.
    9900012    2    1    2    0    0  0.25213255018E+02  0.11847994016E+02  0.29615586142E+02  0.50528854247E+02  0.29999982969E+02 0.  0.
        -12    1    1    2    0    0 -0.25213255018E+02 -0.11847994016E+02 -0.29615586142E+02  0.40659145753E+02  0.00000000000E+00 0.  1.
         11    1    3    3    0    0  0.27232091329E+01 -0.39172052330E+00  0.12027550083E+02  0.12338203848E+02  0.51100000000E-03 0. -1.
        -11    1    3    3    0    0  0.86197271596E+01  0.13815594759E+02  0.17937765629E+02  0.24226716469E+02  0.51100000000E-03 0.  1.
         12    1    3    3    0    0  0.13870318726E+02 -0.15758802191E+01 -0.34972956982E+00  0.13963933930E+02  0.00000000000E+00 0. -1.
</event>
<event>
 7    1  0.4374874E-012  0.5052888E+02  0.7816164E-02  0.1300439E+00
        -11   -1    0    0    0    0  0.00000000000E+00  0.00000000000E+00  0.45593999997E+02  0.45594000000E+02  0.51100000000E-03 0. -1.
         11   -1    0    0    0    0 -0.00000000000E+00 -0.00000000000E+00 -0.45593999997E+02  0.45594000000E+02  0.51100000000E-03 0.  1.
    9900012    2    1    2    0    0  0.22212021105E+02 -0.24858915399E+02  0.23277119639E+02  0.50528882263E+02  0.30000068128E+02 0.  0.
        -12    1    1    2    0    0 -0.22212021105E+02  0.24858915399E+02 -0.23277119639E+02  0.40659117737E+02  0.00000000000E+00 0.  1.
         11    1    3    3    0    0  0.40622734437E+01 -0.56489803185E+01  0.16749542254E+01  0.71567112621E+01  0.51100000000E-03 0. -1.
        -11    1    3    3    0    0 -0.75169347563E+00 -0.34227888520E+01  0.18172513522E+02  0.18507316785E+02  0.51100000000E-03 0.  1.
        -12    1    3    3    0    0  0.18901441137E+02 -0.15787146229E+02  0.34296518918E+01  0.24864854217E+02  0.00000000000E+00 0.  1.
</event>
<event>
 7    1  0.4374874E-012  0.5052886E+02  0.7816164E-02  0.1300439E+00
        -11   -1    0    0    0    0  0.00000000000E+00  0.00000000000E+00  0.45593999997E+02  0.45594000000E+02  0.51100000000E-03 0. -1.
         11   -1    0    0    0    0 -0.00000000000E+00 -0.00000000000E+00 -0.45593999997E+02  0.45594000000E+02  0.51100000000E-03 0.  1.
    9900012    2    1    2    0    0 -0.32177462776E+02 -0.16497665405E+02  0.18590410356E+02  0.50528862875E+02  0.30000009196E+02 0.  0.
        -12    1    1    2    0    0  0.32177462776E+02  0.16497665405E+02 -0.18590410356E+02  0.40659137125E+02  0.00000000000E+00 0.  1.
         11    1    3    3    0    0  0.13404245076E+01  0.10881752452E+01 -0.21977672315E+01  0.27948245544E+01  0.51100000000E-03 0. -1.
        -11    1    3    3    0    0 -0.43665560744E+01 -0.12645947479E+02  0.57396413975E+01  0.14557825498E+02  0.51100000000E-03 0.  1.
         12    1    3    3    0    0 -0.29151331209E+02 -0.49398931708E+01  0.15048536190E+02  0.33176212823E+02  0.00000000000E+00 0. -1.
</event>
