<event>
 7    1  0.3348003E-013  0.7246155E+02  0.7816164E-02  0.1226708E+00
        -11   -1    0    0    0    0  0.00000000000E+00  0.00000000000E+00  0.45593999997E+02  0.45594000000E+02  0.51100000000E-03 0.  1.
         11   -1    0    0    0    0 -0.00000000000E+00 -0.00000000000E+00 -0.45593999997E+02  0.45594000000E+02  0.51100000000E-03 0. -1.
    9900012    2    1    2    0    0 -0.18188309607E+02  0.41866249342E+01 -0.15288353668E+01  0.72461554201E+02  0.69999979035E+02 0.  0.
         12    1    1    2    0    0  0.18188309607E+02 -0.41866249342E+01  0.15288353668E+01  0.18726445799E+02  0.00000000000E+00 0. -1.
         11    1    3    3    0    0 -0.12385807215E+02 -0.42773332903E+01  0.24259057015E+02  0.27571827069E+02  0.51100000000E-03 0.  1.
        -11    1    3    3    0    0 -0.92188094738E+01 -0.12154261818E+02 -0.69895227967E+01  0.16779927224E+02  0.51100000000E-03 0. -1.
         12    1    3    3    0    0  0.34163070820E+01  0.20618220043E+02 -0.18798369585E+02  0.28109799908E+02  0.00000000000E+00 0. -1.
</event>
<event>
 7    1  0.3348003E-013  0.7246159E+02  0.7816164E-02  0.1226708E+00
        -11   -1    0    0    0    0  0.00000000000E+00  0.00000000000E+00  0.45593999997E+02  0.45594000000E+02  0.51100000000E-03 0.  1.
         11   -1    0    0    0    0 -0.00000000000E+00 -0.00000000000E+00 -0.45593999997E+02  0.45594000000E+02  0.51100000000E-03 0. -1.
    9900012    2    1    2    0    0  0.61673175620E+01 -0.17506174405E+02  0.24852621968E+01  0.72461588801E+02  0.70000024108E+02 0.  0.
         12    1    1    2    0    0 -0.61673175620E+01  0.17506174405E+02 -0.24852621968E+01  0.18726411199E+02  0.00000000000E+00 0. -1.
         11    1    3    3    0    0  0.13391046444E+01 -0.94702703193E+01  0.24483244099E+01  0.98728675594E+01  0.51100000000E-03 0. -1.
        -11    1    3    3    0    0 -0.37768156390E+01 -0.16691707798E+02  0.27582440608E+02  0.32460259946E+02  0.51100000000E-03 0.  1.
         12    1    3    3    0    0  0.86050285565E+01  0.86558037127E+01 -0.27545502821E+02  0.30128461296E+02  0.00000000000E+00 0. -1.
</event>
<event>
 7    1  0.3348003E-013  0.7246159E+02  0.7816164E-02  0.1226708E+00
        -11   -1    0    0    0    0  0.00000000000E+00  0.00000000000E+00  0.45593999997E+02  0.45594000000E+02  0.51100000000E-03 0.  1.
         11   -1    0    0    0    0 -0.00000000000E+00 -0.00000000000E+00 -0.45593999997E+02  0.45594000000E+02  0.51100000000E-03 0. -1.
    9900012    2    1    2    0    0  0.61059371175E+01 -0.17029442544E+02  0.48367505212E+01  0.72461587182E+02  0.70000021999E+02 0.  0.
         12    1    1    2    0    0 -0.61059371175E+01  0.17029442544E+02 -0.48367505212E+01  0.18726412818E+02  0.00000000000E+00 0. -1.
         11    1    3    3    0    0  0.82211516235E+01  0.75972345336E+01  0.10021077546E+01  0.11238751122E+02  0.51100000000E-03 0. -1.
        -11    1    3    3    0    0  0.13281883035E+02  0.11719926093E+02  0.11353649282E+02  0.21039734715E+02  0.51100000000E-03 0.  1.
         12    1    3    3    0    0 -0.15397097541E+02 -0.36346603170E+02 -0.75190065158E+01  0.40183101345E+02  0.00000000000E+00 0. -1.
</event>
<event>
 7    1  0.3348003E-013  0.7246160E+02  0.7816164E-02  0.1226708E+00
        -11   -1    0    0    0    0  0.00000000000E+00  0.00000000000E+00  0.45593999997E+02  0.45594000000E+02  0.51100000000E-03 0. -1.
         11   -1    0    0    0    0 -0.00000000000E+00 -0.00000000000E+00 -0.45593999997E+02  0.45594000000E+02  0.51100000000E-03 0.  1.
    9900012    2    1    2    0    0  0.10761642744E+02  0.13365936840E+01 -0.15266908113E+02  0.72461603641E+02  0.70000043441E+02 0.  0.
         12    1    1    2    0    0 -0.10761642744E+02 -0.13365936840E+01  0.15266908113E+02  0.18726396359E+02  0.00000000000E+00 0. -1.
         11    1    3    3    0    0  0.31103557260E+02 -0.10986621771E+02 -0.25836305405E+01  0.33087947643E+02  0.51100000000E-03 0. -1.
        -11    1    3    3    0    0 -0.35239622253E+01  0.40146601273E+01  0.91460564233E+01  0.10591796546E+02  0.51100000000E-03 0.  1.
        -12    1    3    3    0    0 -0.16817952290E+02  0.83085553279E+01 -0.21829333996E+02  0.28781859453E+02  0.00000000000E+00 0.  1.
</event>
<event>
 7    1  0.3348003E-013  0.7246171E+02  0.7816164E-02  0.1226708E+00
        -11   -1    0    0    0    0  0.00000000000E+00  0.00000000000E+00  0.45593999997E+02  0.45594000000E+02  0.51100000000E-03 0.  1.
         11   -1    0    0    0    0 -0.00000000000E+00 -0.00000000000E+00 -0.45593999997E+02  0.45594000000E+02  0.51100000000E-03 0. -1.
    9900012    2    1    2    0    0 -0.42073671770E+01 -0.11033124686E+02  0.14534171143E+02  0.72461710733E+02  0.70000182947E+02 0.  0.
         12    1    1    2    0    0  0.42073671770E+01  0.11033124686E+02 -0.14534171143E+02  0.18726289267E+02  0.00000000000E+00 0. -1.
         11    1    3    3    0    0  0.11599841800E+01  0.57916228119E+01  0.54625790035E+01  0.80453854926E+01  0.51100000000E-03 0. -1.
        -11    1    3    3    0    0 -0.15031237391E+02  0.20307058524E+02  0.56986098642E+01  0.25899592237E+02  0.51100000000E-03 0.  1.
         12    1    3    3    0    0  0.96638860341E+01 -0.37131806023E+02  0.33729822754E+01  0.38516733003E+02  0.00000000000E+00 0. -1.
</event>
<event>
 7    1  0.3348003E-013  0.7246203E+02  0.7816164E-02  0.1226707E+00
        -11   -1    0    0    0    0  0.00000000000E+00  0.00000000000E+00  0.45593999997E+02  0.45594000000E+02  0.51100000000E-03 0.  1.
         11   -1    0    0    0    0 -0.00000000000E+00 -0.00000000000E+00 -0.45593999997E+02  0.45594000000E+02  0.51100000000E-03 0. -1.
    9900012    2    1    2    0    0 -0.16279130288E+02 -0.59767657068E+01  0.70661299050E+01  0.72462028648E+02  0.70000597088E+02 0.  0.
         12    1    1    2    0    0  0.16279130288E+02  0.59767657068E+01 -0.70661299050E+01  0.18725971352E+02  0.00000000000E+00 0. -1.
         11    1    3    3    0    0 -0.17869281109E+01 -0.10630875197E+02 -0.98373341751E+01  0.14593894732E+02  0.51100000000E-03 0. -1.
        -11    1    3    3    0    0 -0.29402077537E+02 -0.87886834486E+01 -0.13749577386E+01  0.30718294700E+02  0.51100000000E-03 0.  1.
         12    1    3    3    0    0  0.14909875360E+02  0.13442792938E+02  0.18278421819E+02  0.27149839215E+02  0.00000000000E+00 0. -1.
</event>
<event>
 7    1  0.3348003E-013  0.7246155E+02  0.7816164E-02  0.1226708E+00
        -11   -1    0    0    0    0  0.00000000000E+00  0.00000000000E+00  0.45593999997E+02  0.45594000000E+02  0.51100000000E-03 0. -1.
         11   -1    0    0    0    0 -0.00000000000E+00 -0.00000000000E+00 -0.45593999997E+02  0.45594000000E+02  0.51100000000E-03 0.  1.
    9900012    2    1    2    0    0  0.93001504017E+00  0.15160102013E+02  0.10953833806E+02  0.72461545555E+02  0.69999967773E+02 0.  0.
         12    1    1    2    0    0 -0.93001504017E+00 -0.15160102013E+02 -0.10953833806E+02  0.18726454445E+02  0.00000000000E+00 0. -1.
         11    1    3    3    0    0 -0.80154073011E+00 -0.68633381224E+01  0.57957453401E-01  0.69102269899E+01  0.51100000000E-03 0. -1.
        -11    1    3    3    0    0 -0.21210785356E+02  0.24722652379E+01 -0.14767599102E+02  0.25963272027E+02  0.51100000000E-03 0.  1.
         12    1    3    3    0    0  0.22942341127E+02  0.19551174898E+02  0.25663475455E+02  0.39588046538E+02  0.00000000000E+00 0. -1.
</event>
<event>
 7    1  0.3348003E-013  0.7246157E+02  0.7816164E-02  0.1226708E+00
        -11   -1    0    0    0    0  0.00000000000E+00  0.00000000000E+00  0.45593999997E+02  0.45594000000E+02  0.51100000000E-03 0. -1.
         11   -1    0    0    0    0 -0.00000000000E+00 -0.00000000000E+00 -0.45593999997E+02  0.45594000000E+02  0.51100000000E-03 0.  1.
    9900012    2    1    2    0    0  0.41514460140E+01  0.18184130246E+02 -0.16679681816E+01  0.72461569089E+02  0.69999998430E+02 0.  0.
         12    1    1    2    0    0 -0.41514460140E+01 -0.18184130246E+02  0.16679681816E+01  0.18726430911E+02  0.00000000000E+00 0. -1.
         11    1    3    3    0    0 -0.16176241853E+02  0.18394113026E+02  0.62700977523E+01  0.25284942567E+02  0.51100000000E-03 0. -1.
        -11    1    3    3    0    0  0.64826228870E+01  0.20495565315E+02 -0.21387949911E+01  0.21602477667E+02  0.51100000000E-03 0.  1.
         12    1    3    3    0    0  0.13845064980E+02 -0.20705548095E+02 -0.57992709428E+01  0.25574148855E+02  0.00000000000E+00 0. -1.
</event>
<event>
 7    1  0.3348003E-013  0.7246157E+02  0.7816164E-02  0.1226708E+00
        -11   -1    0    0    0    0  0.00000000000E+00  0.00000000000E+00  0.45593999997E+02  0.45594000000E+02  0.51100000000E-03 0. -1.
         11   -1    0    0    0    0 -0.00000000000E+00 -0.00000000000E+00 -0.45593999997E+02  0.45594000000E+02  0.51100000000E-03 0.  1.
    9900012    2    1    2    0    0  0.18268198485E+02 -0.30342158029E+01 -0.27830960664E+01  0.72461570411E+02  0.70000000152E+02 0.  0.
         12    1    1    2    0    0 -0.18268198485E+02  0.30342158029E+01  0.27830960664E+01  0.18726429589E+02  0.00000000000E+00 0. -1.
         11    1    3    3    0    0  0.63841280921E+01  0.44266841174E+01  0.31971673019E+02  0.32901983218E+02  0.51100000000E-03 0. -1.
        -11    1    3    3    0    0  0.98630730365E+00 -0.98048689865E+00  0.94082867533E+00  0.16790817470E+01  0.51100000000E-03 0.  1.
        -12    1    3    3    0    0  0.10897763090E+02 -0.64804130216E+01 -0.35695597761E+02  0.37880505446E+02  0.00000000000E+00 0.  1.
</event>
<event>
 7    1  0.3348003E-013  0.7246154E+02  0.7816164E-02  0.1226708E+00
        -11   -1    0    0    0    0  0.00000000000E+00  0.00000000000E+00  0.45593999997E+02  0.45594000000E+02  0.51100000000E-03 0.  1.
         11   -1    0    0    0    0 -0.00000000000E+00 -0.00000000000E+00 -0.45593999997E+02  0.45594000000E+02  0.51100000000E-03 0. -1.
    9900012    2    1    2    0    0 -0.83168405391E+01  0.35238393968E+01  0.16404050710E+02  0.72461543839E+02  0.69999965537E+02 0.  0.
         12    1    1    2    0    0  0.83168405391E+01 -0.35238393968E+01 -0.16404050710E+02  0.18726456161E+02  0.00000000000E+00 0. -1.
         11    1    3    3    0    0  0.22128756612E+02  0.36774278512E+01 -0.10627617411E+02  0.24822401110E+02  0.51100000000E-03 0. -1.
        -11    1    3    3    0    0  0.26784299250E+00 -0.66960518000E+01  0.85223185624E+00  0.67553792621E+01  0.51100000000E-03 0.  1.
        -12    1    3    3    0    0 -0.30713440143E+02  0.65424633456E+01  0.26179436265E+02  0.40883763467E+02  0.00000000000E+00 0.  1.
</event>
<event>
 7    1  0.3348003E-013  0.7246153E+02  0.7816164E-02  0.1226708E+00
        -11   -1    0    0    0    0  0.00000000000E+00  0.00000000000E+00  0.45593999997E+02  0.45594000000E+02  0.51100000000E-03 0.  1.
         11   -1    0    0    0    0 -0.00000000000E+00 -0.00000000000E+00 -0.45593999997E+02  0.45594000000E+02  0.51100000000E-03 0. -1.
    9900012    2    1    2    0    0 -0.12244307028E+02  0.44982804026E+01  0.13435888883E+02  0.72461529664E+02  0.69999947072E+02 0.  0.
         12    1    1    2    0    0  0.12244307028E+02 -0.44982804026E+01 -0.13435888883E+02  0.18726470336E+02  0.00000000000E+00 0. -1.
         11    1    3    3    0    0 -0.12499154964E+02  0.96559170160E+01 -0.43577003643E+01  0.16384601337E+02  0.51100000000E-03 0. -1.
        -11    1    3    3    0    0 -0.15334344000E+02 -0.43653242560E+01 -0.13639327589E+02  0.20981644814E+02  0.51100000000E-03 0.  1.
        -12    1    3    3    0    0  0.15589191936E+02 -0.79231235737E+00  0.31432916836E+02  0.35095283514E+02  0.00000000000E+00 0.  1.
</event>
<event>
 7    1  0.3348003E-013  0.7246162E+02  0.7816164E-02  0.1226708E+00
        -11   -1    0    0    0    0  0.00000000000E+00  0.00000000000E+00  0.45593999997E+02  0.45594000000E+02  0.51100000000E-03 0.  1.
         11   -1    0    0    0    0 -0.00000000000E+00 -0.00000000000E+00 -0.45593999997E+02  0.45594000000E+02  0.51100000000E-03 0. -1.
    9900012    2    1    2    0    0 -0.10194197374E+02 -0.92508192532E+01  0.12695595914E+02  0.72461615603E+02  0.70000059023E+02 0.  0.
         12    1    1    2    0    0  0.10194197374E+02  0.92508192532E+01 -0.12695595914E+02  0.18726384397E+02  0.00000000000E+00 0. -1.
         11    1    3    3    0    0 -0.62893744502E+01 -0.88214242428E+01  0.15663605439E+01  0.10946563034E+02  0.51100000000E-03 0. -1.
        -11    1    3    3    0    0  0.15409804089E+02  0.16992854026E+02 -0.12715764694E+02  0.26228035039E+02  0.51100000000E-03 0.  1.
         12    1    3    3    0    0 -0.19314627013E+02 -0.17422249036E+02  0.23845000064E+02  0.35287017530E+02  0.00000000000E+00 0. -1.
</event>
<event>
 7    1  0.3348003E-013  0.7246159E+02  0.7816164E-02  0.1226708E+00
        -11   -1    0    0    0    0  0.00000000000E+00  0.00000000000E+00  0.45593999997E+02  0.45594000000E+02  0.51100000000E-03 0. -1.
         11   -1    0    0    0    0 -0.00000000000E+00 -0.00000000000E+00 -0.45593999997E+02  0.45594000000E+02  0.51100000000E-03 0.  1.
    9900012    2    1    2    0    0 -0.10382279023E+02  0.12806548285E+02  0.88813813425E+01  0.72461592677E+02  0.70000029157E+02 0.  0.
         12    1    1    2    0    0  0.10382279023E+02 -0.12806548285E+02 -0.88813813425E+01  0.18726407323E+02  0.00000000000E+00 0. -1.
         11    1    3    3    0    0 -0.30011657851E+02  0.23568309806E+02  0.10833388241E+02  0.39667708973E+02  0.51100000000E-03 0. -1.
        -11    1    3    3    0    0 -0.54266563810E+01 -0.41226242143E+01 -0.40425628083E+00  0.68270091029E+01  0.51100000000E-03 0.  1.
        -12    1    3    3    0    0  0.25056035209E+02 -0.66391373068E+01 -0.15477506182E+01  0.25966874601E+02  0.00000000000E+00 0.  1.
</event>
<event>
 7    1  0.3348003E-013  0.7246157E+02  0.7816164E-02  0.1226708E+00
        -11   -1    0    0    0    0  0.00000000000E+00  0.00000000000E+00  0.45593999997E+02  0.45594000000E+02  0.51100000000E-03 0.  1.
         11   -1    0    0    0    0 -0.00000000000E+00 -0.00000000000E+00 -0.45593999997E+02  0.45594000000E+02  0.51100000000E-03 0. -1.
    9900012    2    1    2    0    0 -0.70916653486E+01 -0.58234985874E+01  0.16324043430E+02  0.72461568222E+02  0.69999997301E+02 0.  0.
         12    1    1    2    0    0  0.70916653486E+01  0.58234985874E+01 -0.16324043430E+02  0.18726431778E+02  0.00000000000E+00 0. -1.
         11    1    3    3    0    0  0.12425122014E+02 -0.23820996068E+01  0.75870490034E+01  0.14751995405E+02  0.51100000000E-03 0. -1.
        -11    1    3    3    0    0  0.16593686768E+02 -0.11280255196E+02  0.22109872614E+01  0.20186209718E+02  0.51100000000E-03 0.  1.
         12    1    3    3    0    0 -0.36110474131E+02  0.78388562157E+01  0.65260071653E+01  0.37523363099E+02  0.00000000000E+00 0. -1.
</event>
<event>
 7    1  0.3348003E-013  0.7246160E+02  0.7816164E-02  0.1226708E+00
        -11   -1    0    0    0    0  0.00000000000E+00  0.00000000000E+00  0.45593999997E+02  0.45594000000E+02  0.51100000000E-03 0. -1.
         11   -1    0    0    0    0 -0.00000000000E+00 -0.00000000000E+00 -0.45593999997E+02  0.45594000000E+02  0.51100000000E-03 0.  1.
    9900012    2    1    2    0    0  0.16025612915E+02  0.87524782728E+01 -0.41535428325E+01  0.72461599831E+02  0.70000038477E+02 0.  0.
         12    1    1    2    0    0 -0.16025612915E+02 -0.87524782728E+01  0.41535428325E+01  0.18726400169E+02  0.00000000000E+00 0. -1.
         11    1    3    3    0    0  0.71001709626E+01 -0.63029125502E+01 -0.78503715576E+01  0.12319393985E+02  0.51100000000E-03 0. -1.
        -11    1    3    3    0    0 -0.41073271783E+01  0.97649777435E+00 -0.25147968051E+02  0.25499881996E+02  0.51100000000E-03 0.  1.
         12    1    3    3    0    0  0.13032769131E+02  0.14078893049E+02  0.28844796776E+02  0.34642323850E+02  0.00000000000E+00 0. -1.
</event>
<event>
 7    1  0.3348003E-013  0.7246155E+02  0.7816164E-02  0.1226708E+00
        -11   -1    0    0    0    0  0.00000000000E+00  0.00000000000E+00  0.45593999997E+02  0.45594000000E+02  0.51100000000E-03 0. -1.
         11   -1    0    0    0    0 -0.00000000000E+00 -0.00000000000E+00 -0.45593999997E+02  0.45594000000E+02  0.51100000000E-03 0.  1.
    9900012    2    1    2    0    0 -0.12233477359E+02 -0.62397370336E+00 -0.14164480424E+02  0.72461553002E+02  0.69999977474E+02 0.  0.
         12    1    1    2    0    0  0.12233477359E+02  0.62397370336E+00  0.14164480424E+02  0.18726446998E+02  0.00000000000E+00 0. -1.
         11    1    3    3    0    0 -0.11892214977E+02  0.78100716996E+01 -0.10452685193E+02  0.17654478894E+02  0.51100000000E-03 0. -1.
        -11    1    3    3    0    0 -0.23377022282E+02  0.96627594179E+01 -0.13685789131E+00  0.25295707555E+02  0.51100000000E-03 0.  1.
         12    1    3    3    0    0  0.23035759900E+02 -0.18096804821E+02 -0.35749373400E+01  0.29511366554E+02  0.00000000000E+00 0. -1.
</event>
<event>
 7    1  0.3348003E-013  0.7246155E+02  0.7816164E-02  0.1226708E+00
        -11   -1    0    0    0    0  0.00000000000E+00  0.00000000000E+00  0.45593999997E+02  0.45594000000E+02  0.51100000000E-03 0.  1.
         11   -1    0    0    0    0 -0.00000000000E+00 -0.00000000000E+00 -0.45593999997E+02  0.45594000000E+02  0.51100000000E-03 0. -1.
    9900012    2    1    2    0    0  0.78883821997E+01  0.10907499969E+02  0.13018444627E+02  0.72461547324E+02  0.69999970077E+02 0.  0.
         12    1    1    2    0    0 -0.78883821997E+01 -0.10907499969E+02 -0.13018444627E+02  0.18726452676E+02  0.00000000000E+00 0. -1.
         11    1    3    3    0    0  0.68046215550E+01 -0.19531083178E+01 -0.34201524448E+01  0.78622483817E+01  0.51100000000E-03 0. -1.
        -11    1    3    3    0    0  0.99092706266E+00  0.34512871005E+02  0.23567252434E+02  0.41803535604E+02  0.51100000000E-03 0.  1.
         12    1    3    3    0    0  0.92833581983E-01 -0.21652262719E+02 -0.71286553616E+01  0.22795763338E+02  0.00000000000E+00 0. -1.
</event>
<event>
 7    1  0.3348003E-013  0.7246134E+02  0.7816164E-02  0.1226709E+00
        -11   -1    0    0    0    0  0.00000000000E+00  0.00000000000E+00  0.45593999997E+02  0.45594000000E+02  0.51100000000E-03 0.  1.
         11   -1    0    0    0    0 -0.00000000000E+00 -0.00000000000E+00 -0.45593999997E+02  0.45594000000E+02  0.51100000000E-03 0. -1.
    9900012    2    1    2    0    0 -0.10345911387E+02  0.93102931356E+01  0.12528706334E+02  0.72461336573E+02  0.69999695534E+02 0.  0.
         12    1    1    2    0    0  0.10345911387E+02 -0.93102931356E+01 -0.12528706334E+02  0.18726663427E+02  0.00000000000E+00 0. -1.
         11    1    3    3    0    0 -0.44274093495E+01  0.18743744748E+02 -0.18244265371E+02  0.26528911397E+02  0.51100000000E-03 0. -1.
        -11    1    3    3    0    0  0.60687294622E+01  0.88107296718E+01  0.40809717222E+01  0.11450448249E+02  0.51100000000E-03 0.  1.
        -12    1    3    3    0    0 -0.11987231500E+02 -0.18244181284E+02  0.26691999983E+02  0.34481976928E+02  0.00000000000E+00 0.  1.
</event>
<event>
 7    1  0.3348003E-013  0.7246154E+02  0.7816164E-02  0.1226708E+00
        -11   -1    0    0    0    0  0.00000000000E+00  0.00000000000E+00  0.45593999997E+02  0.45594000000E+02  0.51100000000E-03 0. -1.
         11   -1    0    0    0    0 -0.00000000000E+00 -0.00000000000E+00 -0.45593999997E+02  0.45594000000E+02  0.51100000000E-03 0.  1.
    9900012    2    1    2    0    0 -0.27594439223E+01 -0.18505045041E+02  0.79310554167E+00  0.72461541736E+02  0.69999962797E+02 0.  0.
         12    1    1    2    0    0  0.27594439223E+01  0.18505045041E+02 -0.79310554167E+00  0.18726458264E+02  0.00000000000E+00 0. -1.
         11    1    3    3    0    0  0.33011815832E+01  0.55376407761E+01 -0.22327970352E+02  0.23240084456E+02  0.51100000000E-03 0.  1.
        -11    1    3    3    0    0  0.10208227788E+02  0.11439005406E+01  0.14959182397E+02  0.18146447621E+02  0.51100000000E-03 0. -1.
        -12    1    3    3    0    0 -0.16268853294E+02 -0.25186586357E+02  0.81618934968E+01  0.31075009659E+02  0.00000000000E+00 0.  1.
</event>
<event>
 7    1  0.3348003E-013  0.7246154E+02  0.7816164E-02  0.1226708E+00
        -11   -1    0    0    0    0  0.00000000000E+00  0.00000000000E+00  0.45593999997E+02  0.45594000000E+02  0.51100000000E-03 0.  1.
         11   -1    0    0    0    0 -0.00000000000E+00 -0.00000000000E+00 -0.45593999997E+02  0.45594000000E+02  0.51100000000E-03 0. -1.
    9900012    2    1    2    0    0 -0.16530186410E+02  0.17934733152E+01 -0.86149150129E+01  0.72461538242E+02  0.69999958246E+02 0.  0.
         12    1    1    2    0    0  0.16530186410E+02 -0.17934733152E+01  0.86149150129E+01  0.18726461758E+02  0.00000000000E+00 0. -1.
         11    1    3    3    0    0 -0.48144303603E+01 -0.53879265552E+01 -0.27806919816E+01  0.77421405578E+01  0.51100000000E-03 0. -1.
        -11    1    3    3    0    0 -0.34118326370E+02  0.81690747549E+00  0.11140728499E+02  0.35900464674E+02  0.51100000000E-03 0.  1.
         12    1    3    3    0    0  0.22402570320E+02  0.63644923949E+01 -0.16974951530E+02  0.28818933010E+02  0.00000000000E+00 0. -1.
</event>
<event>
 7    1  0.3348003E-013  0.7246163E+02  0.7816164E-02  0.1226708E+00
        -11   -1    0    0    0    0  0.00000000000E+00  0.00000000000E+00  0.45593999997E+02  0.45594000000E+02  0.51100000000E-03 0. -1.
         11   -1    0    0    0    0 -0.00000000000E+00 -0.00000000000E+00 -0.45593999997E+02  0.45594000000E+02  0.51100000000E-03 0.  1.
    9900012    2    1    2    0    0  0.92397555400E+01 -0.15735983054E+02 -0.42050673292E+01  0.72461632590E+02  0.70000081152E+02 0.  0.
         12    1    1    2    0    0 -0.92397555400E+01  0.15735983054E+02  0.42050673292E+01  0.18726367410E+02  0.00000000000E+00 0. -1.
         11    1    3    3    0    0  0.98226701773E+01  0.11544716467E+02 -0.39068063981E+01  0.15653385072E+02  0.51100000000E-03 0. -1.
        -11    1    3    3    0    0 -0.87697422089E+01  0.10123389495E+02 -0.10686457863E+02  0.17134519987E+02  0.51100000000E-03 0.  1.
         12    1    3    3    0    0  0.81868275715E+01 -0.37404089016E+02  0.10388196931E+02  0.39673727532E+02  0.00000000000E+00 0. -1.
</event>
<event>
 7    1  0.3348003E-013  0.7246153E+02  0.7816164E-02  0.1226708E+00
        -11   -1    0    0    0    0  0.00000000000E+00  0.00000000000E+00  0.45593999997E+02  0.45594000000E+02  0.51100000000E-03 0.  1.
         11   -1    0    0    0    0 -0.00000000000E+00 -0.00000000000E+00 -0.45593999997E+02  0.45594000000E+02  0.51100000000E-03 0. -1.
    9900012    2    1    2    0    0  0.13693954462E+02 -0.63157628276E+01  0.11102580103E+02  0.72461533866E+02  0.69999952546E+02 0.  0.
         12    1    1    2    0    0 -0.13693954462E+02  0.63157628276E+01 -0.11102580103E+02  0.18726466134E+02  0.00000000000E+00 0. -1.
         11    1    3    3    0    0  0.69951092520E+01 -0.11010306553E+01  0.11016871843E+02  0.13096384517E+02  0.51100000000E-03 0. -1.
        -11    1    3    3    0    0 -0.15906379224E+02  0.14791286787E+02  0.14293616393E+02  0.26001971746E+02  0.51100000000E-03 0.  1.
         12    1    3    3    0    0  0.22605224434E+02 -0.20006018959E+02 -0.14207908133E+02  0.33363177604E+02  0.00000000000E+00 0. -1.
</event>
<event>
 7    1  0.3348003E-013  0.7246155E+02  0.7816164E-02  0.1226708E+00
        -11   -1    0    0    0    0  0.00000000000E+00  0.00000000000E+00  0.45593999997E+02  0.45594000000E+02  0.51100000000E-03 0.  1.
         11   -1    0    0    0    0 -0.00000000000E+00 -0.00000000000E+00 -0.45593999997E+02  0.45594000000E+02  0.51100000000E-03 0. -1.
    9900012    2    1    2    0    0 -0.42663876150E+01  0.18140149699E+02  0.18473763394E+01  0.72461550958E+02  0.69999974811E+02 0.  0.
         12    1    1    2    0    0  0.42663876150E+01 -0.18140149699E+02 -0.18473763394E+01  0.18726449042E+02  0.00000000000E+00 0. -1.
         11    1    3    3    0    0 -0.85142805018E+01 -0.23095303963E+01 -0.37916950824E+01  0.96022838415E+01  0.51100000000E-03 0. -1.
        -11    1    3    3    0    0 -0.14083495286E+02  0.34354759298E+02 -0.50819243036E+01  0.37475595803E+02  0.51100000000E-03 0.  1.
         12    1    3    3    0    0  0.18331388173E+02 -0.13905079203E+02  0.10720995725E+02  0.25383671313E+02  0.00000000000E+00 0. -1.
</event>
<event>
 7    1  0.3348003E-013  0.7246182E+02  0.7816164E-02  0.1226707E+00
        -11   -1    0    0    0    0  0.00000000000E+00  0.00000000000E+00  0.45593999997E+02  0.45594000000E+02  0.51100000000E-03 0. -1.
         11   -1    0    0    0    0 -0.00000000000E+00 -0.00000000000E+00 -0.45593999997E+02  0.45594000000E+02  0.51100000000E-03 0.  1.
    9900012    2    1    2    0    0  0.16103501358E+02  0.69820261009E+00  0.95320376624E+01  0.72461815529E+02  0.70000319462E+02 0.  0.
         12    1    1    2    0    0 -0.16103501358E+02 -0.69820261009E+00 -0.95320376624E+01  0.18726184471E+02  0.00000000000E+00 0. -1.
         11    1    3    3    0    0  0.80949067492E+01 -0.29289711733E+02 -0.31457278186E+01  0.30550128190E+02  0.51100000000E-03 0. -1.
        -11    1    3    3    0    0  0.33174010124E+01 -0.37366331510E+01 -0.12066303388E+01  0.51403826529E+01  0.51100000000E-03 0.  1.
        -12    1    3    3    0    0  0.46911935960E+01  0.33724547494E+02  0.13884395820E+02  0.36771304686E+02  0.00000000000E+00 0.  1.
</event>
<event>
 7    1  0.3348003E-013  0.7246152E+02  0.7816164E-02  0.1226708E+00
        -11   -1    0    0    0    0  0.00000000000E+00  0.00000000000E+00  0.45593999997E+02  0.45594000000E+02  0.51100000000E-03 0. -1.
         11   -1    0    0    0    0 -0.00000000000E+00 -0.00000000000E+00 -0.45593999997E+02  0.45594000000E+02  0.51100000000E-03 0.  1.
    9900012    2    1    2    0    0  0.15564651408E+02 -0.73637328730E+00 -0.10386541763E+02  0.72461524921E+02  0.69999940893E+02 0.  0.
         12    1    1    2    0    0 -0.15564651408E+02  0.73637328730E+00  0.10386541763E+02  0.18726475079E+02  0.00000000000E+00 0. -1.
         11    1    3    3    0    0  0.38213980144E+02 -0.26414053928E+01  0.40396802148E+01  0.38517584521E+02  0.51100000000E-03 0. -1.
        -11    1    3    3    0    0 -0.49175742691E+00 -0.50066675930E+00  0.45917008772E+01  0.46450198899E+01  0.51100000000E-03 0.  1.
        -12    1    3    3    0    0 -0.22157571308E+02  0.24056988648E+01 -0.19017922855E+02  0.29298920510E+02  0.00000000000E+00 0.  1.
</event>
<event>
 7    1  0.3348003E-013  0.7246157E+02  0.7816164E-02  0.1226708E+00
        -11   -1    0    0    0    0  0.00000000000E+00  0.00000000000E+00  0.45593999997E+02  0.45594000000E+02  0.51100000000E-03 0. -1.
         11   -1    0    0    0    0 -0.00000000000E+00 -0.00000000000E+00 -0.45593999997E+02  0.45594000000E+02  0.51100000000E-03 0.  1.
    9900012    2    1    2    0    0 -0.16874979175E+01  0.40565981676E+01 -0.18203720881E+02  0.72461572368E+02  0.70000002702E+02 0.  0.
         12    1    1    2    0    0  0.16874979175E+01 -0.40565981676E+01  0.18203720881E+02  0.18726427632E+02  0.00000000000E+00 0. -1.
         11    1    3    3    0    0 -0.48381504648E+01 -0.21801152746E+02 -0.93231006700E+01  0.24199548908E+02  0.51100000000E-03 0. -1.
        -11    1    3    3    0    0  0.16616033030E+01 -0.10706246687E+02 -0.16303530382E+01  0.10956399726E+02  0.51100000000E-03 0.  1.
         12    1    3    3    0    0  0.14890492443E+01  0.36563997600E+02 -0.72502671732E+01  0.37305623735E+02  0.00000000000E+00 0. -1.
</event>
<event>
 7    1  0.3348003E-013  0.7246158E+02  0.7816164E-02  0.1226708E+00
        -11   -1    0    0    0    0  0.00000000000E+00  0.00000000000E+00  0.45593999997E+02  0.45594000000E+02  0.51100000000E-03 0.  1.
         11   -1    0    0    0    0 -0.00000000000E+00 -0.00000000000E+00 -0.45593999997E+02  0.45594000000E+02  0.51100000000E-03 0. -1.
    9900012    2    1    2    0    0 -0.15121608823E+02 -0.11031703389E+02  0.56333646555E+00  0.72461577997E+02  0.70000010034E+02 0.  0.
         12    1    1    2    0    0  0.15121608823E+02  0.11031703389E+02 -0.56333646555E+00  0.18726422003E+02  0.00000000000E+00 0. -1.
         11    1    3    3    0    0 -0.14566133507E+01 -0.30911374325E+01 -0.16961737786E+02  0.17302525887E+02  0.51100000000E-03 0. -1.
        -11    1    3    3    0    0  0.14214274293E+02  0.98878587288E+01 -0.79617387669E+00  0.17333471580E+02  0.51100000000E-03 0.  1.
        -12    1    3    3    0    0 -0.27879269766E+02 -0.17828424685E+02  0.18321248128E+02  0.37825580530E+02  0.00000000000E+00 0.  1.
</event>
<event>
 7    1  0.3348003E-013  0.7246159E+02  0.7816164E-02  0.1226708E+00
        -11   -1    0    0    0    0  0.00000000000E+00  0.00000000000E+00  0.45593999997E+02  0.45594000000E+02  0.51100000000E-03 0. -1.
         11   -1    0    0    0    0 -0.00000000000E+00 -0.00000000000E+00 -0.45593999997E+02  0.45594000000E+02  0.51100000000E-03 0.  1.
    9900012    2    1    2    0    0  0.85767503267E+01  0.14624700430E+02 -0.79521076704E+01  0.72461587497E+02  0.70000022410E+02 0.  0.
         12    1    1    2    0    0 -0.85767503267E+01 -0.14624700430E+02  0.79521076704E+01  0.18726412503E+02  0.00000000000E+00 0. -1.
         11    1    3    3    0    0  0.13229025943E+02  0.24959205981E+01 -0.67962213777E+01  0.15080629043E+02  0.51100000000E-03 0.  1.
        -11    1    3    3    0    0 -0.56614654140E+01 -0.22190071883E+02 -0.23886939700E+01  0.23025145819E+02  0.51100000000E-03 0. -1.
         12    1    3    3    0    0  0.10091897972E+01  0.34318851715E+02  0.12328076774E+01  0.34355812636E+02  0.00000000000E+00 0. -1.
</event>
<event>
 7    1  0.3348003E-013  0.7246155E+02  0.7816164E-02  0.1226708E+00
        -11   -1    0    0    0    0  0.00000000000E+00  0.00000000000E+00  0.45593999997E+02  0.45594000000E+02  0.51100000000E-03 0. -1.
         11   -1    0    0    0    0 -0.00000000000E+00 -0.00000000000E+00 -0.45593999997E+02  0.45594000000E+02  0.51100000000E-03 0.  1.
    9900012    2    1    2    0    0  0.84787023945E+00 -0.51790981339E+01 -0.17976034731E+02  0.72461554366E+02  0.69999979251E+02 0.  0.
         12    1    1    2    0    0 -0.84787023945E+00  0.51790981339E+01  0.17976034731E+02  0.18726445634E+02  0.00000000000E+00 0. -1.
         11    1    3    3    0    0 -0.91031894943E+01 -0.79559978065E+01 -0.85659918543E+01  0.14816955719E+02  0.51100000000E-03 0. -1.
        -11    1    3    3    0    0 -0.14615535964E+02 -0.18691843254E+02 -0.78099063585E+01  0.24979862556E+02  0.51100000000E-03 0.  1.
        -12    1    3    3    0    0  0.24566595698E+02  0.21468742926E+02 -0.16001365181E+01  0.32664736091E+02  0.00000000000E+00 0.  1.
</event>
<event>
 7    1  0.3348003E-013  0.7246160E+02  0.7816164E-02  0.1226708E+00
        -11   -1    0    0    0    0  0.00000000000E+00  0.00000000000E+00  0.45593999997E+02  0.45594000000E+02  0.51100000000E-03 0.  1.
         11   -1    0    0    0    0 -0.00000000000E+00 -0.00000000000E+00 -0.45593999997E+02  0.45594000000E+02  0.51100000000E-03 0. -1.
    9900012    2    1    2    0    0 -0.11872306311E+02  0.11733219510E+02  0.84887047892E+01  0.72461596015E+02  0.70000033506E+02 0.  0.
         12    1    1    2    0    0  0.11872306311E+02 -0.11733219510E+02 -0.84887047892E+01  0.18726403985E+02  0.00000000000E+00 0. -1.
         11    1    3    3    0    0 -0.18423494518E+02 -0.15258644775E+02 -0.21487450020E+01  0.24018086851E+02  0.51100000000E-03 0. -1.
        -11    1    3    3    0    0 -0.89280997836E+01  0.90938501999E+00  0.15319256791E+02  0.17754367793E+02  0.51100000000E-03 0.  1.
        -12    1    3    3    0    0  0.15479287990E+02  0.26082479265E+02 -0.46818069997E+01  0.30689141371E+02  0.00000000000E+00 0.  1.
</event>
<event>
 7    1  0.3348003E-013  0.7246157E+02  0.7816164E-02  0.1226708E+00
        -11   -1    0    0    0    0  0.00000000000E+00  0.00000000000E+00  0.45593999997E+02  0.45594000000E+02  0.51100000000E-03 0. -1.
         11   -1    0    0    0    0 -0.00000000000E+00 -0.00000000000E+00 -0.45593999997E+02  0.45594000000E+02  0.51100000000E-03 0.  1.
    9900012    2    1    2    0    0 -0.18389101076E+02  0.30860318648E+01 -0.17310298661E+01  0.72461572272E+02  0.70000002576E+02 0.  0.
         12    1    1    2    0    0  0.18389101076E+02 -0.30860318648E+01  0.17310298661E+01  0.18726427728E+02  0.00000000000E+00 0. -1.
         11    1    3    3    0    0 -0.11506342483E+02  0.81284149314E+00  0.10892090607E+02  0.15864875250E+02  0.51100000000E-03 0. -1.
        -11    1    3    3    0    0 -0.22556005327E+02 -0.17634450009E+02 -0.81398133479E+00  0.28642796115E+02  0.51100000000E-03 0.  1.
         12    1    3    3    0    0  0.15673246734E+02  0.19907640381E+02 -0.11809139138E+02  0.27953900907E+02  0.00000000000E+00 0. -1.
</event>
<event>
 7    1  0.3348003E-013  0.7246170E+02  0.7816164E-02  0.1226708E+00
        -11   -1    0    0    0    0  0.00000000000E+00  0.00000000000E+00  0.45593999997E+02  0.45594000000E+02  0.51100000000E-03 0.  1.
         11   -1    0    0    0    0 -0.00000000000E+00 -0.00000000000E+00 -0.45593999997E+02  0.45594000000E+02  0.51100000000E-03 0. -1.
    9900012    2    1    2    0    0 -0.12768142200E+02 -0.79548465903E+01  0.11152090109E+02  0.72461704228E+02  0.70000174474E+02 0.  0.
         12    1    1    2    0    0  0.12768142200E+02  0.79548465903E+01 -0.11152090109E+02  0.18726295772E+02  0.00000000000E+00 0. -1.
         11    1    3    3    0    0 -0.25292813217E+02 -0.18959179036E+02 -0.51333342738E+01  0.32023865962E+02  0.51100000000E-03 0. -1.
        -11    1    3    3    0    0 -0.10796962597E+02  0.76775343358E+01  0.79406881049E+01  0.15445823469E+02  0.51100000000E-03 0.  1.
        -12    1    3    3    0    0  0.23321633614E+02  0.33267981098E+01  0.83447362783E+01  0.24992014797E+02  0.00000000000E+00 0.  1.
</event>
<event>
 7    1  0.3348003E-013  0.7246157E+02  0.7816164E-02  0.1226708E+00
        -11   -1    0    0    0    0  0.00000000000E+00  0.00000000000E+00  0.45593999997E+02  0.45594000000E+02  0.51100000000E-03 0. -1.
         11   -1    0    0    0    0 -0.00000000000E+00 -0.00000000000E+00 -0.45593999997E+02  0.45594000000E+02  0.51100000000E-03 0.  1.
    9900012    2    1    2    0    0  0.15358058764E+02 -0.51190192239E+01 -0.94130120651E+01  0.72461571538E+02  0.70000001620E+02 0.  0.
         12    1    1    2    0    0 -0.15358058764E+02  0.51190192239E+01  0.94130120651E+01  0.18726428462E+02  0.00000000000E+00 0. -1.
         11    1    3    3    0    0  0.13097877709E+00  0.10348476802E+02  0.12875263288E+02  0.16519095997E+02  0.51100000000E-03 0. -1.
        -11    1    3    3    0    0 -0.67915910747E+00  0.81368067523E+00 -0.31405160055E+02  0.31423039504E+02  0.51100000000E-03 0.  1.
        -12    1    3    3    0    0  0.15906239094E+02 -0.16281176701E+02  0.91168847016E+01  0.24519436037E+02  0.00000000000E+00 0.  1.
</event>
<event>
 7    1  0.3348003E-013  0.7246157E+02  0.7816164E-02  0.1226708E+00
        -11   -1    0    0    0    0  0.00000000000E+00  0.00000000000E+00  0.45593999997E+02  0.45594000000E+02  0.51100000000E-03 0.  1.
         11   -1    0    0    0    0 -0.00000000000E+00 -0.00000000000E+00 -0.45593999997E+02  0.45594000000E+02  0.51100000000E-03 0. -1.
    9900012    2    1    2    0    0 -0.17538801337E+02 -0.65429607982E+01 -0.50916358704E+00  0.72461571192E+02  0.70000001169E+02 0.  0.
         12    1    1    2    0    0  0.17538801337E+02  0.65429607982E+01  0.50916358704E+00  0.18726428808E+02  0.00000000000E+00 0. -1.
         11    1    3    3    0    0 -0.53148872673E+01 -0.38925789186E+01  0.59288025299E+01  0.88628943919E+01  0.51100000000E-03 0. -1.
        -11    1    3    3    0    0  0.15627113382E+02 -0.21809792156E+02  0.61499524280E+01  0.27526271481E+02  0.51100000000E-03 0.  1.
         12    1    3    3    0    0 -0.27851027451E+02  0.19159410276E+02 -0.12587918545E+02  0.36072405319E+02  0.00000000000E+00 0. -1.
</event>
<event>
 7    1  0.3348003E-013  0.7246177E+02  0.7816164E-02  0.1226707E+00
        -11   -1    0    0    0    0  0.00000000000E+00  0.00000000000E+00  0.45593999997E+02  0.45594000000E+02  0.51100000000E-03 0. -1.
         11   -1    0    0    0    0 -0.00000000000E+00 -0.00000000000E+00 -0.45593999997E+02  0.45594000000E+02  0.51100000000E-03 0.  1.
    9900012    2    1    2    0    0  0.87388665247E+01 -0.16220647107E+02  0.33458436340E+01  0.72461765719E+02  0.70000254577E+02 0.  0.
         12    1    1    2    0    0 -0.87388665247E+01  0.16220647107E+02 -0.33458436340E+01  0.18726234281E+02  0.00000000000E+00 0. -1.
         11    1    3    3    0    0 -0.22037383143E+01 -0.26507937049E+01  0.17535181272E+02  0.17870807266E+02  0.51100000000E-03 0. -1.
        -11    1    3    3    0    0 -0.55561558940E+01 -0.26238015597E+02 -0.19455606519E+02  0.33133441658E+02  0.51100000000E-03 0.  1.
         12    1    3    3    0    0  0.16498760733E+02  0.12668162195E+02  0.52662688809E+01  0.21457516796E+02  0.00000000000E+00 0. -1.
</event>
<event>
 7    1  0.3348003E-013  0.7246157E+02  0.7816164E-02  0.1226708E+00
        -11   -1    0    0    0    0  0.00000000000E+00  0.00000000000E+00  0.45593999997E+02  0.45594000000E+02  0.51100000000E-03 0.  1.
         11   -1    0    0    0    0 -0.00000000000E+00 -0.00000000000E+00 -0.45593999997E+02  0.45594000000E+02  0.51100000000E-03 0. -1.
    9900012    2    1    2    0    0  0.10520232092E+02 -0.15491562030E+02  0.12462174466E+00  0.72461566598E+02  0.69999995185E+02 0.  0.
         12    1    1    2    0    0 -0.10520232092E+02  0.15491562030E+02 -0.12462174466E+00  0.18726433402E+02  0.00000000000E+00 0. -1.
         11    1    3    3    0    0  0.63622534750E+01 -0.28880881385E+02 -0.10131789787E+00  0.29573532836E+02  0.51100000000E-03 0. -1.
        -11    1    3    3    0    0 -0.12409269603E+02 -0.85761250971E+01  0.24640207308E+01  0.15284347947E+02  0.51100000000E-03 0.  1.
         12    1    3    3    0    0  0.16567248220E+02  0.21965444452E+02 -0.22380810883E+01  0.27603685814E+02  0.00000000000E+00 0. -1.
</event>
<event>
 7    1  0.3348003E-013  0.7246170E+02  0.7816164E-02  0.1226708E+00
        -11   -1    0    0    0    0  0.00000000000E+00  0.00000000000E+00  0.45593999997E+02  0.45594000000E+02  0.51100000000E-03 0.  1.
         11   -1    0    0    0    0 -0.00000000000E+00 -0.00000000000E+00 -0.45593999997E+02  0.45594000000E+02  0.51100000000E-03 0. -1.
    9900012    2    1    2    0    0  0.14369338659E+02  0.16262655700E+01  0.11897556316E+02  0.72461695520E+02  0.70000163129E+02 0.  0.
         12    1    1    2    0    0 -0.14369338659E+02 -0.16262655700E+01 -0.11897556316E+02  0.18726304480E+02  0.00000000000E+00 0. -1.
         11    1    3    3    0    0  0.16931277141E+02 -0.13268817012E+02  0.10278298610E+02  0.23840576191E+02  0.51100000000E-03 0. -1.
        -11    1    3    3    0    0  0.14422054095E+02 -0.61331644373E+01  0.11924651038E+02  0.19692857918E+02  0.51100000000E-03 0.  1.
         12    1    3    3    0    0 -0.16983992577E+02  0.21028247019E+02 -0.10305393333E+02  0.28928261411E+02  0.00000000000E+00 0. -1.
</event>
<event>
 7    1  0.3348003E-013  0.7246153E+02  0.7816164E-02  0.1226708E+00
        -11   -1    0    0    0    0  0.00000000000E+00  0.00000000000E+00  0.45593999997E+02  0.45594000000E+02  0.51100000000E-03 0.  1.
         11   -1    0    0    0    0 -0.00000000000E+00 -0.00000000000E+00 -0.45593999997E+02  0.45594000000E+02  0.51100000000E-03 0. -1.
    9900012    2    1    2    0    0  0.13081510726E+02 -0.44211122418E+01  0.12649444484E+02  0.72461532044E+02  0.69999950172E+02 0.  0.
         12    1    1    2    0    0 -0.13081510726E+02  0.44211122418E+01 -0.12649444484E+02  0.18726467956E+02  0.00000000000E+00 0. -1.
         11    1    3    3    0    0  0.19925285828E+02 -0.10216402253E+02 -0.19264797701E+02  0.29538522662E+02  0.51100000000E-03 0. -1.
        -11    1    3    3    0    0  0.71763173360E+01 -0.54098044090E+01  0.42363678090E+01  0.99354077282E+01  0.51100000000E-03 0.  1.
        -12    1    3    3    0    0 -0.14020092438E+02  0.11205094420E+02  0.27677874376E+02  0.32987601654E+02  0.00000000000E+00 0.  1.
</event>
<event>
 7    1  0.3348003E-013  0.7246154E+02  0.7816164E-02  0.1226708E+00
        -11   -1    0    0    0    0  0.00000000000E+00  0.00000000000E+00  0.45593999997E+02  0.45594000000E+02  0.51100000000E-03 0.  1.
         11   -1    0    0    0    0 -0.00000000000E+00 -0.00000000000E+00 -0.45593999997E+02  0.45594000000E+02  0.51100000000E-03 0. -1.
    9900012    2    1    2    0    0 -0.40433591121E+01 -0.17614727104E+02  0.49043985493E+01  0.72461535065E+02  0.69999954107E+02 0.  0.
         12    1    1    2    0    0  0.40433591121E+01  0.17614727104E+02 -0.49043985493E+01  0.18726464935E+02  0.00000000000E+00 0. -1.
         11    1    3    3    0    0 -0.10670227650E+02  0.27334537338E+01  0.21063521482E+02  0.23769675322E+02  0.51100000000E-03 0. -1.
        -11    1    3    3    0    0  0.71734776830E+01 -0.23021368111E+02  0.72068972869E+01  0.25167072546E+02  0.51100000000E-03 0.  1.
         12    1    3    3    0    0 -0.54660914474E+00  0.26731872734E+01 -0.23366020219E+02  0.23524787197E+02  0.00000000000E+00 0. -1.
</event>
<event>
 7    1  0.3348003E-013  0.7246171E+02  0.7816164E-02  0.1226708E+00
        -11   -1    0    0    0    0  0.00000000000E+00  0.00000000000E+00  0.45593999997E+02  0.45594000000E+02  0.51100000000E-03 0.  1.
         11   -1    0    0    0    0 -0.00000000000E+00 -0.00000000000E+00 -0.45593999997E+02  0.45594000000E+02  0.51100000000E-03 0. -1.
    9900012    2    1    2    0    0  0.95564858908E+01 -0.12033005926E+02  0.10702998651E+02  0.72461712746E+02  0.70000185570E+02 0.  0.
         12    1    1    2    0    0 -0.95564858908E+01  0.12033005926E+02 -0.10702998651E+02  0.18726287254E+02  0.00000000000E+00 0. -1.
         11    1    3    3    0    0  0.13578922075E+02 -0.81515368250E+01 -0.13946146594E+02  0.21102835886E+02  0.51100000000E-03 0. -1.
        -11    1    3    3    0    0  0.70208470242E+01 -0.21916884495E+02  0.77351015468E+01  0.24279083901E+02  0.51100000000E-03 0.  1.
        -12    1    3    3    0    0 -0.11043283209E+02  0.18035415394E+02  0.16914043699E+02  0.27079792959E+02  0.00000000000E+00 0.  1.
</event>
<event>
 7    1  0.3348003E-013  0.7246162E+02  0.7816164E-02  0.1226708E+00
        -11   -1    0    0    0    0  0.00000000000E+00  0.00000000000E+00  0.45593999997E+02  0.45594000000E+02  0.51100000000E-03 0. -1.
         11   -1    0    0    0    0 -0.00000000000E+00 -0.00000000000E+00 -0.45593999997E+02  0.45594000000E+02  0.51100000000E-03 0.  1.
    9900012    2    1    2    0    0 -0.15980276537E+02 -0.53237833527E+01 -0.81832398376E+01  0.72461619634E+02  0.70000064274E+02 0.  0.
         12    1    1    2    0    0  0.15980276537E+02  0.53237833527E+01  0.81832398376E+01  0.18726380366E+02  0.00000000000E+00 0. -1.
         11    1    3    3    0    0 -0.15129223362E+02 -0.52775770868E+01 -0.35556446823E+01  0.16413068842E+02  0.51100000000E-03 0. -1.
        -11    1    3    3    0    0 -0.19276120577E+02 -0.16146963733E+01 -0.22951448645E+02  0.30015746934E+02  0.51100000000E-03 0.  1.
         12    1    3    3    0    0  0.18425067402E+02  0.15684901074E+01  0.18323853489E+02  0.26032803858E+02  0.00000000000E+00 0. -1.
</event>
<event>
 7    1  0.3348003E-013  0.7246158E+02  0.7816164E-02  0.1226708E+00
        -11   -1    0    0    0    0  0.00000000000E+00  0.00000000000E+00  0.45593999997E+02  0.45594000000E+02  0.51100000000E-03 0.  1.
         11   -1    0    0    0    0 -0.00000000000E+00 -0.00000000000E+00 -0.45593999997E+02  0.45594000000E+02  0.51100000000E-03 0. -1.
    9900012    2    1    2    0    0  0.13374596279E+02 -0.11686442913E+02  0.59351653069E+01  0.72461575867E+02  0.70000007260E+02 0.  0.
         12    1    1    2    0    0 -0.13374596279E+02  0.11686442913E+02 -0.59351653069E+01  0.18726424133E+02  0.00000000000E+00 0. -1.
         11    1    3    3    0    0 -0.15830090761E+02 -0.12186269420E+02  0.23994322842E+01  0.20120989325E+02  0.51100000000E-03 0. -1.
        -11    1    3    3    0    0  0.12086669085E+02 -0.11633794808E+02  0.19684646973E+02  0.25863450619E+02  0.51100000000E-03 0.  1.
         12    1    3    3    0    0  0.17118017955E+02  0.12133621314E+02 -0.16148913951E+02  0.26477135923E+02  0.00000000000E+00 0. -1.
</event>
<event>
 7    1  0.3348003E-013  0.7246154E+02  0.7816164E-02  0.1226708E+00
        -11   -1    0    0    0    0  0.00000000000E+00  0.00000000000E+00  0.45593999997E+02  0.45594000000E+02  0.51100000000E-03 0.  1.
         11   -1    0    0    0    0 -0.00000000000E+00 -0.00000000000E+00 -0.45593999997E+02  0.45594000000E+02  0.51100000000E-03 0. -1.
    9900012    2    1    2    0    0 -0.18218833343E+02  0.29912443131E+01  0.31315667766E+01  0.72461544345E+02  0.69999966196E+02 0.  0.
         12    1    1    2    0    0  0.18218833343E+02 -0.29912443131E+01 -0.31315667766E+01  0.18726455655E+02  0.00000000000E+00 0. -1.
         11    1    3    3    0    0  0.27231775591E+01 -0.14057090891E+02  0.16538445839E+01  0.14413629054E+02  0.51100000000E-03 0. -1.
        -11    1    3    3    0    0  0.11892328252E+01  0.26600864465E+02  0.14843768407E+02  0.30485369044E+02  0.51100000000E-03 0.  1.
         12    1    3    3    0    0 -0.22131243727E+02 -0.95525292612E+01 -0.13366046214E+02  0.27562546247E+02  0.00000000000E+00 0. -1.
</event>
<event>
 7    1  0.3348003E-013  0.7246170E+02  0.7816164E-02  0.1226708E+00
        -11   -1    0    0    0    0  0.00000000000E+00  0.00000000000E+00  0.45593999997E+02  0.45594000000E+02  0.51100000000E-03 0.  1.
         11   -1    0    0    0    0 -0.00000000000E+00 -0.00000000000E+00 -0.45593999997E+02  0.45594000000E+02  0.51100000000E-03 0. -1.
    9900012    2    1    2    0    0 -0.15728478463E+02 -0.14409828718E+01  0.10060464743E+02  0.72461697181E+02  0.70000165294E+02 0.  0.
         12    1    1    2    0    0  0.15728478463E+02  0.14409828718E+01 -0.10060464743E+02  0.18726302819E+02  0.00000000000E+00 0. -1.
         11    1    3    3    0    0  0.11727154773E+02  0.18774449637E+00 -0.40448867496E+01  0.12406551340E+02  0.51100000000E-03 0. -1.
        -11    1    3    3    0    0 -0.49187676098E+01  0.22816350237E+02 -0.13716035565E+01  0.23380791464E+02  0.51100000000E-03 0.  1.
         12    1    3    3    0    0 -0.22536865626E+02 -0.24445077605E+02  0.15476955050E+02  0.36674354377E+02  0.00000000000E+00 0. -1.
</event>
<event>
 7    1  0.3348003E-013  0.7246167E+02  0.7816164E-02  0.1226708E+00
        -11   -1    0    0    0    0  0.00000000000E+00  0.00000000000E+00  0.45593999997E+02  0.45594000000E+02  0.51100000000E-03 0.  1.
         11   -1    0    0    0    0 -0.00000000000E+00 -0.00000000000E+00 -0.45593999997E+02  0.45594000000E+02  0.51100000000E-03 0. -1.
    9900012    2    1    2    0    0 -0.10469138551E+02 -0.61498202817E+01  0.14256659620E+02  0.72461668405E+02  0.70000127807E+02 0.  0.
         12    1    1    2    0    0  0.10469138551E+02  0.61498202817E+01 -0.14256659620E+02  0.18726331595E+02  0.00000000000E+00 0. -1.
         11    1    3    3    0    0 -0.13786713314E+02  0.80279863428E+00  0.52175495974E+01  0.14762817269E+02  0.51100000000E-03 0. -1.
        -11    1    3    3    0    0 -0.17137561436E+02 -0.10379441048E+02  0.24631521448E+02  0.31751230803E+02  0.51100000000E-03 0.  1.
        -12    1    3    3    0    0  0.20455136199E+02  0.34268221323E+01 -0.15592411425E+02  0.25947620332E+02  0.00000000000E+00 0.  1.
</event>
<event>
 7    1  0.3348003E-013  0.7246226E+02  0.7816164E-02  0.1226706E+00
        -11   -1    0    0    0    0  0.00000000000E+00  0.00000000000E+00  0.45593999997E+02  0.45594000000E+02  0.51100000000E-03 0. -1.
         11   -1    0    0    0    0 -0.00000000000E+00 -0.00000000000E+00 -0.45593999997E+02  0.45594000000E+02  0.51100000000E-03 0.  1.
    9900012    2    1    2    0    0 -0.58189694885E+01 -0.26677301499E+01 -0.17597617866E+02  0.72462259838E+02  0.70000898253E+02 0.  0.
         12    1    1    2    0    0  0.58189694885E+01  0.26677301499E+01  0.17597617866E+02  0.18725740162E+02  0.00000000000E+00 0. -1.
         11    1    3    3    0    0  0.45178660657E+01  0.46668269916E+00  0.99087568935E+01  0.10900108713E+02  0.51100000000E-03 0. -1.
        -11    1    3    3    0    0  0.17219092422E+02 -0.14934365242E+02 -0.32962386939E+01  0.23030362542E+02  0.51100000000E-03 0.  1.
        -12    1    3    3    0    0 -0.27555927976E+02  0.11799952393E+02 -0.24210136065E+02  0.38531788583E+02  0.00000000000E+00 0.  1.
</event>
<event>
 7    1  0.3348003E-013  0.7246155E+02  0.7816164E-02  0.1226708E+00
        -11   -1    0    0    0    0  0.00000000000E+00  0.00000000000E+00  0.45593999997E+02  0.45594000000E+02  0.51100000000E-03 0. -1.
         11   -1    0    0    0    0 -0.00000000000E+00 -0.00000000000E+00 -0.45593999997E+02  0.45594000000E+02  0.51100000000E-03 0.  1.
    9900012    2    1    2    0    0  0.91277337651E+01  0.10889452924E+02 -0.12197711428E+02  0.72461551518E+02  0.69999975540E+02 0.  0.
         12    1    1    2    0    0 -0.91277337651E+01 -0.10889452924E+02  0.12197711428E+02  0.18726448482E+02  0.00000000000E+00 0. -1.
         11    1    3    3    0    0  0.95712558883E+01 -0.19786939825E+02 -0.23230046234E+01  0.22102675803E+02  0.51100000000E-03 0. -1.
        -11    1    3    3    0    0  0.57666124888E+01 -0.39467129395E+01 -0.13292739655E+02  0.15017566062E+02  0.51100000000E-03 0.  1.
         12    1    3    3    0    0 -0.62101346120E+01  0.34623105688E+02  0.34180328506E+01  0.35341309653E+02  0.00000000000E+00 0. -1.
</event>
<event>
 7    1  0.3348003E-013  0.7246155E+02  0.7816164E-02  0.1226708E+00
        -11   -1    0    0    0    0  0.00000000000E+00  0.00000000000E+00  0.45593999997E+02  0.45594000000E+02  0.51100000000E-03 0.  1.
         11   -1    0    0    0    0 -0.00000000000E+00 -0.00000000000E+00 -0.45593999997E+02  0.45594000000E+02  0.51100000000E-03 0. -1.
    9900012    2    1    2    0    0 -0.12574136620E+01 -0.17851193263E+02  0.55166841813E+01  0.72461548270E+02  0.69999971310E+02 0.  0.
         12    1    1    2    0    0  0.12574136620E+01  0.17851193263E+02 -0.55166841813E+01  0.18726451730E+02  0.00000000000E+00 0. -1.
         11    1    3    3    0    0 -0.10672432126E+02 -0.14891008029E+02  0.32013394618E+01  0.18598158571E+02  0.51100000000E-03 0. -1.
        -11    1    3    3    0    0 -0.13253690025E+02 -0.18231209174E+02  0.11138841370E+02  0.25141819237E+02  0.51100000000E-03 0.  1.
        -12    1    3    3    0    0  0.22668708489E+02  0.15271023940E+02 -0.88234966507E+01  0.28721570463E+02  0.00000000000E+00 0.  1.
</event>
<event>
 7    1  0.3348003E-013  0.7246150E+02  0.7816164E-02  0.1226708E+00
        -11   -1    0    0    0    0  0.00000000000E+00  0.00000000000E+00  0.45593999997E+02  0.45594000000E+02  0.51100000000E-03 0. -1.
         11   -1    0    0    0    0 -0.00000000000E+00 -0.00000000000E+00 -0.45593999997E+02  0.45594000000E+02  0.51100000000E-03 0.  1.
    9900012    2    1    2    0    0 -0.13003748038E+02  0.13397568042E+02  0.14455063341E+01  0.72461500566E+02  0.69999909166E+02 0.  0.
         12    1    1    2    0    0  0.13003748038E+02 -0.13397568042E+02 -0.14455063341E+01  0.18726499434E+02  0.00000000000E+00 0. -1.
         11    1    3    3    0    0  0.48754187723E+01  0.46741778336E+01  0.70081761670E+01  0.97330457758E+01  0.51100000000E-03 0. -1.
        -11    1    3    3    0    0 -0.34185878112E+02  0.22259980877E+02 -0.73838514063E+01  0.41457234263E+02  0.51100000000E-03 0.  1.
         12    1    3    3    0    0  0.16306711301E+02 -0.13536590669E+02  0.18211815734E+01  0.21271220527E+02  0.00000000000E+00 0. -1.
</event>
<event>
 7    1  0.3348003E-013  0.7246155E+02  0.7816164E-02  0.1226708E+00
        -11   -1    0    0    0    0  0.00000000000E+00  0.00000000000E+00  0.45593999997E+02  0.45594000000E+02  0.51100000000E-03 0.  1.
         11   -1    0    0    0    0 -0.00000000000E+00 -0.00000000000E+00 -0.45593999997E+02  0.45594000000E+02  0.51100000000E-03 0. -1.
    9900012    2    1    2    0    0  0.15552263749E+02 -0.79668083428E+01  0.67332713577E+01  0.72461551162E+02  0.69999975077E+02 0.  0.
         12    1    1    2    0    0 -0.15552263749E+02  0.79668083428E+01 -0.67332713577E+01  0.18726448838E+02  0.00000000000E+00 0. -1.
         11    1    3    3    0    0 -0.34986306557E+01 -0.10294305489E+02  0.33609965831E+00  0.10877780344E+02  0.51100000000E-03 0.  1.
        -11    1    3    3    0    0 -0.19392014117E+01 -0.44091475533E+01 -0.23751667564E+02  0.24235156211E+02  0.51100000000E-03 0. -1.
         12    1    3    3    0    0  0.20990095817E+02  0.67366446995E+01  0.30148839263E+02  0.37348614608E+02  0.00000000000E+00 0. -1.
</event>
<event>
 7    1  0.3348003E-013  0.7246160E+02  0.7816164E-02  0.1226708E+00
        -11   -1    0    0    0    0  0.00000000000E+00  0.00000000000E+00  0.45593999997E+02  0.45594000000E+02  0.51100000000E-03 0. -1.
         11   -1    0    0    0    0 -0.00000000000E+00 -0.00000000000E+00 -0.45593999997E+02  0.45594000000E+02  0.51100000000E-03 0.  1.
    9900012    2    1    2    0    0  0.14672683603E+02  0.97001673603E+01 -0.64262728803E+01  0.72461604883E+02  0.70000045058E+02 0.  0.
         12    1    1    2    0    0 -0.14672683603E+02 -0.97001673603E+01  0.64262728803E+01  0.18726395117E+02  0.00000000000E+00 0. -1.
         11    1    3    3    0    0  0.15227992486E+02 -0.11867130151E+01  0.20036384589E+02  0.25194379345E+02  0.51100000000E-03 0. -1.
        -11    1    3    3    0    0  0.15360584793E+02 -0.36060292677E+01 -0.18503043152E+02  0.24316940975E+02  0.51100000000E-03 0.  1.
        -12    1    3    3    0    0 -0.15915893676E+02  0.14492909643E+02 -0.79596143174E+01  0.22950284563E+02  0.00000000000E+00 0.  1.
</event>
<event>
 7    1  0.3348003E-013  0.7246147E+02  0.7816164E-02  0.1226708E+00
        -11   -1    0    0    0    0  0.00000000000E+00  0.00000000000E+00  0.45593999997E+02  0.45594000000E+02  0.51100000000E-03 0.  1.
         11   -1    0    0    0    0 -0.00000000000E+00 -0.00000000000E+00 -0.45593999997E+02  0.45594000000E+02  0.51100000000E-03 0. -1.
    9900012    2    1    2    0    0 -0.11696608147E+02  0.14494121409E+02 -0.19474997281E+01  0.72461469282E+02  0.69999868412E+02 0.  0.
         12    1    1    2    0    0  0.11696608147E+02 -0.14494121409E+02  0.19474997281E+01  0.18726530718E+02  0.00000000000E+00 0. -1.
         11    1    3    3    0    0 -0.20691011987E+02 -0.99709051508E+01  0.47223618973E+01  0.23448616777E+02  0.51100000000E-03 0. -1.
        -11    1    3    3    0    0  0.36560872993E+01  0.29381281403E+01  0.16372287673E+02  0.17030894727E+02  0.51100000000E-03 0.  1.
        -12    1    3    3    0    0  0.53383165413E+01  0.21526898419E+02 -0.23042149298E+02  0.31981957778E+02  0.00000000000E+00 0.  1.
</event>
<event>
 7    1  0.3348003E-013  0.7246158E+02  0.7816164E-02  0.1226708E+00
        -11   -1    0    0    0    0  0.00000000000E+00  0.00000000000E+00  0.45593999997E+02  0.45594000000E+02  0.51100000000E-03 0. -1.
         11   -1    0    0    0    0 -0.00000000000E+00 -0.00000000000E+00 -0.45593999997E+02  0.45594000000E+02  0.51100000000E-03 0.  1.
    9900012    2    1    2    0    0 -0.17674093375E+02  0.39711577422E+01 -0.47471300624E+01  0.72461577110E+02  0.70000008878E+02 0.  0.
         12    1    1    2    0    0  0.17674093375E+02 -0.39711577422E+01  0.47471300624E+01  0.18726422890E+02  0.00000000000E+00 0. -1.
         11    1    3    3    0    0  0.92327176015E+01 -0.70215682581E+01  0.11416671445E+01  0.11655423598E+02  0.51100000000E-03 0. -1.
        -11    1    3    3    0    0  0.11565672022E+02 -0.25414356143E+01  0.11466394047E+02  0.16483381237E+02  0.51100000000E-03 0.  1.
        -12    1    3    3    0    0 -0.38472482998E+02  0.13534161615E+02 -0.17355191254E+02  0.44322772275E+02  0.00000000000E+00 0.  1.
</event>
<event>
 7    1  0.3348003E-013  0.7246163E+02  0.7816164E-02  0.1226708E+00
        -11   -1    0    0    0    0  0.00000000000E+00  0.00000000000E+00  0.45593999997E+02  0.45594000000E+02  0.51100000000E-03 0.  1.
         11   -1    0    0    0    0 -0.00000000000E+00 -0.00000000000E+00 -0.45593999997E+02  0.45594000000E+02  0.51100000000E-03 0. -1.
    9900012    2    1    2    0    0 -0.15657481701E+02  0.10271331990E+02  0.14117077592E+00  0.72461630270E+02  0.70000078129E+02 0.  0.
         12    1    1    2    0    0  0.15657481701E+02 -0.10271331990E+02 -0.14117077592E+00  0.18726369730E+02  0.00000000000E+00 0. -1.
         11    1    3    3    0    0 -0.68472917389E+01  0.13654514913E+02  0.19710035955E+02  0.24936252712E+02  0.51100000000E-03 0.  1.
        -11    1    3    3    0    0  0.16421708737E+02  0.34101939250E+01 -0.10863838318E+02  0.19983115966E+02  0.51100000000E-03 0. -1.
        -12    1    3    3    0    0 -0.25231898699E+02 -0.67933768478E+01 -0.87050268615E+01  0.27542261592E+02  0.00000000000E+00 0.  1.
</event>
<event>
 7    1  0.3348003E-013  0.7246150E+02  0.7816164E-02  0.1226708E+00
        -11   -1    0    0    0    0  0.00000000000E+00  0.00000000000E+00  0.45593999997E+02  0.45594000000E+02  0.51100000000E-03 0. -1.
         11   -1    0    0    0    0 -0.00000000000E+00 -0.00000000000E+00 -0.45593999997E+02  0.45594000000E+02  0.51100000000E-03 0.  1.
    9900012    2    1    2    0    0  0.16259868777E+02  0.34365698166E+01 -0.86306595725E+01  0.72461504615E+02  0.69999914440E+02 0.  0.
         12    1    1    2    0    0 -0.16259868777E+02 -0.34365698166E+01  0.86306595725E+01  0.18726495385E+02  0.00000000000E+00 0. -1.
         11    1    3    3    0    0 -0.28249675652E+01 -0.86068269528E+01  0.10450092619E+02  0.13829763119E+02  0.51100000000E-03 0. -1.
        -11    1    3    3    0    0 -0.16056692076E+02  0.10451234373E+02 -0.12654231016E+01  0.19200181150E+02  0.51100000000E-03 0.  1.
        -12    1    3    3    0    0  0.35141528418E+02  0.15921623968E+01 -0.17815329089E+02  0.39431560345E+02  0.00000000000E+00 0.  1.
</event>
<event>
 7    1  0.3348003E-013  0.7246182E+02  0.7816164E-02  0.1226707E+00
        -11   -1    0    0    0    0  0.00000000000E+00  0.00000000000E+00  0.45593999997E+02  0.45594000000E+02  0.51100000000E-03 0.  1.
         11   -1    0    0    0    0 -0.00000000000E+00 -0.00000000000E+00 -0.45593999997E+02  0.45594000000E+02  0.51100000000E-03 0. -1.
    9900012    2    1    2    0    0 -0.17315829969E+02 -0.52295767148E+01  0.48459554729E+01  0.72461822478E+02  0.70000328515E+02 0.  0.
         12    1    1    2    0    0  0.17315829969E+02  0.52295767148E+01 -0.48459554729E+01  0.18726177522E+02  0.00000000000E+00 0. -1.
         11    1    3    3    0    0  0.16301164295E+02 -0.59592678858E+01 -0.66678434955E+01  0.18593035477E+02  0.51100000000E-03 0. -1.
        -11    1    3    3    0    0  0.20192565662E+01  0.89412317698E+01 -0.82215947118E+01  0.12313311598E+02  0.51100000000E-03 0.  1.
        -12    1    3    3    0    0 -0.35636250830E+02 -0.82115405988E+01  0.19735393680E+02  0.41555475403E+02  0.00000000000E+00 0.  1.
</event>
<event>
 7    1  0.3348003E-013  0.7246157E+02  0.7816164E-02  0.1226708E+00
        -11   -1    0    0    0    0  0.00000000000E+00  0.00000000000E+00  0.45593999997E+02  0.45594000000E+02  0.51100000000E-03 0. -1.
         11   -1    0    0    0    0 -0.00000000000E+00 -0.00000000000E+00 -0.45593999997E+02  0.45594000000E+02  0.51100000000E-03 0.  1.
    9900012    2    1    2    0    0 -0.10504551042E+02 -0.82585260733E+00 -0.15480681229E+02  0.72461571712E+02  0.70000001846E+02 0.  0.
         12    1    1    2    0    0  0.10504551042E+02  0.82585260733E+00  0.15480681229E+02  0.18726428288E+02  0.00000000000E+00 0. -1.
         11    1    3    3    0    0 -0.17899794212E+02 -0.15048924419E+02  0.14538346481E+02  0.27536090457E+02  0.51100000000E-03 0. -1.
        -11    1    3    3    0    0 -0.24916578952E+01 -0.35577239927E+01  0.35922443159E+01  0.56364863667E+01  0.51100000000E-03 0.  1.
        -12    1    3    3    0    0  0.98869010654E+01  0.17780795804E+02 -0.33611272026E+02  0.39288994888E+02  0.00000000000E+00 0.  1.
</event>
<event>
 7    1  0.3348003E-013  0.7246150E+02  0.7816164E-02  0.1226708E+00
        -11   -1    0    0    0    0  0.00000000000E+00  0.00000000000E+00  0.45593999997E+02  0.45594000000E+02  0.51100000000E-03 0. -1.
         11   -1    0    0    0    0 -0.00000000000E+00 -0.00000000000E+00 -0.45593999997E+02  0.45594000000E+02  0.51100000000E-03 0.  1.
    9900012    2    1    2    0    0  0.58675051296E+01 -0.29114333606E+01 -0.17543595179E+02  0.72461500262E+02  0.69999908769E+02 0.  0.
         12    1    1    2    0    0 -0.58675051296E+01  0.29114333606E+01  0.17543595179E+02  0.18726499738E+02  0.00000000000E+00 0. -1.
         11    1    3    3    0    0 -0.28671931968E+00  0.14777854946E+00 -0.80475797723E+00  0.86699603863E+00  0.51100000000E-03 0. -1.
        -11    1    3    3    0    0 -0.44610492647E+01 -0.77506861223E+01 -0.42451888723E+02  0.43383602344E+02  0.51100000000E-03 0.  1.
         12    1    3    3    0    0  0.10615273714E+02  0.46914742123E+01  0.25713051522E+02  0.28210901880E+02  0.00000000000E+00 0. -1.
</event>
<event>
 7    1  0.3348003E-013  0.7246160E+02  0.7816164E-02  0.1226708E+00
        -11   -1    0    0    0    0  0.00000000000E+00  0.00000000000E+00  0.45593999997E+02  0.45594000000E+02  0.51100000000E-03 0.  1.
         11   -1    0    0    0    0 -0.00000000000E+00 -0.00000000000E+00 -0.45593999997E+02  0.45594000000E+02  0.51100000000E-03 0. -1.
    9900012    2    1    2    0    0 -0.18711566582E+02  0.47868129623E+00  0.57129712722E+00  0.72461595109E+02  0.70000032326E+02 0.  0.
         12    1    1    2    0    0  0.18711566582E+02 -0.47868129623E+00 -0.57129712722E+00  0.18726404891E+02  0.00000000000E+00 0. -1.
         11    1    3    3    0    0  0.16537551028E+02 -0.10086636949E+02 -0.12402232239E+02  0.23001004407E+02  0.51100000000E-03 0. -1.
        -11    1    3    3    0    0 -0.41069999241E+01  0.30092053032E+01  0.16456555126E+02  0.17226171130E+02  0.51100000000E-03 0.  1.
        -12    1    3    3    0    0 -0.31142117686E+02  0.75561129423E+01 -0.34830257593E+01  0.32234419573E+02  0.00000000000E+00 0.  1.
</event>
<event>
 7    1  0.3348003E-013  0.7246161E+02  0.7816164E-02  0.1226708E+00
        -11   -1    0    0    0    0  0.00000000000E+00  0.00000000000E+00  0.45593999997E+02  0.45594000000E+02  0.51100000000E-03 0.  1.
         11   -1    0    0    0    0 -0.00000000000E+00 -0.00000000000E+00 -0.45593999997E+02  0.45594000000E+02  0.51100000000E-03 0. -1.
    9900012    2    1    2    0    0 -0.45789733259E+01  0.13555197886E+02  0.12081699089E+02  0.72461605811E+02  0.70000046267E+02 0.  0.
         12    1    1    2    0    0  0.45789733259E+01 -0.13555197886E+02 -0.12081699089E+02  0.18726394189E+02  0.00000000000E+00 0. -1.
         11    1    3    3    0    0 -0.10052261195E+02 -0.62313952193E+01 -0.39155359359E+01  0.12458317038E+02  0.51100000000E-03 0. -1.
        -11    1    3    3    0    0  0.28269989765E+01 -0.98656393620E+01  0.26513460599E+02  0.28430377353E+02  0.51100000000E-03 0.  1.
        -12    1    3    3    0    0  0.26462888923E+01  0.29652232467E+02 -0.10516225574E+02  0.31572911420E+02  0.00000000000E+00 0.  1.
</event>
<event>
 7    1  0.3348003E-013  0.7246165E+02  0.7816164E-02  0.1226708E+00
        -11   -1    0    0    0    0  0.00000000000E+00  0.00000000000E+00  0.45593999997E+02  0.45594000000E+02  0.51100000000E-03 0.  1.
         11   -1    0    0    0    0 -0.00000000000E+00 -0.00000000000E+00 -0.45593999997E+02  0.45594000000E+02  0.51100000000E-03 0. -1.
    9900012    2    1    2    0    0  0.64371797599E+01 -0.15726477669E+01  0.17514728616E+02  0.72461648974E+02  0.70000102495E+02 0.  0.
         12    1    1    2    0    0 -0.64371797599E+01  0.15726477669E+01 -0.17514728616E+02  0.18726351026E+02  0.00000000000E+00 0. -1.
         11    1    3    3    0    0  0.14628896437E+01  0.78748885338E+01  0.95389830565E+01  0.12455766277E+02  0.51100000000E-03 0. -1.
        -11    1    3    3    0    0  0.26033929253E+02  0.84969712261E+01  0.15320563027E+02  0.31379669280E+02  0.51100000000E-03 0.  1.
         12    1    3    3    0    0 -0.21059639137E+02 -0.17944507527E+02 -0.73448174679E+01  0.28626213417E+02  0.00000000000E+00 0. -1.
</event>
<event>
 7    1  0.3348003E-013  0.7246157E+02  0.7816164E-02  0.1226708E+00
        -11   -1    0    0    0    0  0.00000000000E+00  0.00000000000E+00  0.45593999997E+02  0.45594000000E+02  0.51100000000E-03 0. -1.
         11   -1    0    0    0    0 -0.00000000000E+00 -0.00000000000E+00 -0.45593999997E+02  0.45594000000E+02  0.51100000000E-03 0.  1.
    9900012    2    1    2    0    0 -0.16741357001E+02  0.67730566618E+01 -0.49529595631E+01  0.72461571103E+02  0.70000001054E+02 0.  0.
         12    1    1    2    0    0  0.16741357001E+02 -0.67730566618E+01  0.49529595631E+01  0.18726428897E+02  0.00000000000E+00 0. -1.
         11    1    3    3    0    0 -0.33572219157E+02  0.16116847277E+02  0.93857463907E+01  0.38404933288E+02  0.51100000000E-03 0. -1.
        -11    1    3    3    0    0  0.72648479092E+01 -0.53377060148E+01  0.62731027696E+01  0.10982756451E+02  0.51100000000E-03 0.  1.
        -12    1    3    3    0    0  0.95660142465E+01 -0.40060846003E+01 -0.20611808723E+02  0.23073881365E+02  0.00000000000E+00 0.  1.
</event>
<event>
 7    1  0.3348003E-013  0.7246138E+02  0.7816164E-02  0.1226709E+00
        -11   -1    0    0    0    0  0.00000000000E+00  0.00000000000E+00  0.45593999997E+02  0.45594000000E+02  0.51100000000E-03 0.  1.
         11   -1    0    0    0    0 -0.00000000000E+00 -0.00000000000E+00 -0.45593999997E+02  0.45594000000E+02  0.51100000000E-03 0. -1.
    9900012    2    1    2    0    0  0.12630684302E+02 -0.60605317459E+01 -0.12426674183E+02  0.72461375578E+02  0.69999746346E+02 0.  0.
         12    1    1    2    0    0 -0.12630684302E+02  0.60605317459E+01  0.12426674183E+02  0.18726624422E+02  0.00000000000E+00 0. -1.
         11    1    3    3    0    0  0.76318225976E+01  0.19481385359E+01  0.14797343895E+02  0.16763094777E+02  0.51100000000E-03 0. -1.
        -11    1    3    3    0    0  0.32632442890E-01 -0.24723500308E+02 -0.16936316396E+01  0.24781463249E+02  0.51100000000E-03 0.  1.
         12    1    3    3    0    0  0.49662292613E+01  0.16714830026E+02 -0.25530386438E+02  0.30916817552E+02  0.00000000000E+00 0. -1.
</event>
<event>
 7    1  0.3348003E-013  0.7246157E+02  0.7816164E-02  0.1226708E+00
        -11   -1    0    0    0    0  0.00000000000E+00  0.00000000000E+00  0.45593999997E+02  0.45594000000E+02  0.51100000000E-03 0.  1.
         11   -1    0    0    0    0 -0.00000000000E+00 -0.00000000000E+00 -0.45593999997E+02  0.45594000000E+02  0.51100000000E-03 0. -1.
    9900012    2    1    2    0    0 -0.10837880103E+02  0.15121032481E+02  0.21387006329E+01  0.72461566575E+02  0.69999995155E+02 0.  0.
         12    1    1    2    0    0  0.10837880103E+02 -0.15121032481E+02 -0.21387006329E+01  0.18726433425E+02  0.00000000000E+00 0. -1.
         11    1    3    3    0    0 -0.12867611368E+02  0.22358186471E+02 -0.16483330755E+02  0.30613136357E+02  0.51100000000E-03 0. -1.
        -11    1    3    3    0    0 -0.20273811323E+01  0.10984760926E+02 -0.45764869846E+01  0.12071432402E+02  0.51100000000E-03 0.  1.
         12    1    3    3    0    0  0.40571123967E+01 -0.18221914916E+02  0.23198518373E+02  0.29776997815E+02  0.00000000000E+00 0. -1.
</event>
<event>
 7    1  0.3348003E-013  0.7246137E+02  0.7816164E-02  0.1226709E+00
        -11   -1    0    0    0    0  0.00000000000E+00  0.00000000000E+00  0.45593999997E+02  0.45594000000E+02  0.51100000000E-03 0.  1.
         11   -1    0    0    0    0 -0.00000000000E+00 -0.00000000000E+00 -0.45593999997E+02  0.45594000000E+02  0.51100000000E-03 0. -1.
    9900012    2    1    2    0    0 -0.44435844045E+01  0.14913416125E+02  0.10417826507E+02  0.72461373716E+02  0.69999743919E+02 0.  0.
         12    1    1    2    0    0  0.44435844045E+01 -0.14913416125E+02 -0.10417826507E+02  0.18726626284E+02  0.00000000000E+00 0. -1.
         11    1    3    3    0    0 -0.22833251300E+02 -0.15791011320E+02 -0.52211894359E+01  0.28248437529E+02  0.51100000000E-03 0. -1.
        -11    1    3    3    0    0 -0.15970881598E+01 -0.17472320947E+01 -0.10707418135E+01  0.25980759949E+01  0.51100000000E-03 0.  1.
        -12    1    3    3    0    0  0.19986755055E+02  0.32451659540E+02  0.16709757756E+02  0.41614860192E+02  0.00000000000E+00 0.  1.
</event>
<event>
 7    1  0.3348003E-013  0.7246133E+02  0.7816164E-02  0.1226709E+00
        -11   -1    0    0    0    0  0.00000000000E+00  0.00000000000E+00  0.45593999997E+02  0.45594000000E+02  0.51100000000E-03 0.  1.
         11   -1    0    0    0    0 -0.00000000000E+00 -0.00000000000E+00 -0.45593999997E+02  0.45594000000E+02  0.51100000000E-03 0. -1.
    9900012    2    1    2    0    0 -0.81047851001E+00  0.12986703914E+02  0.13467624497E+02  0.72461327483E+02  0.69999683693E+02 0.  0.
         12    1    1    2    0    0  0.81047851001E+00 -0.12986703914E+02 -0.13467624497E+02  0.18726672517E+02  0.00000000000E+00 0. -1.
         11    1    3    3    0    0  0.54408681829E+01 -0.23978768299E+01  0.28181792752E+00  0.59525021193E+01  0.51100000000E-03 0. -1.
        -11    1    3    3    0    0  0.96895643010E+01  0.30208570587E+02 -0.11363495464E+02  0.33698285159E+02  0.51100000000E-03 0.  1.
         12    1    3    3    0    0 -0.15940910994E+02 -0.14823989844E+02  0.24549302033E+02  0.32810540205E+02  0.00000000000E+00 0. -1.
</event>
<event>
 7    1  0.3348003E-013  0.7246137E+02  0.7816164E-02  0.1226709E+00
        -11   -1    0    0    0    0  0.00000000000E+00  0.00000000000E+00  0.45593999997E+02  0.45594000000E+02  0.51100000000E-03 0.  1.
         11   -1    0    0    0    0 -0.00000000000E+00 -0.00000000000E+00 -0.45593999997E+02  0.45594000000E+02  0.51100000000E-03 0. -1.
    9900012    2    1    2    0    0  0.22276930116E+01 -0.45523382338E+01  0.18027759921E+02  0.72461373840E+02  0.69999744082E+02 0.  0.
         12    1    1    2    0    0 -0.22276930116E+01  0.45523382338E+01 -0.18027759921E+02  0.18726626160E+02  0.00000000000E+00 0. -1.
         11    1    3    3    0    0 -0.20924224507E+01 -0.13932419098E+02 -0.85793677152E+01  0.16495335228E+02  0.51100000000E-03 0. -1.
        -11    1    3    3    0    0 -0.97798576147E+01 -0.16832180589E+02  0.10104533872E+02  0.21933297139E+02  0.51100000000E-03 0.  1.
         12    1    3    3    0    0  0.14099973077E+02  0.26212261453E+02  0.16502593764E+02  0.34032741474E+02  0.00000000000E+00 0. -1.
</event>
<event>
 7    1  0.3348003E-013  0.7246158E+02  0.7816164E-02  0.1226708E+00
        -11   -1    0    0    0    0  0.00000000000E+00  0.00000000000E+00  0.45593999997E+02  0.45594000000E+02  0.51100000000E-03 0.  1.
         11   -1    0    0    0    0 -0.00000000000E+00 -0.00000000000E+00 -0.45593999997E+02  0.45594000000E+02  0.51100000000E-03 0. -1.
    9900012    2    1    2    0    0 -0.80440140660E+00  0.23194336489E+01  0.18564806678E+02  0.72461577996E+02  0.70000010033E+02 0.  0.
         12    1    1    2    0    0  0.80440140660E+00 -0.23194336489E+01 -0.18564806678E+02  0.18726422004E+02  0.00000000000E+00 0. -1.
         11    1    3    3    0    0 -0.28579242694E+00 -0.65074854378E+00 -0.70741380460E+01  0.71097524805E+01  0.51100000000E-03 0. -1.
        -11    1    3    3    0    0  0.12459705117E+02 -0.25631734011E+02  0.14888389323E+02  0.32154224868E+02  0.51100000000E-03 0.  1.
         12    1    3    3    0    0 -0.12978314097E+02  0.28601916203E+02  0.10750555401E+02  0.33197600647E+02  0.00000000000E+00 0. -1.
</event>
<event>
 7    1  0.3348003E-013  0.7246161E+02  0.7816164E-02  0.1226708E+00
        -11   -1    0    0    0    0  0.00000000000E+00  0.00000000000E+00  0.45593999997E+02  0.45594000000E+02  0.51100000000E-03 0.  1.
         11   -1    0    0    0    0 -0.00000000000E+00 -0.00000000000E+00 -0.45593999997E+02  0.45594000000E+02  0.51100000000E-03 0. -1.
    9900012    2    1    2    0    0 -0.12506204373E+02  0.13586250766E+02  0.31123117982E+01  0.72461605728E+02  0.70000046159E+02 0.  0.
         12    1    1    2    0    0  0.12506204373E+02 -0.13586250766E+02 -0.31123117982E+01  0.18726394272E+02  0.00000000000E+00 0. -1.
         11    1    3    3    0    0 -0.13402912246E+02 -0.53834993717E+01  0.35090153779E+01  0.14863825596E+02  0.51100000000E-03 0.  1.
        -11    1    3    3    0    0 -0.48703446752E+01  0.53086764188E+01  0.26185982531E+02  0.27158939301E+02  0.51100000000E-03 0. -1.
         12    1    3    3    0    0  0.57670525490E+01  0.13661073719E+02 -0.26582686111E+02  0.30438840831E+02  0.00000000000E+00 0. -1.
</event>
<event>
 7    1  0.3348003E-013  0.7246157E+02  0.7816164E-02  0.1226708E+00
        -11   -1    0    0    0    0  0.00000000000E+00  0.00000000000E+00  0.45593999997E+02  0.45594000000E+02  0.51100000000E-03 0.  1.
         11   -1    0    0    0    0 -0.00000000000E+00 -0.00000000000E+00 -0.45593999997E+02  0.45594000000E+02  0.51100000000E-03 0. -1.
    9900012    2    1    2    0    0 -0.17888048793E+02 -0.37911831472E+01  0.40402519198E+01  0.72461574958E+02  0.70000006075E+02 0.  0.
         12    1    1    2    0    0  0.17888048793E+02  0.37911831472E+01 -0.40402519198E+01  0.18726425042E+02  0.00000000000E+00 0. -1.
         11    1    3    3    0    0  0.15173033825E+02  0.50977496387E+01 -0.11245228036E+02  0.19561778055E+02  0.51100000000E-03 0. -1.
        -11    1    3    3    0    0  0.60505793007E+01  0.31281983825E+01 -0.37466115545E+01  0.77738171702E+01  0.51100000000E-03 0.  1.
        -12    1    3    3    0    0 -0.39111661919E+02 -0.12017131168E+02  0.19032091510E+02  0.45125979733E+02  0.00000000000E+00 0.  1.
</event>
<event>
 7    1  0.3348003E-013  0.7246158E+02  0.7816164E-02  0.1226708E+00
        -11   -1    0    0    0    0  0.00000000000E+00  0.00000000000E+00  0.45593999997E+02  0.45594000000E+02  0.51100000000E-03 0.  1.
         11   -1    0    0    0    0 -0.00000000000E+00 -0.00000000000E+00 -0.45593999997E+02  0.45594000000E+02  0.51100000000E-03 0. -1.
    9900012    2    1    2    0    0  0.25236887469E+01 -0.74437752285E+01  0.16997062030E+02  0.72461577165E+02  0.70000008951E+02 0.  0.
         12    1    1    2    0    0 -0.25236887469E+01  0.74437752285E+01 -0.16997062030E+02  0.18726422835E+02  0.00000000000E+00 0. -1.
         11    1    3    3    0    0 -0.12056765150E+02  0.15357163387E+02  0.82354511350E+01  0.21190344707E+02  0.51100000000E-03 0. -1.
        -11    1    3    3    0    0 -0.40516856362E+01 -0.53406296762E+01  0.21652971539E+02  0.22666928742E+02  0.51100000000E-03 0.  1.
        -12    1    3    3    0    0  0.18632139533E+02 -0.17460308939E+02 -0.12891360645E+02  0.28604303716E+02  0.00000000000E+00 0.  1.
</event>
<event>
 7    1  0.3348003E-013  0.7246150E+02  0.7816164E-02  0.1226708E+00
        -11   -1    0    0    0    0  0.00000000000E+00  0.00000000000E+00  0.45593999997E+02  0.45594000000E+02  0.51100000000E-03 0. -1.
         11   -1    0    0    0    0 -0.00000000000E+00 -0.00000000000E+00 -0.45593999997E+02  0.45594000000E+02  0.51100000000E-03 0.  1.
    9900012    2    1    2    0    0  0.77043460320E+01  0.13528340001E+01 -0.17014542992E+02  0.72461500572E+02  0.69999909173E+02 0.  0.
         12    1    1    2    0    0 -0.77043460320E+01 -0.13528340001E+01  0.17014542992E+02  0.18726499428E+02  0.00000000000E+00 0. -1.
         11    1    3    3    0    0  0.94439151905E+01 -0.21615368602E+02  0.53322729653E+01  0.24183565270E+02  0.51100000000E-03 0. -1.
        -11    1    3    3    0    0  0.13875500159E+02  0.12034800380E+02 -0.22715234690E+02  0.29212117556E+02  0.51100000000E-03 0.  1.
         12    1    3    3    0    0 -0.15615069317E+02  0.10933402222E+02  0.36841873273E+00  0.19065817745E+02  0.00000000000E+00 0. -1.
</event>
<event>
 7    1  0.3348003E-013  0.7246147E+02  0.7816164E-02  0.1226708E+00
        -11   -1    0    0    0    0  0.00000000000E+00  0.00000000000E+00  0.45593999997E+02  0.45594000000E+02  0.51100000000E-03 0.  1.
         11   -1    0    0    0    0 -0.00000000000E+00 -0.00000000000E+00 -0.45593999997E+02  0.45594000000E+02  0.51100000000E-03 0. -1.
    9900012    2    1    2    0    0 -0.18717287369E+02  0.45579335933E+00 -0.37216413737E+00  0.72461465345E+02  0.69999863284E+02 0.  0.
         12    1    1    2    0    0  0.18717287369E+02 -0.45579335933E+00  0.37216413737E+00  0.18726534655E+02  0.00000000000E+00 0. -1.
         11    1    3    3    0    0 -0.37607499961E+02 -0.14570472231E+02  0.78454946835E+01  0.41087400763E+02  0.51100000000E-03 0. -1.
        -11    1    3    3    0    0 -0.34254565028E+01  0.43218607108E+01 -0.11341643671E+01  0.56301475406E+01  0.51100000000E-03 0.  1.
        -12    1    3    3    0    0  0.22315669095E+02  0.10704404879E+02 -0.70834944538E+01  0.25743917042E+02  0.00000000000E+00 0.  1.
</event>
<event>
 7    1  0.3348003E-013  0.7246155E+02  0.7816164E-02  0.1226708E+00
        -11   -1    0    0    0    0  0.00000000000E+00  0.00000000000E+00  0.45593999997E+02  0.45594000000E+02  0.51100000000E-03 0.  1.
         11   -1    0    0    0    0 -0.00000000000E+00 -0.00000000000E+00 -0.45593999997E+02  0.45594000000E+02  0.51100000000E-03 0. -1.
    9900012    2    1    2    0    0  0.74385812763E+01 -0.17163306736E+02  0.87649291869E+00  0.72461552677E+02  0.69999977050E+02 0.  0.
         12    1    1    2    0    0 -0.74385812763E+01  0.17163306736E+02 -0.87649291869E+00  0.18726447323E+02  0.00000000000E+00 0. -1.
         11    1    3    3    0    0 -0.46301506744E+01  0.17609466664E+01 -0.51980147740E+01  0.71804307866E+01  0.51100000000E-03 0. -1.
        -11    1    3    3    0    0 -0.12306123226E+01  0.19034952025E+02  0.14776979915E+02  0.24128881884E+02  0.51100000000E-03 0.  1.
         12    1    3    3    0    0  0.13299344273E+02 -0.37959205427E+02 -0.87024722225E+01  0.41152240006E+02  0.00000000000E+00 0. -1.
</event>
<event>
 7    1  0.3348003E-013  0.7246162E+02  0.7816164E-02  0.1226708E+00
        -11   -1    0    0    0    0  0.00000000000E+00  0.00000000000E+00  0.45593999997E+02  0.45594000000E+02  0.51100000000E-03 0. -1.
         11   -1    0    0    0    0 -0.00000000000E+00 -0.00000000000E+00 -0.45593999997E+02  0.45594000000E+02  0.51100000000E-03 0.  1.
    9900012    2    1    2    0    0 -0.13963809729E+02 -0.12495184686E+01 -0.12414828936E+02  0.72461621385E+02  0.70000066555E+02 0.  0.
         12    1    1    2    0    0  0.13963809729E+02  0.12495184686E+01  0.12414828936E+02  0.18726378615E+02  0.00000000000E+00 0. -1.
         11    1    3    3    0    0 -0.63474562194E+01  0.24328314239E+02  0.15376888170E+02  0.29472118420E+02  0.51100000000E-03 0. -1.
        -11    1    3    3    0    0 -0.43108491087E+00  0.43999926907E+00 -0.11386860690E+02  0.11403509556E+02  0.51100000000E-03 0.  1.
        -12    1    3    3    0    0 -0.71852685984E+01 -0.26017831976E+02 -0.16404856416E+02  0.31585993408E+02  0.00000000000E+00 0.  1.
</event>
<event>
 7    1  0.3348003E-013  0.7246156E+02  0.7816164E-02  0.1226708E+00
        -11   -1    0    0    0    0  0.00000000000E+00  0.00000000000E+00  0.45593999997E+02  0.45594000000E+02  0.51100000000E-03 0.  1.
         11   -1    0    0    0    0 -0.00000000000E+00 -0.00000000000E+00 -0.45593999997E+02  0.45594000000E+02  0.51100000000E-03 0. -1.
    9900012    2    1    2    0    0 -0.23955036450E+01  0.10567808909E+00  0.18572292638E+02  0.72461557215E+02  0.69999982961E+02 0.  0.
         12    1    1    2    0    0  0.23955036450E+01 -0.10567808909E+00 -0.18572292638E+02  0.18726442785E+02  0.00000000000E+00 0. -1.
         11    1    3    3    0    0  0.13882689124E+01 -0.14906050393E+02  0.23037872342E+01  0.15146783975E+02  0.51100000000E-03 0. -1.
        -11    1    3    3    0    0  0.24539390868E+02  0.70812192565E+01  0.79178840317E+01  0.26739825320E+02  0.51100000000E-03 0.  1.
        -12    1    3    3    0    0 -0.28323163426E+02  0.79305092256E+01  0.83506213719E+01  0.30574947920E+02  0.00000000000E+00 0.  1.
</event>
<event>
 7    1  0.3348003E-013  0.7246143E+02  0.7816164E-02  0.1226708E+00
        -11   -1    0    0    0    0  0.00000000000E+00  0.00000000000E+00  0.45593999997E+02  0.45594000000E+02  0.51100000000E-03 0.  1.
         11   -1    0    0    0    0 -0.00000000000E+00 -0.00000000000E+00 -0.45593999997E+02  0.45594000000E+02  0.51100000000E-03 0. -1.
    9900012    2    1    2    0    0  0.10471081956E+02 -0.14881747047E+02 -0.44242945003E+01  0.72461432393E+02  0.69999820358E+02 0.  0.
         12    1    1    2    0    0 -0.10471081956E+02  0.14881747047E+02  0.44242945003E+01  0.18726567607E+02  0.00000000000E+00 0. -1.
         11    1    3    3    0    0  0.87713232911E+01  0.31976797205E+01  0.26772152557E+01  0.97122988863E+01  0.51100000000E-03 0. -1.
        -11    1    3    3    0    0  0.15031938600E+01 -0.10538181017E+02  0.26370300208E+02  0.28437749282E+02  0.51100000000E-03 0.  1.
         12    1    3    3    0    0  0.19656480517E+00 -0.75412457504E+01 -0.33471809964E+02  0.34311384225E+02  0.00000000000E+00 0. -1.
</event>
<event>
 7    1  0.3348003E-013  0.7246156E+02  0.7816164E-02  0.1226708E+00
        -11   -1    0    0    0    0  0.00000000000E+00  0.00000000000E+00  0.45593999997E+02  0.45594000000E+02  0.51100000000E-03 0.  1.
         11   -1    0    0    0    0 -0.00000000000E+00 -0.00000000000E+00 -0.45593999997E+02  0.45594000000E+02  0.51100000000E-03 0. -1.
    9900012    2    1    2    0    0 -0.18208916527E+02 -0.26961946208E+01 -0.34416994547E+01  0.72461564096E+02  0.69999991926E+02 0.  0.
         12    1    1    2    0    0  0.18208916527E+02  0.26961946208E+01  0.34416994547E+01  0.18726435904E+02  0.00000000000E+00 0. -1.
         11    1    3    3    0    0 -0.32268222291E+02  0.42146769922E+00 -0.93836621917E+01  0.33607572379E+02  0.51100000000E-03 0. -1.
        -11    1    3    3    0    0  0.48860507669E+01  0.42109337905E+00 -0.14966290670E+02  0.15749306918E+02  0.51100000000E-03 0.  1.
        -12    1    3    3    0    0  0.91732549974E+01 -0.35387556990E+01  0.20908253407E+02  0.23104684799E+02  0.00000000000E+00 0.  1.
</event>
<event>
 7    1  0.3348003E-013  0.7246146E+02  0.7816164E-02  0.1226708E+00
        -11   -1    0    0    0    0  0.00000000000E+00  0.00000000000E+00  0.45593999997E+02  0.45594000000E+02  0.51100000000E-03 0. -1.
         11   -1    0    0    0    0 -0.00000000000E+00 -0.00000000000E+00 -0.45593999997E+02  0.45594000000E+02  0.51100000000E-03 0.  1.
    9900012    2    1    2    0    0  0.41978357784E+01  0.15782020771E+02  0.91645752465E+01  0.72461456158E+02  0.69999851316E+02 0.  0.
         12    1    1    2    0    0 -0.41978357784E+01 -0.15782020771E+02 -0.91645752465E+01  0.18726543842E+02  0.00000000000E+00 0. -1.
         11    1    3    3    0    0  0.18684267582E+01 -0.10072424895E+02  0.84782163755E+01  0.13297552970E+02  0.51100000000E-03 0. -1.
        -11    1    3    3    0    0 -0.19277151216E+02 -0.58796760467E+01  0.42845210669E+01  0.20604277965E+02  0.51100000000E-03 0.  1.
        -12    1    3    3    0    0  0.21606560236E+02  0.31734121713E+02 -0.35981621959E+01  0.38559625223E+02  0.00000000000E+00 0.  1.
</event>
<event>
 7    1  0.3348003E-013  0.7246157E+02  0.7816164E-02  0.1226708E+00
        -11   -1    0    0    0    0  0.00000000000E+00  0.00000000000E+00  0.45593999997E+02  0.45594000000E+02  0.51100000000E-03 0. -1.
         11   -1    0    0    0    0 -0.00000000000E+00 -0.00000000000E+00 -0.45593999997E+02  0.45594000000E+02  0.51100000000E-03 0.  1.
    9900012    2    1    2    0    0 -0.36000509246E+01 -0.12120403687E+02 -0.13813565496E+02  0.72461570978E+02  0.70000000890E+02 0.  0.
         12    1    1    2    0    0  0.36000509246E+01  0.12120403687E+02  0.13813565496E+02  0.18726429022E+02  0.00000000000E+00 0. -1.
         11    1    3    3    0    0  0.66014635052E+01  0.11660282692E+02  0.12484632891E+02  0.18314135839E+02  0.51100000000E-03 0. -1.
        -11    1    3    3    0    0 -0.57571738943E+01  0.88870527978E+01 -0.16763421266E+02  0.19827683967E+02  0.51100000000E-03 0.  1.
         12    1    3    3    0    0 -0.44443405355E+01 -0.32667739177E+02 -0.95347771208E+01  0.34319751172E+02  0.00000000000E+00 0. -1.
</event>
<event>
 7    1  0.3348003E-013  0.7246157E+02  0.7816164E-02  0.1226708E+00
        -11   -1    0    0    0    0  0.00000000000E+00  0.00000000000E+00  0.45593999997E+02  0.45594000000E+02  0.51100000000E-03 0. -1.
         11   -1    0    0    0    0 -0.00000000000E+00 -0.00000000000E+00 -0.45593999997E+02  0.45594000000E+02  0.51100000000E-03 0.  1.
    9900012    2    1    2    0    0  0.79100179812E+01  0.11285995711E+02 -0.12678208982E+02  0.72461573041E+02  0.70000003578E+02 0.  0.
         12    1    1    2    0    0 -0.79100179812E+01 -0.11285995711E+02  0.12678208982E+02  0.18726426959E+02  0.00000000000E+00 0. -1.
         11    1    3    3    0    0  0.16865059530E+02  0.21571949773E+02 -0.22964959853E+02  0.35737496153E+02  0.51100000000E-03 0. -1.
        -11    1    3    3    0    0  0.97371357618E+01  0.47296433567E+01  0.52828452578E+00  0.10837916032E+02  0.51100000000E-03 0.  1.
        -12    1    3    3    0    0 -0.18692177311E+02 -0.15015597418E+02  0.97584663453E+01  0.25886160856E+02  0.00000000000E+00 0.  1.
</event>
<event>
 7    1  0.3348003E-013  0.7246161E+02  0.7816164E-02  0.1226708E+00
        -11   -1    0    0    0    0  0.00000000000E+00  0.00000000000E+00  0.45593999997E+02  0.45594000000E+02  0.51100000000E-03 0.  1.
         11   -1    0    0    0    0 -0.00000000000E+00 -0.00000000000E+00 -0.45593999997E+02  0.45594000000E+02  0.51100000000E-03 0. -1.
    9900012    2    1    2    0    0 -0.91256081758E+01  0.13117021164E+02  0.97644599641E+01  0.72461610941E+02  0.70000052950E+02 0.  0.
         12    1    1    2    0    0  0.91256081758E+01 -0.13117021164E+02 -0.97644599641E+01  0.18726389059E+02  0.00000000000E+00 0. -1.
         11    1    3    3    0    0  0.17319380794E+02  0.23227415906E+01 -0.77512176281E+00  0.17491623527E+02  0.51100000000E-03 0. -1.
        -11    1    3    3    0    0 -0.14080723439E+02 -0.88628800004E+01 -0.13588721091E+02  0.21481870394E+02  0.51100000000E-03 0.  1.
        -12    1    3    3    0    0 -0.12364265531E+02  0.19657159574E+02  0.24128302818E+02  0.33488117020E+02  0.00000000000E+00 0.  1.
</event>
<event>
 7    1  0.3348003E-013  0.7246158E+02  0.7816164E-02  0.1226708E+00
        -11   -1    0    0    0    0  0.00000000000E+00  0.00000000000E+00  0.45593999997E+02  0.45594000000E+02  0.51100000000E-03 0.  1.
         11   -1    0    0    0    0 -0.00000000000E+00 -0.00000000000E+00 -0.45593999997E+02  0.45594000000E+02  0.51100000000E-03 0. -1.
    9900012    2    1    2    0    0 -0.46555002557E+01 -0.14679519516E+02  0.10654430185E+02  0.72461578601E+02  0.70000010821E+02 0.  0.
         12    1    1    2    0    0  0.46555002557E+01  0.14679519516E+02 -0.10654430185E+02  0.18726421399E+02  0.00000000000E+00 0. -1.
         11    1    3    3    0    0 -0.73872143952E+00  0.47007137565E+01  0.26333008213E+02  0.26759479460E+02  0.51100000000E-03 0. -1.
        -11    1    3    3    0    0 -0.32914020388E+01  0.80288643805E+01 -0.16092321734E+02  0.18282746229E+02  0.51100000000E-03 0.  1.
         12    1    3    3    0    0 -0.62537677737E+00 -0.27409097653E+02  0.41374370555E+00  0.27419352912E+02  0.00000000000E+00 0. -1.
</event>
<event>
 7    1  0.3348003E-013  0.7246165E+02  0.7816164E-02  0.1226708E+00
        -11   -1    0    0    0    0  0.00000000000E+00  0.00000000000E+00  0.45593999997E+02  0.45594000000E+02  0.51100000000E-03 0.  1.
         11   -1    0    0    0    0 -0.00000000000E+00 -0.00000000000E+00 -0.45593999997E+02  0.45594000000E+02  0.51100000000E-03 0. -1.
    9900012    2    1    2    0    0  0.50109547316E+01  0.61765249812E+01  0.16953383990E+02  0.72461645393E+02  0.70000097830E+02 0.  0.
         12    1    1    2    0    0 -0.50109547316E+01 -0.61765249812E+01 -0.16953383990E+02  0.18726354607E+02  0.00000000000E+00 0. -1.
         11    1    3    3    0    0 -0.70535787032E+01  0.50836534086E+01  0.23533539006E+02  0.25088323238E+02  0.51100000000E-03 0. -1.
        -11    1    3    3    0    0 -0.15770021964E+02 -0.74545782394E+01  0.33369619062E+00  0.17446365893E+02  0.51100000000E-03 0.  1.
         12    1    3    3    0    0  0.27834555399E+02  0.85474498119E+01 -0.69138512068E+01  0.29926956261E+02  0.00000000000E+00 0. -1.
</event>
<event>
 7    1  0.3348003E-013  0.7246155E+02  0.7816164E-02  0.1226708E+00
        -11   -1    0    0    0    0  0.00000000000E+00  0.00000000000E+00  0.45593999997E+02  0.45594000000E+02  0.51100000000E-03 0.  1.
         11   -1    0    0    0    0 -0.00000000000E+00 -0.00000000000E+00 -0.45593999997E+02  0.45594000000E+02  0.51100000000E-03 0. -1.
    9900012    2    1    2    0    0  0.15220626960E+02 -0.49631424933E+00  0.10897983510E+02  0.72461551926E+02  0.69999976071E+02 0.  0.
         12    1    1    2    0    0 -0.15220626960E+02  0.49631424933E+00 -0.10897983510E+02  0.18726448074E+02  0.00000000000E+00 0. -1.
         11    1    3    3    0    0  0.20013042366E+02 -0.14448044975E+02 -0.99577440787E+01  0.26616245711E+02  0.51100000000E-03 0. -1.
        -11    1    3    3    0    0  0.94037173428E+01 -0.95190188902E+01  0.62351499082E+01  0.14762070151E+02  0.51100000000E-03 0.  1.
        -12    1    3    3    0    0 -0.14196132748E+02  0.23470749616E+02  0.14620577680E+02  0.31083236064E+02  0.00000000000E+00 0.  1.
</event>
<event>
 7    1  0.3348003E-013  0.7246160E+02  0.7816164E-02  0.1226708E+00
        -11   -1    0    0    0    0  0.00000000000E+00  0.00000000000E+00  0.45593999997E+02  0.45594000000E+02  0.51100000000E-03 0.  1.
         11   -1    0    0    0    0 -0.00000000000E+00 -0.00000000000E+00 -0.45593999997E+02  0.45594000000E+02  0.51100000000E-03 0. -1.
    9900012    2    1    2    0    0  0.58139917271E+01 -0.52207985336E+01  0.17018189423E+02  0.72461601297E+02  0.70000040387E+02 0.  0.
         12    1    1    2    0    0 -0.58139917271E+01  0.52207985336E+01 -0.17018189423E+02  0.18726398703E+02  0.00000000000E+00 0. -1.
         11    1    3    3    0    0  0.13178643125E+02  0.13273606926E+02  0.31194658724E+01  0.18963025683E+02  0.51100000000E-03 0. -1.
        -11    1    3    3    0    0  0.26608353324E+01 -0.23379352954E+02  0.27314918636E+02  0.36052447484E+02  0.51100000000E-03 0.  1.
         12    1    3    3    0    0 -0.10025486731E+02  0.48849474950E+01 -0.13416195085E+02  0.17446128131E+02  0.00000000000E+00 0. -1.
</event>
<event>
 7    1  0.3348003E-013  0.7246159E+02  0.7816164E-02  0.1226708E+00
        -11   -1    0    0    0    0  0.00000000000E+00  0.00000000000E+00  0.45593999997E+02  0.45594000000E+02  0.51100000000E-03 0. -1.
         11   -1    0    0    0    0 -0.00000000000E+00 -0.00000000000E+00 -0.45593999997E+02  0.45594000000E+02  0.51100000000E-03 0.  1.
    9900012    2    1    2    0    0 -0.38778362527E+01 -0.18218039247E+02  0.19348854020E+01  0.72461592188E+02  0.70000028521E+02 0.  0.
         12    1    1    2    0    0  0.38778362527E+01  0.18218039247E+02 -0.19348854020E+01  0.18726407812E+02  0.00000000000E+00 0. -1.
         11    1    3    3    0    0 -0.20360488405E+01  0.86571008750E-01  0.12642541123E+01  0.23981926824E+01  0.51100000000E-03 0. -1.
        -11    1    3    3    0    0 -0.17072239447E+02 -0.10696228349E+02 -0.29321743534E+02  0.35575768506E+02  0.51100000000E-03 0.  1.
         12    1    3    3    0    0  0.15230452035E+02 -0.76083819064E+01  0.29992374824E+02  0.34487631000E+02  0.00000000000E+00 0. -1.
</event>
<event>
 7    1  0.3684863E-013  0.7246157E+02  0.7816164E-02  0.1226708E+00
        -11   -1    0    0    0    0  0.00000000000E+00  0.00000000000E+00  0.45593999997E+02  0.45594000000E+02  0.51100000000E-03 0.  1.
         11   -1    0    0    0    0 -0.00000000000E+00 -0.00000000000E+00 -0.45593999997E+02  0.45594000000E+02  0.51100000000E-03 0. -1.
    9900012    2    1    2    0    0  0.54198774713E+01  0.17018788931E+02  0.56271500689E+01  0.72461573049E+02  0.70000003588E+02 0.  0.
         12    1    1    2    0    0 -0.54198774713E+01 -0.17018788931E+02 -0.56271500689E+01  0.18726426951E+02  0.00000000000E+00 0. -1.
         11    1    3    3    0    0 -0.25412490987E+02  0.30941984061E+01 -0.12006754200E+01  0.25628312151E+02  0.51100000000E-03 0. -1.
        -11    1    3    3    0    0 -0.23885125050E+01  0.73597839991E+01  0.10199636243E+02  0.12802499454E+02  0.51100000000E-03 0.  1.
        -12    1    3    3    0    0  0.33220880964E+02  0.65648065254E+01 -0.33718107545E+01  0.34030761444E+02  0.00000000000E+00 0.  1.
</event>
<event>
 7    1  0.3348003E-013  0.7246151E+02  0.7816164E-02  0.1226708E+00
        -11   -1    0    0    0    0  0.00000000000E+00  0.00000000000E+00  0.45593999997E+02  0.45594000000E+02  0.51100000000E-03 0. -1.
         11   -1    0    0    0    0 -0.00000000000E+00 -0.00000000000E+00 -0.45593999997E+02  0.45594000000E+02  0.51100000000E-03 0.  1.
    9900012    2    1    2    0    0 -0.51348641361E+01 -0.10380967267E+02  0.14715645901E+02  0.72461506859E+02  0.69999917363E+02 0.  0.
         12    1    1    2    0    0  0.51348641361E+01  0.10380967267E+02 -0.14715645901E+02  0.18726493141E+02  0.00000000000E+00 0. -1.
         11    1    3    3    0    0  0.63884763271E+01  0.33086128993E+01  0.62544359062E+01  0.95329700443E+01  0.51100000000E-03 0. -1.
        -11    1    3    3    0    0 -0.23267487358E+02 -0.18119756384E+00 -0.19073780527E+02  0.30086839388E+02  0.51100000000E-03 0.  1.
         12    1    3    3    0    0  0.11744146895E+02 -0.13508382602E+02  0.27534990522E+02  0.32841697426E+02  0.00000000000E+00 0. -1.
</event>
<event>
 7    1  0.3348003E-013  0.7246160E+02  0.7816164E-02  0.1226708E+00
        -11   -1    0    0    0    0  0.00000000000E+00  0.00000000000E+00  0.45593999997E+02  0.45594000000E+02  0.51100000000E-03 0. -1.
         11   -1    0    0    0    0 -0.00000000000E+00 -0.00000000000E+00 -0.45593999997E+02  0.45594000000E+02  0.51100000000E-03 0.  1.
    9900012    2    1    2    0    0 -0.38901015350E+01 -0.11317086691E+02 -0.14403771811E+02  0.72461601962E+02  0.70000041253E+02 0.  0.
         12    1    1    2    0    0  0.38901015350E+01  0.11317086691E+02  0.14403771811E+02  0.18726398038E+02  0.00000000000E+00 0. -1.
         11    1    3    3    0    0 -0.72164708382E+01 -0.59179144826E+01  0.33652683932E+01  0.99208968749E+01  0.51100000000E-03 0. -1.
        -11    1    3    3    0    0  0.14393813676E+02 -0.27127735702E+02 -0.22019425490E+02  0.37788239118E+02  0.51100000000E-03 0.  1.
         12    1    3    3    0    0 -0.11067444373E+02  0.21728563494E+02  0.42503852864E+01  0.24752465969E+02  0.00000000000E+00 0. -1.
</event>
<event>
 7    1  0.3348003E-013  0.7246158E+02  0.7816164E-02  0.1226708E+00
        -11   -1    0    0    0    0  0.00000000000E+00  0.00000000000E+00  0.45593999997E+02  0.45594000000E+02  0.51100000000E-03 0.  1.
         11   -1    0    0    0    0 -0.00000000000E+00 -0.00000000000E+00 -0.45593999997E+02  0.45594000000E+02  0.51100000000E-03 0. -1.
    9900012    2    1    2    0    0 -0.53453533502E+01 -0.11033456313E+02  0.14155171182E+02  0.72461579310E+02  0.70000011745E+02 0.  0.
         12    1    1    2    0    0  0.53453533502E+01  0.11033456313E+02 -0.14155171182E+02  0.18726420690E+02  0.00000000000E+00 0. -1.
         11    1    3    3    0    0  0.24016500872E+02 -0.10789532217E+02 -0.79944614503E+01  0.27515772454E+02  0.51100000000E-03 0. -1.
        -11    1    3    3    0    0 -0.62023292585E+01  0.46091285018E+01 -0.47885288773E+01  0.90908175015E+01  0.51100000000E-03 0.  1.
         12    1    3    3    0    0 -0.23159524964E+02 -0.48530525978E+01  0.26938161510E+02  0.35854989354E+02  0.00000000000E+00 0. -1.
</event>
<event>
 7    1  0.3348003E-013  0.7246149E+02  0.7816164E-02  0.1226708E+00
        -11   -1    0    0    0    0  0.00000000000E+00  0.00000000000E+00  0.45593999997E+02  0.45594000000E+02  0.51100000000E-03 0. -1.
         11   -1    0    0    0    0 -0.00000000000E+00 -0.00000000000E+00 -0.45593999997E+02  0.45594000000E+02  0.51100000000E-03 0.  1.
    9900012    2    1    2    0    0  0.31498453324E+01  0.16789921641E+02 -0.76719703609E+01  0.72461491422E+02  0.69999897254E+02 0.  0.
         12    1    1    2    0    0 -0.31498453324E+01 -0.16789921641E+02  0.76719703609E+01  0.18726508578E+02  0.00000000000E+00 0. -1.
         11    1    3    3    0    0 -0.95299986798E+00  0.36126168618E+01  0.19735240984E+02  0.20085789661E+02  0.51100000000E-03 0. -1.
        -11    1    3    3    0    0 -0.18499536756E+02  0.67581588140E+01 -0.59977487356E+01  0.20588311269E+02  0.51100000000E-03 0.  1.
        -12    1    3    3    0    0  0.22602381957E+02  0.64191459648E+01 -0.21409462610E+02  0.31787390492E+02  0.00000000000E+00 0.  1.
</event>
<event>
 7    1  0.3348003E-013  0.7246158E+02  0.7816164E-02  0.1226708E+00
        -11   -1    0    0    0    0  0.00000000000E+00  0.00000000000E+00  0.45593999997E+02  0.45594000000E+02  0.51100000000E-03 0.  1.
         11   -1    0    0    0    0 -0.00000000000E+00 -0.00000000000E+00 -0.45593999997E+02  0.45594000000E+02  0.51100000000E-03 0. -1.
    9900012    2    1    2    0    0 -0.17686540406E+02  0.47124189221E+01  0.39570477141E+01  0.72461579354E+02  0.70000011801E+02 0.  0.
         12    1    1    2    0    0  0.17686540406E+02 -0.47124189221E+01 -0.39570477141E+01  0.18726420646E+02  0.00000000000E+00 0. -1.
         11    1    3    3    0    0 -0.11422522582E+02  0.45852985033E+01  0.12129898133E+02  0.17281013091E+02  0.51100000000E-03 0. -1.
        -11    1    3    3    0    0 -0.17251360436E+02 -0.22100098252E+02  0.25803545424E+01  0.28154609027E+02  0.51100000000E-03 0.  1.
         12    1    3    3    0    0  0.10987342612E+02  0.22227218671E+02 -0.10753204961E+02  0.27025957235E+02  0.00000000000E+00 0. -1.
</event>
<event>
 7    1  0.3348003E-013  0.7246158E+02  0.7816164E-02  0.1226708E+00
        -11   -1    0    0    0    0  0.00000000000E+00  0.00000000000E+00  0.45593999997E+02  0.45594000000E+02  0.51100000000E-03 0. -1.
         11   -1    0    0    0    0 -0.00000000000E+00 -0.00000000000E+00 -0.45593999997E+02  0.45594000000E+02  0.51100000000E-03 0.  1.
    9900012    2    1    2    0    0 -0.17941334791E+02 -0.46811435840E+01 -0.26218723363E+01  0.72461579790E+02  0.70000012369E+02 0.  0.
         12    1    1    2    0    0  0.17941334791E+02  0.46811435840E+01  0.26218723363E+01  0.18726420210E+02  0.00000000000E+00 0. -1.
         11    1    3    3    0    0 -0.16719667998E+02 -0.14506921708E+02 -0.23742682976E+02  0.32460946853E+02  0.51100000000E-03 0. -1.
        -11    1    3    3    0    0 -0.12155415714E+02  0.37431355885E+01 -0.27836394435E+01  0.13019748232E+02  0.51100000000E-03 0.  1.
        -12    1    3    3    0    0  0.10933748921E+02  0.60826425357E+01  0.23904450083E+02  0.26980884705E+02  0.00000000000E+00 0.  1.
</event>
<event>
 7    1  0.3348003E-013  0.7246155E+02  0.7816164E-02  0.1226708E+00
        -11   -1    0    0    0    0  0.00000000000E+00  0.00000000000E+00  0.45593999997E+02  0.45594000000E+02  0.51100000000E-03 0.  1.
         11   -1    0    0    0    0 -0.00000000000E+00 -0.00000000000E+00 -0.45593999997E+02  0.45594000000E+02  0.51100000000E-03 0. -1.
    9900012    2    1    2    0    0 -0.69846582746E+01  0.15619030090E+02 -0.76118575337E+01  0.72461550062E+02  0.69999973643E+02 0.  0.
         12    1    1    2    0    0  0.69846582746E+01 -0.15619030090E+02  0.76118575337E+01  0.18726449938E+02  0.00000000000E+00 0. -1.
         11    1    3    3    0    0  0.51549369055E+01  0.39367865012E+01 -0.21219428953E+02  0.22188641865E+02  0.51100000000E-03 0. -1.
        -11    1    3    3    0    0 -0.22578867725E+02 -0.72629739090E+01 -0.16912734741E+01  0.23778487419E+02  0.51100000000E-03 0.  1.
        -12    1    3    3    0    0  0.10439272544E+02  0.18945217498E+02  0.15298844893E+02  0.26494420778E+02  0.00000000000E+00 0.  1.
</event>
<event>
 7    1  0.3348003E-013  0.7246155E+02  0.7816164E-02  0.1226708E+00
        -11   -1    0    0    0    0  0.00000000000E+00  0.00000000000E+00  0.45593999997E+02  0.45594000000E+02  0.51100000000E-03 0.  1.
         11   -1    0    0    0    0 -0.00000000000E+00 -0.00000000000E+00 -0.45593999997E+02  0.45594000000E+02  0.51100000000E-03 0. -1.
    9900012    2    1    2    0    0  0.10908039466E+02 -0.25675414992E+01  0.15003407590E+02  0.72461552562E+02  0.69999976900E+02 0.  0.
         12    1    1    2    0    0 -0.10908039466E+02  0.25675414992E+01 -0.15003407590E+02  0.18726447438E+02  0.00000000000E+00 0. -1.
         11    1    3    3    0    0  0.18830829101E+02  0.12250991871E+02  0.92535627615E+01  0.24296406123E+02  0.51100000000E-03 0. -1.
        -11    1    3    3    0    0  0.18080162083E+02 -0.96341390724E+01  0.69217743901E+01  0.21624519823E+02  0.51100000000E-03 0.  1.
         12    1    3    3    0    0 -0.26002951717E+02 -0.51843942982E+01 -0.11719295616E+01  0.26540626615E+02  0.00000000000E+00 0. -1.
</event>
<event>
 7    1  0.3348003E-013  0.7246156E+02  0.7816164E-02  0.1226708E+00
        -11   -1    0    0    0    0  0.00000000000E+00  0.00000000000E+00  0.45593999997E+02  0.45594000000E+02  0.51100000000E-03 0.  1.
         11   -1    0    0    0    0 -0.00000000000E+00 -0.00000000000E+00 -0.45593999997E+02  0.45594000000E+02  0.51100000000E-03 0. -1.
    9900012    2    1    2    0    0  0.11289808955E+02 -0.76385966372E+01  0.12840228603E+02  0.72461563729E+02  0.69999991447E+02 0.  0.
         12    1    1    2    0    0 -0.11289808955E+02  0.76385966372E+01 -0.12840228603E+02  0.18726436271E+02  0.00000000000E+00 0. -1.
         11    1    3    3    0    0 -0.93676159196E+01 -0.11462755293E+02  0.23354344484E+02  0.27650902218E+02  0.51100000000E-03 0. -1.
        -11    1    3    3    0    0  0.13236634162E+02 -0.12444118354E+02  0.72916716652E+01  0.19576338817E+02  0.51100000000E-03 0.  1.
         12    1    3    3    0    0  0.74207907130E+01  0.16268277010E+02 -0.17805787546E+02  0.25234322694E+02  0.00000000000E+00 0. -1.
</event>
<event>
 7    1  0.3348003E-013  0.7246163E+02  0.7816164E-02  0.1226708E+00
        -11   -1    0    0    0    0  0.00000000000E+00  0.00000000000E+00  0.45593999997E+02  0.45594000000E+02  0.51100000000E-03 0. -1.
         11   -1    0    0    0    0 -0.00000000000E+00 -0.00000000000E+00 -0.45593999997E+02  0.45594000000E+02  0.51100000000E-03 0.  1.
    9900012    2    1    2    0    0  0.40032311169E+01  0.10228007782E+02 -0.15167030921E+02  0.72461632773E+02  0.70000081390E+02 0.  0.
         12    1    1    2    0    0 -0.40032311169E+01 -0.10228007782E+02  0.15167030921E+02  0.18726367227E+02  0.00000000000E+00 0. -1.
         11    1    3    3    0    0  0.74146457487E+01  0.17196004886E+00 -0.12264368386E+02  0.14332525040E+02  0.51100000000E-03 0.  1.
        -11    1    3    3    0    0 -0.74119984306E+01 -0.19971467260E+02 -0.14416187818E+02  0.25722046900E+02  0.51100000000E-03 0. -1.
         12    1    3    3    0    0  0.40005837988E+01  0.30027514993E+02  0.11513525283E+02  0.32407060833E+02  0.00000000000E+00 0. -1.
</event>
<event>
 7    1  0.3348003E-013  0.7246156E+02  0.7816164E-02  0.1226708E+00
        -11   -1    0    0    0    0  0.00000000000E+00  0.00000000000E+00  0.45593999997E+02  0.45594000000E+02  0.51100000000E-03 0. -1.
         11   -1    0    0    0    0 -0.00000000000E+00 -0.00000000000E+00 -0.45593999997E+02  0.45594000000E+02  0.51100000000E-03 0.  1.
    9900012    2    1    2    0    0 -0.35024648903E+01  0.13293339142E+02 -0.12716111278E+02  0.72461558483E+02  0.69999984613E+02 0.  0.
         12    1    1    2    0    0  0.35024648903E+01 -0.13293339142E+02  0.12716111278E+02  0.18726441517E+02  0.00000000000E+00 0. -1.
         11    1    3    3    0    0  0.17400421531E+02 -0.12714499690E+02  0.95341797328E+01  0.23565520475E+02  0.51100000000E-03 0. -1.
        -11    1    3    3    0    0 -0.12635172648E+02 -0.21535329628E+01 -0.12668725833E+02  0.18021706539E+02  0.51100000000E-03 0.  1.
         12    1    3    3    0    0 -0.82677137729E+01  0.28161371795E+02 -0.95815651777E+01  0.30874331469E+02  0.00000000000E+00 0. -1.
</event>
<event>
 7    1  0.3348003E-013  0.7246159E+02  0.7816164E-02  0.1226708E+00
        -11   -1    0    0    0    0  0.00000000000E+00  0.00000000000E+00  0.45593999997E+02  0.45594000000E+02  0.51100000000E-03 0.  1.
         11   -1    0    0    0    0 -0.00000000000E+00 -0.00000000000E+00 -0.45593999997E+02  0.45594000000E+02  0.51100000000E-03 0. -1.
    9900012    2    1    2    0    0 -0.18712292080E+02  0.31864906078E+00 -0.65351372811E+00  0.72461588376E+02  0.70000023555E+02 0.  0.
         12    1    1    2    0    0  0.18712292080E+02 -0.31864906078E+00  0.65351372811E+00  0.18726411624E+02  0.00000000000E+00 0. -1.
         11    1    3    3    0    0  0.64605367453E+01 -0.17368855856E+02 -0.12992859435E+02  0.22632500642E+02  0.51100000000E-03 0. -1.
        -11    1    3    3    0    0  0.90888052758E+01 -0.56353747486E+00  0.47644838385E+01  0.10277366508E+02  0.51100000000E-03 0.  1.
        -12    1    3    3    0    0 -0.34261634101E+02  0.18251042391E+02  0.75748618679E+01  0.39551721226E+02  0.00000000000E+00 0.  1.
</event>
<event>
 7    1  0.3348003E-013  0.7246157E+02  0.7816164E-02  0.1226708E+00
        -11   -1    0    0    0    0  0.00000000000E+00  0.00000000000E+00  0.45593999997E+02  0.45594000000E+02  0.51100000000E-03 0. -1.
         11   -1    0    0    0    0 -0.00000000000E+00 -0.00000000000E+00 -0.45593999997E+02  0.45594000000E+02  0.51100000000E-03 0.  1.
    9900012    2    1    2    0    0  0.98027220118E-01  0.44940210703E+01 -0.18178923361E+02  0.72461572437E+02  0.70000002791E+02 0.  0.
         12    1    1    2    0    0 -0.98027220118E-01 -0.44940210703E+01  0.18178923361E+02  0.18726427563E+02  0.00000000000E+00 0. -1.
         11    1    3    3    0    0  0.72277786832E+01 -0.55941167985E+00 -0.60112626540E+01  0.94174840100E+01  0.51100000000E-03 0. -1.
        -11    1    3    3    0    0  0.25373652502E+02  0.55415148708E+00 -0.16008567524E+02  0.30006725239E+02  0.51100000000E-03 0.  1.
         12    1    3    3    0    0 -0.32503403965E+02  0.44992812630E+01  0.38409068169E+01  0.33037363187E+02  0.00000000000E+00 0. -1.
</event>
<event>
 7    1  0.3348003E-013  0.7246150E+02  0.7816164E-02  0.1226708E+00
        -11   -1    0    0    0    0  0.00000000000E+00  0.00000000000E+00  0.45593999997E+02  0.45594000000E+02  0.51100000000E-03 0. -1.
         11   -1    0    0    0    0 -0.00000000000E+00 -0.00000000000E+00 -0.45593999997E+02  0.45594000000E+02  0.51100000000E-03 0.  1.
    9900012    2    1    2    0    0 -0.11586225554E+02  0.74013593992E+01 -0.12714603877E+02  0.72461497516E+02  0.69999905192E+02 0.  0.
         12    1    1    2    0    0  0.11586225554E+02 -0.74013593992E+01  0.12714603877E+02  0.18726502484E+02  0.00000000000E+00 0. -1.
         11    1    3    3    0    0  0.13073226396E+02 -0.97779218430E+01  0.49790432552E+01  0.17067743728E+02  0.51100000000E-03 0. -1.
        -11    1    3    3    0    0  0.57554093039E+01 -0.35898557205E+01 -0.17277969023E+02  0.18561789088E+02  0.51100000000E-03 0.  1.
         12    1    3    3    0    0 -0.30414861254E+02  0.20769136963E+02 -0.41567810952E+00  0.36831964699E+02  0.00000000000E+00 0. -1.
</event>
<event>
 7    1  0.3348003E-013  0.7246158E+02  0.7816164E-02  0.1226708E+00
        -11   -1    0    0    0    0  0.00000000000E+00  0.00000000000E+00  0.45593999997E+02  0.45594000000E+02  0.51100000000E-03 0. -1.
         11   -1    0    0    0    0 -0.00000000000E+00 -0.00000000000E+00 -0.45593999997E+02  0.45594000000E+02  0.51100000000E-03 0.  1.
    9900012    2    1    2    0    0 -0.11641579123E+02 -0.98962344961E+01 -0.10826686374E+02  0.72461575901E+02  0.70000007304E+02 0.  0.
         12    1    1    2    0    0  0.11641579123E+02  0.98962344961E+01  0.10826686374E+02  0.18726424099E+02  0.00000000000E+00 0. -1.
         11    1    3    3    0    0  0.15210362176E+02  0.70052110773E+01 -0.35801184057E+01  0.17124407955E+02  0.51100000000E-03 0. -1.
        -11    1    3    3    0    0  0.38822344524E+01  0.42599789235E+01 -0.16002524958E+02  0.17008820360E+02  0.51100000000E-03 0.  1.
         12    1    3    3    0    0 -0.30734175752E+02 -0.21161424497E+02  0.87559569896E+01  0.38328347586E+02  0.00000000000E+00 0. -1.
</event>
<event>
 7    1  0.3348003E-013  0.7246159E+02  0.7816164E-02  0.1226708E+00
        -11   -1    0    0    0    0  0.00000000000E+00  0.00000000000E+00  0.45593999997E+02  0.45594000000E+02  0.51100000000E-03 0.  1.
         11   -1    0    0    0    0 -0.00000000000E+00 -0.00000000000E+00 -0.45593999997E+02  0.45594000000E+02  0.51100000000E-03 0. -1.
    9900012    2    1    2    0    0  0.47622912186E+01  0.94643481474E+01  0.15441017137E+02  0.72461593144E+02  0.70000029766E+02 0.  0.
         12    1    1    2    0    0 -0.47622912186E+01 -0.94643481474E+01 -0.15441017137E+02  0.18726406856E+02  0.00000000000E+00 0. -1.
         11    1    3    3    0    0  0.21287570163E+01 -0.14887063749E+02  0.14692014014E+02  0.21024070718E+02  0.51100000000E-03 0. -1.
        -11    1    3    3    0    0 -0.10878800435E+02  0.18391649043E+02  0.18557883945E+02  0.28301874677E+02  0.51100000000E-03 0.  1.
         12    1    3    3    0    0  0.13512334638E+02  0.59597628536E+01 -0.17808880823E+02  0.23135647749E+02  0.00000000000E+00 0. -1.
</event>
<event>
 7    1  0.3348003E-013  0.7246151E+02  0.7816164E-02  0.1226708E+00
        -11   -1    0    0    0    0  0.00000000000E+00  0.00000000000E+00  0.45593999997E+02  0.45594000000E+02  0.51100000000E-03 0. -1.
         11   -1    0    0    0    0 -0.00000000000E+00 -0.00000000000E+00 -0.45593999997E+02  0.45594000000E+02  0.51100000000E-03 0.  1.
    9900012    2    1    2    0    0  0.80482083885E+01  0.11322007967E+02 -0.12558657136E+02  0.72461510961E+02  0.69999922707E+02 0.  0.
         12    1    1    2    0    0 -0.80482083885E+01 -0.11322007967E+02  0.12558657136E+02  0.18726489039E+02  0.00000000000E+00 0. -1.
         11    1    3    3    0    0  0.10788381339E+02  0.67545038568E+01  0.14862018748E+02  0.19567628772E+02  0.51100000000E-03 0. -1.
        -11    1    3    3    0    0  0.15250838181E+02 -0.83334280012E+01  0.34519820771E+00  0.17382555897E+02  0.51100000000E-03 0.  1.
        -12    1    3    3    0    0 -0.17991011131E+02  0.12900932112E+02 -0.27765874092E+02  0.35511326291E+02  0.00000000000E+00 0.  1.
</event>
<event>
 7    1  0.3348003E-013  0.7246131E+02  0.7816164E-02  0.1226709E+00
        -11   -1    0    0    0    0  0.00000000000E+00  0.00000000000E+00  0.45593999997E+02  0.45594000000E+02  0.51100000000E-03 0. -1.
         11   -1    0    0    0    0 -0.00000000000E+00 -0.00000000000E+00 -0.45593999997E+02  0.45594000000E+02  0.51100000000E-03 0.  1.
    9900012    2    1    2    0    0 -0.23164978958E+01  0.13995786296E+02 -0.12224588313E+02  0.72461314336E+02  0.69999666566E+02 0.  0.
         12    1    1    2    0    0  0.23164978958E+01 -0.13995786296E+02  0.12224588313E+02  0.18726685664E+02  0.00000000000E+00 0. -1.
         11    1    3    3    0    0 -0.12785467575E+02  0.27856754458E+02 -0.36459434713E+01  0.30866808292E+02  0.51100000000E-03 0. -1.
        -11    1    3    3    0    0  0.13358055634E+02  0.99621612257E+01 -0.44098168087E+01  0.17237424145E+02  0.51100000000E-03 0.  1.
         12    1    3    3    0    0 -0.28890859546E+01 -0.23823129388E+02 -0.41688280326E+01  0.24357081899E+02  0.00000000000E+00 0. -1.
</event>
<event>
 7    1  0.3348003E-013  0.7246138E+02  0.7816164E-02  0.1226709E+00
        -11   -1    0    0    0    0  0.00000000000E+00  0.00000000000E+00  0.45593999997E+02  0.45594000000E+02  0.51100000000E-03 0. -1.
         11   -1    0    0    0    0 -0.00000000000E+00 -0.00000000000E+00 -0.45593999997E+02  0.45594000000E+02  0.51100000000E-03 0.  1.
    9900012    2    1    2    0    0  0.15847619179E+02  0.47804130569E+01 -0.87571138613E+01  0.72461376550E+02  0.69999747612E+02 0.  0.
         12    1    1    2    0    0 -0.15847619179E+02 -0.47804130569E+01  0.87571138613E+01  0.18726623450E+02  0.00000000000E+00 0. -1.
         11    1    3    3    0    0  0.22347452067E+02 -0.97904581594E+01  0.98033267505E+01  0.26293856707E+02  0.51100000000E-03 0. -1.
        -11    1    3    3    0    0  0.70844544796E+01  0.88976600656E+01  0.92769805423E+01  0.14677200624E+02  0.51100000000E-03 0.  1.
        -12    1    3    3    0    0 -0.13584287368E+02  0.56732111507E+01 -0.27837421154E+02  0.31490319220E+02  0.00000000000E+00 0.  1.
</event>
<event>
 7    1  0.3348003E-013  0.7246158E+02  0.7816164E-02  0.1226708E+00
        -11   -1    0    0    0    0  0.00000000000E+00  0.00000000000E+00  0.45593999997E+02  0.45594000000E+02  0.51100000000E-03 0. -1.
         11   -1    0    0    0    0 -0.00000000000E+00 -0.00000000000E+00 -0.45593999997E+02  0.45594000000E+02  0.51100000000E-03 0.  1.
    9900012    2    1    2    0    0  0.32529472797E+01 -0.44382024825E+01 -0.17899710429E+02  0.72461576403E+02  0.70000007958E+02 0.  0.
         12    1    1    2    0    0 -0.32529472797E+01  0.44382024825E+01  0.17899710429E+02  0.18726423597E+02  0.00000000000E+00 0. -1.
         11    1    3    3    0    0  0.94487436146E+01 -0.10548875175E+02 -0.12479127332E+02  0.18875543505E+02  0.51100000000E-03 0. -1.
        -11    1    3    3    0    0  0.43475163472E+01 -0.13171433961E+02 -0.22034319525E+02  0.26036489936E+02  0.51100000000E-03 0.  1.
         12    1    3    3    0    0 -0.10543312682E+02  0.19282106654E+02  0.16613736429E+02  0.27549542962E+02  0.00000000000E+00 0. -1.
</event>
<event>
 7    1  0.3348003E-013  0.7246154E+02  0.7816164E-02  0.1226708E+00
        -11   -1    0    0    0    0  0.00000000000E+00  0.00000000000E+00  0.45593999997E+02  0.45594000000E+02  0.51100000000E-03 0.  1.
         11   -1    0    0    0    0 -0.00000000000E+00 -0.00000000000E+00 -0.45593999997E+02  0.45594000000E+02  0.51100000000E-03 0. -1.
    9900012    2    1    2    0    0  0.43942799059E+01 -0.14401252863E+02  0.11134379849E+02  0.72461542927E+02  0.69999964348E+02 0.  0.
         12    1    1    2    0    0 -0.43942799059E+01  0.14401252863E+02 -0.11134379849E+02  0.18726457073E+02  0.00000000000E+00 0. -1.
         11    1    3    3    0    0  0.24687484607E+02 -0.10928504231E+02  0.23299689181E+02  0.35662019252E+02  0.51100000000E-03 0. -1.
        -11    1    3    3    0    0 -0.29485574133E+01 -0.14073681765E+02 -0.43738204528E+01  0.15029731030E+02  0.51100000000E-03 0.  1.
         12    1    3    3    0    0 -0.17344647288E+02  0.10600933133E+02 -0.77914888792E+01  0.21769792644E+02  0.00000000000E+00 0. -1.
</event>
<event>
 7    1  0.3348003E-013  0.7246157E+02  0.7816164E-02  0.1226708E+00
        -11   -1    0    0    0    0  0.00000000000E+00  0.00000000000E+00  0.45593999997E+02  0.45594000000E+02  0.51100000000E-03 0.  1.
         11   -1    0    0    0    0 -0.00000000000E+00 -0.00000000000E+00 -0.45593999997E+02  0.45594000000E+02  0.51100000000E-03 0. -1.
    9900012    2    1    2    0    0 -0.14207446304E+02 -0.12171134610E+02  0.83137081857E+00  0.72461568797E+02  0.69999998049E+02 0.  0.
         12    1    1    2    0    0  0.14207446304E+02  0.12171134610E+02 -0.83137081857E+00  0.18726431203E+02  0.00000000000E+00 0. -1.
         11    1    3    3    0    0  0.92629464644E+01 -0.25918863322E+02  0.35372431444E+01  0.27750707062E+02  0.51100000000E-03 0. -1.
        -11    1    3    3    0    0 -0.65093776948E+01  0.16019076590E+00 -0.17332198713E+02  0.18514933744E+02  0.51100000000E-03 0.  1.
        -12    1    3    3    0    0 -0.16961015074E+02  0.13587537946E+02  0.14626326387E+02  0.26195927992E+02  0.00000000000E+00 0.  1.
</event>
<event>
 7    1  0.3348003E-013  0.7246154E+02  0.7816164E-02  0.1226708E+00
        -11   -1    0    0    0    0  0.00000000000E+00  0.00000000000E+00  0.45593999997E+02  0.45594000000E+02  0.51100000000E-03 0.  1.
         11   -1    0    0    0    0 -0.00000000000E+00 -0.00000000000E+00 -0.45593999997E+02  0.45594000000E+02  0.51100000000E-03 0. -1.
    9900012    2    1    2    0    0 -0.57494092177E+01 -0.45472162106E+00  0.17816225478E+02  0.72461538284E+02  0.69999958301E+02 0.  0.
         12    1    1    2    0    0  0.57494092177E+01  0.45472162106E+00 -0.17816225478E+02  0.18726461716E+02  0.00000000000E+00 0. -1.
         11    1    3    3    0    0  0.23612181743E+01 -0.10347965732E+02 -0.93229933870E+01  0.14127064522E+02  0.51100000000E-03 0. -1.
        -11    1    3    3    0    0  0.63392947376E+01 -0.10932996584E+02 -0.80367592513E+01  0.14976867883E+02  0.51100000000E-03 0.  1.
        -12    1    3    3    0    0 -0.14449922130E+02  0.20826240695E+02  0.35175978117E+02  0.43357605878E+02  0.00000000000E+00 0.  1.
</event>
<event>
 7    1  0.3348003E-013  0.7246154E+02  0.7816164E-02  0.1226708E+00
        -11   -1    0    0    0    0  0.00000000000E+00  0.00000000000E+00  0.45593999997E+02  0.45594000000E+02  0.51100000000E-03 0.  1.
         11   -1    0    0    0    0 -0.00000000000E+00 -0.00000000000E+00 -0.45593999997E+02  0.45594000000E+02  0.51100000000E-03 0. -1.
    9900012    2    1    2    0    0 -0.15510544748E+02 -0.79726839263E+00  0.10462684627E+02  0.72461537310E+02  0.69999957032E+02 0.  0.
         12    1    1    2    0    0  0.15510544748E+02  0.79726839263E+00 -0.10462684627E+02  0.18726462690E+02  0.00000000000E+00 0. -1.
         11    1    3    3    0    0 -0.16767190818E+02 -0.15506700150E+02 -0.19621649619E+02  0.30109891589E+02  0.51100000000E-03 0. -1.
        -11    1    3    3    0    0  0.59746230772E+01 -0.57105801741E+01  0.49808795140E+01  0.96496636125E+01  0.51100000000E-03 0.  1.
        -12    1    3    3    0    0 -0.47179770070E+01  0.20420011931E+02  0.25103454732E+02  0.32701982108E+02  0.00000000000E+00 0.  1.
</event>
<event>
 7    1  0.3348003E-013  0.7246186E+02  0.7816164E-02  0.1226707E+00
        -11   -1    0    0    0    0  0.00000000000E+00  0.00000000000E+00  0.45593999997E+02  0.45594000000E+02  0.51100000000E-03 0. -1.
         11   -1    0    0    0    0 -0.00000000000E+00 -0.00000000000E+00 -0.45593999997E+02  0.45594000000E+02  0.51100000000E-03 0.  1.
    9900012    2    1    2    0    0  0.10297926128E+01 -0.17623365637E+02 -0.62469844276E+01  0.72461860418E+02  0.70000377939E+02 0.  0.
         12    1    1    2    0    0 -0.10297926128E+01  0.17623365637E+02  0.62469844276E+01  0.18726139582E+02  0.00000000000E+00 0. -1.
         11    1    3    3    0    0 -0.52287027386E+01 -0.20990196216E+01 -0.14767163749E+01  0.58245950257E+01  0.51100000000E-03 0. -1.
        -11    1    3    3    0    0 -0.25008597484E+02 -0.20071526312E+02 -0.11975299518E+02  0.34230160902E+02  0.51100000000E-03 0.  1.
         12    1    3    3    0    0  0.31267092835E+02  0.45471802962E+01  0.72050314650E+01  0.32407104490E+02  0.00000000000E+00 0. -1.
</event>
<event>
 7    1  0.3348003E-013  0.7246155E+02  0.7816164E-02  0.1226708E+00
        -11   -1    0    0    0    0  0.00000000000E+00  0.00000000000E+00  0.45593999997E+02  0.45594000000E+02  0.51100000000E-03 0.  1.
         11   -1    0    0    0    0 -0.00000000000E+00 -0.00000000000E+00 -0.45593999997E+02  0.45594000000E+02  0.51100000000E-03 0. -1.
    9900012    2    1    2    0    0 -0.83797375590E+01  0.77196154091E+01  0.14861605628E+02  0.72461553848E+02  0.69999978576E+02 0.  0.
         12    1    1    2    0    0  0.83797375590E+01 -0.77196154091E+01 -0.14861605628E+02  0.18726446152E+02  0.00000000000E+00 0. -1.
         11    1    3    3    0    0  0.27397872785E+01 -0.50744308006E+00  0.11865378200E+02  0.12188155435E+02  0.51100000000E-03 0. -1.
        -11    1    3    3    0    0 -0.35505889827E+01  0.16585791310E+02  0.28060950422E+02  0.32788902000E+02  0.51100000000E-03 0.  1.
         12    1    3    3    0    0 -0.75689358548E+01 -0.83587328206E+01 -0.25064722994E+02  0.27484496414E+02  0.00000000000E+00 0. -1.
</event>
<event>
 7    1  0.3348003E-013  0.7246150E+02  0.7816164E-02  0.1226708E+00
        -11   -1    0    0    0    0  0.00000000000E+00  0.00000000000E+00  0.45593999997E+02  0.45594000000E+02  0.51100000000E-03 0.  1.
         11   -1    0    0    0    0 -0.00000000000E+00 -0.00000000000E+00 -0.45593999997E+02  0.45594000000E+02  0.51100000000E-03 0. -1.
    9900012    2    1    2    0    0  0.19611207977E+01  0.13840010938E+02 -0.12461532384E+02  0.72461503080E+02  0.69999912440E+02 0.  0.
         12    1    1    2    0    0 -0.19611207977E+01 -0.13840010938E+02  0.12461532384E+02  0.18726496920E+02  0.00000000000E+00 0. -1.
         11    1    3    3    0    0 -0.13014704357E+02  0.10885712213E+02 -0.14742506906E+02  0.22477161075E+02  0.51100000000E-03 0.  1.
        -11    1    3    3    0    0  0.51790349249E+01 -0.77167300036E+01 -0.20772857190E+02  0.22757019155E+02  0.51100000000E-03 0. -1.
        -12    1    3    3    0    0  0.97967902296E+01  0.10671028729E+02  0.23053831712E+02  0.27227322850E+02  0.00000000000E+00 0.  1.
</event>
<event>
 7    1  0.3348003E-013  0.7246160E+02  0.7816164E-02  0.1226708E+00
        -11   -1    0    0    0    0  0.00000000000E+00  0.00000000000E+00  0.45593999997E+02  0.45594000000E+02  0.51100000000E-03 0.  1.
         11   -1    0    0    0    0 -0.00000000000E+00 -0.00000000000E+00 -0.45593999997E+02  0.45594000000E+02  0.51100000000E-03 0. -1.
    9900012    2    1    2    0    0  0.25400778441E+01  0.13175987916E+02  0.13062136965E+02  0.72461599515E+02  0.70000038066E+02 0.  0.
         12    1    1    2    0    0 -0.25400778441E+01 -0.13175987916E+02 -0.13062136965E+02  0.18726400485E+02  0.00000000000E+00 0. -1.
         11    1    3    3    0    0 -0.18143789087E+01 -0.33423544328E+01  0.10595447845E+01  0.39479031638E+01  0.51100000000E-03 0. -1.
        -11    1    3    3    0    0 -0.19519090619E+02 -0.16123452684E+02 -0.27505681813E+01  0.25466178563E+02  0.51100000000E-03 0.  1.
         12    1    3    3    0    0  0.23873547371E+02  0.32641795033E+02  0.14753160362E+02  0.43047517788E+02  0.00000000000E+00 0. -1.
</event>
<event>
 7    1  0.3348003E-013  0.7246149E+02  0.7816164E-02  0.1226708E+00
        -11   -1    0    0    0    0  0.00000000000E+00  0.00000000000E+00  0.45593999997E+02  0.45594000000E+02  0.51100000000E-03 0.  1.
         11   -1    0    0    0    0 -0.00000000000E+00 -0.00000000000E+00 -0.45593999997E+02  0.45594000000E+02  0.51100000000E-03 0. -1.
    9900012    2    1    2    0    0  0.16106825629E+02 -0.90941296325E+01  0.29239100559E+01  0.72461487360E+02  0.69999891963E+02 0.  0.
         12    1    1    2    0    0 -0.16106825629E+02  0.90941296325E+01 -0.29239100559E+01  0.18726512640E+02  0.00000000000E+00 0. -1.
         11    1    3    3    0    0 -0.23057036897E+01  0.16451470403E+02 -0.31595013129E+01  0.16910044256E+02  0.51100000000E-03 0. -1.
        -11    1    3    3    0    0 -0.28577801522E+01  0.64004678924E+01  0.14638446231E+02  0.16230126461E+02  0.51100000000E-03 0.  1.
        -12    1    3    3    0    0  0.21270309471E+02 -0.31946067928E+02 -0.85550348620E+01  0.39321316643E+02  0.00000000000E+00 0.  1.
</event>
<event>
 7    1  0.3348003E-013  0.7246157E+02  0.7816164E-02  0.1226708E+00
        -11   -1    0    0    0    0  0.00000000000E+00  0.00000000000E+00  0.45593999997E+02  0.45594000000E+02  0.51100000000E-03 0.  1.
         11   -1    0    0    0    0 -0.00000000000E+00 -0.00000000000E+00 -0.45593999997E+02  0.45594000000E+02  0.51100000000E-03 0. -1.
    9900012    2    1    2    0    0  0.11184575266E+02 -0.11219831865E+02  0.99849861411E+01  0.72461566832E+02  0.69999995489E+02 0.  0.
         12    1    1    2    0    0 -0.11184575266E+02  0.11219831865E+02 -0.99849861411E+01  0.18726433168E+02  0.00000000000E+00 0. -1.
         11    1    3    3    0    0  0.12687059540E+02  0.15132862234E+02  0.32170854911E+00  0.19750151792E+02  0.51100000000E-03 0. -1.
        -11    1    3    3    0    0  0.12256828832E+02 -0.24612358934E+02  0.21161529626E+02  0.34695942150E+02  0.51100000000E-03 0.  1.
         12    1    3    3    0    0 -0.13759313105E+02 -0.17403351649E+01 -0.11498252034E+02  0.18015472890E+02  0.00000000000E+00 0. -1.
</event>
<event>
 7    1  0.3348003E-013  0.7246156E+02  0.7816164E-02  0.1226708E+00
        -11   -1    0    0    0    0  0.00000000000E+00  0.00000000000E+00  0.45593999997E+02  0.45594000000E+02  0.51100000000E-03 0.  1.
         11   -1    0    0    0    0 -0.00000000000E+00 -0.00000000000E+00 -0.45593999997E+02  0.45594000000E+02  0.51100000000E-03 0. -1.
    9900012    2    1    2    0    0  0.17171861602E+01 -0.15209114666E+02  0.10789524456E+02  0.72461555190E+02  0.69999980324E+02 0.  0.
         12    1    1    2    0    0 -0.17171861602E+01  0.15209114666E+02 -0.10789524456E+02  0.18726444810E+02  0.00000000000E+00 0. -1.
         11    1    3    3    0    0 -0.12311005010E+01  0.29473024282E+01  0.63640829271E+01  0.71206566980E+01  0.51100000000E-03 0. -1.
        -11    1    3    3    0    0  0.10258885936E+02  0.18283995045E+02  0.16044785426E+02  0.26400461267E+02  0.51100000000E-03 0.  1.
         12    1    3    3    0    0 -0.73105992753E+01 -0.36440412140E+02 -0.11619343898E+02  0.38940437225E+02  0.00000000000E+00 0. -1.
</event>
<event>
 7    1  0.3348003E-013  0.7246131E+02  0.7816164E-02  0.1226709E+00
        -11   -1    0    0    0    0  0.00000000000E+00  0.00000000000E+00  0.45593999997E+02  0.45594000000E+02  0.51100000000E-03 0.  1.
         11   -1    0    0    0    0 -0.00000000000E+00 -0.00000000000E+00 -0.45593999997E+02  0.45594000000E+02  0.51100000000E-03 0. -1.
    9900012    2    1    2    0    0 -0.11191006409E+02 -0.13657167582E+02  0.62395685248E+01  0.72461306053E+02  0.69999655776E+02 0.  0.
         12    1    1    2    0    0  0.11191006409E+02  0.13657167582E+02 -0.62395685248E+01  0.18726693947E+02  0.00000000000E+00 0. -1.
         11    1    3    3    0    0 -0.14807566215E+02 -0.17912728975E+02 -0.20786539793E+02  0.31180284049E+02  0.51100000000E-03 0. -1.
        -11    1    3    3    0    0 -0.12280323521E+02 -0.39940723881E+01  0.82022050146E+01  0.15298206672E+02  0.51100000000E-03 0.  1.
        -12    1    3    3    0    0  0.15896883327E+02  0.82496337810E+01  0.18823903303E+02  0.25982815332E+02  0.00000000000E+00 0.  1.
</event>
<event>
 7    1  0.3348003E-013  0.7246153E+02  0.7816164E-02  0.1226708E+00
        -11   -1    0    0    0    0  0.00000000000E+00  0.00000000000E+00  0.45593999997E+02  0.45594000000E+02  0.51100000000E-03 0. -1.
         11   -1    0    0    0    0 -0.00000000000E+00 -0.00000000000E+00 -0.45593999997E+02  0.45594000000E+02  0.51100000000E-03 0.  1.
    9900012    2    1    2    0    0 -0.16498877808E+02  0.64755121465E+01 -0.60444467822E+01  0.72461533078E+02  0.69999951519E+02 0.  0.
         12    1    1    2    0    0  0.16498877808E+02 -0.64755121465E+01  0.60444467822E+01  0.18726466922E+02  0.00000000000E+00 0. -1.
         11    1    3    3    0    0 -0.10620124145E+02  0.48800072169E+01  0.98919515313E+00  0.11729450738E+02  0.51100000000E-03 0. -1.
        -11    1    3    3    0    0 -0.31020222594E+02 -0.99210504239E+01 -0.55591072080E+01  0.33039145336E+02  0.51100000000E-03 0.  1.
         12    1    3    3    0    0  0.25141468932E+02  0.11516555354E+02 -0.14745347274E+01  0.27692937004E+02  0.00000000000E+00 0. -1.
</event>
<event>
 7    1  0.3348003E-013  0.7246158E+02  0.7816164E-02  0.1226708E+00
        -11   -1    0    0    0    0  0.00000000000E+00  0.00000000000E+00  0.45593999997E+02  0.45594000000E+02  0.51100000000E-03 0. -1.
         11   -1    0    0    0    0 -0.00000000000E+00 -0.00000000000E+00 -0.45593999997E+02  0.45594000000E+02  0.51100000000E-03 0.  1.
    9900012    2    1    2    0    0  0.13016687509E+02 -0.13862246237E+01 -0.13391152429E+02  0.72461581875E+02  0.70000015086E+02 0.  0.
         12    1    1    2    0    0 -0.13016687509E+02  0.13862246237E+01  0.13391152429E+02  0.18726418125E+02  0.00000000000E+00 0. -1.
         11    1    3    3    0    0 -0.87134126595E+01  0.48870821654E+01  0.80226856742E+01  0.12812908255E+02  0.51100000000E-03 0. -1.
        -11    1    3    3    0    0 -0.15915530207E+01  0.58455974142E+01  0.14170078845E+02  0.15410878784E+02  0.51100000000E-03 0.  1.
        -12    1    3    3    0    0  0.23321653189E+02 -0.12118904203E+02 -0.35583916949E+02  0.44237794836E+02  0.00000000000E+00 0.  1.
</event>
<event>
 7    1  0.3348003E-013  0.7246146E+02  0.7816164E-02  0.1226708E+00
        -11   -1    0    0    0    0  0.00000000000E+00  0.00000000000E+00  0.45593999997E+02  0.45594000000E+02  0.51100000000E-03 0. -1.
         11   -1    0    0    0    0 -0.00000000000E+00 -0.00000000000E+00 -0.45593999997E+02  0.45594000000E+02  0.51100000000E-03 0.  1.
    9900012    2    1    2    0    0 -0.14948702088E+02  0.10492673655E+02 -0.41380263661E+01  0.72461463834E+02  0.69999861316E+02 0.  0.
         12    1    1    2    0    0  0.14948702088E+02 -0.10492673655E+02  0.41380263661E+01  0.18726536166E+02  0.00000000000E+00 0. -1.
         11    1    3    3    0    0 -0.15069894265E+02 -0.33880442832E+01  0.71038354757E+01  0.17001324536E+02  0.51100000000E-03 0. -1.
        -11    1    3    3    0    0  0.20465375810E+02  0.65055184777E+01  0.11254810306E+02  0.24245084718E+02  0.51100000000E-03 0.  1.
         12    1    3    3    0    0 -0.20344183633E+02  0.73751994605E+01 -0.22496672148E+02  0.31215054581E+02  0.00000000000E+00 0. -1.
</event>
<event>
 7    1  0.3348003E-013  0.7246158E+02  0.7816164E-02  0.1226708E+00
        -11   -1    0    0    0    0  0.00000000000E+00  0.00000000000E+00  0.45593999997E+02  0.45594000000E+02  0.51100000000E-03 0.  1.
         11   -1    0    0    0    0 -0.00000000000E+00 -0.00000000000E+00 -0.45593999997E+02  0.45594000000E+02  0.51100000000E-03 0. -1.
    9900012    2    1    2    0    0  0.18564901445E+02  0.17125842801E+01  0.17578982547E+01  0.72461582381E+02  0.70000015745E+02 0.  0.
         12    1    1    2    0    0 -0.18564901445E+02 -0.17125842801E+01 -0.17578982547E+01  0.18726417619E+02  0.00000000000E+00 0. -1.
         11    1    3    3    0    0  0.18018164200E+02 -0.22214312475E+02 -0.55983069355E+01  0.29145685112E+02  0.51100000000E-03 0. -1.
        -11    1    3    3    0    0 -0.64618073907E+00 -0.31942615424E+01  0.14809589454E+02  0.15163930771E+02  0.51100000000E-03 0.  1.
        -12    1    3    3    0    0  0.11929179846E+01  0.27121158297E+02 -0.74533842643E+01  0.28151966498E+02  0.00000000000E+00 0.  1.
</event>
<event>
 7    1  0.3348003E-013  0.7246146E+02  0.7816164E-02  0.1226708E+00
        -11   -1    0    0    0    0  0.00000000000E+00  0.00000000000E+00  0.45593999997E+02  0.45594000000E+02  0.51100000000E-03 0. -1.
         11   -1    0    0    0    0 -0.00000000000E+00 -0.00000000000E+00 -0.45593999997E+02  0.45594000000E+02  0.51100000000E-03 0.  1.
    9900012    2    1    2    0    0  0.21459252916E+01 -0.10537818359E+02 -0.15330770657E+02  0.72461464280E+02  0.69999861897E+02 0.  0.
         12    1    1    2    0    0 -0.21459252916E+01  0.10537818359E+02  0.15330770657E+02  0.18726535720E+02  0.00000000000E+00 0. -1.
         11    1    3    3    0    0  0.55618811206E+01 -0.10953185652E+01 -0.68258995792E+01  0.88728321119E+01  0.51100000000E-03 0. -1.
        -11    1    3    3    0    0 -0.43745460176E+01 -0.36017168132E+02 -0.70237751565E+01  0.36955466048E+02  0.51100000000E-03 0.  1.
         12    1    3    3    0    0  0.95859018861E+00  0.26574668338E+02 -0.14810959212E+01  0.26633166120E+02  0.00000000000E+00 0. -1.
</event>
<event>
 7    1  0.3348003E-013  0.7246169E+02  0.7816164E-02  0.1226708E+00
        -11   -1    0    0    0    0  0.00000000000E+00  0.00000000000E+00  0.45593999997E+02  0.45594000000E+02  0.51100000000E-03 0. -1.
         11   -1    0    0    0    0 -0.00000000000E+00 -0.00000000000E+00 -0.45593999997E+02  0.45594000000E+02  0.51100000000E-03 0.  1.
    9900012    2    1    2    0    0 -0.10143312586E+01  0.19529557443E+00 -0.18697793824E+02  0.72461694914E+02  0.70000162340E+02 0.  0.
         12    1    1    2    0    0  0.10143312586E+01 -0.19529557443E+00  0.18697793824E+02  0.18726305086E+02  0.00000000000E+00 0. -1.
         11    1    3    3    0    0 -0.75546210910E-01 -0.13680721961E+02  0.18363823800E+02  0.22899735488E+02  0.51100000000E-03 0. -1.
        -11    1    3    3    0    0  0.92650844223E+01 -0.48035502913E+01 -0.64192854069E+01  0.12252473634E+02  0.51100000000E-03 0.  1.
        -12    1    3    3    0    0 -0.10203869470E+02  0.18679567827E+02 -0.30642332218E+02  0.37309485792E+02  0.00000000000E+00 0.  1.
</event>
<event>
 7    1  0.3348003E-013  0.7246159E+02  0.7816164E-02  0.1226708E+00
        -11   -1    0    0    0    0  0.00000000000E+00  0.00000000000E+00  0.45593999997E+02  0.45594000000E+02  0.51100000000E-03 0. -1.
         11   -1    0    0    0    0 -0.00000000000E+00 -0.00000000000E+00 -0.45593999997E+02  0.45594000000E+02  0.51100000000E-03 0.  1.
    9900012    2    1    2    0    0  0.17159756393E+02 -0.52939925503E+01 -0.53098883506E+01  0.72461587880E+02  0.70000022909E+02 0.  0.
         12    1    1    2    0    0 -0.17159756393E+02  0.52939925503E+01  0.53098883506E+01  0.18726412120E+02  0.00000000000E+00 0. -1.
         11    1    3    3    0    0 -0.86825701290E+01  0.53280326439E+01  0.23658938731E+02  0.25758888525E+02  0.51100000000E-03 0. -1.
        -11    1    3    3    0    0  0.53391892547E+01 -0.49075507529E+01  0.33629829672E+01  0.79937882752E+01  0.51100000000E-03 0.  1.
        -12    1    3    3    0    0  0.20503137267E+02 -0.57144744413E+01 -0.32331810049E+02  0.38708911080E+02  0.00000000000E+00 0.  1.
</event>
<event>
 7    1  0.3348003E-013  0.7246155E+02  0.7816164E-02  0.1226708E+00
        -11   -1    0    0    0    0  0.00000000000E+00  0.00000000000E+00  0.45593999997E+02  0.45594000000E+02  0.51100000000E-03 0.  1.
         11   -1    0    0    0    0 -0.00000000000E+00 -0.00000000000E+00 -0.45593999997E+02  0.45594000000E+02  0.51100000000E-03 0. -1.
    9900012    2    1    2    0    0 -0.52225605503E+01  0.15476747869E+02 -0.91583297352E+01  0.72461551676E+02  0.69999975746E+02 0.  0.
         12    1    1    2    0    0  0.52225605503E+01 -0.15476747869E+02  0.91583297352E+01  0.18726448324E+02  0.00000000000E+00 0. -1.
         11    1    3    3    0    0  0.38795295129E+01 -0.41821674808E+01  0.42050937035E+01  0.70868954695E+01  0.51100000000E-03 0. -1.
        -11    1    3    3    0    0 -0.14759534731E+02  0.24315441247E+02  0.17671273654E+02  0.33486690809E+02  0.51100000000E-03 0.  1.
         12    1    3    3    0    0  0.56574446673E+01 -0.46565258978E+01 -0.31034697092E+02  0.31887965398E+02  0.00000000000E+00 0. -1.
</event>
<event>
 7    1  0.3348003E-013  0.7246222E+02  0.7816164E-02  0.1226706E+00
        -11   -1    0    0    0    0  0.00000000000E+00  0.00000000000E+00  0.45593999997E+02  0.45594000000E+02  0.51100000000E-03 0.  1.
         11   -1    0    0    0    0 -0.00000000000E+00 -0.00000000000E+00 -0.45593999997E+02  0.45594000000E+02  0.51100000000E-03 0. -1.
    9900012    2    1    2    0    0 -0.10921147912E+02 -0.14841527683E+01  0.15138719688E+02  0.72462215239E+02  0.70000840155E+02 0.  0.
         12    1    1    2    0    0  0.10921147912E+02  0.14841527683E+01 -0.15138719688E+02  0.18725784761E+02  0.00000000000E+00 0. -1.
         11    1    3    3    0    0  0.10467284623E+02 -0.10673816511E+02 -0.15880303039E+02  0.21810053442E+02  0.51100000000E-03 0. -1.
        -11    1    3    3    0    0  0.46222812821E+01 -0.96230796879E+00 -0.37714417178E+01  0.60427885756E+01  0.51100000000E-03 0.  1.
        -12    1    3    3    0    0 -0.26010713817E+02  0.10151971712E+02  0.34790464444E+02  0.44609373221E+02  0.00000000000E+00 0.  1.
</event>
<event>
 7    1  0.3348003E-013  0.7246151E+02  0.7816164E-02  0.1226708E+00
        -11   -1    0    0    0    0  0.00000000000E+00  0.00000000000E+00  0.45593999997E+02  0.45594000000E+02  0.51100000000E-03 0.  1.
         11   -1    0    0    0    0 -0.00000000000E+00 -0.00000000000E+00 -0.45593999997E+02  0.45594000000E+02  0.51100000000E-03 0. -1.
    9900012    2    1    2    0    0  0.10766770895E+02 -0.24963802758E+01  0.15117079223E+02  0.72461511963E+02  0.69999924012E+02 0.  0.
         12    1    1    2    0    0 -0.10766770895E+02  0.24963802758E+01 -0.15117079223E+02  0.18726488037E+02  0.00000000000E+00 0. -1.
         11    1    3    3    0    0  0.11185561580E+02 -0.17591656051E+01  0.10407428478E+02  0.15379402436E+02  0.51100000000E-03 0. -1.
        -11    1    3    3    0    0  0.18116100062E+02 -0.15899209731E+02  0.17638963563E+02  0.29868227055E+02  0.51100000000E-03 0.  1.
         12    1    3    3    0    0 -0.18534890748E+02  0.15161995061E+02 -0.12929312819E+02  0.27213882472E+02  0.00000000000E+00 0. -1.
</event>
<event>
 7    1  0.3348003E-013  0.7246158E+02  0.7816164E-02  0.1226708E+00
        -11   -1    0    0    0    0  0.00000000000E+00  0.00000000000E+00  0.45593999997E+02  0.45594000000E+02  0.51100000000E-03 0.  1.
         11   -1    0    0    0    0 -0.00000000000E+00 -0.00000000000E+00 -0.45593999997E+02  0.45594000000E+02  0.51100000000E-03 0. -1.
    9900012    2    1    2    0    0  0.74238840187E+01 -0.42855316333E+01  0.16649289398E+02  0.72461583558E+02  0.70000017279E+02 0.  0.
         12    1    1    2    0    0 -0.74238840187E+01  0.42855316333E+01 -0.16649289398E+02  0.18726416442E+02  0.00000000000E+00 0. -1.
         11    1    3    3    0    0  0.30283423382E+02 -0.72882782098E+01  0.14030376686E+02  0.34162204279E+02  0.51100000000E-03 0. -1.
        -11    1    3    3    0    0 -0.78518782696E+01 -0.97018171237E+01  0.11270927151E+02  0.16816986858E+02  0.51100000000E-03 0.  1.
        -12    1    3    3    0    0 -0.15007661093E+02  0.12704563700E+02 -0.86520144398E+01  0.21482392422E+02  0.00000000000E+00 0.  1.
</event>
<event>
 7    1  0.3348003E-013  0.7246154E+02  0.7816164E-02  0.1226708E+00
        -11   -1    0    0    0    0  0.00000000000E+00  0.00000000000E+00  0.45593999997E+02  0.45594000000E+02  0.51100000000E-03 0.  1.
         11   -1    0    0    0    0 -0.00000000000E+00 -0.00000000000E+00 -0.45593999997E+02  0.45594000000E+02  0.51100000000E-03 0. -1.
    9900012    2    1    2    0    0  0.79119386278E+01  0.75541180959E+00  0.16956141776E+02  0.72461543747E+02  0.69999965417E+02 0.  0.
         12    1    1    2    0    0 -0.79119386278E+01 -0.75541180959E+00 -0.16956141776E+02  0.18726456253E+02  0.00000000000E+00 0. -1.
         11    1    3    3    0    0 -0.21198576482E+01  0.12994858297E+01  0.96555261624E+01  0.99705388824E+01  0.51100000000E-03 0. -1.
        -11    1    3    3    0    0  0.97536275101E+01 -0.55004898574E+01  0.33760699057E+02  0.35569276621E+02  0.51100000000E-03 0.  1.
         12    1    3    3    0    0  0.27816876596E+00  0.49564158373E+01 -0.26460083443E+02  0.26921728244E+02  0.00000000000E+00 0. -1.
</event>
<event>
 7    1  0.3348003E-013  0.7246156E+02  0.7816164E-02  0.1226708E+00
        -11   -1    0    0    0    0  0.00000000000E+00  0.00000000000E+00  0.45593999997E+02  0.45594000000E+02  0.51100000000E-03 0.  1.
         11   -1    0    0    0    0 -0.00000000000E+00 -0.00000000000E+00 -0.45593999997E+02  0.45594000000E+02  0.51100000000E-03 0. -1.
    9900012    2    1    2    0    0 -0.12687900072E+02 -0.65412383884E+01  0.12120601665E+02  0.72461558998E+02  0.69999985284E+02 0.  0.
         12    1    1    2    0    0  0.12687900072E+02  0.65412383884E+01 -0.12120601665E+02  0.18726441002E+02  0.00000000000E+00 0. -1.
         11    1    3    3    0    0 -0.12632783483E+02  0.24640995547E+02 -0.65559977512E+01  0.28456053606E+02  0.51100000000E-03 0. -1.
        -11    1    3    3    0    0  0.38806296465E+01  0.22114544745E+01  0.72060381746E+01  0.84780188595E+01  0.51100000000E-03 0.  1.
        -12    1    3    3    0    0 -0.39357462361E+01 -0.33393688410E+02  0.11470561241E+02  0.35527486532E+02  0.00000000000E+00 0.  1.
</event>
<event>
 7    1  0.3348003E-013  0.7246155E+02  0.7816164E-02  0.1226708E+00
        -11   -1    0    0    0    0  0.00000000000E+00  0.00000000000E+00  0.45593999997E+02  0.45594000000E+02  0.51100000000E-03 0. -1.
         11   -1    0    0    0    0 -0.00000000000E+00 -0.00000000000E+00 -0.45593999997E+02  0.45594000000E+02  0.51100000000E-03 0.  1.
    9900012    2    1    2    0    0 -0.17071344432E+02  0.74693781323E+01 -0.18594588184E+01  0.72461548187E+02  0.69999971201E+02 0.  0.
         12    1    1    2    0    0  0.17071344432E+02 -0.74693781323E+01  0.18594588184E+01  0.18726451813E+02  0.00000000000E+00 0. -1.
         11    1    3    3    0    0  0.66299052930E+01  0.14415040911E+02  0.17112397745E+00  0.15867524455E+02  0.51100000000E-03 0. -1.
        -11    1    3    3    0    0 -0.27950986112E+02  0.42782793044E+00  0.19071610911E+02  0.33840316257E+02  0.51100000000E-03 0.  1.
        -12    1    3    3    0    0  0.42497363868E+01 -0.73734907092E+01 -0.21102193707E+02  0.22753707475E+02  0.00000000000E+00 0.  1.
</event>
<event>
 7    1  0.3348003E-013  0.7246147E+02  0.7816164E-02  0.1226708E+00
        -11   -1    0    0    0    0  0.00000000000E+00  0.00000000000E+00  0.45593999997E+02  0.45594000000E+02  0.51100000000E-03 0. -1.
         11   -1    0    0    0    0 -0.00000000000E+00 -0.00000000000E+00 -0.45593999997E+02  0.45594000000E+02  0.51100000000E-03 0.  1.
    9900012    2    1    2    0    0  0.90117915262E+01 -0.15396678162E+02  0.56932244007E+01  0.72461470983E+02  0.69999870629E+02 0.  0.
         12    1    1    2    0    0 -0.90117915262E+01  0.15396678162E+02 -0.56932244007E+01  0.18726529017E+02  0.00000000000E+00 0. -1.
         11    1    3    3    0    0  0.17733231096E+01  0.68619829256E-01  0.16157509677E+02  0.16254676335E+02  0.51100000000E-03 0. -1.
        -11    1    3    3    0    0  0.29456730747E+02 -0.72498816758E+01 -0.11632283909E+02  0.32489533697E+02  0.51100000000E-03 0.  1.
         12    1    3    3    0    0 -0.22218262331E+02 -0.82154163153E+01  0.11679986332E+01  0.23717260952E+02  0.00000000000E+00 0. -1.
</event>
<event>
 7    1  0.3348003E-013  0.7246153E+02  0.7816164E-02  0.1226708E+00
        -11   -1    0    0    0    0  0.00000000000E+00  0.00000000000E+00  0.45593999997E+02  0.45594000000E+02  0.51100000000E-03 0.  1.
         11   -1    0    0    0    0 -0.00000000000E+00 -0.00000000000E+00 -0.45593999997E+02  0.45594000000E+02  0.51100000000E-03 0. -1.
    9900012    2    1    2    0    0 -0.18492198398E+02  0.26135069445E+01  0.13743741220E+01  0.72461528779E+02  0.69999945919E+02 0.  0.
         12    1    1    2    0    0  0.18492198398E+02 -0.26135069445E+01 -0.13743741220E+01  0.18726471221E+02  0.00000000000E+00 0. -1.
         11    1    3    3    0    0 -0.15896698377E+02 -0.10458675449E+01 -0.26642106898E+02  0.31041918730E+02  0.51100000000E-03 0. -1.
        -11    1    3    3    0    0 -0.71624793446E+01 -0.78509913465E+01 -0.17453239719E+00  0.10628717576E+02  0.51100000000E-03 0.  1.
        -12    1    3    3    0    0  0.45669793231E+01  0.11510365836E+02  0.28191013418E+02  0.30790892474E+02  0.00000000000E+00 0.  1.
</event>
<event>
 7    1  0.3348003E-013  0.7246157E+02  0.7816164E-02  0.1226708E+00
        -11   -1    0    0    0    0  0.00000000000E+00  0.00000000000E+00  0.45593999997E+02  0.45594000000E+02  0.51100000000E-03 0.  1.
         11   -1    0    0    0    0 -0.00000000000E+00 -0.00000000000E+00 -0.45593999997E+02  0.45594000000E+02  0.51100000000E-03 0. -1.
    9900012    2    1    2    0    0  0.15623587147E+02  0.95949896077E+01  0.38103512468E+01  0.72461572751E+02  0.70000003200E+02 0.  0.
         12    1    1    2    0    0 -0.15623587147E+02 -0.95949896077E+01 -0.38103512468E+01  0.18726427249E+02  0.00000000000E+00 0. -1.
         11    1    3    3    0    0 -0.82961209416E+01 -0.11456933083E+02  0.78579539582E+00  0.14167018494E+02  0.51100000000E-03 0. -1.
        -11    1    3    3    0    0 -0.53646767621E+01  0.93223302708E+01 -0.17584496611E+02  0.20613105534E+02  0.51100000000E-03 0.  1.
        -12    1    3    3    0    0  0.29284384850E+02  0.11729592420E+02  0.20609052462E+02  0.37681448722E+02  0.00000000000E+00 0.  1.
</event>
<event>
 7    1  0.3348003E-013  0.7246155E+02  0.7816164E-02  0.1226708E+00
        -11   -1    0    0    0    0  0.00000000000E+00  0.00000000000E+00  0.45593999997E+02  0.45594000000E+02  0.51100000000E-03 0. -1.
         11   -1    0    0    0    0 -0.00000000000E+00 -0.00000000000E+00 -0.45593999997E+02  0.45594000000E+02  0.51100000000E-03 0.  1.
    9900012    2    1    2    0    0 -0.15182782941E+02 -0.41621607677E+01 -0.10140976152E+02  0.72461551394E+02  0.69999975378E+02 0.  0.
         12    1    1    2    0    0  0.15182782941E+02  0.41621607677E+01  0.10140976152E+02  0.18726448606E+02  0.00000000000E+00 0. -1.
         11    1    3    3    0    0  0.59427398389E+01 -0.11275562673E+02 -0.14833942889E+02  0.19557615710E+02  0.51100000000E-03 0. -1.
        -11    1    3    3    0    0 -0.18599580938E+01 -0.14919877389E+02 -0.11975845579E+02  0.19221942228E+02  0.51100000000E-03 0.  1.
        -12    1    3    3    0    0 -0.19265564687E+02  0.22033279294E+02  0.16668812316E+02  0.33681993456E+02  0.00000000000E+00 0.  1.
</event>
<event>
 7    1  0.3348003E-013  0.7246160E+02  0.7816164E-02  0.1226708E+00
        -11   -1    0    0    0    0  0.00000000000E+00  0.00000000000E+00  0.45593999997E+02  0.45594000000E+02  0.51100000000E-03 0. -1.
         11   -1    0    0    0    0 -0.00000000000E+00 -0.00000000000E+00 -0.45593999997E+02  0.45594000000E+02  0.51100000000E-03 0.  1.
    9900012    2    1    2    0    0 -0.87045892955E+01 -0.34292339572E+01 -0.16221854821E+02  0.72461599006E+02  0.70000037402E+02 0.  0.
         12    1    1    2    0    0  0.87045892955E+01  0.34292339572E+01  0.16221854821E+02  0.18726400994E+02  0.00000000000E+00 0. -1.
         11    1    3    3    0    0 -0.13857608228E+02  0.93202432201E+01  0.45014589323E+01  0.17296339851E+02  0.51100000000E-03 0. -1.
        -11    1    3    3    0    0  0.23869789752E+00  0.18916179053E+02 -0.98329713097E+01  0.21320556552E+02  0.51100000000E-03 0.  1.
        -12    1    3    3    0    0  0.49143210347E+01 -0.31665656230E+02 -0.10890342444E+02  0.33844702603E+02  0.00000000000E+00 0.  1.
</event>
<event>
 7    1  0.3348003E-013  0.7246162E+02  0.7816164E-02  0.1226708E+00
        -11   -1    0    0    0    0  0.00000000000E+00  0.00000000000E+00  0.45593999997E+02  0.45594000000E+02  0.51100000000E-03 0.  1.
         11   -1    0    0    0    0 -0.00000000000E+00 -0.00000000000E+00 -0.45593999997E+02  0.45594000000E+02  0.51100000000E-03 0. -1.
    9900012    2    1    2    0    0  0.40373478446E+00 -0.15864665670E+02  0.99411672816E+01  0.72461616860E+02  0.70000060660E+02 0.  0.
         12    1    1    2    0    0 -0.40373478446E+00  0.15864665670E+02 -0.99411672816E+01  0.18726383140E+02  0.00000000000E+00 0. -1.
         11    1    3    3    0    0  0.31007652659E+00  0.12259876687E+02  0.20672366702E+01  0.12436807932E+02  0.51100000000E-03 0. -1.
        -11    1    3    3    0    0  0.25803100314E+01 -0.20290726081E+01  0.27237672017E+02  0.27434757383E+02  0.51100000000E-03 0.  1.
        -12    1    3    3    0    0 -0.24866517735E+01 -0.26095469749E+02 -0.19363741406E+02  0.32590051544E+02  0.00000000000E+00 0.  1.
</event>
<event>
 7    1  0.3348003E-013  0.7246151E+02  0.7816164E-02  0.1226708E+00
        -11   -1    0    0    0    0  0.00000000000E+00  0.00000000000E+00  0.45593999997E+02  0.45594000000E+02  0.51100000000E-03 0. -1.
         11   -1    0    0    0    0 -0.00000000000E+00 -0.00000000000E+00 -0.45593999997E+02  0.45594000000E+02  0.51100000000E-03 0.  1.
    9900012    2    1    2    0    0 -0.85699810609E+01 -0.57537026859E+00 -0.16640492347E+02  0.72461505083E+02  0.69999915050E+02 0.  0.
         12    1    1    2    0    0  0.85699810609E+01  0.57537026859E+00  0.16640492347E+02  0.18726494917E+02  0.00000000000E+00 0. -1.
         11    1    3    3    0    0 -0.11197716481E+02 -0.11727012608E+02 -0.68266171393E+01  0.17593020801E+02  0.51100000000E-03 0. -1.
        -11    1    3    3    0    0  0.11264054175E+01  0.85557381867E+01 -0.31661272383E+02  0.32816240099E+02  0.51100000000E-03 0.  1.
         12    1    3    3    0    0  0.15013300025E+01  0.25959041524E+01  0.21847397175E+02  0.22052244182E+02  0.00000000000E+00 0. -1.
</event>
<event>
 7    1  0.3348003E-013  0.7246157E+02  0.7816164E-02  0.1226708E+00
        -11   -1    0    0    0    0  0.00000000000E+00  0.00000000000E+00  0.45593999997E+02  0.45594000000E+02  0.51100000000E-03 0.  1.
         11   -1    0    0    0    0 -0.00000000000E+00 -0.00000000000E+00 -0.45593999997E+02  0.45594000000E+02  0.51100000000E-03 0. -1.
    9900012    2    1    2    0    0  0.38698454644E+01 -0.58780061534E+01  0.17353750708E+02  0.72461566173E+02  0.69999994631E+02 0.  0.
         12    1    1    2    0    0 -0.38698454644E+01  0.58780061534E+01 -0.17353750708E+02  0.18726433827E+02  0.00000000000E+00 0. -1.
         11    1    3    3    0    0 -0.23834042887E+01 -0.63229047815E+01 -0.64968196356E+01  0.93738149394E+01  0.51100000000E-03 0. -1.
        -11    1    3    3    0    0 -0.12043384675E+02 -0.96738392947E+01 -0.13348199416E+02  0.20415697613E+02  0.51100000000E-03 0.  1.
        -12    1    3    3    0    0  0.18296634428E+02  0.10118737923E+02  0.37198769759E+02  0.42672053620E+02  0.00000000000E+00 0.  1.
</event>
<event>
 7    1  0.3348003E-013  0.7246173E+02  0.7816164E-02  0.1226708E+00
        -11   -1    0    0    0    0  0.00000000000E+00  0.00000000000E+00  0.45593999997E+02  0.45594000000E+02  0.51100000000E-03 0.  1.
         11   -1    0    0    0    0 -0.00000000000E+00 -0.00000000000E+00 -0.45593999997E+02  0.45594000000E+02  0.51100000000E-03 0. -1.
    9900012    2    1    2    0    0  0.14792004961E+02  0.53645133566E+01  0.10153404856E+02  0.72461733835E+02  0.70000213042E+02 0.  0.
         12    1    1    2    0    0 -0.14792004961E+02 -0.53645133566E+01 -0.10153404856E+02  0.18726266165E+02  0.00000000000E+00 0. -1.
         11    1    3    3    0    0 -0.46804272414E+01 -0.21061342920E+01  0.90460566206E+01  0.10400641397E+02  0.51100000000E-03 0. -1.
        -11    1    3    3    0    0 -0.13795489784E+02 -0.35154796493E+01  0.18177446388E+02  0.23088821819E+02  0.51100000000E-03 0.  1.
         12    1    3    3    0    0  0.33267921986E+02  0.10986127298E+02 -0.17070098153E+02  0.38972270619E+02  0.00000000000E+00 0. -1.
</event>
<event>
 7    1  0.3348003E-013  0.7246160E+02  0.7816164E-02  0.1226708E+00
        -11   -1    0    0    0    0  0.00000000000E+00  0.00000000000E+00  0.45593999997E+02  0.45594000000E+02  0.51100000000E-03 0.  1.
         11   -1    0    0    0    0 -0.00000000000E+00 -0.00000000000E+00 -0.45593999997E+02  0.45594000000E+02  0.51100000000E-03 0. -1.
    9900012    2    1    2    0    0 -0.10827743077E+02 -0.43237696532E+01  0.14654112423E+02  0.72461601119E+02  0.70000040154E+02 0.  0.
         12    1    1    2    0    0  0.10827743077E+02  0.43237696532E+01 -0.14654112423E+02  0.18726398881E+02  0.00000000000E+00 0. -1.
         11    1    3    3    0    0 -0.11153915722E+02  0.20347294802E+02  0.17991622371E+02  0.29361892267E+02  0.51100000000E-03 0. -1.
        -11    1    3    3    0    0  0.98401328338E+01  0.50092789077E+00  0.91384413136E+01  0.13438387286E+02  0.51100000000E-03 0.  1.
         12    1    3    3    0    0 -0.95139601890E+01 -0.25171992346E+02 -0.12475951261E+02  0.29661321566E+02  0.00000000000E+00 0. -1.
</event>
<event>
 7    1  0.3348003E-013  0.7246158E+02  0.7816164E-02  0.1226708E+00
        -11   -1    0    0    0    0  0.00000000000E+00  0.00000000000E+00  0.45593999997E+02  0.45594000000E+02  0.51100000000E-03 0.  1.
         11   -1    0    0    0    0 -0.00000000000E+00 -0.00000000000E+00 -0.45593999997E+02  0.45594000000E+02  0.51100000000E-03 0. -1.
    9900012    2    1    2    0    0  0.14884774809E+02  0.63560269341E+01  0.94192990964E+01  0.72461580295E+02  0.70000013028E+02 0.  0.
         12    1    1    2    0    0 -0.14884774809E+02 -0.63560269341E+01 -0.94192990964E+01  0.18726419705E+02  0.00000000000E+00 0. -1.
         11    1    3    3    0    0 -0.18165030710E+01  0.74755524721E+01 -0.25107277578E+02  0.26259454598E+02  0.51100000000E-03 0. -1.
        -11    1    3    3    0    0 -0.14560549280E+01  0.28196144348E+01 -0.29753142301E+01  0.43500363841E+01  0.51100000000E-03 0.  1.
         12    1    3    3    0    0  0.18157332808E+02 -0.39391399728E+01  0.37501890904E+02  0.41852089313E+02  0.00000000000E+00 0. -1.
</event>
<event>
 7    1  0.3348003E-013  0.7246153E+02  0.7816164E-02  0.1226708E+00
        -11   -1    0    0    0    0  0.00000000000E+00  0.00000000000E+00  0.45593999997E+02  0.45594000000E+02  0.51100000000E-03 0.  1.
         11   -1    0    0    0    0 -0.00000000000E+00 -0.00000000000E+00 -0.45593999997E+02  0.45594000000E+02  0.51100000000E-03 0. -1.
    9900012    2    1    2    0    0  0.45965234744E+01  0.14320972099E+02  0.11156271982E+02  0.72461530113E+02  0.69999947656E+02 0.  0.
         12    1    1    2    0    0 -0.45965234744E+01 -0.14320972099E+02 -0.11156271982E+02  0.18726469887E+02  0.00000000000E+00 0. -1.
         11    1    3    3    0    0  0.13561380571E+01  0.18610129992E+02 -0.58778048168E-01  0.18659568695E+02  0.51100000000E-03 0. -1.
        -11    1    3    3    0    0 -0.33257125317E+01  0.23053742929E+02  0.10810454638E+02  0.25678811433E+02  0.51100000000E-03 0.  1.
         12    1    3    3    0    0  0.65660979490E+01 -0.27342900822E+02  0.40459539219E+00  0.28123149985E+02  0.00000000000E+00 0. -1.
</event>
<event>
 7    1  0.3348003E-013  0.7246104E+02  0.7816164E-02  0.1226709E+00
        -11   -1    0    0    0    0  0.00000000000E+00  0.00000000000E+00  0.45593999997E+02  0.45594000000E+02  0.51100000000E-03 0.  1.
         11   -1    0    0    0    0 -0.00000000000E+00 -0.00000000000E+00 -0.45593999997E+02  0.45594000000E+02  0.51100000000E-03 0. -1.
    9900012    2    1    2    0    0  0.14616177343E+02  0.11622169033E+02 -0.14111726372E+01  0.72461044525E+02  0.69999315084E+02 0.  0.
         12    1    1    2    0    0 -0.14616177343E+02 -0.11622169033E+02  0.14111726372E+01  0.18726955475E+02  0.00000000000E+00 0. -1.
         11    1    3    3    0    0  0.16008957160E+01  0.18023435224E+01  0.58203677996E+01  0.62998405416E+01  0.51100000000E-03 0. -1.
        -11    1    3    3    0    0  0.17095359766E+02 -0.40025634283E+01  0.25175919956E+02  0.30693627766E+02  0.51100000000E-03 0.  1.
         12    1    3    3    0    0 -0.40800781392E+01  0.13822388939E+02 -0.32407460393E+02  0.35467576217E+02  0.00000000000E+00 0. -1.
</event>
<event>
 7    1  0.3348003E-013  0.7246156E+02  0.7816164E-02  0.1226708E+00
        -11   -1    0    0    0    0  0.00000000000E+00  0.00000000000E+00  0.45593999997E+02  0.45594000000E+02  0.51100000000E-03 0.  1.
         11   -1    0    0    0    0 -0.00000000000E+00 -0.00000000000E+00 -0.45593999997E+02  0.45594000000E+02  0.51100000000E-03 0. -1.
    9900012    2    1    2    0    0 -0.17850243057E+02  0.15469952766E+01 -0.54456543949E+01  0.72461560847E+02  0.69999987693E+02 0.  0.
         12    1    1    2    0    0  0.17850243057E+02 -0.15469952766E+01  0.54456543949E+01  0.18726439153E+02  0.00000000000E+00 0. -1.
         11    1    3    3    0    0  0.28622986359E+01  0.52979816579E+01 -0.27093466292E+02  0.27754590235E+02  0.51100000000E-03 0. -1.
        -11    1    3    3    0    0  0.77516406065E+01 -0.63079250798E+01  0.90205550479E+01  0.13462847564E+02  0.51100000000E-03 0.  1.
        -12    1    3    3    0    0 -0.28464182299E+02  0.25569386985E+01  0.12627256849E+02  0.31244123048E+02  0.00000000000E+00 0.  1.
</event>
<event>
 7    1  0.3348003E-013  0.7246159E+02  0.7816164E-02  0.1226708E+00
        -11   -1    0    0    0    0  0.00000000000E+00  0.00000000000E+00  0.45593999997E+02  0.45594000000E+02  0.51100000000E-03 0.  1.
         11   -1    0    0    0    0 -0.00000000000E+00 -0.00000000000E+00 -0.45593999997E+02  0.45594000000E+02  0.51100000000E-03 0. -1.
    9900012    2    1    2    0    0 -0.11592110776E+02  0.65869210817E+01  0.13149670120E+02  0.72461591218E+02  0.70000027257E+02 0.  0.
         12    1    1    2    0    0  0.11592110776E+02 -0.65869210817E+01 -0.13149670120E+02  0.18726408782E+02  0.00000000000E+00 0. -1.
         11    1    3    3    0    0  0.22177170550E-01  0.12718069365E+02  0.13902423008E+02  0.18842164047E+02  0.51100000000E-03 0. -1.
        -11    1    3    3    0    0 -0.24217071342E+02  0.12147642812E+01  0.17755731590E+02  0.30053422454E+02  0.51100000000E-03 0.  1.
         12    1    3    3    0    0  0.12602783395E+02 -0.73459125644E+01 -0.18508484478E+02  0.23566004718E+02  0.00000000000E+00 0. -1.
</event>
<event>
 7    1  0.3348003E-013  0.7246157E+02  0.7816164E-02  0.1226708E+00
        -11   -1    0    0    0    0  0.00000000000E+00  0.00000000000E+00  0.45593999997E+02  0.45594000000E+02  0.51100000000E-03 0.  1.
         11   -1    0    0    0    0 -0.00000000000E+00 -0.00000000000E+00 -0.45593999997E+02  0.45594000000E+02  0.51100000000E-03 0. -1.
    9900012    2    1    2    0    0 -0.14024441913E+02 -0.10414987753E+02  0.67470221638E+01  0.72461568174E+02  0.69999997238E+02 0.  0.
         12    1    1    2    0    0  0.14024441913E+02  0.10414987753E+02 -0.67470221638E+01  0.18726431826E+02  0.00000000000E+00 0. -1.
         11    1    3    3    0    0 -0.28073173163E+02  0.12713599851E+02  0.87506659317E+01  0.32036117541E+02  0.51100000000E-03 0.  1.
        -11    1    3    3    0    0  0.55500004198E+01 -0.25046150681E+01  0.12440602970E+02  0.13850783509E+02  0.51100000000E-03 0. -1.
        -12    1    3    3    0    0  0.84987308300E+01 -0.20623972536E+02 -0.14444246738E+02  0.26574667123E+02  0.00000000000E+00 0.  1.
</event>
<event>
 7    1  0.3348003E-013  0.7246161E+02  0.7816164E-02  0.1226708E+00
        -11   -1    0    0    0    0  0.00000000000E+00  0.00000000000E+00  0.45593999997E+02  0.45594000000E+02  0.51100000000E-03 0. -1.
         11   -1    0    0    0    0 -0.00000000000E+00 -0.00000000000E+00 -0.45593999997E+02  0.45594000000E+02  0.51100000000E-03 0.  1.
    9900012    2    1    2    0    0  0.73168810079E+01 -0.17208204678E+02 -0.10092713085E+01  0.72461609945E+02  0.70000051653E+02 0.  0.
         12    1    1    2    0    0 -0.73168810079E+01  0.17208204678E+02  0.10092713085E+01  0.18726390055E+02  0.00000000000E+00 0. -1.
         11    1    3    3    0    0 -0.10862481552E+02  0.33897730155E+01 -0.21091234784E+02  0.23965063145E+02  0.51100000000E-03 0. -1.
        -11    1    3    3    0    0  0.94569693274E+01  0.61345144310E+01 -0.34939521952E+01  0.11801450689E+02  0.51100000000E-03 0.  1.
         12    1    3    3    0    0  0.87223932323E+01 -0.26732492124E+02  0.23575915671E+02  0.36695096111E+02  0.00000000000E+00 0. -1.
</event>
<event>
 7    1  0.3348003E-013  0.7246155E+02  0.7816164E-02  0.1226708E+00
        -11   -1    0    0    0    0  0.00000000000E+00  0.00000000000E+00  0.45593999997E+02  0.45594000000E+02  0.51100000000E-03 0. -1.
         11   -1    0    0    0    0 -0.00000000000E+00 -0.00000000000E+00 -0.45593999997E+02  0.45594000000E+02  0.51100000000E-03 0.  1.
    9900012    2    1    2    0    0 -0.26064198719E+01  0.17876055624E+02 -0.49328659907E+01  0.72461549292E+02  0.69999972641E+02 0.  0.
         12    1    1    2    0    0  0.26064198719E+01 -0.17876055624E+02  0.49328659907E+01  0.18726450708E+02  0.00000000000E+00 0. -1.
         11    1    3    3    0    0 -0.95109407463E+01 -0.76462862243E+00 -0.17491604071E+02  0.19924830339E+02  0.51100000000E-03 0. -1.
        -11    1    3    3    0    0  0.25318384467E+02  0.10207621970E+02 -0.23328973534E+01  0.27398148635E+02  0.51100000000E-03 0.  1.
         12    1    3    3    0    0 -0.18413863592E+02  0.84330622768E+01  0.14891635434E+02  0.25138570318E+02  0.00000000000E+00 0. -1.
</event>
<event>
 7    1  0.3348003E-013  0.7246176E+02  0.7816164E-02  0.1226708E+00
        -11   -1    0    0    0    0  0.00000000000E+00  0.00000000000E+00  0.45593999997E+02  0.45594000000E+02  0.51100000000E-03 0.  1.
         11   -1    0    0    0    0 -0.00000000000E+00 -0.00000000000E+00 -0.45593999997E+02  0.45594000000E+02  0.51100000000E-03 0. -1.
    9900012    2    1    2    0    0 -0.11092423603E+02  0.51839389949E+01  0.14168879204E+02  0.72461755774E+02  0.70000241622E+02 0.  0.
         12    1    1    2    0    0  0.11092423603E+02 -0.51839389949E+01 -0.14168879204E+02  0.18726244226E+02  0.00000000000E+00 0. -1.
         11    1    3    3    0    0 -0.17754285556E+02  0.12470607523E+02  0.23546138964E+02  0.32017985071E+02  0.51100000000E-03 0. -1.
        -11    1    3    3    0    0 -0.83718651981E+00 -0.12202645936E+02  0.12078319074E+02  0.17189858668E+02  0.51100000000E-03 0.  1.
         12    1    3    3    0    0  0.74990484729E+01  0.49159774075E+01 -0.21455578834E+02  0.23253912036E+02  0.00000000000E+00 0. -1.
</event>
<event>
 7    1  0.3348003E-013  0.7246173E+02  0.7816164E-02  0.1226708E+00
        -11   -1    0    0    0    0  0.00000000000E+00  0.00000000000E+00  0.45593999997E+02  0.45594000000E+02  0.51100000000E-03 0.  1.
         11   -1    0    0    0    0 -0.00000000000E+00 -0.00000000000E+00 -0.45593999997E+02  0.45594000000E+02  0.51100000000E-03 0. -1.
    9900012    2    1    2    0    0 -0.14741815842E+02 -0.10312162271E+02  0.51972348986E+01  0.72461733003E+02  0.70000211958E+02 0.  0.
         12    1    1    2    0    0  0.14741815842E+02  0.10312162271E+02 -0.51972348986E+01  0.18726266997E+02  0.00000000000E+00 0. -1.
         11    1    3    3    0    0 -0.48508620413E+01  0.29811703481E+01 -0.12966987119E+01  0.58394920155E+01  0.51100000000E-03 0. -1.
        -11    1    3    3    0    0 -0.21102643764E+02  0.21260822668E+02  0.37837974502E+01  0.30193729113E+02  0.51100000000E-03 0.  1.
         12    1    3    3    0    0  0.11211689963E+02 -0.34554155287E+02  0.27101361602E+01  0.36428511875E+02  0.00000000000E+00 0. -1.
</event>
<event>
 7    1  0.3348003E-013  0.7246151E+02  0.7816164E-02  0.1226708E+00
        -11   -1    0    0    0    0  0.00000000000E+00  0.00000000000E+00  0.45593999997E+02  0.45594000000E+02  0.51100000000E-03 0.  1.
         11   -1    0    0    0    0 -0.00000000000E+00 -0.00000000000E+00 -0.45593999997E+02  0.45594000000E+02  0.51100000000E-03 0. -1.
    9900012    2    1    2    0    0  0.17335898899E+02 -0.70729088994E+01  0.34904629310E+00  0.72461514364E+02  0.69999927141E+02 0.  0.
         12    1    1    2    0    0 -0.17335898899E+02  0.70729088994E+01 -0.34904629310E+00  0.18726485636E+02  0.00000000000E+00 0. -1.
         11    1    3    3    0    0 -0.79216388185E+00 -0.52585710181E+01 -0.29348125712E+02  0.29826038554E+02  0.51100000000E-03 0. -1.
        -11    1    3    3    0    0 -0.40687991546E+01 -0.50339357359E+01  0.13493197612E+02  0.14965360591E+02  0.51100000000E-03 0.  1.
        -12    1    3    3    0    0  0.22196861936E+02  0.32195978545E+01  0.16203974393E+02  0.27670115220E+02  0.00000000000E+00 0.  1.
</event>
<event>
 7    1  0.3348003E-013  0.7246157E+02  0.7816164E-02  0.1226708E+00
        -11   -1    0    0    0    0  0.00000000000E+00  0.00000000000E+00  0.45593999997E+02  0.45594000000E+02  0.51100000000E-03 0. -1.
         11   -1    0    0    0    0 -0.00000000000E+00 -0.00000000000E+00 -0.45593999997E+02  0.45594000000E+02  0.51100000000E-03 0.  1.
    9900012    2    1    2    0    0 -0.12675082656E+02 -0.88410376151E+01 -0.10576270830E+02  0.72461570251E+02  0.69999999944E+02 0.  0.
         12    1    1    2    0    0  0.12675082656E+02  0.88410376151E+01  0.10576270830E+02  0.18726429749E+02  0.00000000000E+00 0. -1.
         11    1    3    3    0    0 -0.15943245709E+01 -0.23782054965E+02 -0.14157278214E+02  0.27722852232E+02  0.51100000000E-03 0. -1.
        -11    1    3    3    0    0 -0.14867711613E+02  0.86468790790E+01 -0.16206411764E+02  0.23631867234E+02  0.51100000000E-03 0.  1.
         12    1    3    3    0    0  0.37869535278E+01  0.62941382707E+01  0.19787419147E+02  0.21106850786E+02  0.00000000000E+00 0. -1.
</event>
<event>
 7    1  0.3348003E-013  0.7246151E+02  0.7816164E-02  0.1226708E+00
        -11   -1    0    0    0    0  0.00000000000E+00  0.00000000000E+00  0.45593999997E+02  0.45594000000E+02  0.51100000000E-03 0. -1.
         11   -1    0    0    0    0 -0.00000000000E+00 -0.00000000000E+00 -0.45593999997E+02  0.45594000000E+02  0.51100000000E-03 0.  1.
    9900012    2    1    2    0    0  0.14864524874E+02 -0.66912199037E+01 -0.92170981016E+01  0.72461510181E+02  0.69999921691E+02 0.  0.
         12    1    1    2    0    0 -0.14864524874E+02  0.66912199037E+01  0.92170981016E+01  0.18726489819E+02  0.00000000000E+00 0. -1.
         11    1    3    3    0    0 -0.14615458197E+01  0.69662451368E+01 -0.33319345588E+01  0.78591650736E+01  0.51100000000E-03 0. -1.
        -11    1    3    3    0    0  0.36424795457E+01  0.17178502234E+02 -0.21520421764E+02  0.27775837510E+02  0.51100000000E-03 0.  1.
         12    1    3    3    0    0  0.12683591148E+02 -0.30835967275E+02  0.15635258221E+02  0.36826507597E+02  0.00000000000E+00 0. -1.
</event>
<event>
 7    1  0.3348003E-013  0.7246159E+02  0.7816164E-02  0.1226708E+00
        -11   -1    0    0    0    0  0.00000000000E+00  0.00000000000E+00  0.45593999997E+02  0.45594000000E+02  0.51100000000E-03 0.  1.
         11   -1    0    0    0    0 -0.00000000000E+00 -0.00000000000E+00 -0.45593999997E+02  0.45594000000E+02  0.51100000000E-03 0. -1.
    9900012    2    1    2    0    0  0.12192280292E+01 -0.16535967025E+02  0.87036636312E+01  0.72461588624E+02  0.70000023877E+02 0.  0.
         12    1    1    2    0    0 -0.12192280292E+01  0.16535967025E+02 -0.87036636312E+01  0.18726411376E+02  0.00000000000E+00 0. -1.
         11    1    3    3    0    0 -0.41742382383E+01  0.39196960372E+01  0.44547268856E+01  0.72548517408E+01  0.51100000000E-03 0. -1.
        -11    1    3    3    0    0 -0.27139085389E+01 -0.19603180481E+02  0.31256951874E+02  0.36995229763E+02  0.51100000000E-03 0.  1.
         12    1    3    3    0    0  0.81073748064E+01 -0.85248258115E+00 -0.27008015128E+02  0.28211507120E+02  0.00000000000E+00 0. -1.
</event>
<event>
 7    1  0.3348003E-013  0.7246157E+02  0.7816164E-02  0.1226708E+00
        -11   -1    0    0    0    0  0.00000000000E+00  0.00000000000E+00  0.45593999997E+02  0.45594000000E+02  0.51100000000E-03 0.  1.
         11   -1    0    0    0    0 -0.00000000000E+00 -0.00000000000E+00 -0.45593999997E+02  0.45594000000E+02  0.51100000000E-03 0. -1.
    9900012    2    1    2    0    0  0.29692409907E+01 -0.11876720310E+02  0.14170618713E+02  0.72461566488E+02  0.69999995042E+02 0.  0.
         12    1    1    2    0    0 -0.29692409907E+01  0.11876720310E+02 -0.14170618713E+02  0.18726433512E+02  0.00000000000E+00 0. -1.
         11    1    3    3    0    0  0.77721715797E+01  0.11294260904E+02 -0.70864062861E+01  0.15433215308E+02  0.51100000000E-03 0. -1.
        -11    1    3    3    0    0  0.14709006451E+02 -0.12198698365E+02 -0.75495470118E+01  0.20546502693E+02  0.51100000000E-03 0.  1.
        -12    1    3    3    0    0 -0.19511937040E+02 -0.10972282849E+02  0.28806572011E+02  0.36481848486E+02  0.00000000000E+00 0.  1.
</event>
<event>
 7    1  0.3348003E-013  0.7246151E+02  0.7816164E-02  0.1226708E+00
        -11   -1    0    0    0    0  0.00000000000E+00  0.00000000000E+00  0.45593999997E+02  0.45594000000E+02  0.51100000000E-03 0.  1.
         11   -1    0    0    0    0 -0.00000000000E+00 -0.00000000000E+00 -0.45593999997E+02  0.45594000000E+02  0.51100000000E-03 0. -1.
    9900012    2    1    2    0    0  0.13643361389E+02 -0.11018227316E+02  0.65680008156E+01  0.72461514001E+02  0.69999926667E+02 0.  0.
         12    1    1    2    0    0 -0.13643361389E+02  0.11018227316E+02 -0.65680008156E+01  0.18726485999E+02  0.00000000000E+00 0. -1.
         11    1    3    3    0    0 -0.34182735296E+01 -0.16927496572E+00 -0.25917218412E+02  0.26142216020E+02  0.51100000000E-03 0. -1.
        -11    1    3    3    0    0  0.11809986042E+02 -0.11807645336E+02  0.37809758154E+01  0.17122851312E+02  0.51100000000E-03 0.  1.
        -12    1    3    3    0    0  0.52516488767E+01  0.95869298610E+00  0.28704243413E+02  0.29196446668E+02  0.00000000000E+00 0.  1.
</event>
<event>
 7    1  0.3348003E-013  0.7246167E+02  0.7816164E-02  0.1226708E+00
        -11   -1    0    0    0    0  0.00000000000E+00  0.00000000000E+00  0.45593999997E+02  0.45594000000E+02  0.51100000000E-03 0.  1.
         11   -1    0    0    0    0 -0.00000000000E+00 -0.00000000000E+00 -0.45593999997E+02  0.45594000000E+02  0.51100000000E-03 0. -1.
    9900012    2    1    2    0    0 -0.60469119244E+01 -0.17505361190E+02 -0.27699761023E+01  0.72461666087E+02  0.70000124788E+02 0.  0.
         12    1    1    2    0    0  0.60469119244E+01  0.17505361190E+02  0.27699761023E+01  0.18726333913E+02  0.00000000000E+00 0. -1.
         11    1    3    3    0    0  0.50703271234E+01  0.11206870897E+02 -0.22076543182E+02  0.25272038532E+02  0.51100000000E-03 0. -1.
        -11    1    3    3    0    0 -0.15301855795E+02 -0.66235405965E+01 -0.12579670652E+01  0.16721260784E+02  0.51100000000E-03 0.  1.
        -12    1    3    3    0    0  0.41846167474E+01 -0.22088691490E+02  0.20564534145E+02  0.30468366771E+02  0.00000000000E+00 0.  1.
</event>
<event>
 7    1  0.3348003E-013  0.7246158E+02  0.7816164E-02  0.1226708E+00
        -11   -1    0    0    0    0  0.00000000000E+00  0.00000000000E+00  0.45593999997E+02  0.45594000000E+02  0.51100000000E-03 0. -1.
         11   -1    0    0    0    0 -0.00000000000E+00 -0.00000000000E+00 -0.45593999997E+02  0.45594000000E+02  0.51100000000E-03 0.  1.
    9900012    2    1    2    0    0 -0.17317496647E+02  0.55519679902E+01 -0.44675158785E+01  0.72461581848E+02  0.70000015050E+02 0.  0.
         12    1    1    2    0    0  0.17317496647E+02 -0.55519679902E+01  0.44675158785E+01  0.18726418152E+02  0.00000000000E+00 0. -1.
         11    1    3    3    0    0  0.11900552986E+02  0.49556397430E+01  0.12459899315E+02  0.17928486211E+02  0.51100000000E-03 0. -1.
        -11    1    3    3    0    0  0.92751289733E+01 -0.21222489941E+01  0.43552172169E+01  0.10464218821E+02  0.51100000000E-03 0.  1.
         12    1    3    3    0    0 -0.38493178606E+02  0.27185772413E+01 -0.21282632411E+02  0.44068876815E+02  0.00000000000E+00 0. -1.
</event>
<event>
 7    1  0.3348003E-013  0.7246149E+02  0.7816164E-02  0.1226708E+00
        -11   -1    0    0    0    0  0.00000000000E+00  0.00000000000E+00  0.45593999997E+02  0.45594000000E+02  0.51100000000E-03 0. -1.
         11   -1    0    0    0    0 -0.00000000000E+00 -0.00000000000E+00 -0.45593999997E+02  0.45594000000E+02  0.51100000000E-03 0.  1.
    9900012    2    1    2    0    0 -0.12722948121E+02  0.95262393968E+01 -0.99024995765E+01  0.72461490881E+02  0.69999896549E+02 0.  0.
         12    1    1    2    0    0  0.12722948121E+02 -0.95262393968E+01  0.99024995765E+01  0.18726509119E+02  0.00000000000E+00 0. -1.
         11    1    3    3    0    0  0.76813954375E+01 -0.54214341750E+01  0.68048216613E+01  0.11606092473E+02  0.51100000000E-03 0. -1.
        -11    1    3    3    0    0  0.33881904039E+01  0.45173045178E+01 -0.30791329940E+02  0.31304821898E+02  0.51100000000E-03 0.  1.
         12    1    3    3    0    0 -0.23792533962E+02  0.10430369054E+02  0.14084008703E+02  0.29550576510E+02  0.00000000000E+00 0. -1.
</event>
<event>
 7    1  0.3348003E-013  0.7246150E+02  0.7816164E-02  0.1226708E+00
        -11   -1    0    0    0    0  0.00000000000E+00  0.00000000000E+00  0.45593999997E+02  0.45594000000E+02  0.51100000000E-03 0.  1.
         11   -1    0    0    0    0 -0.00000000000E+00 -0.00000000000E+00 -0.45593999997E+02  0.45594000000E+02  0.51100000000E-03 0. -1.
    9900012    2    1    2    0    0 -0.87890456460E+01 -0.16238444836E+02 -0.31220829911E+01  0.72461499626E+02  0.69999907941E+02 0.  0.
         12    1    1    2    0    0  0.87890456460E+01  0.16238444836E+02  0.31220829911E+01  0.18726500374E+02  0.00000000000E+00 0. -1.
         11    1    3    3    0    0 -0.15289489605E+02 -0.18577614644E+02  0.71275313316E+01  0.25093783322E+02  0.51100000000E-03 0. -1.
        -11    1    3    3    0    0 -0.47628023471E+00 -0.79392980862E+01  0.16254870326E+02  0.18096411427E+02  0.51100000000E-03 0.  1.
         12    1    3    3    0    0  0.69767241938E+01  0.10278467895E+02 -0.26504484648E+02  0.29271304877E+02  0.00000000000E+00 0. -1.
</event>
<event>
 7    1  0.3348003E-013  0.7246154E+02  0.7816164E-02  0.1226708E+00
        -11   -1    0    0    0    0  0.00000000000E+00  0.00000000000E+00  0.45593999997E+02  0.45594000000E+02  0.51100000000E-03 0. -1.
         11   -1    0    0    0    0 -0.00000000000E+00 -0.00000000000E+00 -0.45593999997E+02  0.45594000000E+02  0.51100000000E-03 0.  1.
    9900012    2    1    2    0    0  0.11940479261E+02 -0.57592616111E+01 -0.13226337107E+02  0.72461544581E+02  0.69999966503E+02 0.  0.
         12    1    1    2    0    0 -0.11940479261E+02  0.57592616111E+01  0.13226337107E+02  0.18726455419E+02  0.00000000000E+00 0. -1.
         11    1    3    3    0    0 -0.16254700658E+02 -0.14478824389E+02 -0.11780493925E+02  0.24751397669E+02  0.51100000000E-03 0. -1.
        -11    1    3    3    0    0 -0.85765913271E+01  0.61763303328E+01 -0.24002367528E+01  0.10838178440E+02  0.51100000000E-03 0.  1.
         12    1    3    3    0    0  0.36771771246E+02  0.25432324453E+01  0.95439357071E+00  0.36871968471E+02  0.00000000000E+00 0. -1.
</event>
<event>
 7    1  0.3348003E-013  0.7246156E+02  0.7816164E-02  0.1226708E+00
        -11   -1    0    0    0    0  0.00000000000E+00  0.00000000000E+00  0.45593999997E+02  0.45594000000E+02  0.51100000000E-03 0.  1.
         11   -1    0    0    0    0 -0.00000000000E+00 -0.00000000000E+00 -0.45593999997E+02  0.45594000000E+02  0.51100000000E-03 0. -1.
    9900012    2    1    2    0    0 -0.13074983667E+02  0.38375045943E+01  0.12845144223E+02  0.72461564954E+02  0.69999993044E+02 0.  0.
         12    1    1    2    0    0  0.13074983667E+02 -0.38375045943E+01 -0.12845144223E+02  0.18726435046E+02  0.00000000000E+00 0. -1.
         11    1    3    3    0    0 -0.14644575928E+02  0.73208309161E+01 -0.58774795627E+01  0.17395486072E+02  0.51100000000E-03 0. -1.
        -11    1    3    3    0    0 -0.20671932119E+01 -0.17150201436E+02 -0.12142604813E+02  0.21115055032E+02  0.51100000000E-03 0.  1.
        -12    1    3    3    0    0  0.36367854731E+01  0.13666875114E+02  0.30865228600E+02  0.33951023850E+02  0.00000000000E+00 0.  1.
</event>
<event>
 7    1  0.3348003E-013  0.7246156E+02  0.7816164E-02  0.1226708E+00
        -11   -1    0    0    0    0  0.00000000000E+00  0.00000000000E+00  0.45593999997E+02  0.45594000000E+02  0.51100000000E-03 0. -1.
         11   -1    0    0    0    0 -0.00000000000E+00 -0.00000000000E+00 -0.45593999997E+02  0.45594000000E+02  0.51100000000E-03 0.  1.
    9900012    2    1    2    0    0 -0.16827602151E+02 -0.81991701029E+01 -0.53371423285E+00  0.72461563195E+02  0.69999990752E+02 0.  0.
         12    1    1    2    0    0  0.16827602151E+02  0.81991701029E+01  0.53371423285E+00  0.18726436805E+02  0.00000000000E+00 0. -1.
         11    1    3    3    0    0 -0.43729400941E+01  0.12243159978E+02 -0.51283703001E+01  0.13975612814E+02  0.51100000000E-03 0. -1.
        -11    1    3    3    0    0 -0.16653009031E+02  0.12451022162E+02 -0.89871075948E+01  0.22652124974E+02  0.51100000000E-03 0.  1.
        -12    1    3    3    0    0  0.41983469736E+01 -0.32893352244E+02  0.13581763662E+02  0.35833825407E+02  0.00000000000E+00 0.  1.
</event>
<event>
 7    1  0.3348003E-013  0.7246160E+02  0.7816164E-02  0.1226708E+00
        -11   -1    0    0    0    0  0.00000000000E+00  0.00000000000E+00  0.45593999997E+02  0.45594000000E+02  0.51100000000E-03 0.  1.
         11   -1    0    0    0    0 -0.00000000000E+00 -0.00000000000E+00 -0.45593999997E+02  0.45594000000E+02  0.51100000000E-03 0. -1.
    9900012    2    1    2    0    0  0.10365474028E+02  0.12656843584E+02 -0.91125933916E+01  0.72461598860E+02  0.70000037212E+02 0.  0.
         12    1    1    2    0    0 -0.10365474028E+02 -0.12656843584E+02  0.91125933916E+01  0.18726401140E+02  0.00000000000E+00 0. -1.
         11    1    3    3    0    0 -0.12222838789E+01  0.21837649120E+02  0.39160024773E+01  0.22219630344E+02  0.51100000000E-03 0. -1.
        -11    1    3    3    0    0  0.15724113832E+02  0.68900695202E+01  0.11473940982E+02  0.20648780490E+02  0.51100000000E-03 0.  1.
         12    1    3    3    0    0 -0.41363559253E+01 -0.16070875056E+02 -0.24502536851E+02  0.29593188026E+02  0.00000000000E+00 0. -1.
</event>
<event>
 7    1  0.3348003E-013  0.7246157E+02  0.7816164E-02  0.1226708E+00
        -11   -1    0    0    0    0  0.00000000000E+00  0.00000000000E+00  0.45593999997E+02  0.45594000000E+02  0.51100000000E-03 0. -1.
         11   -1    0    0    0    0 -0.00000000000E+00 -0.00000000000E+00 -0.45593999997E+02  0.45594000000E+02  0.51100000000E-03 0.  1.
    9900012    2    1    2    0    0  0.11181658267E+02 -0.14483384018E+02 -0.39851197739E+01  0.72461572850E+02  0.70000003329E+02 0.  0.
         12    1    1    2    0    0 -0.11181658267E+02  0.14483384018E+02  0.39851197739E+01  0.18726427150E+02  0.00000000000E+00 0. -1.
         11    1    3    3    0    0  0.17721611483E+02  0.12599491686E+02 -0.66673731404E+01  0.22743275251E+02  0.51100000000E-03 0. -1.
        -11    1    3    3    0    0 -0.20456319743E+02 -0.47669753090E+01 -0.62972611971E+01  0.21928077204E+02  0.51100000000E-03 0.  1.
        -12    1    3    3    0    0  0.13916366527E+02 -0.22315900395E+02  0.89795145636E+01  0.27790220394E+02  0.00000000000E+00 0.  1.
</event>
<event>
 7    1  0.3348003E-013  0.7246149E+02  0.7816164E-02  0.1226708E+00
        -11   -1    0    0    0    0  0.00000000000E+00  0.00000000000E+00  0.45593999997E+02  0.45594000000E+02  0.51100000000E-03 0.  1.
         11   -1    0    0    0    0 -0.00000000000E+00 -0.00000000000E+00 -0.45593999997E+02  0.45594000000E+02  0.51100000000E-03 0. -1.
    9900012    2    1    2    0    0 -0.17784530327E+02 -0.58608449022E+01 -0.20800797410E+00  0.72461486997E+02  0.69999891490E+02 0.  0.
         12    1    1    2    0    0  0.17784530327E+02  0.58608449022E+01  0.20800797410E+00  0.18726513003E+02  0.00000000000E+00 0. -1.
         11    1    3    3    0    0 -0.36903459836E+00  0.76170086132E+01  0.29219322451E+01  0.81665595604E+01  0.51100000000E-03 0. -1.
        -11    1    3    3    0    0 -0.22483338370E+01 -0.11656333791E+02  0.27562908966E+02  0.30010649334E+02  0.51100000000E-03 0.  1.
         12    1    3    3    0    0 -0.15167161892E+02 -0.18215197241E+01 -0.30692849185E+02  0.34284278103E+02  0.00000000000E+00 0. -1.
</event>
<event>
 7    1  0.3348003E-013  0.7246159E+02  0.7816164E-02  0.1226708E+00
        -11   -1    0    0    0    0  0.00000000000E+00  0.00000000000E+00  0.45593999997E+02  0.45594000000E+02  0.51100000000E-03 0. -1.
         11   -1    0    0    0    0 -0.00000000000E+00 -0.00000000000E+00 -0.45593999997E+02  0.45594000000E+02  0.51100000000E-03 0.  1.
    9900012    2    1    2    0    0 -0.17747191099E+02  0.19253106862E+01  0.56576205742E+01  0.72461593946E+02  0.70000030811E+02 0.  0.
         12    1    1    2    0    0  0.17747191099E+02 -0.19253106862E+01 -0.56576205742E+01  0.18726406054E+02  0.00000000000E+00 0. -1.
         11    1    3    3    0    0 -0.67733515191E+01  0.13109352862E+02  0.20375452681E+02  0.25157354699E+02  0.51100000000E-03 0. -1.
        -11    1    3    3    0    0 -0.22022429877E+02 -0.13021817553E+02  0.35971851739E+01  0.25835922502E+02  0.51100000000E-03 0.  1.
         12    1    3    3    0    0  0.11048590297E+02  0.18377753771E+01 -0.18315017280E+02  0.21468316745E+02  0.00000000000E+00 0. -1.
</event>
<event>
 7    1  0.3348003E-013  0.7246166E+02  0.7816164E-02  0.1226708E+00
        -11   -1    0    0    0    0  0.00000000000E+00  0.00000000000E+00  0.45593999997E+02  0.45594000000E+02  0.51100000000E-03 0. -1.
         11   -1    0    0    0    0 -0.00000000000E+00 -0.00000000000E+00 -0.45593999997E+02  0.45594000000E+02  0.51100000000E-03 0.  1.
    9900012    2    1    2    0    0  0.13469774866E+02 -0.11494619255E+02 -0.60921936681E+01  0.72461656779E+02  0.70000112662E+02 0.  0.
         12    1    1    2    0    0 -0.13469774866E+02  0.11494619255E+02  0.60921936681E+01  0.18726343221E+02  0.00000000000E+00 0. -1.
         11    1    3    3    0    0 -0.26811673942E+01 -0.96725174579E+01 -0.73109733172E+00  0.10063834068E+02  0.51100000000E-03 0. -1.
        -11    1    3    3    0    0  0.18765845061E+02 -0.44116753889E+01  0.25137336207E+02  0.31678154815E+02  0.51100000000E-03 0.  1.
        -12    1    3    3    0    0 -0.26149028014E+01  0.25895735916E+01 -0.30498432544E+02  0.30719667896E+02  0.00000000000E+00 0.  1.
</event>
<event>
 7    1  0.3348003E-013  0.7246160E+02  0.7816164E-02  0.1226708E+00
        -11   -1    0    0    0    0  0.00000000000E+00  0.00000000000E+00  0.45593999997E+02  0.45594000000E+02  0.51100000000E-03 0. -1.
         11   -1    0    0    0    0 -0.00000000000E+00 -0.00000000000E+00 -0.45593999997E+02  0.45594000000E+02  0.51100000000E-03 0.  1.
    9900012    2    1    2    0    0  0.17819242137E+02  0.54092140989E+01 -0.19730449226E+01  0.72461604357E+02  0.70000044373E+02 0.  0.
         12    1    1    2    0    0 -0.17819242137E+02 -0.54092140989E+01  0.19730449226E+01  0.18726395643E+02  0.00000000000E+00 0. -1.
         11    1    3    3    0    0  0.31531631050E+01  0.65860927343E+01 -0.85157675248E+01  0.11217724897E+02  0.51100000000E-03 0. -1.
        -11    1    3    3    0    0 -0.22936159469E+01  0.20136493334E+02 -0.16052709801E+02  0.25853984801E+02  0.51100000000E-03 0.  1.
         12    1    3    3    0    0  0.16959694979E+02 -0.21313371969E+02  0.22595432403E+02  0.35389894659E+02  0.00000000000E+00 0. -1.
</event>
<event>
 7    1  0.3348003E-013  0.7246157E+02  0.7816164E-02  0.1226708E+00
        -11   -1    0    0    0    0  0.00000000000E+00  0.00000000000E+00  0.45593999997E+02  0.45594000000E+02  0.51100000000E-03 0. -1.
         11   -1    0    0    0    0 -0.00000000000E+00 -0.00000000000E+00 -0.45593999997E+02  0.45594000000E+02  0.51100000000E-03 0.  1.
    9900012    2    1    2    0    0  0.24208624745E+01 -0.12060897666E+02 -0.14119251365E+02  0.72461572505E+02  0.70000002880E+02 0.  0.
         12    1    1    2    0    0 -0.24208624745E+01  0.12060897666E+02  0.14119251365E+02  0.18726427495E+02  0.00000000000E+00 0. -1.
         11    1    3    3    0    0  0.11427722048E+02  0.63229073117E+01  0.59555462511E+01  0.14354111588E+02  0.51100000000E-03 0. -1.
        -11    1    3    3    0    0 -0.20485126882E+02  0.10034747522E+02 -0.14289903590E+02  0.26917242171E+02  0.51100000000E-03 0.  1.
         12    1    3    3    0    0  0.11478267309E+02 -0.28418552499E+02 -0.57848940254E+01  0.31190218746E+02  0.00000000000E+00 0. -1.
</event>
<event>
 7    1  0.3348003E-013  0.7246158E+02  0.7816164E-02  0.1226708E+00
        -11   -1    0    0    0    0  0.00000000000E+00  0.00000000000E+00  0.45593999997E+02  0.45594000000E+02  0.51100000000E-03 0. -1.
         11   -1    0    0    0    0 -0.00000000000E+00 -0.00000000000E+00 -0.45593999997E+02  0.45594000000E+02  0.51100000000E-03 0.  1.
    9900012    2    1    2    0    0 -0.41530158250E+01 -0.17229151535E+02 -0.60487606735E+01  0.72461582597E+02  0.70000016027E+02 0.  0.
         12    1    1    2    0    0  0.41530158250E+01  0.17229151535E+02  0.60487606735E+01  0.18726417403E+02  0.00000000000E+00 0. -1.
         11    1    3    3    0    0  0.21423590457E+01 -0.36795074581E+01  0.75183975345E+01  0.86402997149E+01  0.51100000000E-03 0. -1.
        -11    1    3    3    0    0 -0.82011789146E+01  0.17908851774E+02  0.12150671444E+02  0.23143576307E+02  0.51100000000E-03 0.  1.
        -12    1    3    3    0    0  0.19058040440E+01 -0.31458495851E+02 -0.25717829652E+02  0.40677706576E+02  0.00000000000E+00 0.  1.
</event>
<event>
 7    1  0.3348003E-013  0.7246161E+02  0.7816164E-02  0.1226708E+00
        -11   -1    0    0    0    0  0.00000000000E+00  0.00000000000E+00  0.45593999997E+02  0.45594000000E+02  0.51100000000E-03 0.  1.
         11   -1    0    0    0    0 -0.00000000000E+00 -0.00000000000E+00 -0.45593999997E+02  0.45594000000E+02  0.51100000000E-03 0. -1.
    9900012    2    1    2    0    0 -0.69041872459E+01  0.43666634583E+01  0.16850580329E+02  0.72461611968E+02  0.70000054288E+02 0.  0.
         12    1    1    2    0    0  0.69041872459E+01 -0.43666634583E+01 -0.16850580329E+02  0.18726388032E+02  0.00000000000E+00 0. -1.
         11    1    3    3    0    0  0.47677781375E+01  0.19393018777E+02  0.22012494016E+02  0.29721554110E+02  0.51100000000E-03 0. -1.
        -11    1    3    3    0    0  0.53385288393E+00  0.91433889431E+01  0.84257941457E+01  0.12445102150E+02  0.51100000000E-03 0.  1.
        -12    1    3    3    0    0 -0.12205818267E+02 -0.24169744262E+02 -0.13587707832E+02  0.30294955709E+02  0.00000000000E+00 0.  1.
</event>
<event>
 7    1  0.3348003E-013  0.7246157E+02  0.7816164E-02  0.1226708E+00
        -11   -1    0    0    0    0  0.00000000000E+00  0.00000000000E+00  0.45593999997E+02  0.45594000000E+02  0.51100000000E-03 0. -1.
         11   -1    0    0    0    0 -0.00000000000E+00 -0.00000000000E+00 -0.45593999997E+02  0.45594000000E+02  0.51100000000E-03 0.  1.
    9900012    2    1    2    0    0 -0.17538798268E+02 -0.79504896349E+00 -0.65144126770E+01  0.72461571615E+02  0.70000001721E+02 0.  0.
         12    1    1    2    0    0  0.17538798268E+02  0.79504896349E+00  0.65144126770E+01  0.18726428385E+02  0.00000000000E+00 0. -1.
         11    1    3    3    0    0 -0.70495088637E+01  0.66524277079E+01 -0.10106075427E+01  0.97453423488E+01  0.51100000000E-03 0. -1.
        -11    1    3    3    0    0 -0.25339153969E+02  0.17537578006E+02 -0.11762984068E+02  0.32984953549E+02  0.51100000000E-03 0.  1.
         12    1    3    3    0    0  0.14849864565E+02 -0.24985054678E+02  0.62591789338E+01  0.29731275717E+02  0.00000000000E+00 0. -1.
</event>
<event>
 7    1  0.3348003E-013  0.7246153E+02  0.7816164E-02  0.1226708E+00
        -11   -1    0    0    0    0  0.00000000000E+00  0.00000000000E+00  0.45593999997E+02  0.45594000000E+02  0.51100000000E-03 0.  1.
         11   -1    0    0    0    0 -0.00000000000E+00 -0.00000000000E+00 -0.45593999997E+02  0.45594000000E+02  0.51100000000E-03 0. -1.
    9900012    2    1    2    0    0 -0.11121240397E+01  0.17541498050E+02 -0.64606180595E+01  0.72461533184E+02  0.69999951656E+02 0.  0.
         12    1    1    2    0    0  0.11121240397E+01 -0.17541498050E+02  0.64606180595E+01  0.18726466816E+02  0.00000000000E+00 0. -1.
         11    1    3    3    0    0 -0.37430810207E+01  0.33059354814E+01 -0.14438560687E+02  0.15277823795E+02  0.51100000000E-03 0. -1.
        -11    1    3    3    0    0  0.19623974167E+02 -0.97747347438E+01 -0.84455695068E+01  0.23494115135E+02  0.51100000000E-03 0.  1.
        -12    1    3    3    0    0 -0.16993017187E+02  0.24010297312E+02  0.16423512134E+02  0.33689594253E+02  0.00000000000E+00 0.  1.
</event>
<event>
 7    1  0.3348003E-013  0.7246156E+02  0.7816164E-02  0.1226708E+00
        -11   -1    0    0    0    0  0.00000000000E+00  0.00000000000E+00  0.45593999997E+02  0.45594000000E+02  0.51100000000E-03 0. -1.
         11   -1    0    0    0    0 -0.00000000000E+00 -0.00000000000E+00 -0.45593999997E+02  0.45594000000E+02  0.51100000000E-03 0.  1.
    9900012    2    1    2    0    0 -0.13994545932E+02 -0.25431447380E+01 -0.12180504264E+02  0.72461559198E+02  0.69999985545E+02 0.  0.
         12    1    1    2    0    0  0.13994545932E+02  0.25431447380E+01  0.12180504264E+02  0.18726440802E+02  0.00000000000E+00 0. -1.
         11    1    3    3    0    0  0.94261235891E+01  0.89110147249E+01  0.16481847679E+02  0.20974014697E+02  0.51100000000E-03 0. -1.
        -11    1    3    3    0    0  0.71931910681E+01 -0.69974985571E+01 -0.14070136665E+02  0.17282237408E+02  0.51100000000E-03 0.  1.
        -12    1    3    3    0    0 -0.30613860589E+02 -0.44566609057E+01 -0.14592215278E+02  0.34205307093E+02  0.00000000000E+00 0.  1.
</event>
<event>
 7    1  0.3348003E-013  0.7246155E+02  0.7816164E-02  0.1226708E+00
        -11   -1    0    0    0    0  0.00000000000E+00  0.00000000000E+00  0.45593999997E+02  0.45594000000E+02  0.51100000000E-03 0.  1.
         11   -1    0    0    0    0 -0.00000000000E+00 -0.00000000000E+00 -0.45593999997E+02  0.45594000000E+02  0.51100000000E-03 0. -1.
    9900012    2    1    2    0    0 -0.65036509259E+01  0.17518232095E+02  0.12223359951E+01  0.72461547149E+02  0.69999969849E+02 0.  0.
         12    1    1    2    0    0  0.65036509259E+01 -0.17518232095E+02 -0.12223359951E+01  0.18726452851E+02  0.00000000000E+00 0. -1.
         11    1    3    3    0    0 -0.13865948018E+02  0.14093683016E+01  0.69405312038E+01  0.15569900677E+02  0.51100000000E-03 0. -1.
        -11    1    3    3    0    0  0.20496571670E+01  0.33509463123E+02 -0.14643523454E+02  0.36626738767E+02  0.51100000000E-03 0.  1.
         12    1    3    3    0    0  0.53126399248E+01 -0.17400599329E+02  0.89253282457E+01  0.20264907705E+02  0.00000000000E+00 0. -1.
</event>
<event>
 7    1  0.3348003E-013  0.7246156E+02  0.7816164E-02  0.1226708E+00
        -11   -1    0    0    0    0  0.00000000000E+00  0.00000000000E+00  0.45593999997E+02  0.45594000000E+02  0.51100000000E-03 0. -1.
         11   -1    0    0    0    0 -0.00000000000E+00 -0.00000000000E+00 -0.45593999997E+02  0.45594000000E+02  0.51100000000E-03 0.  1.
    9900012    2    1    2    0    0 -0.60297846628E+01 -0.10147138761E+02 -0.14538112551E+02  0.72461562948E+02  0.69999990430E+02 0.  0.
         12    1    1    2    0    0  0.60297846628E+01  0.10147138761E+02  0.14538112551E+02  0.18726437052E+02  0.00000000000E+00 0. -1.
         11    1    3    3    0    0 -0.39457332237E+01 -0.18936427097E+02  0.12959150401E+01  0.19386502467E+02  0.51100000000E-03 0. -1.
        -11    1    3    3    0    0  0.62962174823E+01 -0.15125476736E+02  0.80485132643E+01  0.18253793225E+02  0.51100000000E-03 0.  1.
        -12    1    3    3    0    0 -0.83802689215E+01  0.23914765072E+02 -0.23882540855E+02  0.34821267256E+02  0.00000000000E+00 0.  1.
</event>
<event>
 7    1  0.3348003E-013  0.7246163E+02  0.7816164E-02  0.1226708E+00
        -11   -1    0    0    0    0  0.00000000000E+00  0.00000000000E+00  0.45593999997E+02  0.45594000000E+02  0.51100000000E-03 0.  1.
         11   -1    0    0    0    0 -0.00000000000E+00 -0.00000000000E+00 -0.45593999997E+02  0.45594000000E+02  0.51100000000E-03 0. -1.
    9900012    2    1    2    0    0  0.73167055059E+01 -0.16875278067E+02  0.35168060758E+01  0.72461625170E+02  0.70000071485E+02 0.  0.
         12    1    1    2    0    0 -0.73167055059E+01  0.16875278067E+02 -0.35168060758E+01  0.18726374830E+02  0.00000000000E+00 0. -1.
         11    1    3    3    0    0  0.12356242774E+02  0.24080286971E+01 -0.27012984327E+02  0.29802292868E+02  0.51100000000E-03 0. -1.
        -11    1    3    3    0    0  0.53460851300E+01 -0.97568265685E+01  0.26754070515E+01  0.11442643666E+02  0.51100000000E-03 0.  1.
        -12    1    3    3    0    0 -0.10385622399E+02 -0.95264801961E+01  0.27854383351E+02  0.31216688636E+02  0.00000000000E+00 0.  1.
</event>
<event>
 7    1  0.3348003E-013  0.7246153E+02  0.7816164E-02  0.1226708E+00
        -11   -1    0    0    0    0  0.00000000000E+00  0.00000000000E+00  0.45593999997E+02  0.45594000000E+02  0.51100000000E-03 0.  1.
         11   -1    0    0    0    0 -0.00000000000E+00 -0.00000000000E+00 -0.45593999997E+02  0.45594000000E+02  0.51100000000E-03 0. -1.
    9900012    2    1    2    0    0 -0.17675199958E+02  0.51445671258E+01  0.34353286348E+01  0.72461528168E+02  0.69999945122E+02 0.  0.
         12    1    1    2    0    0  0.17675199958E+02 -0.51445671258E+01 -0.34353286348E+01  0.18726471832E+02  0.00000000000E+00 0. -1.
         11    1    3    3    0    0 -0.55832236168E+01  0.15628485437E+01 -0.92518400828E+01  0.10918398541E+02  0.51100000000E-03 0. -1.
        -11    1    3    3    0    0 -0.77073380424E+01  0.28851030449E+02  0.18655456332E+02  0.35210950980E+02  0.51100000000E-03 0.  1.
         12    1    3    3    0    0 -0.43846382983E+01 -0.25269311867E+02 -0.59682876143E+01  0.26332178647E+02  0.00000000000E+00 0. -1.
</event>
<event>
 7    1  0.3348003E-013  0.7246168E+02  0.7816164E-02  0.1226708E+00
        -11   -1    0    0    0    0  0.00000000000E+00  0.00000000000E+00  0.45593999997E+02  0.45594000000E+02  0.51100000000E-03 0. -1.
         11   -1    0    0    0    0 -0.00000000000E+00 -0.00000000000E+00 -0.45593999997E+02  0.45594000000E+02  0.51100000000E-03 0.  1.
    9900012    2    1    2    0    0  0.16361565740E+02 -0.86580172821E+01  0.28307486038E+01  0.72461675364E+02  0.70000136872E+02 0.  0.
         12    1    1    2    0    0 -0.16361565740E+02  0.86580172821E+01 -0.28307486038E+01  0.18726324636E+02  0.00000000000E+00 0. -1.
         11    1    3    3    0    0  0.99679871740E+00 -0.10463972275E+02 -0.18395366220E+02  0.21186736938E+02  0.51100000000E-03 0. -1.
        -11    1    3    3    0    0 -0.19144172721E+01 -0.19206356980E+02  0.10971356419E+02  0.22201797311E+02  0.51100000000E-03 0.  1.
         12    1    3    3    0    0  0.17279184295E+02  0.21012311973E+02  0.10254758405E+02  0.29073141115E+02  0.00000000000E+00 0. -1.
</event>
<event>
 7    1  0.3348003E-013  0.7246165E+02  0.7816164E-02  0.1226708E+00
        -11   -1    0    0    0    0  0.00000000000E+00  0.00000000000E+00  0.45593999997E+02  0.45594000000E+02  0.51100000000E-03 0. -1.
         11   -1    0    0    0    0 -0.00000000000E+00 -0.00000000000E+00 -0.45593999997E+02  0.45594000000E+02  0.51100000000E-03 0.  1.
    9900012    2    1    2    0    0 -0.14233327525E+02  0.41791986634E+01  0.11429034292E+02  0.72461651217E+02  0.70000105416E+02 0.  0.
         12    1    1    2    0    0  0.14233327525E+02 -0.41791986634E+01 -0.11429034292E+02  0.18726348783E+02  0.00000000000E+00 0. -1.
         11    1    3    3    0    0  0.53780790876E+01  0.14500610950E+01  0.32169757049E+01  0.64323669671E+01  0.51100000000E-03 0. -1.
        -11    1    3    3    0    0 -0.69872951037E+01  0.23540513255E+02 -0.17857833554E+02  0.30362481398E+02  0.51100000000E-03 0.  1.
         12    1    3    3    0    0 -0.12624111509E+02 -0.20811375686E+02  0.26069892142E+02  0.35666802851E+02  0.00000000000E+00 0. -1.
</event>
<event>
 7    1  0.3348003E-013  0.7246135E+02  0.7816164E-02  0.1226709E+00
        -11   -1    0    0    0    0  0.00000000000E+00  0.00000000000E+00  0.45593999997E+02  0.45594000000E+02  0.51100000000E-03 0. -1.
         11   -1    0    0    0    0 -0.00000000000E+00 -0.00000000000E+00 -0.45593999997E+02  0.45594000000E+02  0.51100000000E-03 0.  1.
    9900012    2    1    2    0    0  0.50950995423E+00  0.64550328995E+01 -0.17571575170E+02  0.72461353101E+02  0.69999717065E+02 0.  0.
         12    1    1    2    0    0 -0.50950995423E+00 -0.64550328995E+01  0.17571575170E+02  0.18726646899E+02  0.00000000000E+00 0. -1.
         11    1    3    3    0    0 -0.13211772622E+02 -0.86637844215E+01  0.77771315644E+01  0.17609539231E+02  0.51100000000E-03 0. -1.
        -11    1    3    3    0    0  0.66067447019E+01  0.64563252427E+01  0.12406394569E+02  0.15467767702E+02  0.51100000000E-03 0.  1.
        -12    1    3    3    0    0  0.71145378739E+01  0.86624920782E+01 -0.37755101303E+02  0.39384046168E+02  0.00000000000E+00 0.  1.
</event>
<event>
 7    1  0.3812629E-013  0.7246157E+02  0.7816164E-02  0.1226708E+00
        -11   -1    0    0    0    0  0.00000000000E+00  0.00000000000E+00  0.45593999997E+02  0.45594000000E+02  0.51100000000E-03 0. -1.
         11   -1    0    0    0    0 -0.00000000000E+00 -0.00000000000E+00 -0.45593999997E+02  0.45594000000E+02  0.51100000000E-03 0.  1.
    9900012    2    1    2    0    0  0.71533764518E+01 -0.15870002696E+02 -0.69030119746E+01  0.72461565354E+02  0.69999993564E+02 0.  0.
         12    1    1    2    0    0 -0.71533764518E+01  0.15870002696E+02  0.69030119746E+01  0.18726434646E+02  0.00000000000E+00 0. -1.
         11    1    3    3    0    0 -0.60570586328E+01  0.24860439503E+01  0.17849590660E+02  0.19012529047E+02  0.51100000000E-03 0. -1.
        -11    1    3    3    0    0 -0.13804567418E+02 -0.13835197278E+02 -0.13917183257E+02  0.23993056399E+02  0.51100000000E-03 0.  1.
        -12    1    3    3    0    0  0.27015002502E+02 -0.45208493692E+01 -0.10835419377E+02  0.29455979907E+02  0.00000000000E+00 0.  1.
</event>
<event>
 7    1  0.3348003E-013  0.7246158E+02  0.7816164E-02  0.1226708E+00
        -11   -1    0    0    0    0  0.00000000000E+00  0.00000000000E+00  0.45593999997E+02  0.45594000000E+02  0.51100000000E-03 0.  1.
         11   -1    0    0    0    0 -0.00000000000E+00 -0.00000000000E+00 -0.45593999997E+02  0.45594000000E+02  0.51100000000E-03 0. -1.
    9900012    2    1    2    0    0  0.14935273338E+02  0.51492488299E+01  0.10054932781E+02  0.72461579455E+02  0.70000011934E+02 0.  0.
         12    1    1    2    0    0 -0.14935273338E+02 -0.51492488299E+01 -0.10054932781E+02  0.18726420545E+02  0.00000000000E+00 0. -1.
         11    1    3    3    0    0 -0.13469024713E+01  0.30841301810E+02  0.21167051274E+01  0.30943181551E+02  0.51100000000E-03 0. -1.
        -11    1    3    3    0    0  0.27212754042E+01  0.27315941805E+01  0.92258907923E+01  0.99992003562E+01  0.51100000000E-03 0.  1.
        -12    1    3    3    0    0  0.13560900406E+02 -0.28423647161E+02 -0.12876631391E+01  0.31519197548E+02  0.00000000000E+00 0.  1.
</event>
<event>
 7    1  0.3348003E-013  0.7246156E+02  0.7816164E-02  0.1226708E+00
        -11   -1    0    0    0    0  0.00000000000E+00  0.00000000000E+00  0.45593999997E+02  0.45594000000E+02  0.51100000000E-03 0. -1.
         11   -1    0    0    0    0 -0.00000000000E+00 -0.00000000000E+00 -0.45593999997E+02  0.45594000000E+02  0.51100000000E-03 0.  1.
    9900012    2    1    2    0    0 -0.72942769126E+01 -0.95484556320E+01 -0.14363150235E+02  0.72461559727E+02  0.69999986234E+02 0.  0.
         12    1    1    2    0    0  0.72942769126E+01  0.95484556320E+01  0.14363150235E+02  0.18726440273E+02  0.00000000000E+00 0. -1.
         11    1    3    3    0    0 -0.10990465811E+02  0.11625405183E+00  0.27047131059E+02  0.29195053563E+02  0.51100000000E-03 0. -1.
        -11    1    3    3    0    0  0.19014215626E+01 -0.39624668593E+01 -0.64895189004E+01  0.78377549968E+01  0.51100000000E-03 0.  1.
        -12    1    3    3    0    0  0.17947673363E+01 -0.57022428246E+01 -0.34920762394E+02  0.35428751166E+02  0.00000000000E+00 0.  1.
</event>
<event>
 7    1  0.3348003E-013  0.7246158E+02  0.7816164E-02  0.1226708E+00
        -11   -1    0    0    0    0  0.00000000000E+00  0.00000000000E+00  0.45593999997E+02  0.45594000000E+02  0.51100000000E-03 0. -1.
         11   -1    0    0    0    0 -0.00000000000E+00 -0.00000000000E+00 -0.45593999997E+02  0.45594000000E+02  0.51100000000E-03 0.  1.
    9900012    2    1    2    0    0  0.13357226765E+02  0.11795592156E+02  0.57556342798E+01  0.72461579437E+02  0.70000011910E+02 0.  0.
         12    1    1    2    0    0 -0.13357226765E+02 -0.11795592156E+02 -0.57556342798E+01  0.18726420563E+02  0.00000000000E+00 0. -1.
         11    1    3    3    0    0  0.88454448835E+01  0.27086183948E+02  0.13109508977E+02  0.31364988154E+02  0.51100000000E-03 0. -1.
        -11    1    3    3    0    0  0.67864008877E+01 -0.22614979292E+01  0.14147416252E+02  0.15853043770E+02  0.51100000000E-03 0.  1.
        -12    1    3    3    0    0 -0.22746190068E+01 -0.13029093863E+02 -0.21501290950E+02  0.25243547513E+02  0.00000000000E+00 0.  1.
</event>
<event>
 7    1  0.3348003E-013  0.7246112E+02  0.7816164E-02  0.1226709E+00
        -11   -1    0    0    0    0  0.00000000000E+00  0.00000000000E+00  0.45593999997E+02  0.45594000000E+02  0.51100000000E-03 0. -1.
         11   -1    0    0    0    0 -0.00000000000E+00 -0.00000000000E+00 -0.45593999997E+02  0.45594000000E+02  0.51100000000E-03 0.  1.
    9900012    2    1    2    0    0  0.16712129276E+02  0.80124135628E+00 -0.84118328220E+01  0.72461116008E+02  0.69999408205E+02 0.  0.
         12    1    1    2    0    0 -0.16712129276E+02 -0.80124135628E+00  0.84118328220E+01  0.18726883992E+02  0.00000000000E+00 0. -1.
         11    1    3    3    0    0 -0.61521828282E+01  0.18039564171E+02  0.16082215395E+02  0.24938181195E+02  0.51100000000E-03 0. -1.
        -11    1    3    3    0    0  0.12959997193E+02  0.67060105796E+01 -0.11231847918E+02  0.18414301861E+02  0.51100000000E-03 0.  1.
        -12    1    3    3    0    0  0.99043149111E+01 -0.23944333394E+02 -0.13262200299E+02  0.29108632952E+02  0.00000000000E+00 0.  1.
</event>
<event>
 7    1  0.3348003E-013  0.7246154E+02  0.7816164E-02  0.1226708E+00
        -11   -1    0    0    0    0  0.00000000000E+00  0.00000000000E+00  0.45593999997E+02  0.45594000000E+02  0.51100000000E-03 0. -1.
         11   -1    0    0    0    0 -0.00000000000E+00 -0.00000000000E+00 -0.45593999997E+02  0.45594000000E+02  0.51100000000E-03 0.  1.
    9900012    2    1    2    0    0  0.10059169030E+00 -0.17795653316E+02 -0.58296604495E+01  0.72461539134E+02  0.69999959407E+02 0.  0.
         12    1    1    2    0    0 -0.10059169030E+00  0.17795653316E+02  0.58296604495E+01  0.18726460866E+02  0.00000000000E+00 0. -1.
         11    1    3    3    0    0  0.63976123882E+01  0.79306114678E+01  0.55866172158E+01  0.11620427475E+02  0.51100000000E-03 0. -1.
        -11    1    3    3    0    0  0.58942719318E+01  0.79839094713E+01  0.13811277307E+02  0.17006958375E+02  0.51100000000E-03 0.  1.
        -12    1    3    3    0    0 -0.12191292630E+02 -0.33710174255E+02 -0.25227554972E+02  0.43834153284E+02  0.00000000000E+00 0.  1.
</event>
<event>
 7    1  0.3348003E-013  0.7246157E+02  0.7816164E-02  0.1226708E+00
        -11   -1    0    0    0    0  0.00000000000E+00  0.00000000000E+00  0.45593999997E+02  0.45594000000E+02  0.51100000000E-03 0.  1.
         11   -1    0    0    0    0 -0.00000000000E+00 -0.00000000000E+00 -0.45593999997E+02  0.45594000000E+02  0.51100000000E-03 0. -1.
    9900012    2    1    2    0    0  0.17518696216E+01 -0.48519125175E+01  0.18001919007E+02  0.72461569742E+02  0.69999999281E+02 0.  0.
         12    1    1    2    0    0 -0.17518696216E+01  0.48519125175E+01 -0.18001919007E+02  0.18726430258E+02  0.00000000000E+00 0. -1.
         11    1    3    3    0    0 -0.59126768332E+01 -0.22107962228E+02  0.84357760953E+01  0.24390245177E+02  0.51100000000E-03 0. -1.
        -11    1    3    3    0    0 -0.48086779636E+01 -0.45279843419E+00  0.22386076316E+02  0.22901196983E+02  0.51100000000E-03 0.  1.
        -12    1    3    3    0    0  0.12473224418E+02  0.17708848145E+02 -0.12819933404E+02  0.25170127582E+02  0.00000000000E+00 0.  1.
</event>
<event>
 7    1  0.3348003E-013  0.7246156E+02  0.7816164E-02  0.1226708E+00
        -11   -1    0    0    0    0  0.00000000000E+00  0.00000000000E+00  0.45593999997E+02  0.45594000000E+02  0.51100000000E-03 0. -1.
         11   -1    0    0    0    0 -0.00000000000E+00 -0.00000000000E+00 -0.45593999997E+02  0.45594000000E+02  0.51100000000E-03 0.  1.
    9900012    2    1    2    0    0 -0.31180083890E+01  0.13536499952E+02 -0.12558699275E+02  0.72461555202E+02  0.69999980340E+02 0.  0.
         12    1    1    2    0    0  0.31180083890E+01 -0.13536499952E+02  0.12558699275E+02  0.18726444798E+02  0.00000000000E+00 0. -1.
         11    1    3    3    0    0  0.13336873761E+02 -0.12539472241E+02 -0.20662294822E+02  0.27605089990E+02  0.51100000000E-03 0. -1.
        -11    1    3    3    0    0 -0.21100267996E+02  0.50432363496E+01 -0.40193775465E+00  0.21698320133E+02  0.51100000000E-03 0.  1.
        -12    1    3    3    0    0  0.46453858459E+01  0.21032735844E+02  0.85055333011E+01  0.23158145078E+02  0.00000000000E+00 0.  1.
</event>
<event>
 7    1  0.3348003E-013  0.7246160E+02  0.7816164E-02  0.1226708E+00
        -11   -1    0    0    0    0  0.00000000000E+00  0.00000000000E+00  0.45593999997E+02  0.45594000000E+02  0.51100000000E-03 0. -1.
         11   -1    0    0    0    0 -0.00000000000E+00 -0.00000000000E+00 -0.45593999997E+02  0.45594000000E+02  0.51100000000E-03 0.  1.
    9900012    2    1    2    0    0  0.49726179820E+01 -0.15792465215E+02 -0.87492284490E+01  0.72461604575E+02  0.70000044657E+02 0.  0.
         12    1    1    2    0    0 -0.49726179820E+01  0.15792465215E+02  0.87492284490E+01  0.18726395425E+02  0.00000000000E+00 0. -1.
         11    1    3    3    0    0  0.25323161604E+02 -0.12555422693E+02  0.60176555806E+01  0.28898327487E+02  0.51100000000E-03 0. -1.
        -11    1    3    3    0    0 -0.11800018579E+01 -0.11763828064E+02  0.66640107900E+01  0.13571628317E+02  0.51100000000E-03 0.  1.
        -12    1    3    3    0    0 -0.19170541764E+02  0.85267855423E+01 -0.21430894820E+02  0.29991648770E+02  0.00000000000E+00 0.  1.
</event>
<event>
 7    1  0.3348003E-013  0.7246155E+02  0.7816164E-02  0.1226708E+00
        -11   -1    0    0    0    0  0.00000000000E+00  0.00000000000E+00  0.45593999997E+02  0.45594000000E+02  0.51100000000E-03 0.  1.
         11   -1    0    0    0    0 -0.00000000000E+00 -0.00000000000E+00 -0.45593999997E+02  0.45594000000E+02  0.51100000000E-03 0. -1.
    9900012    2    1    2    0    0  0.14900855585E+02  0.99297772240E+01  0.54812503283E+01  0.72461546037E+02  0.69999968400E+02 0.  0.
         12    1    1    2    0    0 -0.14900855585E+02 -0.99297772240E+01 -0.54812503283E+01  0.18726453963E+02  0.00000000000E+00 0. -1.
         11    1    3    3    0    0 -0.13624854181E+02  0.43235469390E+01 -0.41923833906E+00  0.14300540921E+02  0.51100000000E-03 0. -1.
        -11    1    3    3    0    0 -0.83317518045E+01 -0.35460616455E+01 -0.12919457327E+02  0.15776723969E+02  0.51100000000E-03 0.  1.
        -12    1    3    3    0    0  0.36857461571E+02  0.91522919305E+01  0.18819945994E+02  0.42384281146E+02  0.00000000000E+00 0.  1.
</event>
<event>
 7    1  0.3348003E-013  0.7246155E+02  0.7816164E-02  0.1226708E+00
        -11   -1    0    0    0    0  0.00000000000E+00  0.00000000000E+00  0.45593999997E+02  0.45594000000E+02  0.51100000000E-03 0.  1.
         11   -1    0    0    0    0 -0.00000000000E+00 -0.00000000000E+00 -0.45593999997E+02  0.45594000000E+02  0.51100000000E-03 0. -1.
    9900012    2    1    2    0    0  0.10272883436E+02  0.14177293555E+01  0.15592876996E+02  0.72461550694E+02  0.69999974466E+02 0.  0.
         12    1    1    2    0    0 -0.10272883436E+02 -0.14177293555E+01 -0.15592876996E+02  0.18726449306E+02  0.00000000000E+00 0. -1.
         11    1    3    3    0    0  0.13662830175E+02 -0.14585599168E+02 -0.73283536106E+01  0.21286554404E+02  0.51100000000E-03 0. -1.
        -11    1    3    3    0    0 -0.14569565063E+02  0.75810735649E+00  0.28023330214E+02  0.31593575129E+02  0.51100000000E-03 0.  1.
         12    1    3    3    0    0  0.11179618323E+02  0.15245221167E+02 -0.51020996076E+01  0.19581421161E+02  0.00000000000E+00 0. -1.
</event>
<event>
 7    1  0.3348003E-013  0.7246157E+02  0.7816164E-02  0.1226708E+00
        -11   -1    0    0    0    0  0.00000000000E+00  0.00000000000E+00  0.45593999997E+02  0.45594000000E+02  0.51100000000E-03 0.  1.
         11   -1    0    0    0    0 -0.00000000000E+00 -0.00000000000E+00 -0.45593999997E+02  0.45594000000E+02  0.51100000000E-03 0. -1.
    9900012    2    1    2    0    0  0.82232146349E+01 -0.12539245096E+02  0.11217178156E+02  0.72461574492E+02  0.70000005468E+02 0.  0.
         12    1    1    2    0    0 -0.82232146349E+01  0.12539245096E+02 -0.11217178156E+02  0.18726425508E+02  0.00000000000E+00 0. -1.
         11    1    3    3    0    0 -0.17905034868E+02  0.82736670056E+01 -0.60998034086E+01  0.20645857726E+02  0.51100000000E-03 0. -1.
        -11    1    3    3    0    0 -0.55456776348E+01  0.33960506432E+01  0.89797479993E+01  0.11087090457E+02  0.51100000000E-03 0.  1.
        -12    1    3    3    0    0  0.31673927138E+02 -0.24208962745E+02  0.83372335657E+01  0.40728626310E+02  0.00000000000E+00 0.  1.
</event>
<event>
 7    1  0.3348003E-013  0.7246153E+02  0.7816164E-02  0.1226708E+00
        -11   -1    0    0    0    0  0.00000000000E+00  0.00000000000E+00  0.45593999997E+02  0.45594000000E+02  0.51100000000E-03 0.  1.
         11   -1    0    0    0    0 -0.00000000000E+00 -0.00000000000E+00 -0.45593999997E+02  0.45594000000E+02  0.51100000000E-03 0. -1.
    9900012    2    1    2    0    0  0.14265955841E+02  0.98333134683E+00 -0.12091168116E+02  0.72461527215E+02  0.69999943881E+02 0.  0.
         12    1    1    2    0    0 -0.14265955841E+02 -0.98333134683E+00  0.12091168116E+02  0.18726472785E+02  0.00000000000E+00 0. -1.
         11    1    3    3    0    0  0.14755141054E+01  0.12122461242E+02 -0.24492272827E+01  0.12455116338E+02  0.51100000000E-03 0. -1.
        -11    1    3    3    0    0  0.23034399045E+02  0.16161109785E+02  0.28541413414E+01  0.28282700223E+02  0.51100000000E-03 0.  1.
         12    1    3    3    0    0 -0.10243957309E+02 -0.27300239680E+02 -0.12496082174E+02  0.31723710654E+02  0.00000000000E+00 0. -1.
</event>
<event>
 7    1  0.3348003E-013  0.7246153E+02  0.7816164E-02  0.1226708E+00
        -11   -1    0    0    0    0  0.00000000000E+00  0.00000000000E+00  0.45593999997E+02  0.45594000000E+02  0.51100000000E-03 0.  1.
         11   -1    0    0    0    0 -0.00000000000E+00 -0.00000000000E+00 -0.45593999997E+02  0.45594000000E+02  0.51100000000E-03 0. -1.
    9900012    2    1    2    0    0  0.55892437977E+01  0.13676571102E+02  0.11506189419E+02  0.72461531079E+02  0.69999948914E+02 0.  0.
         12    1    1    2    0    0 -0.55892437977E+01 -0.13676571102E+02 -0.11506189419E+02  0.18726468921E+02  0.00000000000E+00 0. -1.
         11    1    3    3    0    0  0.15666588385E+02  0.67600777168E+01  0.10696215804E+02  0.20138263955E+02  0.51100000000E-03 0. -1.
        -11    1    3    3    0    0  0.64543482373E+01 -0.88659497024E+01  0.19782667865E+02  0.22618966011E+02  0.51100000000E-03 0.  1.
         12    1    3    3    0    0 -0.16531692825E+02  0.15782443087E+02 -0.18972694250E+02  0.29704301112E+02  0.00000000000E+00 0. -1.
</event>
<event>
 7    1  0.3348003E-013  0.7246159E+02  0.7816164E-02  0.1226708E+00
        -11   -1    0    0    0    0  0.00000000000E+00  0.00000000000E+00  0.45593999997E+02  0.45594000000E+02  0.51100000000E-03 0.  1.
         11   -1    0    0    0    0 -0.00000000000E+00 -0.00000000000E+00 -0.45593999997E+02  0.45594000000E+02  0.51100000000E-03 0. -1.
    9900012    2    1    2    0    0  0.12501434759E+02  0.86437173778E-01  0.13942206661E+02  0.72461588998E+02  0.70000024365E+02 0.  0.
         12    1    1    2    0    0 -0.12501434759E+02 -0.86437173778E-01 -0.13942206661E+02  0.18726411002E+02  0.00000000000E+00 0. -1.
         11    1    3    3    0    0 -0.30566809306E+01 -0.32509042102E+01 -0.77503892944E+00  0.45290575287E+01  0.51100000000E-03 0. -1.
        -11    1    3    3    0    0 -0.16435891537E+02 -0.18635199511E+02  0.15179189056E+02  0.29117296786E+02  0.51100000000E-03 0.  1.
         12    1    3    3    0    0  0.31994007227E+02  0.21972540895E+02 -0.46194346542E+00  0.38815234684E+02  0.00000000000E+00 0. -1.
</event>
<event>
 7    1  0.3348003E-013  0.7246158E+02  0.7816164E-02  0.1226708E+00
        -11   -1    0    0    0    0  0.00000000000E+00  0.00000000000E+00  0.45593999997E+02  0.45594000000E+02  0.51100000000E-03 0.  1.
         11   -1    0    0    0    0 -0.00000000000E+00 -0.00000000000E+00 -0.45593999997E+02  0.45594000000E+02  0.51100000000E-03 0. -1.
    9900012    2    1    2    0    0 -0.16186484439E+02  0.24780076727E+01  0.90849258868E+01  0.72461583394E+02  0.70000017065E+02 0.  0.
         12    1    1    2    0    0  0.16186484439E+02 -0.24780076727E+01 -0.90849258868E+01  0.18726416606E+02  0.00000000000E+00 0. -1.
         11    1    3    3    0    0 -0.12702001941E+02  0.15547496477E+02 -0.16378894644E+01  0.20143191956E+02  0.51100000000E-03 0. -1.
        -11    1    3    3    0    0 -0.24847388972E+02  0.42632917150E+00  0.10682022034E+02  0.27049585769E+02  0.51100000000E-03 0.  1.
        -12    1    3    3    0    0  0.21362906474E+02 -0.13495817976E+02  0.40793317144E-01  0.25268805669E+02  0.00000000000E+00 0.  1.
</event>
<event>
 7    1  0.3348003E-013  0.7246155E+02  0.7816164E-02  0.1226708E+00
        -11   -1    0    0    0    0  0.00000000000E+00  0.00000000000E+00  0.45593999997E+02  0.45594000000E+02  0.51100000000E-03 0.  1.
         11   -1    0    0    0    0 -0.00000000000E+00 -0.00000000000E+00 -0.45593999997E+02  0.45594000000E+02  0.51100000000E-03 0. -1.
    9900012    2    1    2    0    0  0.10376495193E+02  0.40102480228E+01  0.15064067963E+02  0.72461551184E+02  0.69999975105E+02 0.  0.
         12    1    1    2    0    0 -0.10376495193E+02 -0.40102480228E+01 -0.15064067963E+02  0.18726448816E+02  0.00000000000E+00 0. -1.
         11    1    3    3    0    0 -0.34319088042E+01 -0.14569520684E+02  0.10767004118E+02  0.18438473606E+02  0.51100000000E-03 0. -1.
        -11    1    3    3    0    0 -0.24360495884E+01 -0.18139816078E+01  0.22192751021E+02  0.22399621984E+02  0.51100000000E-03 0.  1.
         12    1    3    3    0    0  0.16244453585E+02  0.20393750314E+02 -0.17895687177E+02  0.31623455593E+02  0.00000000000E+00 0. -1.
</event>
<event>
 7    1  0.3348003E-013  0.7246172E+02  0.7816164E-02  0.1226708E+00
        -11   -1    0    0    0    0  0.00000000000E+00  0.00000000000E+00  0.45593999997E+02  0.45594000000E+02  0.51100000000E-03 0.  1.
         11   -1    0    0    0    0 -0.00000000000E+00 -0.00000000000E+00 -0.45593999997E+02  0.45594000000E+02  0.51100000000E-03 0. -1.
    9900012    2    1    2    0    0  0.17143883015E+02 -0.87733216224E-01 -0.75334778824E+01  0.72461716040E+02  0.70000189860E+02 0.  0.
         12    1    1    2    0    0 -0.17143883015E+02  0.87733216224E-01  0.75334778824E+01  0.18726283960E+02  0.00000000000E+00 0. -1.
         11    1    3    3    0    0  0.14153941131E+02  0.47032144922E+00  0.30921752279E+01  0.14495406159E+02  0.51100000000E-03 0. -1.
        -11    1    3    3    0    0  0.79962061004E+01 -0.12251712057E+02  0.20013954614E+02  0.24791170603E+02  0.51100000000E-03 0.  1.
         12    1    3    3    0    0 -0.50062642161E+01  0.11693657391E+02 -0.30639607725E+02  0.33175139278E+02  0.00000000000E+00 0. -1.
</event>
<event>
 7    1  0.3348003E-013  0.7246158E+02  0.7816164E-02  0.1226708E+00
        -11   -1    0    0    0    0  0.00000000000E+00  0.00000000000E+00  0.45593999997E+02  0.45594000000E+02  0.51100000000E-03 0.  1.
         11   -1    0    0    0    0 -0.00000000000E+00 -0.00000000000E+00 -0.45593999997E+02  0.45594000000E+02  0.51100000000E-03 0. -1.
    9900012    2    1    2    0    0 -0.74087927576E+01  0.80258398174E+01  0.15210997345E+02  0.72461581358E+02  0.70000014413E+02 0.  0.
         12    1    1    2    0    0  0.74087927576E+01 -0.80258398174E+01 -0.15210997345E+02  0.18726418642E+02  0.00000000000E+00 0. -1.
         11    1    3    3    0    0 -0.17781443191E+01  0.24575914986E+02  0.24817091336E+01  0.24764819302E+02  0.51100000000E-03 0. -1.
        -11    1    3    3    0    0  0.13027111692E+02  0.78618750445E+01  0.49689970177E+01  0.16006425268E+02  0.51100000000E-03 0.  1.
        -12    1    3    3    0    0 -0.18657760131E+02 -0.24411950213E+02  0.77602911941E+01  0.31690336787E+02  0.00000000000E+00 0.  1.
</event>
<event>
 7    1  0.3348003E-013  0.7246205E+02  0.7816164E-02  0.1226707E+00
        -11   -1    0    0    0    0  0.00000000000E+00  0.00000000000E+00  0.45593999997E+02  0.45594000000E+02  0.51100000000E-03 0.  1.
         11   -1    0    0    0    0 -0.00000000000E+00 -0.00000000000E+00 -0.45593999997E+02  0.45594000000E+02  0.51100000000E-03 0. -1.
    9900012    2    1    2    0    0 -0.13792611855E+02  0.12656351332E+02 -0.49182387116E+00  0.72462048448E+02  0.70000622881E+02 0.  0.
         12    1    1    2    0    0  0.13792611855E+02 -0.12656351332E+02  0.49182387116E+00  0.18725951552E+02  0.00000000000E+00 0. -1.
         11    1    3    3    0    0  0.18360511239E+02 -0.59113174092E+01 -0.12965678501E+01  0.19332178742E+02  0.51100000000E-03 0. -1.
        -11    1    3    3    0    0 -0.33989608775E+00 -0.10205368216E+02  0.69831070303E+00  0.10234877033E+02  0.51100000000E-03 0.  1.
        -12    1    3    3    0    0 -0.31813227006E+02  0.28773036958E+02  0.10643327595E+00  0.42894992672E+02  0.00000000000E+00 0.  1.
</event>
<event>
 7    1  0.3348003E-013  0.7246200E+02  0.7816164E-02  0.1226707E+00
        -11   -1    0    0    0    0  0.00000000000E+00  0.00000000000E+00  0.45593999997E+02  0.45594000000E+02  0.51100000000E-03 0. -1.
         11   -1    0    0    0    0 -0.00000000000E+00 -0.00000000000E+00 -0.45593999997E+02  0.45594000000E+02  0.51100000000E-03 0.  1.
    9900012    2    1    2    0    0  0.12375515146E+02 -0.80983369370E+01 -0.11485931175E+02  0.72462000661E+02  0.70000560631E+02 0.  0.
         12    1    1    2    0    0 -0.12375515146E+02  0.80983369370E+01  0.11485931175E+02  0.18725999339E+02  0.00000000000E+00 0. -1.
         11    1    3    3    0    0  0.16587641891E+02 -0.27795747944E+02  0.51287205043E+01  0.32772812536E+02  0.51100000000E-03 0. -1.
        -11    1    3    3    0    0 -0.96976322084E+01  0.12579829569E+02  0.46942800079E+01  0.16562984257E+02  0.51100000000E-03 0.  1.
        -12    1    3    3    0    0  0.54855054637E+01  0.71175814375E+01 -0.21308931687E+02  0.23126203868E+02  0.00000000000E+00 0.  1.
</event>
<event>
 7    1  0.3348003E-013  0.7246161E+02  0.7816164E-02  0.1226708E+00
        -11   -1    0    0    0    0  0.00000000000E+00  0.00000000000E+00  0.45593999997E+02  0.45594000000E+02  0.51100000000E-03 0. -1.
         11   -1    0    0    0    0 -0.00000000000E+00 -0.00000000000E+00 -0.45593999997E+02  0.45594000000E+02  0.51100000000E-03 0.  1.
    9900012    2    1    2    0    0 -0.12071177924E+02  0.10278635075E+02 -0.99656485111E+01  0.72461606174E+02  0.70000046740E+02 0.  0.
         12    1    1    2    0    0  0.12071177924E+02 -0.10278635075E+02  0.99656485111E+01  0.18726393826E+02  0.00000000000E+00 0. -1.
         11    1    3    3    0    0 -0.21132677917E+02  0.74343358798E+01  0.24179873097E+02  0.32962489123E+02  0.51100000000E-03 0. -1.
        -11    1    3    3    0    0  0.75910572116E+01  0.31215145544E+01 -0.36768646941E+01  0.89937387634E+01  0.51100000000E-03 0.  1.
        -12    1    3    3    0    0  0.14704427811E+01 -0.27721535916E+00 -0.30468656914E+02  0.30505378288E+02  0.00000000000E+00 0.  1.
</event>
<event>
 7    1  0.3348003E-013  0.7246156E+02  0.7816164E-02  0.1226708E+00
        -11   -1    0    0    0    0  0.00000000000E+00  0.00000000000E+00  0.45593999997E+02  0.45594000000E+02  0.51100000000E-03 0. -1.
         11   -1    0    0    0    0 -0.00000000000E+00 -0.00000000000E+00 -0.45593999997E+02  0.45594000000E+02  0.51100000000E-03 0.  1.
    9900012    2    1    2    0    0  0.25984160076E-01  0.18567000906E+02 -0.24383210484E+01  0.72461558604E+02  0.69999984772E+02 0.  0.
         12    1    1    2    0    0 -0.25984160076E-01 -0.18567000906E+02  0.24383210484E+01  0.18726441396E+02  0.00000000000E+00 0. -1.
         11    1    3    3    0    0  0.33684803469E+01  0.54454042611E+01  0.24311225736E+02  0.25140301996E+02  0.51100000000E-03 0. -1.
        -11    1    3    3    0    0  0.68859783133E+01 -0.67678097460E+01  0.29926797402E+01  0.10108218358E+02  0.51100000000E-03 0.  1.
        -12    1    3    3    0    0 -0.10228474500E+02  0.19889406391E+02 -0.29742226525E+02  0.37213038250E+02  0.00000000000E+00 0.  1.
</event>
<event>
 7    1  0.3348003E-013  0.7246163E+02  0.7816164E-02  0.1226708E+00
        -11   -1    0    0    0    0  0.00000000000E+00  0.00000000000E+00  0.45593999997E+02  0.45594000000E+02  0.51100000000E-03 0. -1.
         11   -1    0    0    0    0 -0.00000000000E+00 -0.00000000000E+00 -0.45593999997E+02  0.45594000000E+02  0.51100000000E-03 0.  1.
    9900012    2    1    2    0    0  0.11452209332E+02 -0.79084381223E+01 -0.12529190420E+02  0.72461625426E+02  0.70000071819E+02 0.  0.
         12    1    1    2    0    0 -0.11452209332E+02  0.79084381223E+01  0.12529190420E+02  0.18726374574E+02  0.00000000000E+00 0. -1.
         11    1    3    3    0    0  0.18041059153E+02  0.27992282794E+01 -0.10605950398E+02  0.21114016160E+02  0.51100000000E-03 0. -1.
        -11    1    3    3    0    0  0.25616841118E+01  0.19539047277E+02 -0.10786220295E+01  0.19735754856E+02  0.51100000000E-03 0.  1.
         12    1    3    3    0    0 -0.91505339325E+01 -0.30246713679E+02 -0.84461799193E+00  0.31611854409E+02  0.00000000000E+00 0. -1.
</event>
<event>
 7    1  0.3348003E-013  0.7246166E+02  0.7816164E-02  0.1226708E+00
        -11   -1    0    0    0    0  0.00000000000E+00  0.00000000000E+00  0.45593999997E+02  0.45594000000E+02  0.51100000000E-03 0.  1.
         11   -1    0    0    0    0 -0.00000000000E+00 -0.00000000000E+00 -0.45593999997E+02  0.45594000000E+02  0.51100000000E-03 0. -1.
    9900012    2    1    2    0    0 -0.16434133238E+02  0.37212226953E+01  0.81699237329E+01  0.72461657927E+02  0.70000114158E+02 0.  0.
         12    1    1    2    0    0  0.16434133238E+02 -0.37212226953E+01 -0.81699237329E+01  0.18726342073E+02  0.00000000000E+00 0. -1.
         11    1    3    3    0    0  0.11028682571E+02  0.19092124040E+02  0.19783092094E+02  0.29622825198E+02  0.51100000000E-03 0. -1.
        -11    1    3    3    0    0 -0.14024576314E+02 -0.34017512777E+01 -0.18593461589E+02  0.23536725912E+02  0.51100000000E-03 0.  1.
        -12    1    3    3    0    0 -0.13438239495E+02 -0.11969150067E+02  0.69802932276E+01  0.19302106818E+02  0.00000000000E+00 0.  1.
</event>
<event>
 7    1  0.3348003E-013  0.7246157E+02  0.7816164E-02  0.1226708E+00
        -11   -1    0    0    0    0  0.00000000000E+00  0.00000000000E+00  0.45593999997E+02  0.45594000000E+02  0.51100000000E-03 0.  1.
         11   -1    0    0    0    0 -0.00000000000E+00 -0.00000000000E+00 -0.45593999997E+02  0.45594000000E+02  0.51100000000E-03 0. -1.
    9900012    2    1    2    0    0  0.15167413576E+02 -0.85928150469E+01 -0.68404954174E+01  0.72461567276E+02  0.69999996068E+02 0.  0.
         12    1    1    2    0    0 -0.15167413576E+02  0.85928150469E+01  0.68404954174E+01  0.18726432724E+02  0.00000000000E+00 0. -1.
         11    1    3    3    0    0 -0.41799425893E+00 -0.63078648023E+01  0.47012049661E+01  0.78781473685E+01  0.51100000000E-03 0. -1.
        -11    1    3    3    0    0 -0.21642177034E+01 -0.59147441580E+01  0.23934303627E+02  0.24749119724E+02  0.51100000000E-03 0.  1.
         12    1    3    3    0    0  0.17749625538E+02  0.36297939134E+01 -0.35476004011E+02  0.39834300184E+02  0.00000000000E+00 0. -1.
</event>
<event>
 7    1  0.3348003E-013  0.7246152E+02  0.7816164E-02  0.1226708E+00
        -11   -1    0    0    0    0  0.00000000000E+00  0.00000000000E+00  0.45593999997E+02  0.45594000000E+02  0.51100000000E-03 0. -1.
         11   -1    0    0    0    0 -0.00000000000E+00 -0.00000000000E+00 -0.45593999997E+02  0.45594000000E+02  0.51100000000E-03 0.  1.
    9900012    2    1    2    0    0  0.10802452249E+02 -0.15243045759E+02 -0.12796314002E+01  0.72461524754E+02  0.69999940676E+02 0.  0.
         12    1    1    2    0    0 -0.10802452249E+02  0.15243045759E+02  0.12796314002E+01  0.18726475246E+02  0.00000000000E+00 0. -1.
         11    1    3    3    0    0 -0.80178675805E+01 -0.76795031307E+01 -0.11896104143E+02  0.16272008571E+02  0.51100000000E-03 0. -1.
        -11    1    3    3    0    0  0.64827685409E+01  0.15275446292E+02 -0.13012226253E+02  0.21087521896E+02  0.51100000000E-03 0.  1.
         12    1    3    3    0    0  0.12337551289E+02 -0.22838988921E+02  0.23628698996E+02  0.35101994288E+02  0.00000000000E+00 0. -1.
</event>
<event>
 7    1  0.3348003E-013  0.7246150E+02  0.7816164E-02  0.1226708E+00
        -11   -1    0    0    0    0  0.00000000000E+00  0.00000000000E+00  0.45593999997E+02  0.45594000000E+02  0.51100000000E-03 0.  1.
         11   -1    0    0    0    0 -0.00000000000E+00 -0.00000000000E+00 -0.45593999997E+02  0.45594000000E+02  0.51100000000E-03 0. -1.
    9900012    2    1    2    0    0 -0.50759067315E+01  0.75051602627E+00  0.18009818692E+02  0.72461503457E+02  0.69999912932E+02 0.  0.
         12    1    1    2    0    0  0.50759067315E+01 -0.75051602627E+00 -0.18009818692E+02  0.18726496543E+02  0.00000000000E+00 0. -1.
         11    1    3    3    0    0 -0.86391850502E+00 -0.99168292028E+01  0.15113846821E+02  0.18097464535E+02  0.51100000000E-03 0. -1.
        -11    1    3    3    0    0 -0.16037761496E+02 -0.24558622037E+01  0.22651151371E+02  0.27862442672E+02  0.51100000000E-03 0.  1.
         12    1    3    3    0    0  0.11825773269E+02  0.13123207433E+02 -0.19755179500E+02  0.26501596250E+02  0.00000000000E+00 0. -1.
</event>
<event>
 7    1  0.3348003E-013  0.7246152E+02  0.7816164E-02  0.1226708E+00
        -11   -1    0    0    0    0  0.00000000000E+00  0.00000000000E+00  0.45593999997E+02  0.45594000000E+02  0.51100000000E-03 0.  1.
         11   -1    0    0    0    0 -0.00000000000E+00 -0.00000000000E+00 -0.45593999997E+02  0.45594000000E+02  0.51100000000E-03 0. -1.
    9900012    2    1    2    0    0  0.42224404805E+00 -0.31574043172E+01  0.18453552304E+02  0.72461519159E+02  0.69999933386E+02 0.  0.
         12    1    1    2    0    0 -0.42224404805E+00  0.31574043172E+01 -0.18453552304E+02  0.18726480841E+02  0.00000000000E+00 0. -1.
         11    1    3    3    0    0 -0.11171647977E+02  0.16579104997E+02 -0.17508445292E+02  0.26574764304E+02  0.51100000000E-03 0. -1.
        -11    1    3    3    0    0 -0.63007507731E+00 -0.56979196051E+00 -0.16972841181E+01  0.18980071443E+01  0.51100000000E-03 0.  1.
        -12    1    3    3    0    0  0.12223967102E+02 -0.19166717354E+02  0.37659281714E+02  0.43988747710E+02  0.00000000000E+00 0.  1.
</event>
<event>
 7    1  0.3691796E-013  0.7246154E+02  0.7816164E-02  0.1226708E+00
        -11   -1    0    0    0    0  0.00000000000E+00  0.00000000000E+00  0.45593999997E+02  0.45594000000E+02  0.51100000000E-03 0. -1.
         11   -1    0    0    0    0 -0.00000000000E+00 -0.00000000000E+00 -0.45593999997E+02  0.45594000000E+02  0.51100000000E-03 0.  1.
    9900012    2    1    2    0    0  0.10571740186E+02  0.12961706120E+01 -0.15402549385E+02  0.72461540741E+02  0.69999961502E+02 0.  0.
         12    1    1    2    0    0 -0.10571740186E+02 -0.12961706120E+01  0.15402549385E+02  0.18726459259E+02  0.00000000000E+00 0. -1.
         11    1    3    3    0    0 -0.54283347878E+01 -0.99558772956E+01  0.11485441367E+02  0.16140064279E+02  0.51100000000E-03 0. -1.
        -11    1    3    3    0    0  0.12757480726E+02 -0.14206034247E+02 -0.23739662569E+02  0.30465329518E+02  0.51100000000E-03 0.  1.
        -12    1    3    3    0    0  0.32425942481E+01  0.25458082155E+02 -0.31483281828E+01  0.25856146944E+02  0.00000000000E+00 0.  1.
</event>
<event>
 7    1  0.3348003E-013  0.7246160E+02  0.7816164E-02  0.1226708E+00
        -11   -1    0    0    0    0  0.00000000000E+00  0.00000000000E+00  0.45593999997E+02  0.45594000000E+02  0.51100000000E-03 0.  1.
         11   -1    0    0    0    0 -0.00000000000E+00 -0.00000000000E+00 -0.45593999997E+02  0.45594000000E+02  0.51100000000E-03 0. -1.
    9900012    2    1    2    0    0 -0.32183280211E+01  0.89302362644E+01  0.16142223756E+02  0.72461597709E+02  0.70000035712E+02 0.  0.
         12    1    1    2    0    0  0.32183280211E+01 -0.89302362644E+01 -0.16142223756E+02  0.18726402291E+02  0.00000000000E+00 0. -1.
         11    1    3    3    0    0 -0.24427034855E+02 -0.10165476706E+02 -0.98834730380E+01  0.28243583130E+02  0.51100000000E-03 0. -1.
        -11    1    3    3    0    0  0.52578338902E+01 -0.44984794595E+01  0.27862848487E+01  0.74595253323E+01  0.51100000000E-03 0.  1.
        -12    1    3    3    0    0  0.15950872944E+02  0.23594192430E+02  0.23239411945E+02  0.36758489246E+02  0.00000000000E+00 0.  1.
</event>
<event>
 7    1  0.3348003E-013  0.7246154E+02  0.7816164E-02  0.1226708E+00
        -11   -1    0    0    0    0  0.00000000000E+00  0.00000000000E+00  0.45593999997E+02  0.45594000000E+02  0.51100000000E-03 0.  1.
         11   -1    0    0    0    0 -0.00000000000E+00 -0.00000000000E+00 -0.45593999997E+02  0.45594000000E+02  0.51100000000E-03 0. -1.
    9900012    2    1    2    0    0  0.36805333714E+01 -0.16552834054E+02  0.79459103255E+01  0.72461544596E+02  0.69999966523E+02 0.  0.
         12    1    1    2    0    0 -0.36805333714E+01  0.16552834054E+02 -0.79459103255E+01  0.18726455404E+02  0.00000000000E+00 0. -1.
         11    1    3    3    0    0  0.87807092188E-01 -0.82543865668E+01 -0.46209480521E+01  0.94602203378E+01  0.51100000000E-03 0. -1.
        -11    1    3    3    0    0  0.10793902394E+02 -0.21953844132E+02  0.30655594172E+02  0.39220467301E+02  0.51100000000E-03 0.  1.
         12    1    3    3    0    0 -0.72011761145E+01  0.13655396644E+02 -0.18088735794E+02  0.23780856956E+02  0.00000000000E+00 0. -1.
</event>
<event>
 7    1  0.3348003E-013  0.7246160E+02  0.7816164E-02  0.1226708E+00
        -11   -1    0    0    0    0  0.00000000000E+00  0.00000000000E+00  0.45593999997E+02  0.45594000000E+02  0.51100000000E-03 0. -1.
         11   -1    0    0    0    0 -0.00000000000E+00 -0.00000000000E+00 -0.45593999997E+02  0.45594000000E+02  0.51100000000E-03 0.  1.
    9900012    2    1    2    0    0  0.82355804717E+01 -0.10990625712E+02 -0.12730254987E+02  0.72461600686E+02  0.70000039591E+02 0.  0.
         12    1    1    2    0    0 -0.82355804717E+01  0.10990625712E+02  0.12730254987E+02  0.18726399314E+02  0.00000000000E+00 0. -1.
         11    1    3    3    0    0 -0.54221483306E+01  0.31924984318E+01  0.53034134748E+01  0.82290906850E+01  0.51100000000E-03 0. -1.
        -11    1    3    3    0    0 -0.18772724413E+02 -0.73049781908E+00  0.81054000700E+01  0.20460848455E+02  0.51100000000E-03 0.  1.
        -12    1    3    3    0    0  0.32430453215E+02 -0.13452626324E+02 -0.26139068532E+02  0.43771661546E+02  0.00000000000E+00 0.  1.
</event>
<event>
 7    1  0.3348003E-013  0.7246157E+02  0.7816164E-02  0.1226708E+00
        -11   -1    0    0    0    0  0.00000000000E+00  0.00000000000E+00  0.45593999997E+02  0.45594000000E+02  0.51100000000E-03 0. -1.
         11   -1    0    0    0    0 -0.00000000000E+00 -0.00000000000E+00 -0.45593999997E+02  0.45594000000E+02  0.51100000000E-03 0.  1.
    9900012    2    1    2    0    0  0.18024028332E+02  0.20818832936E+01 -0.46345677898E+01  0.72461573380E+02  0.70000004020E+02 0.  0.
         12    1    1    2    0    0 -0.18024028332E+02 -0.20818832936E+01  0.46345677898E+01  0.18726426620E+02  0.00000000000E+00 0. -1.
         11    1    3    3    0    0  0.21700718292E+02  0.32642553877E+02 -0.31514349643E+01  0.39324153400E+02  0.51100000000E-03 0. -1.
        -11    1    3    3    0    0 -0.35687880541E+01 -0.36979033568E+01  0.29279260397E+01  0.59146841476E+01  0.51100000000E-03 0.  1.
        -12    1    3    3    0    0 -0.10790190657E+00 -0.26862767227E+02 -0.44110588652E+01  0.27222735833E+02  0.00000000000E+00 0.  1.
</event>
<event>
 7    1  0.3348003E-013  0.7246156E+02  0.7816164E-02  0.1226708E+00
        -11   -1    0    0    0    0  0.00000000000E+00  0.00000000000E+00  0.45593999997E+02  0.45594000000E+02  0.51100000000E-03 0.  1.
         11   -1    0    0    0    0 -0.00000000000E+00 -0.00000000000E+00 -0.45593999997E+02  0.45594000000E+02  0.51100000000E-03 0. -1.
    9900012    2    1    2    0    0  0.17178430844E+02 -0.74316904395E+01  0.59237139147E+00  0.72461563796E+02  0.69999991535E+02 0.  0.
         12    1    1    2    0    0 -0.17178430844E+02  0.74316904395E+01 -0.59237139147E+00  0.18726436204E+02  0.00000000000E+00 0. -1.
         11    1    3    3    0    0 -0.96607551887E+01 -0.80544746381E+01  0.50242224298E+01  0.13544281590E+02  0.51100000000E-03 0. -1.
        -11    1    3    3    0    0 -0.15317200510E+00  0.10390966482E+02  0.19136417995E+02  0.21776091019E+02  0.51100000000E-03 0.  1.
         12    1    3    3    0    0  0.26992358037E+02 -0.97681822837E+01 -0.23568269034E+02  0.37141191187E+02  0.00000000000E+00 0. -1.
</event>
<event>
 7    1  0.3348003E-013  0.7246157E+02  0.7816164E-02  0.1226708E+00
        -11   -1    0    0    0    0  0.00000000000E+00  0.00000000000E+00  0.45593999997E+02  0.45594000000E+02  0.51100000000E-03 0.  1.
         11   -1    0    0    0    0 -0.00000000000E+00 -0.00000000000E+00 -0.45593999997E+02  0.45594000000E+02  0.51100000000E-03 0. -1.
    9900012    2    1    2    0    0  0.34746670828E+01 -0.16575028768E+02  0.79921327649E+01  0.72461572788E+02  0.70000003249E+02 0.  0.
         12    1    1    2    0    0 -0.34746670828E+01  0.16575028768E+02 -0.79921327649E+01  0.18726427212E+02  0.00000000000E+00 0. -1.
         11    1    3    3    0    0  0.22697533183E+02  0.16230771106E+02  0.51770422890E+00  0.27908492636E+02  0.51100000000E-03 0. -1.
        -11    1    3    3    0    0 -0.28977880321E+01  0.24593016015E+01 -0.23518681256E+01  0.44695216509E+01  0.51100000000E-03 0.  1.
        -12    1    3    3    0    0 -0.16325078069E+02 -0.35265101475E+02  0.98262966616E+01  0.40083558501E+02  0.00000000000E+00 0.  1.
</event>
<event>
 7    1  0.3348003E-013  0.7246159E+02  0.7816164E-02  0.1226708E+00
        -11   -1    0    0    0    0  0.00000000000E+00  0.00000000000E+00  0.45593999997E+02  0.45594000000E+02  0.51100000000E-03 0. -1.
         11   -1    0    0    0    0 -0.00000000000E+00 -0.00000000000E+00 -0.45593999997E+02  0.45594000000E+02  0.51100000000E-03 0.  1.
    9900012    2    1    2    0    0  0.16116468074E+01 -0.12571651078E+02 -0.13785309861E+02  0.72461585922E+02  0.70000020358E+02 0.  0.
         12    1    1    2    0    0 -0.16116468074E+01  0.12571651078E+02  0.13785309861E+02  0.18726414078E+02  0.00000000000E+00 0. -1.
         11    1    3    3    0    0 -0.14851645907E+02 -0.79521230806E+01 -0.49403534299E+01  0.17556045679E+02  0.51100000000E-03 0. -1.
        -11    1    3    3    0    0  0.47965181032E+01 -0.24031342164E+02  0.89648769537E+01  0.26093696771E+02  0.51100000000E-03 0.  1.
        -12    1    3    3    0    0  0.11666774611E+02  0.19411814166E+02 -0.17809833385E+02  0.28811843472E+02  0.00000000000E+00 0.  1.
</event>
<event>
 7    1  0.3348003E-013  0.7246166E+02  0.7816164E-02  0.1226708E+00
        -11   -1    0    0    0    0  0.00000000000E+00  0.00000000000E+00  0.45593999997E+02  0.45594000000E+02  0.51100000000E-03 0. -1.
         11   -1    0    0    0    0 -0.00000000000E+00 -0.00000000000E+00 -0.45593999997E+02  0.45594000000E+02  0.51100000000E-03 0.  1.
    9900012    2    1    2    0    0 -0.35622160884E+01  0.17002574638E+02 -0.69927751773E+01  0.72461659395E+02  0.70000116070E+02 0.  0.
         12    1    1    2    0    0  0.35622160884E+01 -0.17002574638E+02  0.69927751773E+01  0.18726340605E+02  0.00000000000E+00 0. -1.
         11    1    3    3    0    0 -0.38191729408E+00 -0.68201577853E+01  0.12875254356E+02  0.14575067342E+02  0.51100000000E-03 0. -1.
        -11    1    3    3    0    0  0.15481285636E+02 -0.46804959561E+01 -0.17358506789E+02  0.23725408438E+02  0.51100000000E-03 0.  1.
         12    1    3    3    0    0 -0.18661584431E+02  0.28503228380E+02 -0.25095227436E+01  0.34161183614E+02  0.00000000000E+00 0. -1.
</event>
<event>
 7    1  0.3348003E-013  0.7246159E+02  0.7816164E-02  0.1226708E+00
        -11   -1    0    0    0    0  0.00000000000E+00  0.00000000000E+00  0.45593999997E+02  0.45594000000E+02  0.51100000000E-03 0.  1.
         11   -1    0    0    0    0 -0.00000000000E+00 -0.00000000000E+00 -0.45593999997E+02  0.45594000000E+02  0.51100000000E-03 0. -1.
    9900012    2    1    2    0    0  0.10100740662E+02 -0.14694227440E+02  0.57212967005E+01  0.72461587692E+02  0.70000022664E+02 0.  0.
         12    1    1    2    0    0 -0.10100740662E+02  0.14694227440E+02 -0.57212967005E+01  0.18726412308E+02  0.00000000000E+00 0. -1.
         11    1    3    3    0    0  0.17535138059E+02 -0.25131577054E+02 -0.13988877710E+01  0.30676279423E+02  0.51100000000E-03 0. -1.
        -11    1    3    3    0    0  0.96900137280E+01 -0.74743553645E+01  0.11297440702E+02  0.16655164990E+02  0.51100000000E-03 0.  1.
         12    1    3    3    0    0 -0.17124411125E+02  0.17911704978E+02 -0.41772562303E+01  0.25130143279E+02  0.00000000000E+00 0. -1.
</event>
<event>
 7    1  0.3348003E-013  0.7246151E+02  0.7816164E-02  0.1226708E+00
        -11   -1    0    0    0    0  0.00000000000E+00  0.00000000000E+00  0.45593999997E+02  0.45594000000E+02  0.51100000000E-03 0. -1.
         11   -1    0    0    0    0 -0.00000000000E+00 -0.00000000000E+00 -0.45593999997E+02  0.45594000000E+02  0.51100000000E-03 0.  1.
    9900012    2    1    2    0    0  0.12410450848E+02  0.44053490949E+01  0.13313717980E+02  0.72461508675E+02  0.69999919729E+02 0.  0.
         12    1    1    2    0    0 -0.12410450848E+02 -0.44053490949E+01 -0.13313717980E+02  0.18726491325E+02  0.00000000000E+00 0. -1.
         11    1    3    3    0    0  0.14811226379E+02  0.22734956975E+01  0.64319335318E+01  0.16306777081E+02  0.51100000000E-03 0. -1.
        -11    1    3    3    0    0 -0.15215464696E+01  0.28901366621E+02  0.31584836336E+01  0.29113229215E+02  0.51100000000E-03 0.  1.
         12    1    3    3    0    0 -0.87922906187E+00 -0.26769513223E+02  0.37233008148E+01  0.27041502379E+02  0.00000000000E+00 0. -1.
</event>
<event>
 7    1  0.3348003E-013  0.7246156E+02  0.7816164E-02  0.1226708E+00
        -11   -1    0    0    0    0  0.00000000000E+00  0.00000000000E+00  0.45593999997E+02  0.45594000000E+02  0.51100000000E-03 0.  1.
         11   -1    0    0    0    0 -0.00000000000E+00 -0.00000000000E+00 -0.45593999997E+02  0.45594000000E+02  0.51100000000E-03 0. -1.
    9900012    2    1    2    0    0  0.65322656932E+01  0.15524179746E+02 -0.81858891604E+01  0.72461563254E+02  0.69999990828E+02 0.  0.
         12    1    1    2    0    0 -0.65322656932E+01 -0.15524179746E+02  0.81858891604E+01  0.18726436746E+02  0.00000000000E+00 0. -1.
         11    1    3    3    0    0  0.37525473318E+01  0.18495839167E+02 -0.20530105444E+01  0.18984007230E+02  0.51100000000E-03 0. -1.
        -11    1    3    3    0    0  0.62361410928E+01  0.24066140398E+02  0.22427349021E+01  0.24961939618E+02  0.51100000000E-03 0.  1.
         12    1    3    3    0    0 -0.34564227314E+01 -0.27037799819E+02 -0.83756135181E+01  0.28515616405E+02  0.00000000000E+00 0. -1.
</event>
<event>
 7    1  0.3348003E-013  0.7246166E+02  0.7816164E-02  0.1226708E+00
        -11   -1    0    0    0    0  0.00000000000E+00  0.00000000000E+00  0.45593999997E+02  0.45594000000E+02  0.51100000000E-03 0.  1.
         11   -1    0    0    0    0 -0.00000000000E+00 -0.00000000000E+00 -0.45593999997E+02  0.45594000000E+02  0.51100000000E-03 0. -1.
    9900012    2    1    2    0    0 -0.17764789331E+02  0.56057860241E+01  0.19140057447E+01  0.72461655057E+02  0.70000110420E+02 0.  0.
         12    1    1    2    0    0  0.17764789331E+02 -0.56057860241E+01 -0.19140057447E+01  0.18726344943E+02  0.00000000000E+00 0. -1.
         11    1    3    3    0    0  0.12867084602E+02 -0.16983123058E+02  0.10796569968E+02  0.23886277615E+02  0.51100000000E-03 0. -1.
        -11    1    3    3    0    0 -0.64183306324E+01  0.16187436149E+01  0.95491596373E+01  0.11619025305E+02  0.51100000000E-03 0.  1.
         12    1    3    3    0    0 -0.24213543300E+02  0.20970165467E+02 -0.18431723860E+02  0.36956352138E+02  0.00000000000E+00 0. -1.
</event>
<event>
 7    1  0.3348003E-013  0.7246173E+02  0.7816164E-02  0.1226708E+00
        -11   -1    0    0    0    0  0.00000000000E+00  0.00000000000E+00  0.45593999997E+02  0.45594000000E+02  0.51100000000E-03 0.  1.
         11   -1    0    0    0    0 -0.00000000000E+00 -0.00000000000E+00 -0.45593999997E+02  0.45594000000E+02  0.51100000000E-03 0. -1.
    9900012    2    1    2    0    0 -0.76327255943E+01 -0.12423274018E+02  0.11750619330E+02  0.72461727228E+02  0.70000204435E+02 0.  0.
         12    1    1    2    0    0  0.76327255943E+01  0.12423274018E+02 -0.11750619330E+02  0.18726272772E+02  0.00000000000E+00 0. -1.
         11    1    3    3    0    0 -0.93945670558E+01 -0.19869262956E+01 -0.72796714639E+01  0.12049870670E+02  0.51100000000E-03 0. -1.
        -11    1    3    3    0    0 -0.19716526209E+02 -0.14540762037E+02  0.27618997227E+02  0.36918615554E+02  0.51100000000E-03 0.  1.
        -12    1    3    3    0    0  0.21478367670E+02  0.41044143150E+01 -0.85887064337E+01  0.23493241004E+02  0.00000000000E+00 0.  1.
</event>
<event>
 7    1  0.3348003E-013  0.7246157E+02  0.7816164E-02  0.1226708E+00
        -11   -1    0    0    0    0  0.00000000000E+00  0.00000000000E+00  0.45593999997E+02  0.45594000000E+02  0.51100000000E-03 0.  1.
         11   -1    0    0    0    0 -0.00000000000E+00 -0.00000000000E+00 -0.45593999997E+02  0.45594000000E+02  0.51100000000E-03 0. -1.
    9900012    2    1    2    0    0  0.67297572541E+00  0.27023420706E+01  0.18518201206E+02  0.72461566146E+02  0.69999994596E+02 0.  0.
         12    1    1    2    0    0 -0.67297572541E+00 -0.27023420706E+01 -0.18518201206E+02  0.18726433854E+02  0.00000000000E+00 0. -1.
         11    1    3    3    0    0 -0.16660827994E+02  0.10185512366E+02  0.44364476167E+01  0.20025232066E+02  0.51100000000E-03 0. -1.
        -11    1    3    3    0    0 -0.93173381076E+01  0.13483726809E+02  0.23671951124E+01  0.16559809511E+02  0.51100000000E-03 0.  1.
        -12    1    3    3    0    0  0.26651141827E+02 -0.20966897104E+02  0.11714558477E+02  0.35876524569E+02  0.00000000000E+00 0.  1.
</event>
<event>
 7    1  0.3348003E-013  0.7246167E+02  0.7816164E-02  0.1226708E+00
        -11   -1    0    0    0    0  0.00000000000E+00  0.00000000000E+00  0.45593999997E+02  0.45594000000E+02  0.51100000000E-03 0.  1.
         11   -1    0    0    0    0 -0.00000000000E+00 -0.00000000000E+00 -0.45593999997E+02  0.45594000000E+02  0.51100000000E-03 0. -1.
    9900012    2    1    2    0    0 -0.13897585606E+02 -0.68696016813E+01  0.10504340985E+02  0.72461668473E+02  0.70000127896E+02 0.  0.
         12    1    1    2    0    0  0.13897585606E+02  0.68696016813E+01 -0.10504340985E+02  0.18726331527E+02  0.00000000000E+00 0. -1.
         11    1    3    3    0    0  0.69396378358E+01 -0.27788696888E+01 -0.17773037219E+02  0.19281118803E+02  0.51100000000E-03 0. -1.
        -11    1    3    3    0    0  0.47907341750E+01 -0.18450634175E+01 -0.75154530766E+01  0.91015069168E+01  0.51100000000E-03 0.  1.
        -12    1    3    3    0    0 -0.25627957616E+02 -0.22456685750E+01  0.35792831281E+02  0.44079042753E+02  0.00000000000E+00 0.  1.
</event>
<event>
 7    1  0.3348003E-013  0.7246163E+02  0.7816164E-02  0.1226708E+00
        -11   -1    0    0    0    0  0.00000000000E+00  0.00000000000E+00  0.45593999997E+02  0.45594000000E+02  0.51100000000E-03 0. -1.
         11   -1    0    0    0    0 -0.00000000000E+00 -0.00000000000E+00 -0.45593999997E+02  0.45594000000E+02  0.51100000000E-03 0.  1.
    9900012    2    1    2    0    0  0.16189757949E+02 -0.83777646938E+01  0.42873825429E+01  0.72461632152E+02  0.70000080580E+02 0.  0.
         12    1    1    2    0    0 -0.16189757949E+02  0.83777646938E+01 -0.42873825429E+01  0.18726367848E+02  0.00000000000E+00 0. -1.
         11    1    3    3    0    0 -0.16205475900E+02 -0.17407613647E+02 -0.60442162880E+01  0.24539254529E+02  0.51100000000E-03 0. -1.
        -11    1    3    3    0    0 -0.18088996776E+01  0.44067082543E+01 -0.76440595089E+01  0.90068219544E+01  0.51100000000E-03 0.  1.
         12    1    3    3    0    0  0.34204133527E+02  0.46231406989E+01  0.17975658340E+02  0.38915555669E+02  0.00000000000E+00 0. -1.
</event>
<event>
 7    1  0.3348003E-013  0.7246156E+02  0.7816164E-02  0.1226708E+00
        -11   -1    0    0    0    0  0.00000000000E+00  0.00000000000E+00  0.45593999997E+02  0.45594000000E+02  0.51100000000E-03 0.  1.
         11   -1    0    0    0    0 -0.00000000000E+00 -0.00000000000E+00 -0.45593999997E+02  0.45594000000E+02  0.51100000000E-03 0. -1.
    9900012    2    1    2    0    0  0.45362839553E+01  0.89101771814E+01  0.15833834069E+02  0.72461563317E+02  0.69999990910E+02 0.  0.
         12    1    1    2    0    0 -0.45362839553E+01 -0.89101771814E+01 -0.15833834069E+02  0.18726436683E+02  0.00000000000E+00 0. -1.
         11    1    3    3    0    0  0.24247153521E+01  0.77451227585E+01 -0.15911478141E+02  0.17861727463E+02  0.51100000000E-03 0. -1.
        -11    1    3    3    0    0 -0.12261564204E+02  0.34751049832E+00 -0.63946856298E+01  0.13833247083E+02  0.51100000000E-03 0.  1.
        -12    1    3    3    0    0  0.14373132808E+02  0.81754392456E+00  0.38139997840E+02  0.40766588771E+02  0.00000000000E+00 0.  1.
</event>
<event>
 7    1  0.3348003E-013  0.7246156E+02  0.7816164E-02  0.1226708E+00
        -11   -1    0    0    0    0  0.00000000000E+00  0.00000000000E+00  0.45593999997E+02  0.45594000000E+02  0.51100000000E-03 0.  1.
         11   -1    0    0    0    0 -0.00000000000E+00 -0.00000000000E+00 -0.45593999997E+02  0.45594000000E+02  0.51100000000E-03 0. -1.
    9900012    2    1    2    0    0 -0.40518735231E+01 -0.96792938229E+01  0.15510422569E+02  0.72461558367E+02  0.69999984462E+02 0.  0.
         12    1    1    2    0    0  0.40518735231E+01  0.96792938229E+01 -0.15510422569E+02  0.18726441633E+02  0.00000000000E+00 0. -1.
         11    1    3    3    0    0 -0.29448056580E+01  0.69685584529E+01  0.98388685128E+01  0.12411124895E+02  0.51100000000E-03 0. -1.
        -11    1    3    3    0    0  0.52666520255E+01  0.14695443026E+02  0.19690846404E+02  0.25128133669E+02  0.51100000000E-03 0.  1.
         12    1    3    3    0    0 -0.63737198906E+01 -0.31343295302E+02 -0.14019292348E+02  0.34922299804E+02  0.00000000000E+00 0. -1.
</event>
<event>
 7    1  0.3348003E-013  0.7246159E+02  0.7816164E-02  0.1226708E+00
        -11   -1    0    0    0    0  0.00000000000E+00  0.00000000000E+00  0.45593999997E+02  0.45594000000E+02  0.51100000000E-03 0. -1.
         11   -1    0    0    0    0 -0.00000000000E+00 -0.00000000000E+00 -0.45593999997E+02  0.45594000000E+02  0.51100000000E-03 0.  1.
    9900012    2    1    2    0    0  0.46121649871E+01 -0.87174018908E+01 -0.15918964288E+02  0.72461585885E+02  0.70000020310E+02 0.  0.
         12    1    1    2    0    0 -0.46121649871E+01  0.87174018908E+01  0.15918964288E+02  0.18726414115E+02  0.00000000000E+00 0. -1.
         11    1    3    3    0    0 -0.12102379346E+02  0.36414499525E+00  0.40084440036E+01  0.12754129174E+02  0.51100000000E-03 0. -1.
        -11    1    3    3    0    0 -0.73539642522E+01  0.17250650046E+01 -0.30398001336E+02  0.31322438044E+02  0.51100000000E-03 0.  1.
         12    1    3    3    0    0  0.24068508585E+02 -0.10806611891E+02  0.10470593045E+02  0.28385018668E+02  0.00000000000E+00 0. -1.
</event>
<event>
 7    1  0.3348003E-013  0.7246158E+02  0.7816164E-02  0.1226708E+00
        -11   -1    0    0    0    0  0.00000000000E+00  0.00000000000E+00  0.45593999997E+02  0.45594000000E+02  0.51100000000E-03 0. -1.
         11   -1    0    0    0    0 -0.00000000000E+00 -0.00000000000E+00 -0.45593999997E+02  0.45594000000E+02  0.51100000000E-03 0.  1.
    9900012    2    1    2    0    0 -0.14050227857E+02 -0.14991802840E+00  0.12379314426E+02  0.72461580056E+02  0.70000012716E+02 0.  0.
         12    1    1    2    0    0  0.14050227857E+02  0.14991802840E+00 -0.12379314426E+02  0.18726419944E+02  0.00000000000E+00 0. -1.
         11    1    3    3    0    0 -0.29186775802E+01 -0.13887411480E+02 -0.95516036738E+01  0.17105905689E+02  0.51100000000E-03 0. -1.
        -11    1    3    3    0    0 -0.16985578844E+02  0.82101943727E+01 -0.10739125699E+02  0.21708201246E+02  0.51100000000E-03 0.  1.
         12    1    3    3    0    0  0.58540285667E+01  0.55272990791E+01  0.32670043799E+02  0.33647473121E+02  0.00000000000E+00 0. -1.
</event>
<event>
 7    1  0.3348003E-013  0.7246149E+02  0.7816164E-02  0.1226708E+00
        -11   -1    0    0    0    0  0.00000000000E+00  0.00000000000E+00  0.45593999997E+02  0.45594000000E+02  0.51100000000E-03 0. -1.
         11   -1    0    0    0    0 -0.00000000000E+00 -0.00000000000E+00 -0.45593999997E+02  0.45594000000E+02  0.51100000000E-03 0.  1.
    9900012    2    1    2    0    0  0.14831680028E+02 -0.11402172456E+02 -0.83294329023E+00  0.72461493019E+02  0.69999899335E+02 0.  0.
         12    1    1    2    0    0 -0.14831680028E+02  0.11402172456E+02  0.83294329023E+00  0.18726506981E+02  0.00000000000E+00 0. -1.
         11    1    3    3    0    0 -0.59463336295E-01  0.14113873679E+02  0.20943931979E+01  0.14268547552E+02  0.51100000000E-03 0. -1.
        -11    1    3    3    0    0 -0.15531776372E+02 -0.78203312984E+01 -0.12854319433E+02  0.21624689298E+02  0.51100000000E-03 0.  1.
         12    1    3    3    0    0  0.30422919736E+02 -0.17695714837E+02  0.99269829446E+01  0.36568256169E+02  0.00000000000E+00 0. -1.
</event>
<event>
 7    1  0.3348003E-013  0.7246127E+02  0.7816164E-02  0.1226709E+00
        -11   -1    0    0    0    0  0.00000000000E+00  0.00000000000E+00  0.45593999997E+02  0.45594000000E+02  0.51100000000E-03 0.  1.
         11   -1    0    0    0    0 -0.00000000000E+00 -0.00000000000E+00 -0.45593999997E+02  0.45594000000E+02  0.51100000000E-03 0. -1.
    9900012    2    1    2    0    0 -0.18453888980E+02  0.99216136144E+00 -0.30265266821E+01  0.72461274007E+02  0.69999614030E+02 0.  0.
         12    1    1    2    0    0  0.18453888980E+02 -0.99216136144E+00  0.30265266821E+01  0.18726725993E+02  0.00000000000E+00 0. -1.
         11    1    3    3    0    0 -0.54198627306E+01  0.23142095476E+01 -0.10013195482E+02  0.11618716016E+02  0.51100000000E-03 0. -1.
        -11    1    3    3    0    0 -0.21866256701E+02 -0.19238296917E+02  0.21458473303E+02  0.36176115424E+02  0.51100000000E-03 0.  1.
         12    1    3    3    0    0  0.88322304511E+01  0.17916248731E+02 -0.14471804504E+02  0.24666442567E+02  0.00000000000E+00 0. -1.
</event>
<event>
 7    1  0.3348003E-013  0.7246158E+02  0.7816164E-02  0.1226708E+00
        -11   -1    0    0    0    0  0.00000000000E+00  0.00000000000E+00  0.45593999997E+02  0.45594000000E+02  0.51100000000E-03 0.  1.
         11   -1    0    0    0    0 -0.00000000000E+00 -0.00000000000E+00 -0.45593999997E+02  0.45594000000E+02  0.51100000000E-03 0. -1.
    9900012    2    1    2    0    0 -0.76327855350E+01 -0.15672966385E+02  0.68394182102E+01  0.72461576642E+02  0.70000008269E+02 0.  0.
         12    1    1    2    0    0  0.76327855350E+01  0.15672966385E+02 -0.68394182102E+01  0.18726423358E+02  0.00000000000E+00 0. -1.
         11    1    3    3    0    0  0.20633491855E+02  0.10806456636E+01  0.14984503494E+02  0.25523403503E+02  0.51100000000E-03 0.  1.
        -11    1    3    3    0    0 -0.24408911857E+01 -0.10429687979E+02 -0.15963408974E+02  0.19224119419E+02  0.51100000000E-03 0. -1.
        -12    1    3    3    0    0 -0.25825386204E+02 -0.63239240700E+01  0.78183236899E+01  0.27714053719E+02  0.00000000000E+00 0.  1.
</event>
<event>
 7    1  0.3348003E-013  0.7246158E+02  0.7816164E-02  0.1226708E+00
        -11   -1    0    0    0    0  0.00000000000E+00  0.00000000000E+00  0.45593999997E+02  0.45594000000E+02  0.51100000000E-03 0.  1.
         11   -1    0    0    0    0 -0.00000000000E+00 -0.00000000000E+00 -0.45593999997E+02  0.45594000000E+02  0.51100000000E-03 0. -1.
    9900012    2    1    2    0    0  0.88326132168E+01  0.12630949214E+02  0.10635925314E+02  0.72461579051E+02  0.70000011407E+02 0.  0.
         12    1    1    2    0    0 -0.88326132168E+01 -0.12630949214E+02 -0.10635925314E+02  0.18726420949E+02  0.00000000000E+00 0. -1.
         11    1    3    3    0    0 -0.15231383194E+02  0.42913887316E+01  0.45084473937E+01  0.16454092178E+02  0.51100000000E-03 0. -1.
        -11    1    3    3    0    0  0.96647363552E+01  0.28689347859E+02  0.69652747182E+01  0.31064463001E+02  0.51100000000E-03 0.  1.
        -12    1    3    3    0    0  0.14399260055E+02 -0.20349787376E+02 -0.83779679788E+00  0.24943023872E+02  0.00000000000E+00 0.  1.
</event>
<event>
 7    1  0.3348003E-013  0.7246158E+02  0.7816164E-02  0.1226708E+00
        -11   -1    0    0    0    0  0.00000000000E+00  0.00000000000E+00  0.45593999997E+02  0.45594000000E+02  0.51100000000E-03 0.  1.
         11   -1    0    0    0    0 -0.00000000000E+00 -0.00000000000E+00 -0.45593999997E+02  0.45594000000E+02  0.51100000000E-03 0. -1.
    9900012    2    1    2    0    0  0.60714431366E+01  0.79061228905E+01  0.15852745612E+02  0.72461581646E+02  0.70000014788E+02 0.  0.
         12    1    1    2    0    0 -0.60714431366E+01 -0.79061228905E+01 -0.15852745612E+02  0.18726418354E+02  0.00000000000E+00 0. -1.
         11    1    3    3    0    0  0.46999254806E+01  0.60839217334E+01  0.40514317810E-01  0.76879805445E+01  0.51100000000E-03 0. -1.
        -11    1    3    3    0    0  0.34339213754E+01 -0.26783464286E+02  0.22701863108E+02  0.35277760190E+02  0.51100000000E-03 0.  1.
         12    1    3    3    0    0 -0.20624037194E+01  0.28605665443E+02 -0.68896318141E+01  0.29495840912E+02  0.00000000000E+00 0. -1.
</event>
<event>
 7    1  0.3348003E-013  0.7246156E+02  0.7816164E-02  0.1226708E+00
        -11   -1    0    0    0    0  0.00000000000E+00  0.00000000000E+00  0.45593999997E+02  0.45594000000E+02  0.51100000000E-03 0. -1.
         11   -1    0    0    0    0 -0.00000000000E+00 -0.00000000000E+00 -0.45593999997E+02  0.45594000000E+02  0.51100000000E-03 0.  1.
    9900012    2    1    2    0    0  0.51227250339E+01  0.36764083507E+01 -0.17632959827E+02  0.72461559805E+02  0.69999986335E+02 0.  0.
         12    1    1    2    0    0 -0.51227250339E+01 -0.36764083507E+01  0.17632959827E+02  0.18726440195E+02  0.00000000000E+00 0. -1.
         11    1    3    3    0    0 -0.78156625183E+00 -0.11043581149E+02 -0.44139366995E+01  0.11918656293E+02  0.51100000000E-03 0. -1.
        -11    1    3    3    0    0 -0.95353223154E+01 -0.17698406960E+02 -0.14215354488E+02  0.24621784746E+02  0.51100000000E-03 0.  1.
         12    1    3    3    0    0  0.15439613601E+02  0.32418396460E+02  0.99633136042E+00  0.35921118765E+02  0.00000000000E+00 0. -1.
</event>
<event>
 7    1  0.3348003E-013  0.7246158E+02  0.7816164E-02  0.1226708E+00
        -11   -1    0    0    0    0  0.00000000000E+00  0.00000000000E+00  0.45593999997E+02  0.45594000000E+02  0.51100000000E-03 0.  1.
         11   -1    0    0    0    0 -0.00000000000E+00 -0.00000000000E+00 -0.45593999997E+02  0.45594000000E+02  0.51100000000E-03 0. -1.
    9900012    2    1    2    0    0 -0.18794547449E+01 -0.15910127664E+01  0.18563814296E+02  0.72461578212E+02  0.70000010314E+02 0.  0.
         12    1    1    2    0    0  0.18794547449E+01  0.15910127664E+01 -0.18563814296E+02  0.18726421788E+02  0.00000000000E+00 0. -1.
         11    1    3    3    0    0  0.67562536722E+01 -0.29247862670E+01  0.14385678621E+01  0.75013876147E+01  0.51100000000E-03 0. -1.
        -11    1    3    3    0    0  0.25466639447E+02  0.15843238547E+01 -0.24582871215E+01  0.25634020025E+02  0.51100000000E-03 0.  1.
         12    1    3    3    0    0 -0.34102347864E+02 -0.25055035408E+00  0.19583533556E+02  0.39326170572E+02  0.00000000000E+00 0. -1.
</event>
<event>
 7    1  0.3348003E-013  0.7246155E+02  0.7816164E-02  0.1226708E+00
        -11   -1    0    0    0    0  0.00000000000E+00  0.00000000000E+00  0.45593999997E+02  0.45594000000E+02  0.51100000000E-03 0.  1.
         11   -1    0    0    0    0 -0.00000000000E+00 -0.00000000000E+00 -0.45593999997E+02  0.45594000000E+02  0.51100000000E-03 0. -1.
    9900012    2    1    2    0    0 -0.74983335955E+01  0.17140566676E+02  0.80989374990E+00  0.72461549173E+02  0.69999972486E+02 0.  0.
         12    1    1    2    0    0  0.74983335955E+01 -0.17140566676E+02 -0.80989374990E+00  0.18726450827E+02  0.00000000000E+00 0. -1.
         11    1    3    3    0    0 -0.99015053496E+01 -0.86571306559E+01  0.40497895843E+00  0.13158636996E+02  0.51100000000E-03 0. -1.
        -11    1    3    3    0    0  0.17476834332E+01  0.27860533960E+02  0.23265960274E+02  0.36339629300E+02  0.51100000000E-03 0.  1.
         12    1    3    3    0    0  0.65548832081E+00 -0.20628366284E+01 -0.22861045483E+02  0.22963282876E+02  0.00000000000E+00 0. -1.
</event>
<event>
 7    1  0.3348003E-013  0.7246158E+02  0.7816164E-02  0.1226708E+00
        -11   -1    0    0    0    0  0.00000000000E+00  0.00000000000E+00  0.45593999997E+02  0.45594000000E+02  0.51100000000E-03 0. -1.
         11   -1    0    0    0    0 -0.00000000000E+00 -0.00000000000E+00 -0.45593999997E+02  0.45594000000E+02  0.51100000000E-03 0.  1.
    9900012    2    1    2    0    0  0.56586360647E+01 -0.17117527420E+02  0.50644598901E+01  0.72461583870E+02  0.70000017685E+02 0.  0.
         12    1    1    2    0    0 -0.56586360647E+01  0.17117527420E+02 -0.50644598901E+01  0.18726416130E+02  0.00000000000E+00 0. -1.
         11    1    3    3    0    0 -0.24397818986E+01  0.67224075643E+01 -0.32187692098E+01  0.78424342305E+01  0.51100000000E-03 0. -1.
        -11    1    3    3    0    0  0.32054458973E+02 -0.23946252417E+02  0.70776714313E+01  0.40632558103E+02  0.51100000000E-03 0.  1.
         12    1    3    3    0    0 -0.23956041010E+02  0.10631743250E+00  0.12055576685E+01  0.23986591537E+02  0.00000000000E+00 0. -1.
</event>
<event>
 7    1  0.3348003E-013  0.7246156E+02  0.7816164E-02  0.1226708E+00
        -11   -1    0    0    0    0  0.00000000000E+00  0.00000000000E+00  0.45593999997E+02  0.45594000000E+02  0.51100000000E-03 0. -1.
         11   -1    0    0    0    0 -0.00000000000E+00 -0.00000000000E+00 -0.45593999997E+02  0.45594000000E+02  0.51100000000E-03 0.  1.
    9900012    2    1    2    0    0  0.11119092902E+02 -0.59920818270E+01  0.13825356037E+02  0.72461555032E+02  0.69999980118E+02 0.  0.
         12    1    1    2    0    0 -0.11119092902E+02  0.59920818270E+01 -0.13825356037E+02  0.18726444968E+02  0.00000000000E+00 0. -1.
         11    1    3    3    0    0  0.19690357790E+02  0.62221534518E+01  0.32582218163E+02  0.38574944253E+02  0.51100000000E-03 0. -1.
        -11    1    3    3    0    0  0.73037666344E+01 -0.16733289220E+01 -0.52118046342E+00  0.75111028529E+01  0.51100000000E-03 0.  1.
        -12    1    3    3    0    0 -0.15875031522E+02 -0.10540906357E+02 -0.18235681662E+02  0.26375507926E+02  0.00000000000E+00 0.  1.
</event>
<event>
 7    1  0.3348003E-013  0.7246152E+02  0.7816164E-02  0.1226708E+00
        -11   -1    0    0    0    0  0.00000000000E+00  0.00000000000E+00  0.45593999997E+02  0.45594000000E+02  0.51100000000E-03 0.  1.
         11   -1    0    0    0    0 -0.00000000000E+00 -0.00000000000E+00 -0.45593999997E+02  0.45594000000E+02  0.51100000000E-03 0. -1.
    9900012    2    1    2    0    0  0.22802287949E+01 -0.48844790194E+01  0.17933868189E+02  0.72461515897E+02  0.69999929137E+02 0.  0.
         12    1    1    2    0    0 -0.22802287949E+01  0.48844790194E+01 -0.17933868189E+02  0.18726484103E+02  0.00000000000E+00 0. -1.
         11    1    3    3    0    0  0.58602158843E+01 -0.63276501276E+01  0.60760445844E+01  0.10549862767E+02  0.51100000000E-03 0. -1.
        -11    1    3    3    0    0  0.49820956098E+01 -0.23425129120E+02  0.23131783576E+02  0.33296206430E+02  0.51100000000E-03 0.  1.
         12    1    3    3    0    0 -0.85620826992E+01  0.24868300228E+02 -0.11273959972E+02  0.28615446700E+02  0.00000000000E+00 0. -1.
</event>
<event>
 7    1  0.3348003E-013  0.7246163E+02  0.7816164E-02  0.1226708E+00
        -11   -1    0    0    0    0  0.00000000000E+00  0.00000000000E+00  0.45593999997E+02  0.45594000000E+02  0.51100000000E-03 0. -1.
         11   -1    0    0    0    0 -0.00000000000E+00 -0.00000000000E+00 -0.45593999997E+02  0.45594000000E+02  0.51100000000E-03 0.  1.
    9900012    2    1    2    0    0  0.12192730226E+02  0.48622572273E+01 -0.13355619776E+02  0.72461633686E+02  0.70000082580E+02 0.  0.
         12    1    1    2    0    0 -0.12192730226E+02 -0.48622572273E+01  0.13355619776E+02  0.18726366314E+02  0.00000000000E+00 0. -1.
         11    1    3    3    0    0 -0.20199001599E+02  0.17433757786E+01  0.32982790302E+01  0.20540634594E+02  0.51100000000E-03 0. -1.
        -11    1    3    3    0    0  0.10885037976E+01  0.88549396435E+01  0.77493330900E+01  0.11817231495E+02  0.51100000000E-03 0.  1.
        -12    1    3    3    0    0  0.31303228027E+02 -0.57360581948E+01 -0.24403231897E+02  0.40103767598E+02  0.00000000000E+00 0.  1.
</event>
<event>
 7    1  0.3348003E-013  0.7246157E+02  0.7816164E-02  0.1226708E+00
        -11   -1    0    0    0    0  0.00000000000E+00  0.00000000000E+00  0.45593999997E+02  0.45594000000E+02  0.51100000000E-03 0.  1.
         11   -1    0    0    0    0 -0.00000000000E+00 -0.00000000000E+00 -0.45593999997E+02  0.45594000000E+02  0.51100000000E-03 0. -1.
    9900012    2    1    2    0    0  0.27895515126E+01  0.10555529639E+02  0.15214411065E+02  0.72461571946E+02  0.70000002151E+02 0.  0.
         12    1    1    2    0    0 -0.27895515126E+01 -0.10555529639E+02 -0.15214411065E+02  0.18726428054E+02  0.00000000000E+00 0. -1.
         11    1    3    3    0    0  0.11051915210E+02 -0.45037597994E+00  0.12140340147E+02  0.16423627111E+02  0.51100000000E-03 0. -1.
        -11    1    3    3    0    0  0.88318200365E+01 -0.16345254816E+02  0.12550956823E+02  0.22420858984E+02  0.51100000000E-03 0.  1.
         12    1    3    3    0    0 -0.17094183734E+02  0.27351160435E+02 -0.94768859045E+01  0.33617085851E+02  0.00000000000E+00 0. -1.
</event>
<event>
 7    1  0.3348003E-013  0.7246155E+02  0.7816164E-02  0.1226708E+00
        -11   -1    0    0    0    0  0.00000000000E+00  0.00000000000E+00  0.45593999997E+02  0.45594000000E+02  0.51100000000E-03 0.  1.
         11   -1    0    0    0    0 -0.00000000000E+00 -0.00000000000E+00 -0.45593999997E+02  0.45594000000E+02  0.51100000000E-03 0. -1.
    9900012    2    1    2    0    0  0.12837768759E+02 -0.13107385658E+02 -0.37507299501E+01  0.72461552375E+02  0.69999976656E+02 0.  0.
         12    1    1    2    0    0 -0.12837768759E+02  0.13107385658E+02  0.37507299501E+01  0.18726447625E+02  0.00000000000E+00 0. -1.
         11    1    3    3    0    0  0.60410980122E-01 -0.15760597566E+02 -0.27468692034E+02  0.31669056308E+02  0.51100000000E-03 0. -1.
        -11    1    3    3    0    0  0.23068833368E+01 -0.16573855321E+01 -0.72675221401E+01  0.78029171372E+01  0.51100000000E-03 0.  1.
        -12    1    3    3    0    0  0.10470474442E+02  0.43105974404E+01  0.30985484224E+02  0.32989578929E+02  0.00000000000E+00 0.  1.
</event>
<event>
 7    1  0.3348003E-013  0.7246156E+02  0.7816164E-02  0.1226708E+00
        -11   -1    0    0    0    0  0.00000000000E+00  0.00000000000E+00  0.45593999997E+02  0.45594000000E+02  0.51100000000E-03 0.  1.
         11   -1    0    0    0    0 -0.00000000000E+00 -0.00000000000E+00 -0.45593999997E+02  0.45594000000E+02  0.51100000000E-03 0. -1.
    9900012    2    1    2    0    0  0.13804698020E+02 -0.19391729146E+01  0.12503973990E+02  0.72461562951E+02  0.69999990434E+02 0.  0.
         12    1    1    2    0    0 -0.13804698020E+02  0.19391729146E+01 -0.12503973990E+02  0.18726437049E+02  0.00000000000E+00 0. -1.
         11    1    3    3    0    0 -0.50460194114E+01  0.69479850879E+01 -0.12823056089E+01  0.86822299335E+01  0.51100000000E-03 0. -1.
        -11    1    3    3    0    0 -0.10166661374E+02 -0.63550620736E+01  0.28665163494E+02  0.31071520977E+02  0.51100000000E-03 0.  1.
         12    1    3    3    0    0  0.29017378805E+02 -0.25320959289E+01 -0.14878883895E+02  0.32707812040E+02  0.00000000000E+00 0. -1.
</event>
<event>
 7    1  0.3348003E-013  0.7246150E+02  0.7816164E-02  0.1226708E+00
        -11   -1    0    0    0    0  0.00000000000E+00  0.00000000000E+00  0.45593999997E+02  0.45594000000E+02  0.51100000000E-03 0. -1.
         11   -1    0    0    0    0 -0.00000000000E+00 -0.00000000000E+00 -0.45593999997E+02  0.45594000000E+02  0.51100000000E-03 0.  1.
    9900012    2    1    2    0    0 -0.14491043078E+02 -0.11495813811E+02 -0.29219358321E+01  0.72461500763E+02  0.69999909423E+02 0.  0.
         12    1    1    2    0    0  0.14491043078E+02  0.11495813811E+02  0.29219358321E+01  0.18726499237E+02  0.00000000000E+00 0. -1.
         11    1    3    3    0    0 -0.17913776879E+02  0.18300235278E+02 -0.78582517568E+01  0.26787200941E+02  0.51100000000E-03 0. -1.
        -11    1    3    3    0    0  0.50121287671E+01  0.69182287637E+01  0.22122163110E+01  0.88248073788E+01  0.51100000000E-03 0.  1.
        -12    1    3    3    0    0 -0.15893949658E+01 -0.36714277853E+02  0.27240996138E+01  0.36849492443E+02  0.00000000000E+00 0.  1.
</event>
<event>
 7    1  0.3348003E-013  0.7246155E+02  0.7816164E-02  0.1226708E+00
        -11   -1    0    0    0    0  0.00000000000E+00  0.00000000000E+00  0.45593999997E+02  0.45594000000E+02  0.51100000000E-03 0. -1.
         11   -1    0    0    0    0 -0.00000000000E+00 -0.00000000000E+00 -0.45593999997E+02  0.45594000000E+02  0.51100000000E-03 0.  1.
    9900012    2    1    2    0    0  0.26561283370E+01 -0.17408031373E+01 -0.18455203491E+02  0.72461549477E+02  0.69999972882E+02 0.  0.
         12    1    1    2    0    0 -0.26561283370E+01  0.17408031373E+01  0.18455203491E+02  0.18726450523E+02  0.00000000000E+00 0. -1.
         11    1    3    3    0    0  0.97905232378E+01 -0.18199625845E+00 -0.46131069251E+01  0.10824427175E+02  0.51100000000E-03 0.  1.
        -11    1    3    3    0    0  0.78023247731E+01  0.71326495810E+01  0.20571169404E+02  0.23128423483E+02  0.51100000000E-03 0. -1.
         12    1    3    3    0    0 -0.14936719674E+02 -0.86914564599E+01 -0.34413265970E+02  0.38508698819E+02  0.00000000000E+00 0. -1.
</event>
<event>
 7    1  0.3348003E-013  0.7246159E+02  0.7816164E-02  0.1226708E+00
        -11   -1    0    0    0    0  0.00000000000E+00  0.00000000000E+00  0.45593999997E+02  0.45594000000E+02  0.51100000000E-03 0.  1.
         11   -1    0    0    0    0 -0.00000000000E+00 -0.00000000000E+00 -0.45593999997E+02  0.45594000000E+02  0.51100000000E-03 0. -1.
    9900012    2    1    2    0    0 -0.15695187369E+01 -0.13573313623E+02  0.12805470515E+02  0.72461593327E+02  0.70000030004E+02 0.  0.
         12    1    1    2    0    0  0.15695187369E+01  0.13573313623E+02 -0.12805470515E+02  0.18726406673E+02  0.00000000000E+00 0. -1.
         11    1    3    3    0    0  0.50671624407E+01  0.12623167251E+02 -0.85235061571E-01  0.13602490652E+02  0.51100000000E-03 0. -1.
        -11    1    3    3    0    0  0.42607661138E+01  0.40992933380E+01  0.24063702393E+02  0.24779429107E+02  0.51100000000E-03 0.  1.
         12    1    3    3    0    0 -0.10897447291E+02 -0.30295774213E+02 -0.11172996817E+02  0.34079673568E+02  0.00000000000E+00 0. -1.
</event>
<event>
 7    1  0.3348003E-013  0.7246171E+02  0.7816164E-02  0.1226708E+00
        -11   -1    0    0    0    0  0.00000000000E+00  0.00000000000E+00  0.45593999997E+02  0.45594000000E+02  0.51100000000E-03 0.  1.
         11   -1    0    0    0    0 -0.00000000000E+00 -0.00000000000E+00 -0.45593999997E+02  0.45594000000E+02  0.51100000000E-03 0. -1.
    9900012    2    1    2    0    0  0.37237107828E+01  0.13430834527E+02  0.12506817250E+02  0.72461713240E+02  0.70000186213E+02 0.  0.
         12    1    1    2    0    0 -0.37237107828E+01 -0.13430834527E+02 -0.12506817250E+02  0.18726286760E+02  0.00000000000E+00 0. -1.
         11    1    3    3    0    0  0.58413245254E+01 -0.73079122442E+01 -0.20502750688E+02  0.22536402544E+02  0.51100000000E-03 0. -1.
        -11    1    3    3    0    0  0.35866354411E+01 -0.20267254551E+01 -0.42316800624E+01  0.59058180017E+01  0.51100000000E-03 0.  1.
        -12    1    3    3    0    0 -0.57042491837E+01  0.22765472226E+02  0.37241248001E+02  0.44019492695E+02  0.00000000000E+00 0.  1.
</event>
<event>
 7    1  0.3348003E-013  0.7246163E+02  0.7816164E-02  0.1226708E+00
        -11   -1    0    0    0    0  0.00000000000E+00  0.00000000000E+00  0.45593999997E+02  0.45594000000E+02  0.51100000000E-03 0. -1.
         11   -1    0    0    0    0 -0.00000000000E+00 -0.00000000000E+00 -0.45593999997E+02  0.45594000000E+02  0.51100000000E-03 0.  1.
    9900012    2    1    2    0    0 -0.58402394780E+01  0.12676795978E+02 -0.12484681634E+02  0.72461632789E+02  0.70000081410E+02 0.  0.
         12    1    1    2    0    0  0.58402394780E+01 -0.12676795978E+02  0.12484681634E+02  0.18726367211E+02  0.00000000000E+00 0. -1.
         11    1    3    3    0    0  0.14698979558E+02 -0.11923108790E+02  0.65183710578E+01  0.20017734257E+02  0.51100000000E-03 0. -1.
        -11    1    3    3    0    0 -0.17887616929E+02 -0.40050650067E+01 -0.62590257408E+00  0.18341186968E+02  0.51100000000E-03 0.  1.
         12    1    3    3    0    0 -0.26516021075E+01  0.28604969775E+02 -0.18377150118E+02  0.34102711564E+02  0.00000000000E+00 0. -1.
</event>
<event>
 7    1  0.3348003E-013  0.7246150E+02  0.7816164E-02  0.1226708E+00
        -11   -1    0    0    0    0  0.00000000000E+00  0.00000000000E+00  0.45593999997E+02  0.45594000000E+02  0.51100000000E-03 0.  1.
         11   -1    0    0    0    0 -0.00000000000E+00 -0.00000000000E+00 -0.45593999997E+02  0.45594000000E+02  0.51100000000E-03 0. -1.
    9900012    2    1    2    0    0  0.68702296386E+01  0.81700995371E+01  0.15386072121E+02  0.72461500139E+02  0.69999908609E+02 0.  0.
         12    1    1    2    0    0 -0.68702296386E+01 -0.81700995371E+01 -0.15386072121E+02  0.18726499861E+02  0.00000000000E+00 0. -1.
         11    1    3    3    0    0  0.45617424659E+01  0.63533891828E+01 -0.30278478117E+01  0.83870680851E+01  0.51100000000E-03 0. -1.
        -11    1    3    3    0    0 -0.12442118554E+02  0.11772973316E+02 -0.17192001642E+02  0.24268789329E+02  0.51100000000E-03 0.  1.
        -12    1    3    3    0    0  0.14750605727E+02 -0.99562629615E+01  0.35605921575E+02  0.39805642724E+02  0.00000000000E+00 0.  1.
</event>
<event>
 7    1  0.3348003E-013  0.7246157E+02  0.7816164E-02  0.1226708E+00
        -11   -1    0    0    0    0  0.00000000000E+00  0.00000000000E+00  0.45593999997E+02  0.45594000000E+02  0.51100000000E-03 0. -1.
         11   -1    0    0    0    0 -0.00000000000E+00 -0.00000000000E+00 -0.45593999997E+02  0.45594000000E+02  0.51100000000E-03 0.  1.
    9900012    2    1    2    0    0 -0.99203947054E+01 -0.14670738895E+02 -0.60855723505E+01  0.72461574776E+02  0.70000005839E+02 0.  0.
         12    1    1    2    0    0  0.99203947054E+01  0.14670738895E+02  0.60855723505E+01  0.18726425224E+02  0.00000000000E+00 0. -1.
         11    1    3    3    0    0  0.22977310253E+00 -0.99451560948E+01 -0.12671910929E+02  0.16110128873E+02  0.51100000000E-03 0. -1.
        -11    1    3    3    0    0 -0.29050397082E+02 -0.93356620586E+01 -0.85652232164E+01  0.31692951988E+02  0.51100000000E-03 0.  1.
         12    1    3    3    0    0  0.18900229274E+02  0.46100792588E+01  0.15151561795E+02  0.24658493916E+02  0.00000000000E+00 0. -1.
</event>
<event>
 7    1  0.3348003E-013  0.7246161E+02  0.7816164E-02  0.1226708E+00
        -11   -1    0    0    0    0  0.00000000000E+00  0.00000000000E+00  0.45593999997E+02  0.45594000000E+02  0.51100000000E-03 0. -1.
         11   -1    0    0    0    0 -0.00000000000E+00 -0.00000000000E+00 -0.45593999997E+02  0.45594000000E+02  0.51100000000E-03 0.  1.
    9900012    2    1    2    0    0 -0.69321021191E+00  0.17509786465E+02  0.66033828544E+01  0.72461606125E+02  0.70000046676E+02 0.  0.
         12    1    1    2    0    0  0.69321021191E+00 -0.17509786465E+02 -0.66033828544E+01  0.18726393875E+02  0.00000000000E+00 0. -1.
         11    1    3    3    0    0 -0.64253493327E+01 -0.78599872165E+01  0.26682486332E+01  0.10496859727E+02  0.51100000000E-03 0. -1.
        -11    1    3    3    0    0  0.17534692297E+02 -0.38312531525E-02 -0.18947363780E+02  0.25816042360E+02  0.51100000000E-03 0.  1.
        -12    1    3    3    0    0 -0.11802553176E+02  0.25373604935E+02  0.22882498001E+02  0.36148704038E+02  0.00000000000E+00 0.  1.
</event>
<event>
 7    1  0.3348003E-013  0.7246158E+02  0.7816164E-02  0.1226708E+00
        -11   -1    0    0    0    0  0.00000000000E+00  0.00000000000E+00  0.45593999997E+02  0.45594000000E+02  0.51100000000E-03 0.  1.
         11   -1    0    0    0    0 -0.00000000000E+00 -0.00000000000E+00 -0.45593999997E+02  0.45594000000E+02  0.51100000000E-03 0. -1.
    9900012    2    1    2    0    0  0.17537578582E+02  0.60830955281E+01  0.24714776207E+01  0.72461577081E+02  0.70000008841E+02 0.  0.
         12    1    1    2    0    0 -0.17537578582E+02 -0.60830955281E+01 -0.24714776207E+01  0.18726422919E+02  0.00000000000E+00 0. -1.
         11    1    3    3    0    0  0.76146205077E+01  0.52742881063E+00 -0.24374577176E+02  0.25541743077E+02  0.51100000000E-03 0. -1.
        -11    1    3    3    0    0 -0.83491372432E+01  0.15321763488E+02  0.93142958941E+01  0.19779298202E+02  0.51100000000E-03 0.  1.
        -12    1    3    3    0    0  0.18272095317E+02 -0.97660967710E+01  0.17531758903E+02  0.27140535802E+02  0.00000000000E+00 0.  1.
</event>
<event>
 7    1  0.3348003E-013  0.7246150E+02  0.7816164E-02  0.1226708E+00
        -11   -1    0    0    0    0  0.00000000000E+00  0.00000000000E+00  0.45593999997E+02  0.45594000000E+02  0.51100000000E-03 0. -1.
         11   -1    0    0    0    0 -0.00000000000E+00 -0.00000000000E+00 -0.45593999997E+02  0.45594000000E+02  0.51100000000E-03 0.  1.
    9900012    2    1    2    0    0  0.14455156600E+02 -0.50583792815E+01 -0.10776963783E+02  0.72461502685E+02  0.69999911927E+02 0.  0.
         12    1    1    2    0    0 -0.14455156600E+02  0.50583792815E+01  0.10776963783E+02  0.18726497315E+02  0.00000000000E+00 0. -1.
         11    1    3    3    0    0 -0.11755503734E+01  0.14709409600E+01 -0.23094037383E+02  0.23170674330E+02  0.51100000000E-03 0. -1.
        -11    1    3    3    0    0 -0.12988916349E+02 -0.98546445803E+01  0.12391364981E+02  0.20478571583E+02  0.51100000000E-03 0.  1.
         12    1    3    3    0    0  0.28619623323E+02  0.33253243388E+01 -0.74291381261E-01  0.28812256772E+02  0.00000000000E+00 0. -1.
</event>
<event>
 7    1  0.3348003E-013  0.7246160E+02  0.7816164E-02  0.1226708E+00
        -11   -1    0    0    0    0  0.00000000000E+00  0.00000000000E+00  0.45593999997E+02  0.45594000000E+02  0.51100000000E-03 0. -1.
         11   -1    0    0    0    0 -0.00000000000E+00 -0.00000000000E+00 -0.45593999997E+02  0.45594000000E+02  0.51100000000E-03 0.  1.
    9900012    2    1    2    0    0  0.15978303517E+02 -0.47908470987E+01 -0.85099799815E+01  0.72461597290E+02  0.70000035166E+02 0.  0.
         12    1    1    2    0    0 -0.15978303517E+02  0.47908470987E+01  0.85099799815E+01  0.18726402710E+02  0.00000000000E+00 0. -1.
         11    1    3    3    0    0  0.20266157477E+02  0.32505600353E+01 -0.70103710128E+01  0.21689365630E+02  0.51100000000E-03 0.  1.
        -11    1    3    3    0    0  0.96869628670E+01 -0.19850212880E+02  0.14537540506E+02  0.26442546874E+02  0.51100000000E-03 0. -1.
         12    1    3    3    0    0 -0.13974816827E+02  0.11808805746E+02 -0.16037149474E+02  0.24329684786E+02  0.00000000000E+00 0. -1.
</event>
<event>
 7    1  0.3348003E-013  0.7246160E+02  0.7816164E-02  0.1226708E+00
        -11   -1    0    0    0    0  0.00000000000E+00  0.00000000000E+00  0.45593999997E+02  0.45594000000E+02  0.51100000000E-03 0.  1.
         11   -1    0    0    0    0 -0.00000000000E+00 -0.00000000000E+00 -0.45593999997E+02  0.45594000000E+02  0.51100000000E-03 0. -1.
    9900012    2    1    2    0    0  0.14570625510E+02 -0.11443437191E+02 -0.27244408077E+01  0.72461602583E+02  0.70000042062E+02 0.  0.
         12    1    1    2    0    0 -0.14570625510E+02  0.11443437191E+02  0.27244408077E+01  0.18726397417E+02  0.00000000000E+00 0. -1.
         11    1    3    3    0    0  0.34698915250E+02 -0.51135109819E+00 -0.50644805711E+01  0.35070288895E+02  0.51100000000E-03 0. -1.
        -11    1    3    3    0    0  0.33077727296E+01 -0.15884326359E+01  0.10301071368E+02  0.10935106321E+02  0.51100000000E-03 0.  1.
         12    1    3    3    0    0 -0.23436062470E+02 -0.93436534574E+01 -0.79610316045E+01  0.26456207367E+02  0.00000000000E+00 0. -1.
</event>
<event>
 7    1  0.3348003E-013  0.7246139E+02  0.7816164E-02  0.1226708E+00
        -11   -1    0    0    0    0  0.00000000000E+00  0.00000000000E+00  0.45593999997E+02  0.45594000000E+02  0.51100000000E-03 0.  1.
         11   -1    0    0    0    0 -0.00000000000E+00 -0.00000000000E+00 -0.45593999997E+02  0.45594000000E+02  0.51100000000E-03 0. -1.
    9900012    2    1    2    0    0 -0.13032228209E+02  0.39105262971E+01  0.12866811169E+02  0.72461387448E+02  0.69999761809E+02 0.  0.
         12    1    1    2    0    0  0.13032228209E+02 -0.39105262971E+01 -0.12866811169E+02  0.18726612552E+02  0.00000000000E+00 0. -1.
         11    1    3    3    0    0 -0.16064285341E+02  0.22377615805E+02  0.11208334532E+02  0.29739632074E+02  0.51100000000E-03 0. -1.
        -11    1    3    3    0    0 -0.12977553016E+01  0.10435536730E+02  0.75026769712E+01  0.12918001303E+02  0.51100000000E-03 0.  1.
        -12    1    3    3    0    0  0.43298124344E+01 -0.28902626238E+02 -0.58442003340E+01  0.29803754071E+02  0.00000000000E+00 0.  1.
</event>
<event>
 7    1  0.3348003E-013  0.7246156E+02  0.7816164E-02  0.1226708E+00
        -11   -1    0    0    0    0  0.00000000000E+00  0.00000000000E+00  0.45593999997E+02  0.45594000000E+02  0.51100000000E-03 0. -1.
         11   -1    0    0    0    0 -0.00000000000E+00 -0.00000000000E+00 -0.45593999997E+02  0.45594000000E+02  0.51100000000E-03 0.  1.
    9900012    2    1    2    0    0 -0.18527732031E+01 -0.38054495539E+01 -0.18241852281E+02  0.72461564421E+02  0.69999992349E+02 0.  0.
         12    1    1    2    0    0  0.18527732031E+01  0.38054495539E+01  0.18241852281E+02  0.18726435579E+02  0.00000000000E+00 0. -1.
         11    1    3    3    0    0 -0.32681449876E+01 -0.17098768365E+02  0.45995992270E+01  0.18005692560E+02  0.51100000000E-03 0. -1.
        -11    1    3    3    0    0  0.24059990276E+02  0.28786066690E+01 -0.83806394656E+01  0.25639903014E+02  0.51100000000E-03 0.  1.
         12    1    3    3    0    0 -0.22644618492E+02  0.10414712142E+02 -0.14460812043E+02  0.28815968847E+02  0.00000000000E+00 0. -1.
</event>
<event>
 7    1  0.3348003E-013  0.7246159E+02  0.7816164E-02  0.1226708E+00
        -11   -1    0    0    0    0  0.00000000000E+00  0.00000000000E+00  0.45593999997E+02  0.45594000000E+02  0.51100000000E-03 0.  1.
         11   -1    0    0    0    0 -0.00000000000E+00 -0.00000000000E+00 -0.45593999997E+02  0.45594000000E+02  0.51100000000E-03 0. -1.
    9900012    2    1    2    0    0 -0.11045897004E+02  0.36260992145E+00  0.15117380049E+02  0.72461588007E+02  0.70000023074E+02 0.  0.
         12    1    1    2    0    0  0.11045897004E+02 -0.36260992145E+00 -0.15117380049E+02  0.18726411993E+02  0.00000000000E+00 0. -1.
         11    1    3    3    0    0  0.47662565406E+01 -0.12606378656E+01  0.20295803276E+02  0.20886024996E+02  0.51100000000E-03 0. -1.
        -11    1    3    3    0    0 -0.48934965858E+01  0.16471189538E+02  0.16015287092E+02  0.23489057335E+02  0.51100000000E-03 0.  1.
         12    1    3    3    0    0 -0.10918656959E+02 -0.14847941751E+02 -0.21193710318E+02  0.28086505676E+02  0.00000000000E+00 0. -1.
</event>
<event>
 7    1  0.3348003E-013  0.7246158E+02  0.7816164E-02  0.1226708E+00
        -11   -1    0    0    0    0  0.00000000000E+00  0.00000000000E+00  0.45593999997E+02  0.45594000000E+02  0.51100000000E-03 0. -1.
         11   -1    0    0    0    0 -0.00000000000E+00 -0.00000000000E+00 -0.45593999997E+02  0.45594000000E+02  0.51100000000E-03 0.  1.
    9900012    2    1    2    0    0  0.98065425831E+01  0.80479746207E+01 -0.13774639274E+02  0.72461578557E+02  0.70000010764E+02 0.  0.
         12    1    1    2    0    0 -0.98065425831E+01 -0.80479746207E+01  0.13774639274E+02  0.18726421443E+02  0.00000000000E+00 0. -1.
         11    1    3    3    0    0 -0.17523159087E+02  0.16086315959E+02 -0.14633733604E+02  0.27928065185E+02  0.51100000000E-03 0. -1.
        -11    1    3    3    0    0  0.20926294278E+02  0.11352537711E+02 -0.20983790089E+01  0.23899646429E+02  0.51100000000E-03 0.  1.
         12    1    3    3    0    0  0.64034073919E+01 -0.19390879048E+02  0.29574733390E+01  0.20633866944E+02  0.00000000000E+00 0. -1.
</event>
<event>
 7    1  0.3348003E-013  0.7246158E+02  0.7816164E-02  0.1226708E+00
        -11   -1    0    0    0    0  0.00000000000E+00  0.00000000000E+00  0.45593999997E+02  0.45594000000E+02  0.51100000000E-03 0. -1.
         11   -1    0    0    0    0 -0.00000000000E+00 -0.00000000000E+00 -0.45593999997E+02  0.45594000000E+02  0.51100000000E-03 0.  1.
    9900012    2    1    2    0    0  0.60001087524E+01 -0.17357187712E+02 -0.36613826590E+01  0.72461575000E+02  0.70000006130E+02 0.  0.
         12    1    1    2    0    0 -0.60001087524E+01  0.17357187712E+02  0.36613826590E+01  0.18726425000E+02  0.00000000000E+00 0. -1.
         11    1    3    3    0    0  0.25532384579E+02  0.11606945012E+02  0.11698308131E+02  0.30388719094E+02  0.51100000000E-03 0. -1.
        -11    1    3    3    0    0 -0.22120394263E+01 -0.82651670945E+01 -0.12196773469E+02  0.14898570027E+02  0.51100000000E-03 0.  1.
        -12    1    3    3    0    0 -0.17320236400E+02 -0.20698965629E+02 -0.31629173207E+01  0.27174285879E+02  0.00000000000E+00 0.  1.
</event>
<event>
 7    1  0.3348003E-013  0.7246156E+02  0.7816164E-02  0.1226708E+00
        -11   -1    0    0    0    0  0.00000000000E+00  0.00000000000E+00  0.45593999997E+02  0.45594000000E+02  0.51100000000E-03 0.  1.
         11   -1    0    0    0    0 -0.00000000000E+00 -0.00000000000E+00 -0.45593999997E+02  0.45594000000E+02  0.51100000000E-03 0. -1.
    9900012    2    1    2    0    0 -0.99516427199E+01 -0.14561707709E+02 -0.62929324319E+01  0.72461560862E+02  0.69999987712E+02 0.  0.
         12    1    1    2    0    0  0.99516427199E+01  0.14561707709E+02  0.62929324319E+01  0.18726439138E+02  0.00000000000E+00 0. -1.
         11    1    3    3    0    0 -0.19639835330E+01 -0.25668813692E+02 -0.31849591772E+01  0.25940107804E+02  0.51100000000E-03 0. -1.
        -11    1    3    3    0    0  0.13753877273E+01 -0.16827860539E+02  0.10626596462E+00  0.16884308527E+02  0.51100000000E-03 0.  1.
        -12    1    3    3    0    0 -0.93630469142E+01  0.27934966523E+02 -0.32142392194E+01  0.29637144530E+02  0.00000000000E+00 0.  1.
</event>
<event>
 7    1  0.3348003E-013  0.7246159E+02  0.7816164E-02  0.1226708E+00
        -11   -1    0    0    0    0  0.00000000000E+00  0.00000000000E+00  0.45593999997E+02  0.45594000000E+02  0.51100000000E-03 0.  1.
         11   -1    0    0    0    0 -0.00000000000E+00 -0.00000000000E+00 -0.45593999997E+02  0.45594000000E+02  0.51100000000E-03 0. -1.
    9900012    2    1    2    0    0  0.11605832273E+02  0.14476377556E+02  0.25333308526E+01  0.72461585098E+02  0.70000019284E+02 0.  0.
         12    1    1    2    0    0 -0.11605832273E+02 -0.14476377556E+02 -0.25333308526E+01  0.18726414902E+02  0.00000000000E+00 0. -1.
         11    1    3    3    0    0  0.30545048745E+01 -0.46598049522E+01 -0.83415267608E+01  0.10031193906E+02  0.51100000000E-03 0. -1.
        -11    1    3    3    0    0  0.27967853422E+02 -0.44220942528E-01  0.19167526249E+02  0.33905705173E+02  0.51100000000E-03 0.  1.
         12    1    3    3    0    0 -0.19416526023E+02  0.19180403450E+02 -0.82926686360E+01  0.28524686018E+02  0.00000000000E+00 0. -1.
</event>
<event>
 7    1  0.3348003E-013  0.7246156E+02  0.7816164E-02  0.1226708E+00
        -11   -1    0    0    0    0  0.00000000000E+00  0.00000000000E+00  0.45593999997E+02  0.45594000000E+02  0.51100000000E-03 0. -1.
         11   -1    0    0    0    0 -0.00000000000E+00 -0.00000000000E+00 -0.45593999997E+02  0.45594000000E+02  0.51100000000E-03 0.  1.
    9900012    2    1    2    0    0  0.11313911021E+02 -0.14859552543E+02 -0.13670586773E+01  0.72461555228E+02  0.69999980373E+02 0.  0.
         12    1    1    2    0    0 -0.11313911021E+02  0.14859552543E+02  0.13670586773E+01  0.18726444772E+02  0.00000000000E+00 0. -1.
         11    1    3    3    0    0  0.13127669502E+02 -0.13655903912E+02  0.17280849802E+01  0.19021190714E+02  0.51100000000E-03 0. -1.
        -11    1    3    3    0    0 -0.17515641282E+02 -0.20922736398E+02 -0.63735891561E+01  0.28021085398E+02  0.51100000000E-03 0.  1.
        -12    1    3    3    0    0  0.15701882802E+02  0.19719087767E+02  0.32784454986E+01  0.25419279116E+02  0.00000000000E+00 0.  1.
</event>
<event>
 7    1  0.3348003E-013  0.7246144E+02  0.7816164E-02  0.1226708E+00
        -11   -1    0    0    0    0  0.00000000000E+00  0.00000000000E+00  0.45593999997E+02  0.45594000000E+02  0.51100000000E-03 0.  1.
         11   -1    0    0    0    0 -0.00000000000E+00 -0.00000000000E+00 -0.45593999997E+02  0.45594000000E+02  0.51100000000E-03 0. -1.
    9900012    2    1    2    0    0  0.69420713216E+01 -0.47040549649E+01  0.16744062408E+02  0.72461438295E+02  0.69999828047E+02 0.  0.
         12    1    1    2    0    0 -0.69420713216E+01  0.47040549649E+01 -0.16744062408E+02  0.18726561705E+02  0.00000000000E+00 0. -1.
         11    1    3    3    0    0 -0.54470106829E+01 -0.75788769189E+00 -0.14369030418E+02  0.15385491690E+02  0.51100000000E-03 0. -1.
        -11    1    3    3    0    0  0.13315198271E+02  0.38234273139E+01 -0.87941571069E+01  0.16408848250E+02  0.51100000000E-03 0.  1.
        -12    1    3    3    0    0 -0.92611626640E+00 -0.77695945870E+01  0.39907249933E+02  0.40667098355E+02  0.00000000000E+00 0.  1.
</event>
<event>
 7    1  0.3348003E-013  0.7246153E+02  0.7816164E-02  0.1226708E+00
        -11   -1    0    0    0    0  0.00000000000E+00  0.00000000000E+00  0.45593999997E+02  0.45594000000E+02  0.51100000000E-03 0. -1.
         11   -1    0    0    0    0 -0.00000000000E+00 -0.00000000000E+00 -0.45593999997E+02  0.45594000000E+02  0.51100000000E-03 0.  1.
    9900012    2    1    2    0    0 -0.10016272866E+02 -0.42728871964E+01 -0.15234747024E+02  0.72461526653E+02  0.69999943150E+02 0.  0.
         12    1    1    2    0    0  0.10016272866E+02  0.42728871964E+01  0.15234747024E+02  0.18726473347E+02  0.00000000000E+00 0. -1.
         11    1    3    3    0    0 -0.53173471614E+01  0.26561236333E+01  0.84572766346E+00  0.60037012860E+01  0.51100000000E-03 0. -1.
        -11    1    3    3    0    0  0.15692318995E+02  0.81538668766E+01 -0.31965186304E+02  0.36530912338E+02  0.51100000000E-03 0.  1.
         12    1    3    3    0    0 -0.20391244700E+02 -0.15082877706E+02  0.15884711617E+02  0.29926913030E+02  0.00000000000E+00 0. -1.
</event>
<event>
 7    1  0.3348003E-013  0.7246147E+02  0.7816164E-02  0.1226708E+00
        -11   -1    0    0    0    0  0.00000000000E+00  0.00000000000E+00  0.45593999997E+02  0.45594000000E+02  0.51100000000E-03 0.  1.
         11   -1    0    0    0    0 -0.00000000000E+00 -0.00000000000E+00 -0.45593999997E+02  0.45594000000E+02  0.51100000000E-03 0. -1.
    9900012    2    1    2    0    0  0.92999242912E+01 -0.11632116282E+01  0.16212375824E+02  0.72461473815E+02  0.69999874317E+02 0.  0.
         12    1    1    2    0    0 -0.92999242912E+01  0.11632116282E+01 -0.16212375824E+02  0.18726526185E+02  0.00000000000E+00 0. -1.
         11    1    3    3    0    0 -0.17312213259E+01 -0.11218138229E+02 -0.75389445970E+01  0.13626424274E+02  0.51100000000E-03 0. -1.
        -11    1    3    3    0    0 -0.73913263417E+00 -0.54519374340E+01  0.35614725833E+02  0.36037184064E+02  0.51100000000E-03 0.  1.
         12    1    3    3    0    0  0.11770278251E+02  0.15506864034E+02 -0.11863405413E+02  0.22797865476E+02  0.00000000000E+00 0. -1.
</event>
<event>
 7    1  0.3348003E-013  0.7246145E+02  0.7816164E-02  0.1226708E+00
        -11   -1    0    0    0    0  0.00000000000E+00  0.00000000000E+00  0.45593999997E+02  0.45594000000E+02  0.51100000000E-03 0. -1.
         11   -1    0    0    0    0 -0.00000000000E+00 -0.00000000000E+00 -0.45593999997E+02  0.45594000000E+02  0.51100000000E-03 0.  1.
    9900012    2    1    2    0    0  0.85669770131E+01 -0.14685214560E+02 -0.78508049988E+01  0.72461447702E+02  0.69999840301E+02 0.  0.
         12    1    1    2    0    0 -0.85669770131E+01  0.14685214560E+02  0.78508049988E+01  0.18726552298E+02  0.00000000000E+00 0. -1.
         11    1    3    3    0    0 -0.35649207169E+01 -0.48503651476E+01 -0.11161498686E+02  0.12681236334E+02  0.51100000000E-03 0. -1.
        -11    1    3    3    0    0 -0.89664852316E+01 -0.34403144963E+01 -0.23312934104E+02  0.25213617710E+02  0.51100000000E-03 0.  1.
         12    1    3    3    0    0  0.21098382962E+02 -0.63945349164E+01  0.26623627791E+02  0.34566593658E+02  0.00000000000E+00 0. -1.
</event>
<event>
 7    1  0.3348003E-013  0.7246155E+02  0.7816164E-02  0.1226708E+00
        -11   -1    0    0    0    0  0.00000000000E+00  0.00000000000E+00  0.45593999997E+02  0.45594000000E+02  0.51100000000E-03 0. -1.
         11   -1    0    0    0    0 -0.00000000000E+00 -0.00000000000E+00 -0.45593999997E+02  0.45594000000E+02  0.51100000000E-03 0.  1.
    9900012    2    1    2    0    0  0.41679359950E+01 -0.17283165627E+02  0.58822189828E+01  0.72461547995E+02  0.69999970950E+02 0.  0.
         12    1    1    2    0    0 -0.41679359950E+01  0.17283165627E+02 -0.58822189828E+01  0.18726452005E+02  0.00000000000E+00 0. -1.
         11    1    3    3    0    0 -0.14290683456E+02 -0.20446730621E+01  0.58833675141E+01  0.15589045357E+02  0.51100000000E-03 0. -1.
        -11    1    3    3    0    0  0.97982457291E+01  0.18220090622E+02 -0.65428636565E+01  0.21697612466E+02  0.51100000000E-03 0.  1.
         12    1    3    3    0    0  0.86603737217E+01 -0.33458583186E+02  0.65417151252E+01  0.35174890172E+02  0.00000000000E+00 0. -1.
</event>
<event>
 7    1  0.3348003E-013  0.7246157E+02  0.7816164E-02  0.1226708E+00
        -11   -1    0    0    0    0  0.00000000000E+00  0.00000000000E+00  0.45593999997E+02  0.45594000000E+02  0.51100000000E-03 0. -1.
         11   -1    0    0    0    0 -0.00000000000E+00 -0.00000000000E+00 -0.45593999997E+02  0.45594000000E+02  0.51100000000E-03 0.  1.
    9900012    2    1    2    0    0  0.66067093079E+01 -0.17351132551E+02  0.24430738845E+01  0.72461574321E+02  0.70000005246E+02 0.  0.
         12    1    1    2    0    0 -0.66067093079E+01  0.17351132551E+02 -0.24430738845E+01  0.18726425679E+02  0.00000000000E+00 0. -1.
         11    1    3    3    0    0  0.12873567679E+02  0.15008910633E+01  0.30567971716E+02  0.33202143212E+02  0.51100000000E-03 0. -1.
        -11    1    3    3    0    0  0.67478497320E+01 -0.53007661798E+01 -0.95523750576E+01  0.12840540004E+02  0.51100000000E-03 0.  1.
        -12    1    3    3    0    0 -0.13014708104E+02 -0.13551257435E+02 -0.18572522773E+02  0.26418891106E+02  0.00000000000E+00 0.  1.
</event>
<event>
 7    1  0.3348003E-013  0.7246158E+02  0.7816164E-02  0.1226708E+00
        -11   -1    0    0    0    0  0.00000000000E+00  0.00000000000E+00  0.45593999997E+02  0.45594000000E+02  0.51100000000E-03 0.  1.
         11   -1    0    0    0    0 -0.00000000000E+00 -0.00000000000E+00 -0.45593999997E+02  0.45594000000E+02  0.51100000000E-03 0. -1.
    9900012    2    1    2    0    0  0.97710339840E+01 -0.26166964296E+01  0.15759391777E+02  0.72461584580E+02  0.70000018609E+02 0.  0.
         12    1    1    2    0    0 -0.97710339840E+01  0.26166964296E+01 -0.15759391777E+02  0.18726415420E+02  0.00000000000E+00 0. -1.
         11    1    3    3    0    0 -0.22996994440E+02 -0.18681680462E+02 -0.12361339234E+00  0.29629077250E+02  0.51100000000E-03 0. -1.
        -11    1    3    3    0    0  0.28900166349E+00 -0.15106753274E+01 -0.13808105732E+01  0.20669542827E+01  0.51100000000E-03 0.  1.
        -12    1    3    3    0    0  0.32479026760E+02  0.17575659360E+02  0.17263815743E+02  0.40765553047E+02  0.00000000000E+00 0.  1.
</event>
<event>
 7    1  0.3348003E-013  0.7246162E+02  0.7816164E-02  0.1226708E+00
        -11   -1    0    0    0    0  0.00000000000E+00  0.00000000000E+00  0.45593999997E+02  0.45594000000E+02  0.51100000000E-03 0.  1.
         11   -1    0    0    0    0 -0.00000000000E+00 -0.00000000000E+00 -0.45593999997E+02  0.45594000000E+02  0.51100000000E-03 0. -1.
    9900012    2    1    2    0    0 -0.17972196700E+02  0.13629352204E+01  0.50813355596E+01  0.72461617068E+02  0.70000060931E+02 0.  0.
         12    1    1    2    0    0  0.17972196700E+02 -0.13629352204E+01 -0.50813355596E+01  0.18726382932E+02  0.00000000000E+00 0. -1.
         11    1    3    3    0    0  0.97789902107E+01 -0.10899040539E+02  0.57963757307E+01  0.15748514409E+02  0.51100000000E-03 0. -1.
        -11    1    3    3    0    0  0.47330277481E+01 -0.71870798880E+01  0.13718114697E+02  0.16193898236E+02  0.51100000000E-03 0.  1.
         12    1    3    3    0    0 -0.32484214659E+02  0.19449055648E+02 -0.14433154868E+02  0.40519204423E+02  0.00000000000E+00 0. -1.
</event>
<event>
 7    1  0.3348003E-013  0.7246173E+02  0.7816164E-02  0.1226708E+00
        -11   -1    0    0    0    0  0.00000000000E+00  0.00000000000E+00  0.45593999997E+02  0.45594000000E+02  0.51100000000E-03 0. -1.
         11   -1    0    0    0    0 -0.00000000000E+00 -0.00000000000E+00 -0.45593999997E+02  0.45594000000E+02  0.51100000000E-03 0.  1.
    9900012    2    1    2    0    0 -0.31179389415E+01 -0.18292914466E+02 -0.25141245766E+01  0.72461732746E+02  0.70000211623E+02 0.  0.
         12    1    1    2    0    0  0.31179389415E+01  0.18292914466E+02  0.25141245766E+01  0.18726267254E+02  0.00000000000E+00 0. -1.
         11    1    3    3    0    0  0.16506767483E+01  0.17291471123E+02 -0.77996805129E+01  0.19040869825E+02  0.51100000000E-03 0. -1.
        -11    1    3    3    0    0 -0.14766169394E+02  0.13978180516E+01  0.20790833510E+01  0.14977190716E+02  0.51100000000E-03 0.  1.
        -12    1    3    3    0    0  0.99975537046E+01 -0.36982203640E+02  0.32064725852E+01  0.38443672205E+02  0.00000000000E+00 0.  1.
</event>
<event>
 7    1  0.3348003E-013  0.7246134E+02  0.7816164E-02  0.1226709E+00
        -11   -1    0    0    0    0  0.00000000000E+00  0.00000000000E+00  0.45593999997E+02  0.45594000000E+02  0.51100000000E-03 0. -1.
         11   -1    0    0    0    0 -0.00000000000E+00 -0.00000000000E+00 -0.45593999997E+02  0.45594000000E+02  0.51100000000E-03 0.  1.
    9900012    2    1    2    0    0  0.16381769415E+02  0.80807541545E+01 -0.41263575696E+01  0.72461340296E+02  0.69999700384E+02 0.  0.
         12    1    1    2    0    0 -0.16381769415E+02 -0.80807541545E+01  0.41263575696E+01  0.18726659704E+02  0.00000000000E+00 0. -1.
         11    1    3    3    0    0 -0.22427410601E+01  0.14432300027E+02 -0.10666883404E+02  0.18086004903E+02  0.51100000000E-03 0. -1.
        -11    1    3    3    0    0 -0.10774202498E+02 -0.23750165894E+01 -0.14343104324E+02  0.18095546003E+02  0.51100000000E-03 0.  1.
         12    1    3    3    0    0  0.29398712973E+02 -0.39765292829E+01  0.20883630158E+02  0.36279789390E+02  0.00000000000E+00 0. -1.
</event>
<event>
 7    1  0.3348003E-013  0.7246168E+02  0.7816164E-02  0.1226708E+00
        -11   -1    0    0    0    0  0.00000000000E+00  0.00000000000E+00  0.45593999997E+02  0.45594000000E+02  0.51100000000E-03 0. -1.
         11   -1    0    0    0    0 -0.00000000000E+00 -0.00000000000E+00 -0.45593999997E+02  0.45594000000E+02  0.51100000000E-03 0.  1.
    9900012    2    1    2    0    0  0.61510317182E+01 -0.98195225807E+01 -0.14711108451E+02  0.72461683577E+02  0.70000147572E+02 0.  0.
         12    1    1    2    0    0 -0.61510317182E+01  0.98195225807E+01  0.14711108451E+02  0.18726316423E+02  0.00000000000E+00 0. -1.
         11    1    3    3    0    0  0.14305189406E+01  0.65765776287E+00 -0.16659641644E+02  0.16733874570E+02  0.51100000000E-03 0. -1.
        -11    1    3    3    0    0 -0.20922056962E+02 -0.15579850222E+02 -0.86984079514E+01  0.27497754483E+02  0.51100000000E-03 0.  1.
         12    1    3    3    0    0  0.25642569739E+02  0.51026698787E+01  0.10646941144E+02  0.28230054524E+02  0.00000000000E+00 0. -1.
</event>
<event>
 7    1  0.3348003E-013  0.7246161E+02  0.7816164E-02  0.1226708E+00
        -11   -1    0    0    0    0  0.00000000000E+00  0.00000000000E+00  0.45593999997E+02  0.45594000000E+02  0.51100000000E-03 0.  1.
         11   -1    0    0    0    0 -0.00000000000E+00 -0.00000000000E+00 -0.45593999997E+02  0.45594000000E+02  0.51100000000E-03 0. -1.
    9900012    2    1    2    0    0 -0.11979104345E+02 -0.11614615554E+02  0.85017425995E+01  0.72461605189E+02  0.70000045457E+02 0.  0.
         12    1    1    2    0    0  0.11979104345E+02  0.11614615554E+02 -0.85017425995E+01  0.18726394811E+02  0.00000000000E+00 0. -1.
         11    1    3    3    0    0  0.26140098771E+01  0.16350794151E+02 -0.62088014909E+01  0.17684194446E+02  0.51100000000E-03 0. -1.
        -11    1    3    3    0    0  0.11260812777E+02 -0.14149623979E+01  0.13584425523E+02  0.17701543436E+02  0.51100000000E-03 0.  1.
         12    1    3    3    0    0 -0.25853926999E+02 -0.26550447307E+02  0.11261185678E+01  0.37075867306E+02  0.00000000000E+00 0. -1.
</event>
<event>
 7    1  0.3348003E-013  0.7246158E+02  0.7816164E-02  0.1226708E+00
        -11   -1    0    0    0    0  0.00000000000E+00  0.00000000000E+00  0.45593999997E+02  0.45594000000E+02  0.51100000000E-03 0.  1.
         11   -1    0    0    0    0 -0.00000000000E+00 -0.00000000000E+00 -0.45593999997E+02  0.45594000000E+02  0.51100000000E-03 0. -1.
    9900012    2    1    2    0    0 -0.18487507237E+02  0.28755525539E+01 -0.78875999145E+00  0.72461578327E+02  0.70000010464E+02 0.  0.
         12    1    1    2    0    0  0.18487507237E+02 -0.28755525539E+01  0.78875999145E+00  0.18726421673E+02  0.00000000000E+00 0. -1.
         11    1    3    3    0    0 -0.35584482090E+01  0.90578335508E+01 -0.20413668239E+02  0.22614702154E+02  0.51100000000E-03 0. -1.
        -11    1    3    3    0    0 -0.15489349799E+02  0.13216417041E+02  0.22367455504E+02  0.30247259423E+02  0.51100000000E-03 0.  1.
         12    1    3    3    0    0  0.56029077106E+00 -0.19398698038E+02 -0.27425472569E+01  0.19599616750E+02  0.00000000000E+00 0. -1.
</event>
<event>
 7    1  0.3348003E-013  0.7246157E+02  0.7816164E-02  0.1226708E+00
        -11   -1    0    0    0    0  0.00000000000E+00  0.00000000000E+00  0.45593999997E+02  0.45594000000E+02  0.51100000000E-03 0.  1.
         11   -1    0    0    0    0 -0.00000000000E+00 -0.00000000000E+00 -0.45593999997E+02  0.45594000000E+02  0.51100000000E-03 0. -1.
    9900012    2    1    2    0    0 -0.13354983879E+02  0.12727809899E+02  0.32135021938E+01  0.72461565860E+02  0.69999994224E+02 0.  0.
         12    1    1    2    0    0  0.13354983879E+02 -0.12727809899E+02 -0.32135021938E+01  0.18726434140E+02  0.00000000000E+00 0. -1.
         11    1    3    3    0    0 -0.17682727032E+02 -0.10449748893E+02  0.10950456868E+01  0.20568792200E+02  0.51100000000E-03 0. -1.
        -11    1    3    3    0    0  0.13413720252E+01 -0.11793291179E+02 -0.91972007118E+01  0.15015641742E+02  0.51100000000E-03 0.  1.
         12    1    3    3    0    0  0.29863711280E+01  0.34970849971E+02  0.11315657219E+02  0.36877131918E+02  0.00000000000E+00 0. -1.
</event>
<event>
 7    1  0.3348003E-013  0.7246159E+02  0.7816164E-02  0.1226708E+00
        -11   -1    0    0    0    0  0.00000000000E+00  0.00000000000E+00  0.45593999997E+02  0.45594000000E+02  0.51100000000E-03 0. -1.
         11   -1    0    0    0    0 -0.00000000000E+00 -0.00000000000E+00 -0.45593999997E+02  0.45594000000E+02  0.51100000000E-03 0.  1.
    9900012    2    1    2    0    0 -0.92399237267E+01 -0.86079184928E+01 -0.13827724943E+02  0.72461590084E+02  0.70000025780E+02 0.  0.
         12    1    1    2    0    0  0.92399237267E+01  0.86079184928E+01  0.13827724943E+02  0.18726409916E+02  0.00000000000E+00 0. -1.
         11    1    3    3    0    0  0.24375643412E+02 -0.44811933527E+01 -0.11577095150E+02  0.27354747631E+02  0.51100000000E-03 0. -1.
        -11    1    3    3    0    0  0.52938072248E+01 -0.21082806430E+01  0.16974262384E+01  0.59456285033E+01  0.51100000000E-03 0.  1.
        -12    1    3    3    0    0 -0.38909374364E+02 -0.20184444971E+01 -0.39480560313E+01  0.39161213949E+02  0.00000000000E+00 0.  1.
</event>
<event>
 7    1  0.3348003E-013  0.7246154E+02  0.7816164E-02  0.1226708E+00
        -11   -1    0    0    0    0  0.00000000000E+00  0.00000000000E+00  0.45593999997E+02  0.45594000000E+02  0.51100000000E-03 0.  1.
         11   -1    0    0    0    0 -0.00000000000E+00 -0.00000000000E+00 -0.45593999997E+02  0.45594000000E+02  0.51100000000E-03 0. -1.
    9900012    2    1    2    0    0 -0.11393934388E+01 -0.17595175253E+02  0.63080784786E+01  0.72461541080E+02  0.69999961943E+02 0.  0.
         12    1    1    2    0    0  0.11393934388E+01  0.17595175253E+02 -0.63080784786E+01  0.18726458920E+02  0.00000000000E+00 0. -1.
         11    1    3    3    0    0  0.27397839829E+01 -0.54589961730E+01 -0.97137339022E+01  0.11474479599E+02  0.51100000000E-03 0. -1.
        -11    1    3    3    0    0  0.17742257403E+02 -0.22851163302E+02 -0.45394995222E+01  0.29284303273E+02  0.51100000000E-03 0.  1.
        -12    1    3    3    0    0 -0.21621434825E+02  0.10714984222E+02  0.20561311903E+02  0.31702758207E+02  0.00000000000E+00 0.  1.
</event>
<event>
 7    1  0.3348003E-013  0.7246162E+02  0.7816164E-02  0.1226708E+00
        -11   -1    0    0    0    0  0.00000000000E+00  0.00000000000E+00  0.45593999997E+02  0.45594000000E+02  0.51100000000E-03 0. -1.
         11   -1    0    0    0    0 -0.00000000000E+00 -0.00000000000E+00 -0.45593999997E+02  0.45594000000E+02  0.51100000000E-03 0.  1.
    9900012    2    1    2    0    0  0.70927857783E+01 -0.16156682378E+02  0.62714700011E+01  0.72461619369E+02  0.70000063929E+02 0.  0.
         12    1    1    2    0    0 -0.70927857783E+01  0.16156682378E+02 -0.62714700011E+01  0.18726380631E+02  0.00000000000E+00 0. -1.
         11    1    3    3    0    0  0.12092709439E+02 -0.97452021222E+00  0.23417404318E+02  0.26373436190E+02  0.51100000000E-03 0.  1.
        -11    1    3    3    0    0 -0.65498508622E+01 -0.11744271829E+02  0.11195075794E+02  0.17497376643E+02  0.51100000000E-03 0. -1.
        -12    1    3    3    0    0  0.15499272017E+01 -0.34378903368E+01 -0.28341010111E+02  0.28590806536E+02  0.00000000000E+00 0.  1.
</event>
<event>
 7    1  0.3348003E-013  0.7246166E+02  0.7816164E-02  0.1226708E+00
        -11   -1    0    0    0    0  0.00000000000E+00  0.00000000000E+00  0.45593999997E+02  0.45594000000E+02  0.51100000000E-03 0. -1.
         11   -1    0    0    0    0 -0.00000000000E+00 -0.00000000000E+00 -0.45593999997E+02  0.45594000000E+02  0.51100000000E-03 0.  1.
    9900012    2    1    2    0    0 -0.15868691248E+01  0.72362997110E+01 -0.17198651779E+02  0.72461659991E+02  0.70000116846E+02 0.  0.
         12    1    1    2    0    0  0.15868691248E+01 -0.72362997110E+01  0.17198651779E+02  0.18726340009E+02  0.00000000000E+00 0. -1.
         11    1    3    3    0    0 -0.12943678395E+02 -0.16749212208E+02  0.15215398394E+02  0.26068817935E+02  0.51100000000E-03 0. -1.
        -11    1    3    3    0    0 -0.12067152311E+01 -0.20560280558E+00  0.20889309991E+01  0.24211706141E+01  0.51100000000E-03 0.  1.
        -12    1    3    3    0    0  0.12563524502E+02  0.24191114725E+02 -0.34502981173E+02  0.43971671441E+02  0.00000000000E+00 0.  1.
</event>
<event>
 7    1  0.3348003E-013  0.7246163E+02  0.7816164E-02  0.1226708E+00
        -11   -1    0    0    0    0  0.00000000000E+00  0.00000000000E+00  0.45593999997E+02  0.45594000000E+02  0.51100000000E-03 0. -1.
         11   -1    0    0    0    0 -0.00000000000E+00 -0.00000000000E+00 -0.45593999997E+02  0.45594000000E+02  0.51100000000E-03 0.  1.
    9900012    2    1    2    0    0 -0.12696363904E+02 -0.96790672623E+01 -0.97874855289E+01  0.72461631627E+02  0.70000079897E+02 0.  0.
         12    1    1    2    0    0  0.12696363904E+02  0.96790672623E+01  0.97874855289E+01  0.18726368373E+02  0.00000000000E+00 0. -1.
         11    1    3    3    0    0  0.38777483479E+01 -0.21878596988E+01 -0.71537632758E+00  0.45094817732E+01  0.51100000000E-03 0. -1.
        -11    1    3    3    0    0  0.13984053618E+02 -0.27402187452E+02 -0.22436929006E+01  0.30845871536E+02  0.51100000000E-03 0.  1.
         12    1    3    3    0    0 -0.30558165870E+02  0.19910979888E+02 -0.68284163008E+01  0.37106278318E+02  0.00000000000E+00 0. -1.
</event>
<event>
 7    1  0.3348003E-013  0.7246168E+02  0.7816164E-02  0.1226708E+00
        -11   -1    0    0    0    0  0.00000000000E+00  0.00000000000E+00  0.45593999997E+02  0.45594000000E+02  0.51100000000E-03 0. -1.
         11   -1    0    0    0    0 -0.00000000000E+00 -0.00000000000E+00 -0.45593999997E+02  0.45594000000E+02  0.51100000000E-03 0.  1.
    9900012    2    1    2    0    0 -0.11954434647E+02  0.13530376004E+02  0.49694665013E+01  0.72461676820E+02  0.70000138769E+02 0.  0.
         12    1    1    2    0    0  0.11954434647E+02 -0.13530376004E+02 -0.49694665013E+01  0.18726323180E+02  0.00000000000E+00 0. -1.
         11    1    3    3    0    0 -0.24381696799E+02  0.40600490778E+01  0.22829256994E+02  0.33647081783E+02  0.51100000000E-03 0. -1.
        -11    1    3    3    0    0 -0.57736885750E-01 -0.10711596726E+02 -0.49723154430E+01  0.11809553721E+02  0.51100000000E-03 0.  1.
        -12    1    3    3    0    0  0.12484999038E+02  0.20181923653E+02 -0.12887475050E+02  0.27005041316E+02  0.00000000000E+00 0.  1.
</event>
<event>
 7    1  0.3348003E-013  0.7246162E+02  0.7816164E-02  0.1226708E+00
        -11   -1    0    0    0    0  0.00000000000E+00  0.00000000000E+00  0.45593999997E+02  0.45594000000E+02  0.51100000000E-03 0.  1.
         11   -1    0    0    0    0 -0.00000000000E+00 -0.00000000000E+00 -0.45593999997E+02  0.45594000000E+02  0.51100000000E-03 0. -1.
    9900012    2    1    2    0    0 -0.80051929040E+01  0.11364122857E+02  0.12547938295E+02  0.72461624024E+02  0.70000069993E+02 0.  0.
         12    1    1    2    0    0  0.80051929040E+01 -0.11364122857E+02 -0.12547938295E+02  0.18726375976E+02  0.00000000000E+00 0. -1.
         11    1    3    3    0    0  0.45220382386E+01  0.20939428683E+02 -0.27731804702E+01  0.21600903536E+02  0.51100000000E-03 0. -1.
        -11    1    3    3    0    0 -0.27069618334E+01  0.17343227975E+02 -0.15288803076E+01  0.17619667256E+02  0.51100000000E-03 0.  1.
         12    1    3    3    0    0 -0.98202693093E+01 -0.26918533800E+02  0.16849999073E+02  0.33241053232E+02  0.00000000000E+00 0. -1.
</event>
<event>
 7    1  0.3348003E-013  0.7246155E+02  0.7816164E-02  0.1226708E+00
        -11   -1    0    0    0    0  0.00000000000E+00  0.00000000000E+00  0.45593999997E+02  0.45594000000E+02  0.51100000000E-03 0.  1.
         11   -1    0    0    0    0 -0.00000000000E+00 -0.00000000000E+00 -0.45593999997E+02  0.45594000000E+02  0.51100000000E-03 0. -1.
    9900012    2    1    2    0    0  0.18124913322E+02 -0.41361024318E+01 -0.22494463068E+01  0.72461552527E+02  0.69999976855E+02 0.  0.
         12    1    1    2    0    0 -0.18124913322E+02  0.41361024318E+01  0.22494463068E+01  0.18726447473E+02  0.00000000000E+00 0. -1.
         11    1    3    3    0    0  0.11412468820E+02 -0.25483677123E+02 -0.19548194785E+02  0.34085101787E+02  0.51100000000E-03 0. -1.
        -11    1    3    3    0    0  0.24574276062E+01 -0.49761083354E+01 -0.15021668213E+01  0.57495312875E+01  0.51100000000E-03 0.  1.
        -12    1    3    3    0    0  0.42550168966E+01  0.26323683026E+02  0.18800915299E+02  0.32626919452E+02  0.00000000000E+00 0.  1.
</event>
<event>
 7    1  0.3348003E-013  0.7246164E+02  0.7816164E-02  0.1226708E+00
        -11   -1    0    0    0    0  0.00000000000E+00  0.00000000000E+00  0.45593999997E+02  0.45594000000E+02  0.51100000000E-03 0. -1.
         11   -1    0    0    0    0 -0.00000000000E+00 -0.00000000000E+00 -0.45593999997E+02  0.45594000000E+02  0.51100000000E-03 0.  1.
    9900012    2    1    2    0    0 -0.11179752096E+02 -0.13910796027E+02  0.56726835618E+01  0.72461643124E+02  0.70000094874E+02 0.  0.
         12    1    1    2    0    0  0.11179752096E+02  0.13910796027E+02 -0.56726835618E+01  0.18726356876E+02  0.00000000000E+00 0. -1.
         11    1    3    3    0    0  0.14616540688E+02  0.31838013998E+01 -0.15962022677E+02  0.21876151883E+02  0.51100000000E-03 0. -1.
        -11    1    3    3    0    0  0.13172613174E+01  0.44957610578E+01 -0.50165638517E+01  0.68638879658E+01  0.51100000000E-03 0.  1.
         12    1    3    3    0    0 -0.27113554102E+02 -0.21590358485E+02  0.26651270090E+02  0.43721603275E+02  0.00000000000E+00 0. -1.
</event>
<event>
 7    1  0.3348003E-013  0.7246163E+02  0.7816164E-02  0.1226708E+00
        -11   -1    0    0    0    0  0.00000000000E+00  0.00000000000E+00  0.45593999997E+02  0.45594000000E+02  0.51100000000E-03 0.  1.
         11   -1    0    0    0    0 -0.00000000000E+00 -0.00000000000E+00 -0.45593999997E+02  0.45594000000E+02  0.51100000000E-03 0. -1.
    9900012    2    1    2    0    0  0.18221703103E+02 -0.35605039164E+01  0.24432394098E+01  0.72461626328E+02  0.70000072994E+02 0.  0.
         12    1    1    2    0    0 -0.18221703103E+02  0.35605039164E+01 -0.24432394098E+01  0.18726373672E+02  0.00000000000E+00 0. -1.
         11    1    3    3    0    0  0.59672674594E+01 -0.14765162783E+01 -0.10037115527E+02  0.11769964724E+02  0.51100000000E-03 0. -1.
        -11    1    3    3    0    0 -0.72279104149E+01  0.24684757709E+02  0.13260822003E+01  0.25755357625E+02  0.51100000000E-03 0.  1.
         12    1    3    3    0    0  0.19482346058E+02 -0.26768745347E+02  0.11154272736E+02  0.34936303978E+02  0.00000000000E+00 0. -1.
</event>
<event>
 7    1  0.3348003E-013  0.7246159E+02  0.7816164E-02  0.1226708E+00
        -11   -1    0    0    0    0  0.00000000000E+00  0.00000000000E+00  0.45593999997E+02  0.45594000000E+02  0.51100000000E-03 0.  1.
         11   -1    0    0    0    0 -0.00000000000E+00 -0.00000000000E+00 -0.45593999997E+02  0.45594000000E+02  0.51100000000E-03 0. -1.
    9900012    2    1    2    0    0  0.66514884780E+01  0.13845581383E+02  0.10711484293E+02  0.72461593015E+02  0.70000029597E+02 0.  0.
         12    1    1    2    0    0 -0.66514884780E+01 -0.13845581383E+02 -0.10711484293E+02  0.18726406985E+02  0.00000000000E+00 0. -1.
         11    1    3    3    0    0  0.89043124935E+01  0.10094092102E+02 -0.55465706299E+01  0.14558225248E+02  0.51100000000E-03 0. -1.
        -11    1    3    3    0    0 -0.90777933809E+01  0.19017050566E+02 -0.12598803939E+02  0.24551668087E+02  0.51100000000E-03 0.  1.
        -12    1    3    3    0    0  0.68249693654E+01 -0.15265561285E+02  0.28856858862E+02  0.33351699680E+02  0.00000000000E+00 0.  1.
</event>
<event>
 7    1  0.3348003E-013  0.7246148E+02  0.7816164E-02  0.1226708E+00
        -11   -1    0    0    0    0  0.00000000000E+00  0.00000000000E+00  0.45593999997E+02  0.45594000000E+02  0.51100000000E-03 0.  1.
         11   -1    0    0    0    0 -0.00000000000E+00 -0.00000000000E+00 -0.45593999997E+02  0.45594000000E+02  0.51100000000E-03 0. -1.
    9900012    2    1    2    0    0 -0.78055965787E+01 -0.10391698209E+02 -0.13482126609E+02  0.72461482237E+02  0.69999885289E+02 0.  0.
         12    1    1    2    0    0  0.78055965787E+01  0.10391698209E+02  0.13482126609E+02  0.18726517763E+02  0.00000000000E+00 0. -1.
         11    1    3    3    0    0  0.11111741239E+02 -0.20410628703E+02 -0.37373366627E+01  0.23537889519E+02  0.51100000000E-03 0. -1.
        -11    1    3    3    0    0 -0.13947887498E+01  0.24508631175E+02 -0.10193388943E+01  0.24569442195E+02  0.51100000000E-03 0.  1.
         12    1    3    3    0    0 -0.17522549068E+02 -0.14489700681E+02 -0.87254510525E+01  0.24354150524E+02  0.00000000000E+00 0. -1.
</event>
<event>
 7    1  0.3348003E-013  0.7246158E+02  0.7816164E-02  0.1226708E+00
        -11   -1    0    0    0    0  0.00000000000E+00  0.00000000000E+00  0.45593999997E+02  0.45594000000E+02  0.51100000000E-03 0. -1.
         11   -1    0    0    0    0 -0.00000000000E+00 -0.00000000000E+00 -0.45593999997E+02  0.45594000000E+02  0.51100000000E-03 0.  1.
    9900012    2    1    2    0    0 -0.13763229903E+01 -0.13048983631E+01 -0.18630131512E+02  0.72461579496E+02  0.70000011988E+02 0.  0.
         12    1    1    2    0    0  0.13763229903E+01  0.13048983631E+01  0.18630131512E+02  0.18726420504E+02  0.00000000000E+00 0. -1.
         11    1    3    3    0    0 -0.84295806137E+01  0.33158423219E+01 -0.18546571443E+02  0.20640444574E+02  0.51100000000E-03 0. -1.
        -11    1    3    3    0    0 -0.83513686531E+01 -0.23719295300E+02 -0.74068639138E+01  0.26214727945E+02  0.51100000000E-03 0.  1.
        -12    1    3    3    0    0  0.15404626277E+02  0.19098554615E+02  0.73233038450E+01  0.25606406978E+02  0.00000000000E+00 0.  1.
</event>
<event>
 7    1  0.3348003E-013  0.7246155E+02  0.7816164E-02  0.1226708E+00
        -11   -1    0    0    0    0  0.00000000000E+00  0.00000000000E+00  0.45593999997E+02  0.45594000000E+02  0.51100000000E-03 0.  1.
         11   -1    0    0    0    0 -0.00000000000E+00 -0.00000000000E+00 -0.45593999997E+02  0.45594000000E+02  0.51100000000E-03 0. -1.
    9900012    2    1    2    0    0 -0.32343523564E+01  0.16402246251E+02  0.84371287297E+01  0.72461551900E+02  0.69999976038E+02 0.  0.
         12    1    1    2    0    0  0.32343523564E+01 -0.16402246251E+02 -0.84371287297E+01  0.18726448100E+02  0.00000000000E+00 0. -1.
         11    1    3    3    0    0  0.10409509340E+02 -0.99734779338E+01 -0.15951518127E+02  0.21500676213E+02  0.51100000000E-03 0. -1.
        -11    1    3    3    0    0 -0.84239274394E+01 -0.19632321847E+01 -0.48437968707E+01  0.99135867627E+01  0.51100000000E-03 0.  1.
        -12    1    3    3    0    0 -0.52199342574E+01  0.28338956370E+02  0.29232443727E+02  0.41047288924E+02  0.00000000000E+00 0.  1.
</event>
<event>
 7    1  0.3348003E-013  0.7246156E+02  0.7816164E-02  0.1226708E+00
        -11   -1    0    0    0    0  0.00000000000E+00  0.00000000000E+00  0.45593999997E+02  0.45594000000E+02  0.51100000000E-03 0.  1.
         11   -1    0    0    0    0 -0.00000000000E+00 -0.00000000000E+00 -0.45593999997E+02  0.45594000000E+02  0.51100000000E-03 0. -1.
    9900012    2    1    2    0    0  0.17300442819E+02  0.39410669361E+01  0.59868424468E+01  0.72461558458E+02  0.69999984581E+02 0.  0.
         12    1    1    2    0    0 -0.17300442819E+02 -0.39410669361E+01 -0.59868424468E+01  0.18726441542E+02  0.00000000000E+00 0. -1.
         11    1    3    3    0    0  0.15839392463E+01 -0.19917876645E+02 -0.11870017128E+02  0.23240653616E+02  0.51100000000E-03 0. -1.
        -11    1    3    3    0    0  0.22663243104E+02  0.17250619726E+02 -0.52752104558E+00  0.28486571357E+02  0.51100000000E-03 0.  1.
        -12    1    3    3    0    0 -0.69467395310E+01  0.66083238554E+01  0.18384380621E+02  0.20734333486E+02  0.00000000000E+00 0.  1.
</event>
<event>
 7    1  0.3348003E-013  0.7246161E+02  0.7816164E-02  0.1226708E+00
        -11   -1    0    0    0    0  0.00000000000E+00  0.00000000000E+00  0.45593999997E+02  0.45594000000E+02  0.51100000000E-03 0.  1.
         11   -1    0    0    0    0 -0.00000000000E+00 -0.00000000000E+00 -0.45593999997E+02  0.45594000000E+02  0.51100000000E-03 0. -1.
    9900012    2    1    2    0    0 -0.17989118630E+01  0.38330163954E+01  0.18241426375E+02  0.72461608602E+02  0.70000049903E+02 0.  0.
         12    1    1    2    0    0  0.17989118630E+01 -0.38330163954E+01 -0.18241426375E+02  0.18726391398E+02  0.00000000000E+00 0. -1.
         11    1    3    3    0    0  0.17426344243E+02  0.36856044363E+01 -0.10055945122E+02  0.20454417281E+02  0.51100000000E-03 0. -1.
        -11    1    3    3    0    0 -0.79471890382E+01  0.10324741788E+02 -0.61136291069E+01  0.14392170361E+02  0.51100000000E-03 0.  1.
        -12    1    3    3    0    0 -0.11278067068E+02 -0.10177329829E+02  0.34411000604E+02  0.37615020960E+02  0.00000000000E+00 0.  1.
</event>
<event>
 7    1  0.3348003E-013  0.7246158E+02  0.7816164E-02  0.1226708E+00
        -11   -1    0    0    0    0  0.00000000000E+00  0.00000000000E+00  0.45593999997E+02  0.45594000000E+02  0.51100000000E-03 0.  1.
         11   -1    0    0    0    0 -0.00000000000E+00 -0.00000000000E+00 -0.45593999997E+02  0.45594000000E+02  0.51100000000E-03 0. -1.
    9900012    2    1    2    0    0 -0.66192930708E+01 -0.12061552986E+02  0.12703643748E+02  0.72461583747E+02  0.70000017525E+02 0.  0.
         12    1    1    2    0    0  0.66192930708E+01  0.12061552986E+02 -0.12703643748E+02  0.18726416253E+02  0.00000000000E+00 0. -1.
         11    1    3    3    0    0 -0.93552729941E+01  0.25365499105E+02  0.17597987529E+02  0.32258624319E+02  0.51100000000E-03 0. -1.
        -11    1    3    3    0    0  0.59317177635E+01 -0.71935156482E+01 -0.27716885715E+01  0.97269831297E+01  0.51100000000E-03 0.  1.
        -12    1    3    3    0    0 -0.31957378402E+01 -0.30233536443E+02 -0.21226552100E+01  0.30475976298E+02  0.00000000000E+00 0.  1.
</event>
<event>
 7    1  0.3348003E-013  0.7246156E+02  0.7816164E-02  0.1226708E+00
        -11   -1    0    0    0    0  0.00000000000E+00  0.00000000000E+00  0.45593999997E+02  0.45594000000E+02  0.51100000000E-03 0. -1.
         11   -1    0    0    0    0 -0.00000000000E+00 -0.00000000000E+00 -0.45593999997E+02  0.45594000000E+02  0.51100000000E-03 0.  1.
    9900012    2    1    2    0    0 -0.15668160629E+01  0.15812226357E+02 -0.99095044930E+01  0.72461556285E+02  0.69999981750E+02 0.  0.
         12    1    1    2    0    0  0.15668160629E+01 -0.15812226357E+02  0.99095044930E+01  0.18726443715E+02  0.00000000000E+00 0. -1.
         11    1    3    3    0    0 -0.53327822941E+01 -0.26258371107E+01  0.22707048451E+02  0.23472188589E+02  0.51100000000E-03 0. -1.
        -11    1    3    3    0    0 -0.67508424438E+01  0.55292724651E+01  0.33566974159E+01  0.93495532245E+01  0.51100000000E-03 0.  1.
        -12    1    3    3    0    0  0.10516808675E+02  0.12908791002E+02 -0.35973250360E+02  0.39639814471E+02  0.00000000000E+00 0.  1.
</event>
<event>
 7    1  0.3348003E-013  0.7246158E+02  0.7816164E-02  0.1226708E+00
        -11   -1    0    0    0    0  0.00000000000E+00  0.00000000000E+00  0.45593999997E+02  0.45594000000E+02  0.51100000000E-03 0.  1.
         11   -1    0    0    0    0 -0.00000000000E+00 -0.00000000000E+00 -0.45593999997E+02  0.45594000000E+02  0.51100000000E-03 0. -1.
    9900012    2    1    2    0    0 -0.12235934004E+02 -0.13193542584E+02  0.51856649576E+01  0.72461581017E+02  0.70000013968E+02 0.  0.
         12    1    1    2    0    0  0.12235934004E+02  0.13193542584E+02 -0.51856649576E+01  0.18726418983E+02  0.00000000000E+00 0. -1.
         11    1    3    3    0    0 -0.42937116664E+01  0.11225169127E+02  0.11952846216E+02  0.16950248221E+02  0.51100000000E-03 0. -1.
        -11    1    3    3    0    0 -0.52182813992E+00  0.50343442046E+01  0.16494552949E+02  0.17253614213E+02  0.51100000000E-03 0.  1.
        -12    1    3    3    0    0 -0.74203941979E+01 -0.29453055916E+02 -0.23261734208E+02  0.38257718583E+02  0.00000000000E+00 0.  1.
</event>
<event>
 7    1  0.3348003E-013  0.7246139E+02  0.7816164E-02  0.1226709E+00
        -11   -1    0    0    0    0  0.00000000000E+00  0.00000000000E+00  0.45593999997E+02  0.45594000000E+02  0.51100000000E-03 0.  1.
         11   -1    0    0    0    0 -0.00000000000E+00 -0.00000000000E+00 -0.45593999997E+02  0.45594000000E+02  0.51100000000E-03 0. -1.
    9900012    2    1    2    0    0 -0.18012928541E+01  0.77851520413E+01 -0.16936139274E+02  0.72461386271E+02  0.69999760275E+02 0.  0.
         12    1    1    2    0    0  0.18012928541E+01 -0.77851520413E+01  0.16936139274E+02  0.18726613729E+02  0.00000000000E+00 0. -1.
         11    1    3    3    0    0  0.75299047274E+01 -0.73920266389E+01  0.14115876936E+02  0.17623833436E+02  0.51100000000E-03 0.  1.
        -11    1    3    3    0    0  0.99687939414E+00  0.18847089114E+02  0.29590161430E+01  0.19103986845E+02  0.51100000000E-03 0. -1.
         12    1    3    3    0    0 -0.10328076976E+02 -0.36699104334E+01 -0.34011032353E+02  0.35733565990E+02  0.00000000000E+00 0. -1.
</event>
<event>
 7    1  0.3348003E-013  0.7246158E+02  0.7816164E-02  0.1226708E+00
        -11   -1    0    0    0    0  0.00000000000E+00  0.00000000000E+00  0.45593999997E+02  0.45594000000E+02  0.51100000000E-03 0.  1.
         11   -1    0    0    0    0 -0.00000000000E+00 -0.00000000000E+00 -0.45593999997E+02  0.45594000000E+02  0.51100000000E-03 0. -1.
    9900012    2    1    2    0    0  0.52032183539E+01 -0.17986351193E+02 -0.31060732375E+00  0.72461580497E+02  0.70000013292E+02 0.  0.
         12    1    1    2    0    0 -0.52032183539E+01  0.17986351193E+02  0.31060732375E+00  0.18726419503E+02  0.00000000000E+00 0. -1.
         11    1    3    3    0    0  0.22280009043E+01 -0.16295891709E+02  0.10706521895E+02  0.19625230851E+02  0.51100000000E-03 0. -1.
        -11    1    3    3    0    0  0.45455960065E+01 -0.24762662718E+02 -0.15093643276E+02  0.29354215635E+02  0.51100000000E-03 0.  1.
        -12    1    3    3    0    0 -0.15703785570E+01  0.23072203234E+02  0.40765140571E+01  0.23482134011E+02  0.00000000000E+00 0.  1.
</event>
<event>
 7    1  0.3348003E-013  0.7246154E+02  0.7816164E-02  0.1226708E+00
        -11   -1    0    0    0    0  0.00000000000E+00  0.00000000000E+00  0.45593999997E+02  0.45594000000E+02  0.51100000000E-03 0. -1.
         11   -1    0    0    0    0 -0.00000000000E+00 -0.00000000000E+00 -0.45593999997E+02  0.45594000000E+02  0.51100000000E-03 0.  1.
    9900012    2    1    2    0    0  0.17914438850E+02 -0.13096931125E+01  0.52950942649E+01  0.72461536409E+02  0.69999955857E+02 0.  0.
         12    1    1    2    0    0 -0.17914438850E+02  0.13096931125E+01 -0.52950942649E+01  0.18726463591E+02  0.00000000000E+00 0. -1.
         11    1    3    3    0    0  0.73882014510E+01  0.60041427538E+01 -0.28600047648E+01  0.99405673080E+01  0.51100000000E-03 0. -1.
        -11    1    3    3    0    0  0.32739034000E+02 -0.18015977811E+01 -0.89041425426E+01  0.33976077709E+02  0.51100000000E-03 0.  1.
         12    1    3    3    0    0 -0.22212796601E+02 -0.55122380852E+01  0.17059241572E+02  0.28544891392E+02  0.00000000000E+00 0. -1.
</event>
<event>
 7    1  0.3348003E-013  0.7246164E+02  0.7816164E-02  0.1226708E+00
        -11   -1    0    0    0    0  0.00000000000E+00  0.00000000000E+00  0.45593999997E+02  0.45594000000E+02  0.51100000000E-03 0.  1.
         11   -1    0    0    0    0 -0.00000000000E+00 -0.00000000000E+00 -0.45593999997E+02  0.45594000000E+02  0.51100000000E-03 0. -1.
    9900012    2    1    2    0    0 -0.29234264064E+01  0.10304601904E+02  0.15360516040E+02  0.72461636355E+02  0.70000086056E+02 0.  0.
         12    1    1    2    0    0  0.29234264064E+01 -0.10304601904E+02 -0.15360516040E+02  0.18726363645E+02  0.00000000000E+00 0. -1.
         11    1    3    3    0    0  0.73949561044E+01 -0.23897770243E+01  0.81249577136E+01  0.11243280132E+02  0.51100000000E-03 0. -1.
        -11    1    3    3    0    0 -0.18745024872E+02 -0.18858066471E+02  0.10080813571E+02  0.28436339972E+02  0.51100000000E-03 0.  1.
         12    1    3    3    0    0  0.84266423613E+01  0.31552445399E+02 -0.28452552449E+01  0.32782016252E+02  0.00000000000E+00 0. -1.
</event>
<event>
 7    1  0.3348003E-013  0.7246155E+02  0.7816164E-02  0.1226708E+00
        -11   -1    0    0    0    0  0.00000000000E+00  0.00000000000E+00  0.45593999997E+02  0.45594000000E+02  0.51100000000E-03 0.  1.
         11   -1    0    0    0    0 -0.00000000000E+00 -0.00000000000E+00 -0.45593999997E+02  0.45594000000E+02  0.51100000000E-03 0. -1.
    9900012    2    1    2    0    0 -0.92510846115E+01 -0.93437037305E+01  0.13333889086E+02  0.72461549080E+02  0.69999972365E+02 0.  0.
         12    1    1    2    0    0  0.92510846115E+01  0.93437037305E+01 -0.13333889086E+02  0.18726450920E+02  0.00000000000E+00 0. -1.
         11    1    3    3    0    0 -0.19493831731E+01  0.16699898257E+02 -0.78051511477E+01  0.18536641585E+02  0.51100000000E-03 0. -1.
        -11    1    3    3    0    0  0.14019452489E+02  0.71259205701E+00  0.12114736947E+02  0.18542375444E+02  0.51100000000E-03 0.  1.
         12    1    3    3    0    0 -0.21321153928E+02 -0.26756194045E+02  0.90243032871E+01  0.35382532052E+02  0.00000000000E+00 0. -1.
</event>
<event>
 7    1  0.3348003E-013  0.7246156E+02  0.7816164E-02  0.1226708E+00
        -11   -1    0    0    0    0  0.00000000000E+00  0.00000000000E+00  0.45593999997E+02  0.45594000000E+02  0.51100000000E-03 0.  1.
         11   -1    0    0    0    0 -0.00000000000E+00 -0.00000000000E+00 -0.45593999997E+02  0.45594000000E+02  0.51100000000E-03 0. -1.
    9900012    2    1    2    0    0  0.16854538217E+02 -0.42699168336E+01 -0.69550008081E+01  0.72461556544E+02  0.69999982088E+02 0.  0.
         12    1    1    2    0    0 -0.16854538217E+02  0.42699168336E+01  0.69550008081E+01  0.18726443456E+02  0.00000000000E+00 0. -1.
         11    1    3    3    0    0  0.15979256861E+02 -0.81452524933E+01 -0.10414475199E+02  0.20739891078E+02  0.51100000000E-03 0. -1.
        -11    1    3    3    0    0 -0.43049079374E+01 -0.19857905280E+02  0.14576341699E+02  0.25006766526E+02  0.51100000000E-03 0.  1.
         12    1    3    3    0    0  0.51801892929E+01  0.23733240940E+02 -0.11116867309E+02  0.26714898940E+02  0.00000000000E+00 0. -1.
</event>
<event>
 7    1  0.3348003E-013  0.7246157E+02  0.7816164E-02  0.1226708E+00
        -11   -1    0    0    0    0  0.00000000000E+00  0.00000000000E+00  0.45593999997E+02  0.45594000000E+02  0.51100000000E-03 0.  1.
         11   -1    0    0    0    0 -0.00000000000E+00 -0.00000000000E+00 -0.45593999997E+02  0.45594000000E+02  0.51100000000E-03 0. -1.
    9900012    2    1    2    0    0 -0.16607883959E+02 -0.67196077031E+01 -0.54501486810E+01  0.72461573274E+02  0.70000003881E+02 0.  0.
         12    1    1    2    0    0  0.16607883959E+02  0.67196077031E+01  0.54501486810E+01  0.18726426726E+02  0.00000000000E+00 0. -1.
         11    1    3    3    0    0  0.52492869861E+01 -0.21310446939E+02  0.58243612121E+01  0.22707121051E+02  0.51100000000E-03 0. -1.
        -11    1    3    3    0    0 -0.15610571853E+02  0.16247604353E+02  0.12049815861E+02  0.25551373023E+02  0.51100000000E-03 0.  1.
         12    1    3    3    0    0 -0.62465990923E+01 -0.16567651172E+01 -0.23324325754E+02  0.24203079200E+02  0.00000000000E+00 0. -1.
</event>
<event>
 7    1  0.3348003E-013  0.7246158E+02  0.7816164E-02  0.1226708E+00
        -11   -1    0    0    0    0  0.00000000000E+00  0.00000000000E+00  0.45593999997E+02  0.45594000000E+02  0.51100000000E-03 0.  1.
         11   -1    0    0    0    0 -0.00000000000E+00 -0.00000000000E+00 -0.45593999997E+02  0.45594000000E+02  0.51100000000E-03 0. -1.
    9900012    2    1    2    0    0  0.13131727290E+02  0.42651106123E+01  0.12650911157E+02  0.72461575267E+02  0.70000006478E+02 0.  0.
         12    1    1    2    0    0 -0.13131727290E+02 -0.42651106123E+01 -0.12650911157E+02  0.18726424733E+02  0.00000000000E+00 0. -1.
         11    1    3    3    0    0 -0.68591026275E+01 -0.57644268872E+00  0.40170122324E+01  0.79696902427E+01  0.51100000000E-03 0. -1.
        -11    1    3    3    0    0  0.17663153273E+02  0.55503281683E+01  0.34157458770E+02  0.38852607586E+02  0.51100000000E-03 0.  1.
         12    1    3    3    0    0  0.23276766446E+01 -0.70877486727E+00 -0.25523559846E+02  0.25639277438E+02  0.00000000000E+00 0. -1.
</event>
<event>
 7    1  0.3348003E-013  0.7246156E+02  0.7816164E-02  0.1226708E+00
        -11   -1    0    0    0    0  0.00000000000E+00  0.00000000000E+00  0.45593999997E+02  0.45594000000E+02  0.51100000000E-03 0. -1.
         11   -1    0    0    0    0 -0.00000000000E+00 -0.00000000000E+00 -0.45593999997E+02  0.45594000000E+02  0.51100000000E-03 0.  1.
    9900012    2    1    2    0    0  0.11239598345E+02  0.12841069546E+02 -0.77108972456E+01  0.72461559485E+02  0.69999985918E+02 0.  0.
         12    1    1    2    0    0 -0.11239598345E+02 -0.12841069546E+02  0.77108972456E+01  0.18726440515E+02  0.00000000000E+00 0. -1.
         11    1    3    3    0    0 -0.29374719307E+01 -0.12573846341E+02 -0.62826351981E+01  0.14359730445E+02  0.51100000000E-03 0. -1.
        -11    1    3    3    0    0 -0.98665063164E+01 -0.69696711020E+01  0.10537478968E+02  0.16030056938E+02  0.51100000000E-03 0.  1.
         12    1    3    3    0    0  0.24043576592E+02  0.32384586989E+02 -0.11965741015E+02  0.42071772102E+02  0.00000000000E+00 0. -1.
</event>
<event>
 7    1  0.3348003E-013  0.7246156E+02  0.7816164E-02  0.1226708E+00
        -11   -1    0    0    0    0  0.00000000000E+00  0.00000000000E+00  0.45593999997E+02  0.45594000000E+02  0.51100000000E-03 0. -1.
         11   -1    0    0    0    0 -0.00000000000E+00 -0.00000000000E+00 -0.45593999997E+02  0.45594000000E+02  0.51100000000E-03 0.  1.
    9900012    2    1    2    0    0 -0.45547401007E+01 -0.18149464331E+02  0.72850548305E+00  0.72461563256E+02  0.69999990831E+02 0.  0.
         12    1    1    2    0    0  0.45547401007E+01  0.18149464331E+02 -0.72850548305E+00  0.18726436744E+02  0.00000000000E+00 0. -1.
         11    1    3    3    0    0 -0.28860690848E+00 -0.40077499484E+01  0.23621282339E+01  0.46610088662E+01  0.51100000000E-03 0. -1.
        -11    1    3    3    0    0 -0.53563869892E+01 -0.40336589929E+02  0.43082142089E+01  0.40918114309E+02  0.51100000000E-03 0.  1.
         12    1    3    3    0    0  0.10902537969E+01  0.26194875546E+02 -0.59418369598E+01  0.26882440081E+02  0.00000000000E+00 0. -1.
</event>
<event>
 7    1  0.3348003E-013  0.7246155E+02  0.7816164E-02  0.1226708E+00
        -11   -1    0    0    0    0  0.00000000000E+00  0.00000000000E+00  0.45593999997E+02  0.45594000000E+02  0.51100000000E-03 0.  1.
         11   -1    0    0    0    0 -0.00000000000E+00 -0.00000000000E+00 -0.45593999997E+02  0.45594000000E+02  0.51100000000E-03 0. -1.
    9900012    2    1    2    0    0  0.90166880302E+01 -0.66370823594E+01  0.15010939240E+02  0.72461552869E+02  0.69999977300E+02 0.  0.
         12    1    1    2    0    0 -0.90166880302E+01  0.66370823594E+01 -0.15010939240E+02  0.18726447131E+02  0.00000000000E+00 0. -1.
         11    1    3    3    0    0 -0.16342141293E+01  0.21349638289E+01 -0.75099321231E+01  0.79767040265E+01  0.51100000000E-03 0. -1.
        -11    1    3    3    0    0  0.77092568067E+01  0.25168056296E+02  0.87338332479E+01  0.27733437250E+02  0.51100000000E-03 0.  1.
         12    1    3    3    0    0  0.29416453529E+01 -0.33940102484E+02  0.13787038116E+02  0.36751411592E+02  0.00000000000E+00 0. -1.
</event>
<event>
 7    1  0.3348003E-013  0.7246157E+02  0.7816164E-02  0.1226708E+00
        -11   -1    0    0    0    0  0.00000000000E+00  0.00000000000E+00  0.45593999997E+02  0.45594000000E+02  0.51100000000E-03 0.  1.
         11   -1    0    0    0    0 -0.00000000000E+00 -0.00000000000E+00 -0.45593999997E+02  0.45594000000E+02  0.51100000000E-03 0. -1.
    9900012    2    1    2    0    0 -0.17685056583E+02 -0.53241712269E+01 -0.30937460157E+01  0.72461567077E+02  0.69999995809E+02 0.  0.
         12    1    1    2    0    0  0.17685056583E+02  0.53241712269E+01  0.30937460157E+01  0.18726432923E+02  0.00000000000E+00 0. -1.
         11    1    3    3    0    0 -0.50214609872E+01 -0.23751752486E+02 -0.12305311411E+01  0.24307921008E+02  0.51100000000E-03 0. -1.
        -11    1    3    3    0    0 -0.13434964091E+02 -0.75644288055E+01  0.11196742858E+02  0.19054812888E+02  0.51100000000E-03 0.  1.
         12    1    3    3    0    0  0.77136849494E+00  0.25992010064E+02 -0.13059957733E+02  0.29098833181E+02  0.00000000000E+00 0. -1.
</event>
<event>
 7    1  0.3348003E-013  0.7246151E+02  0.7816164E-02  0.1226708E+00
        -11   -1    0    0    0    0  0.00000000000E+00  0.00000000000E+00  0.45593999997E+02  0.45594000000E+02  0.51100000000E-03 0.  1.
         11   -1    0    0    0    0 -0.00000000000E+00 -0.00000000000E+00 -0.45593999997E+02  0.45594000000E+02  0.51100000000E-03 0. -1.
    9900012    2    1    2    0    0  0.11454065067E+02  0.76720339913E+01  0.12673826168E+02  0.72461505885E+02  0.69999916094E+02 0.  0.
         12    1    1    2    0    0 -0.11454065067E+02 -0.76720339913E+01 -0.12673826168E+02  0.18726494115E+02  0.00000000000E+00 0. -1.
         11    1    3    3    0    0 -0.57666588735E+01 -0.13470341321E+01 -0.90631454667E+01  0.10826331859E+02  0.51100000000E-03 0. -1.
        -11    1    3    3    0    0 -0.46748468222E+01 -0.20247136822E+02  0.11150885359E+02  0.23582684047E+02  0.51100000000E-03 0.  1.
         12    1    3    3    0    0  0.21895570762E+02  0.29266204945E+02  0.10586086276E+02  0.38052489978E+02  0.00000000000E+00 0. -1.
</event>
<event>
 7    1  0.3348003E-013  0.7246152E+02  0.7816164E-02  0.1226708E+00
        -11   -1    0    0    0    0  0.00000000000E+00  0.00000000000E+00  0.45593999997E+02  0.45594000000E+02  0.51100000000E-03 0.  1.
         11   -1    0    0    0    0 -0.00000000000E+00 -0.00000000000E+00 -0.45593999997E+02  0.45594000000E+02  0.51100000000E-03 0. -1.
    9900012    2    1    2    0    0  0.43142688355E+00 -0.18050335163E+02  0.49679297294E+01  0.72461519966E+02  0.69999934438E+02 0.  0.
         12    1    1    2    0    0 -0.43142688355E+00  0.18050335163E+02 -0.49679297294E+01  0.18726480034E+02  0.00000000000E+00 0. -1.
         11    1    3    3    0    0  0.81034936648E+01 -0.28175159136E+02 -0.13975681101E+02  0.32478082832E+02  0.51100000000E-03 0. -1.
        -11    1    3    3    0    0  0.11146017565E+02  0.35643563680E+01 -0.10560927181E+01  0.11749624503E+02  0.51100000000E-03 0.  1.
        -12    1    3    3    0    0 -0.18818084346E+02  0.65604676053E+01  0.19999703549E+02  0.28233812631E+02  0.00000000000E+00 0.  1.
</event>
<event>
 7    1  0.3348003E-013  0.7246161E+02  0.7816164E-02  0.1226708E+00
        -11   -1    0    0    0    0  0.00000000000E+00  0.00000000000E+00  0.45593999997E+02  0.45594000000E+02  0.51100000000E-03 0.  1.
         11   -1    0    0    0    0 -0.00000000000E+00 -0.00000000000E+00 -0.45593999997E+02  0.45594000000E+02  0.51100000000E-03 0. -1.
    9900012    2    1    2    0    0  0.10940768059E+02 -0.14533437373E+02  0.44448451694E+01  0.72461605361E+02  0.70000045681E+02 0.  0.
         12    1    1    2    0    0 -0.10940768059E+02  0.14533437373E+02 -0.44448451694E+01  0.18726394639E+02  0.00000000000E+00 0. -1.
         11    1    3    3    0    0 -0.13787784519E+01 -0.18697821399E+02  0.12017862091E+02  0.22269678142E+02  0.51100000000E-03 0. -1.
        -11    1    3    3    0    0  0.10654554628E+02  0.10023026982E+02  0.18404646236E+02  0.23509819386E+02  0.51100000000E-03 0.  1.
         12    1    3    3    0    0  0.16649918830E+01 -0.58586429567E+01 -0.25977663157E+02  0.26682107833E+02  0.00000000000E+00 0. -1.
</event>
<event>
 7    1  0.3348003E-013  0.7246159E+02  0.7816164E-02  0.1226708E+00
        -11   -1    0    0    0    0  0.00000000000E+00  0.00000000000E+00  0.45593999997E+02  0.45594000000E+02  0.51100000000E-03 0.  1.
         11   -1    0    0    0    0 -0.00000000000E+00 -0.00000000000E+00 -0.45593999997E+02  0.45594000000E+02  0.51100000000E-03 0. -1.
    9900012    2    1    2    0    0  0.70882808378E+01 -0.17068010682E+02 -0.30195618447E+01  0.72461589035E+02  0.70000024413E+02 0.  0.
         12    1    1    2    0    0 -0.70882808378E+01  0.17068010682E+02  0.30195618447E+01  0.18726410965E+02  0.00000000000E+00 0. -1.
         11    1    3    3    0    0  0.60413685811E+01  0.56846456523E+01 -0.23346357446E+02  0.24776314027E+02  0.51100000000E-03 0. -1.
        -11    1    3    3    0    0  0.53789189130E+01  0.90581933529E+01  0.82637933473E+01  0.13389320977E+02  0.51100000000E-03 0.  1.
        -12    1    3    3    0    0 -0.43320066563E+01 -0.31810849688E+02  0.12063002254E+02  0.34295954031E+02  0.00000000000E+00 0.  1.
</event>
<event>
 7    1  0.3348003E-013  0.7246156E+02  0.7816164E-02  0.1226708E+00
        -11   -1    0    0    0    0  0.00000000000E+00  0.00000000000E+00  0.45593999997E+02  0.45594000000E+02  0.51100000000E-03 0. -1.
         11   -1    0    0    0    0 -0.00000000000E+00 -0.00000000000E+00 -0.45593999997E+02  0.45594000000E+02  0.51100000000E-03 0.  1.
    9900012    2    1    2    0    0 -0.15133508972E+02  0.51748981709E+01 -0.97404713764E+01  0.72461562872E+02  0.69999990331E+02 0.  0.
         12    1    1    2    0    0  0.15133508972E+02 -0.51748981709E+01  0.97404713764E+01  0.18726437128E+02  0.00000000000E+00 0. -1.
         11    1    3    3    0    0 -0.96607286487E+01  0.96247835917E+01 -0.49435327289E+01  0.14505331893E+02  0.51100000000E-03 0. -1.
        -11    1    3    3    0    0 -0.18893342647E+02  0.20652270134E+02 -0.84977659833E+01  0.29252122744E+02  0.51100000000E-03 0.  1.
         12    1    3    3    0    0  0.13420562324E+02 -0.25102155555E+02  0.37008273358E+01  0.28704108235E+02  0.00000000000E+00 0. -1.
</event>
<event>
 7    1  0.3348003E-013  0.7246154E+02  0.7816164E-02  0.1226708E+00
        -11   -1    0    0    0    0  0.00000000000E+00  0.00000000000E+00  0.45593999997E+02  0.45594000000E+02  0.51100000000E-03 0. -1.
         11   -1    0    0    0    0 -0.00000000000E+00 -0.00000000000E+00 -0.45593999997E+02  0.45594000000E+02  0.51100000000E-03 0.  1.
    9900012    2    1    2    0    0 -0.18689114287E+02 -0.10830317193E+01 -0.47383197934E+00  0.72461535644E+02  0.69999954861E+02 0.  0.
         12    1    1    2    0    0  0.18689114287E+02  0.10830317193E+01  0.47383197934E+00  0.18726464356E+02  0.00000000000E+00 0. -1.
         11    1    3    3    0    0  0.62369392032E+01  0.20855459147E+02 -0.76341590921E+01  0.23067942521E+02  0.51100000000E-03 0. -1.
        -11    1    3    3    0    0  0.58496873636E+01  0.30921719315E+01 -0.45517726718E+01  0.80311272075E+01  0.51100000000E-03 0.  1.
        -12    1    3    3    0    0 -0.30775740854E+02 -0.25030662798E+02  0.11712099785E+02  0.41362465915E+02  0.00000000000E+00 0.  1.
</event>
<event>
 7    1  0.3348003E-013  0.7246149E+02  0.7816164E-02  0.1226708E+00
        -11   -1    0    0    0    0  0.00000000000E+00  0.00000000000E+00  0.45593999997E+02  0.45594000000E+02  0.51100000000E-03 0.  1.
         11   -1    0    0    0    0 -0.00000000000E+00 -0.00000000000E+00 -0.45593999997E+02  0.45594000000E+02  0.51100000000E-03 0. -1.
    9900012    2    1    2    0    0 -0.13041708164E+02  0.11963812811E+02  0.61207225209E+01  0.72461489033E+02  0.69999894142E+02 0.  0.
         12    1    1    2    0    0  0.13041708164E+02 -0.11963812811E+02 -0.61207225209E+01  0.18726510967E+02  0.00000000000E+00 0. -1.
         11    1    3    3    0    0  0.78043077815E+00 -0.10558855663E+02 -0.15329324315E+02  0.18630262729E+02  0.51100000000E-03 0. -1.
        -11    1    3    3    0    0 -0.11438459999E+01 -0.94850096918E+01  0.16477446461E+02  0.19046785415E+02  0.51100000000E-03 0.  1.
         12    1    3    3    0    0 -0.12678292942E+02  0.32007678166E+02  0.49726003757E+01  0.34784440889E+02  0.00000000000E+00 0. -1.
</event>
<event>
 7    1  0.3348003E-013  0.7246170E+02  0.7816164E-02  0.1226708E+00
        -11   -1    0    0    0    0  0.00000000000E+00  0.00000000000E+00  0.45593999997E+02  0.45594000000E+02  0.51100000000E-03 0.  1.
         11   -1    0    0    0    0 -0.00000000000E+00 -0.00000000000E+00 -0.45593999997E+02  0.45594000000E+02  0.51100000000E-03 0. -1.
    9900012    2    1    2    0    0 -0.18342952961E+02 -0.17893615143E+01 -0.33179380913E+01  0.72461696276E+02  0.70000164115E+02 0.  0.
         12    1    1    2    0    0  0.18342952961E+02  0.17893615143E+01  0.33179380913E+01  0.18726303724E+02  0.00000000000E+00 0. -1.
         11    1    3    3    0    0  0.21679160639E+02 -0.95186819677E+01 -0.10599921415E+02  0.25941273035E+02  0.51100000000E-03 0. -1.
        -11    1    3    3    0    0 -0.61075812920E+01  0.66817402278E+01  0.87063852890E+01  0.12559830682E+02  0.51100000000E-03 0.  1.
        -12    1    3    3    0    0 -0.33914532308E+02  0.10475802256E+01 -0.14244019649E+01  0.33960592559E+02  0.00000000000E+00 0.  1.
</event>
<event>
 7    1  0.3348003E-013  0.7246162E+02  0.7816164E-02  0.1226708E+00
        -11   -1    0    0    0    0  0.00000000000E+00  0.00000000000E+00  0.45593999997E+02  0.45594000000E+02  0.51100000000E-03 0.  1.
         11   -1    0    0    0    0 -0.00000000000E+00 -0.00000000000E+00 -0.45593999997E+02  0.45594000000E+02  0.51100000000E-03 0. -1.
    9900012    2    1    2    0    0 -0.95587950941E+01 -0.14556806311E+02 -0.68852091121E+01  0.72461620795E+02  0.70000065786E+02 0.  0.
         12    1    1    2    0    0  0.95587950941E+01  0.14556806311E+02  0.68852091121E+01  0.18726379205E+02  0.00000000000E+00 0. -1.
         11    1    3    3    0    0 -0.28852873736E+01 -0.83423047149E+01  0.37824393198E+01  0.96034253604E+01  0.51100000000E-03 0. -1.
        -11    1    3    3    0    0 -0.54317155455E+01 -0.13341813251E+02  0.23701587416E+02  0.27735766816E+02  0.51100000000E-03 0.  1.
         12    1    3    3    0    0 -0.12417921750E+01  0.71273116545E+01 -0.34369235848E+02  0.35122428618E+02  0.00000000000E+00 0. -1.
</event>
<event>
 7    1  0.3348003E-013  0.7246157E+02  0.7816164E-02  0.1226708E+00
        -11   -1    0    0    0    0  0.00000000000E+00  0.00000000000E+00  0.45593999997E+02  0.45594000000E+02  0.51100000000E-03 0.  1.
         11   -1    0    0    0    0 -0.00000000000E+00 -0.00000000000E+00 -0.45593999997E+02  0.45594000000E+02  0.51100000000E-03 0. -1.
    9900012    2    1    2    0    0  0.66913930744E-01 -0.16324213880E+02  0.91757596047E+01  0.72461574805E+02  0.70000005876E+02 0.  0.
         12    1    1    2    0    0 -0.66913930744E-01  0.16324213880E+02 -0.91757596047E+01  0.18726425195E+02  0.00000000000E+00 0. -1.
         11    1    3    3    0    0 -0.13392220324E+02  0.12622058040E+02  0.15091771683E+02  0.23799779141E+02  0.51100000000E-03 0. -1.
        -11    1    3    3    0    0  0.94467961825E+01  0.36239331313E+01 -0.11561090312E+02  0.15363386961E+02  0.51100000000E-03 0.  1.
        -12    1    3    3    0    0  0.40123380724E+01 -0.32570205051E+02  0.56450782339E+01  0.33298408703E+02  0.00000000000E+00 0.  1.
</event>
<event>
 7    1  0.3348003E-013  0.7246157E+02  0.7816164E-02  0.1226708E+00
        -11   -1    0    0    0    0  0.00000000000E+00  0.00000000000E+00  0.45593999997E+02  0.45594000000E+02  0.51100000000E-03 0. -1.
         11   -1    0    0    0    0 -0.00000000000E+00 -0.00000000000E+00 -0.45593999997E+02  0.45594000000E+02  0.51100000000E-03 0.  1.
    9900012    2    1    2    0    0 -0.55984192095E+01  0.30952335549E+01 -0.17599898091E+02  0.72461569982E+02  0.69999999594E+02 0.  0.
         12    1    1    2    0    0  0.55984192095E+01 -0.30952335549E+01  0.17599898091E+02  0.18726430018E+02  0.00000000000E+00 0. -1.
         11    1    3    3    0    0  0.22181795314E+02 -0.68979642143E+01  0.12508863988E+02  0.26383434806E+02  0.51100000000E-03 0. -1.
        -11    1    3    3    0    0  0.38867022796E+00 -0.13956844082E+00  0.20799301479E+01  0.21205314374E+01  0.51100000000E-03 0.  1.
        -12    1    3    3    0    0 -0.28168884752E+02  0.10132766210E+02 -0.32188692226E+02  0.43957603739E+02  0.00000000000E+00 0.  1.
</event>
<event>
 7    1  0.3348003E-013  0.7246156E+02  0.7816164E-02  0.1226708E+00
        -11   -1    0    0    0    0  0.00000000000E+00  0.00000000000E+00  0.45593999997E+02  0.45594000000E+02  0.51100000000E-03 0.  1.
         11   -1    0    0    0    0 -0.00000000000E+00 -0.00000000000E+00 -0.45593999997E+02  0.45594000000E+02  0.51100000000E-03 0. -1.
    9900012    2    1    2    0    0  0.16391715229E+02  0.15452453100E+01 -0.89220769453E+01  0.72461559649E+02  0.69999986132E+02 0.  0.
         12    1    1    2    0    0 -0.16391715229E+02 -0.15452453100E+01  0.89220769453E+01  0.18726440351E+02  0.00000000000E+00 0. -1.
         11    1    3    3    0    0 -0.99142079410E+00 -0.14995057252E+02 -0.26880307159E+01  0.15266308217E+02  0.51100000000E-03 0. -1.
        -11    1    3    3    0    0  0.95280910599E+01 -0.18017958078E+02 -0.75384018386E+01  0.21731517091E+02  0.51100000000E-03 0.  1.
         12    1    3    3    0    0  0.78550449632E+01  0.34558260640E+02  0.13043556092E+01  0.35463734341E+02  0.00000000000E+00 0. -1.
</event>
<event>
 7    1  0.3348003E-013  0.7246149E+02  0.7816164E-02  0.1226708E+00
        -11   -1    0    0    0    0  0.00000000000E+00  0.00000000000E+00  0.45593999997E+02  0.45594000000E+02  0.51100000000E-03 0.  1.
         11   -1    0    0    0    0 -0.00000000000E+00 -0.00000000000E+00 -0.45593999997E+02  0.45594000000E+02  0.51100000000E-03 0. -1.
    9900012    2    1    2    0    0  0.41291201373E+01 -0.12439196529E+01  0.18223203685E+02  0.72461491469E+02  0.69999897315E+02 0.  0.
         12    1    1    2    0    0 -0.41291201373E+01  0.12439196529E+01 -0.18223203685E+02  0.18726508531E+02  0.00000000000E+00 0. -1.
         11    1    3    3    0    0 -0.82394374858E+01 -0.39526365005E+01 -0.19772274130E+02  0.21781976263E+02  0.51100000000E-03 0. -1.
        -11    1    3    3    0    0 -0.29250660100E+00  0.68612939267E+01 -0.30581417645E+01  0.75176556035E+01  0.51100000000E-03 0.  1.
        -12    1    3    3    0    0  0.12661064224E+02 -0.41525770790E+01  0.41053619580E+02  0.43161859602E+02  0.00000000000E+00 0.  1.
</event>
<event>
 7    1  0.3348003E-013  0.7246159E+02  0.7816164E-02  0.1226708E+00
        -11   -1    0    0    0    0  0.00000000000E+00  0.00000000000E+00  0.45593999997E+02  0.45594000000E+02  0.51100000000E-03 0. -1.
         11   -1    0    0    0    0 -0.00000000000E+00 -0.00000000000E+00 -0.45593999997E+02  0.45594000000E+02  0.51100000000E-03 0.  1.
    9900012    2    1    2    0    0  0.15060858376E+02 -0.77683110701E+00  0.11101607820E+02  0.72461585027E+02  0.70000019191E+02 0.  0.
         12    1    1    2    0    0 -0.15060858376E+02  0.77683110701E+00 -0.11101607820E+02  0.18726414973E+02  0.00000000000E+00 0. -1.
         11    1    3    3    0    0  0.98672679294E+01 -0.20922355717E+02 -0.71881739692E+01  0.24223496659E+02  0.51100000000E-03 0. -1.
        -11    1    3    3    0    0  0.37011640981E+01  0.60794003183E+01 -0.12483272878E+02  0.14369753857E+02  0.51100000000E-03 0.  1.
         12    1    3    3    0    0  0.14924263481E+01  0.14066124291E+02  0.30773054666E+02  0.33868334510E+02  0.00000000000E+00 0. -1.
</event>
<event>
 7    1  0.3348003E-013  0.7246156E+02  0.7816164E-02  0.1226708E+00
        -11   -1    0    0    0    0  0.00000000000E+00  0.00000000000E+00  0.45593999997E+02  0.45594000000E+02  0.51100000000E-03 0.  1.
         11   -1    0    0    0    0 -0.00000000000E+00 -0.00000000000E+00 -0.45593999997E+02  0.45594000000E+02  0.51100000000E-03 0. -1.
    9900012    2    1    2    0    0 -0.15238686370E+02  0.25491728080E+01  0.10581285137E+02  0.72461563088E+02  0.69999990612E+02 0.  0.
         12    1    1    2    0    0  0.15238686370E+02 -0.25491728080E+01 -0.10581285137E+02  0.18726436912E+02  0.00000000000E+00 0. -1.
         11    1    3    3    0    0 -0.43551562426E+01 -0.12922564689E+02 -0.75241524213E+01  0.15574753094E+02  0.51100000000E-03 0. -1.
        -11    1    3    3    0    0  0.19556736922E+02  0.30131727357E+01  0.12810244543E+02  0.23572177127E+02  0.51100000000E-03 0.  1.
        -12    1    3    3    0    0 -0.30440267049E+02  0.12458564761E+02  0.52951930152E+01  0.33314632866E+02  0.00000000000E+00 0.  1.
</event>
<event>
 7    1  0.3348003E-013  0.7246158E+02  0.7816164E-02  0.1226708E+00
        -11   -1    0    0    0    0  0.00000000000E+00  0.00000000000E+00  0.45593999997E+02  0.45594000000E+02  0.51100000000E-03 0. -1.
         11   -1    0    0    0    0 -0.00000000000E+00 -0.00000000000E+00 -0.45593999997E+02  0.45594000000E+02  0.51100000000E-03 0.  1.
    9900012    2    1    2    0    0  0.29211946908E+01  0.13790824210E+02 -0.12327149276E+02  0.72461579624E+02  0.70000012154E+02 0.  0.
         12    1    1    2    0    0 -0.29211946908E+01 -0.13790824210E+02  0.12327149276E+02  0.18726420376E+02  0.00000000000E+00 0. -1.
         11    1    3    3    0    0 -0.13798718131E+02 -0.11329972281E+02 -0.24574400509E+01  0.18022538828E+02  0.51100000000E-03 0. -1.
        -11    1    3    3    0    0 -0.77017504625E+01  0.10128530922E+02 -0.20287678476E+02  0.23947734695E+02  0.51100000000E-03 0.  1.
         12    1    3    3    0    0  0.24421663284E+02  0.14992265569E+02  0.10417969251E+02  0.30491306101E+02  0.00000000000E+00 0. -1.
</event>
<event>
 7    1  0.3348003E-013  0.7246147E+02  0.7816164E-02  0.1226708E+00
        -11   -1    0    0    0    0  0.00000000000E+00  0.00000000000E+00  0.45593999997E+02  0.45594000000E+02  0.51100000000E-03 0.  1.
         11   -1    0    0    0    0 -0.00000000000E+00 -0.00000000000E+00 -0.45593999997E+02  0.45594000000E+02  0.51100000000E-03 0. -1.
    9900012    2    1    2    0    0 -0.69569868692E+01  0.57857908995E+01  0.16395366424E+02  0.72461465809E+02  0.69999863888E+02 0.  0.
         12    1    1    2    0    0  0.69569868692E+01 -0.57857908995E+01 -0.16395366424E+02  0.18726534191E+02  0.00000000000E+00 0. -1.
         11    1    3    3    0    0  0.14163712576E+02  0.18839993838E+02  0.13096834331E+02  0.26964480182E+02  0.51100000000E-03 0. -1.
        -11    1    3    3    0    0  0.78655768825E+01 -0.54465729118E+01 -0.89702938954E+01  0.13114824780E+02  0.51100000000E-03 0.  1.
        -12    1    3    3    0    0 -0.28986276327E+02 -0.76076300267E+01  0.12268825989E+02  0.32382160846E+02  0.00000000000E+00 0.  1.
</event>
<event>
 7    1  0.3348003E-013  0.7246166E+02  0.7816164E-02  0.1226708E+00
        -11   -1    0    0    0    0  0.00000000000E+00  0.00000000000E+00  0.45593999997E+02  0.45594000000E+02  0.51100000000E-03 0.  1.
         11   -1    0    0    0    0 -0.00000000000E+00 -0.00000000000E+00 -0.45593999997E+02  0.45594000000E+02  0.51100000000E-03 0. -1.
    9900012    2    1    2    0    0 -0.65254323241E+01  0.11866713181E+02  0.12933505215E+02  0.72461662774E+02  0.70000120472E+02 0.  0.
         12    1    1    2    0    0  0.65254323241E+01 -0.11866713181E+02 -0.12933505215E+02  0.18726337226E+02  0.00000000000E+00 0. -1.
         11    1    3    3    0    0 -0.10406359019E+02  0.90663071742E+01 -0.16016990351E+02  0.21143183629E+02  0.51100000000E-03 0. -1.
        -11    1    3    3    0    0 -0.17135237192E+02  0.31663612813E+00  0.23063937587E+01  0.17292659266E+02  0.51100000000E-03 0.  1.
        -12    1    3    3    0    0  0.21016163886E+02  0.24837698788E+01  0.26644101808E+02  0.34025819879E+02  0.00000000000E+00 0.  1.
</event>
<event>
 7    1  0.3348003E-013  0.7246154E+02  0.7816164E-02  0.1226708E+00
        -11   -1    0    0    0    0  0.00000000000E+00  0.00000000000E+00  0.45593999997E+02  0.45594000000E+02  0.51100000000E-03 0. -1.
         11   -1    0    0    0    0 -0.00000000000E+00 -0.00000000000E+00 -0.45593999997E+02  0.45594000000E+02  0.51100000000E-03 0.  1.
    9900012    2    1    2    0    0  0.16176361984E+02  0.56818331761E+01  0.75314237329E+01  0.72461541212E+02  0.69999962115E+02 0.  0.
         12    1    1    2    0    0 -0.16176361984E+02 -0.56818331761E+01 -0.75314237329E+01  0.18726458788E+02  0.00000000000E+00 0. -1.
         11    1    3    3    0    0  0.23978077684E+02  0.12532751891E+02 -0.40895675347E+01  0.27363162139E+02  0.51100000000E-03 0. -1.
        -11    1    3    3    0    0 -0.18360944455E+02 -0.14498072119E+02 -0.50510978674E+01  0.23933908297E+02  0.51100000000E-03 0.  1.
         12    1    3    3    0    0  0.10559228756E+02  0.76471534039E+01  0.16672089135E+02  0.21164470776E+02  0.00000000000E+00 0. -1.
</event>
<event>
 7    1  0.3348003E-013  0.7246165E+02  0.7816164E-02  0.1226708E+00
        -11   -1    0    0    0    0  0.00000000000E+00  0.00000000000E+00  0.45593999997E+02  0.45594000000E+02  0.51100000000E-03 0. -1.
         11   -1    0    0    0    0 -0.00000000000E+00 -0.00000000000E+00 -0.45593999997E+02  0.45594000000E+02  0.51100000000E-03 0.  1.
    9900012    2    1    2    0    0 -0.69755132907E+01  0.33633545622E+01 -0.17050107357E+02  0.72461652239E+02  0.70000106748E+02 0.  0.
         12    1    1    2    0    0  0.69755132907E+01 -0.33633545622E+01  0.17050107357E+02  0.18726347761E+02  0.00000000000E+00 0. -1.
         11    1    3    3    0    0  0.20716724323E+02  0.66689644140E+01 -0.67872194274E+01  0.22797458210E+02  0.51100000000E-03 0. -1.
        -11    1    3    3    0    0  0.10201926475E+02  0.14526129531E+01 -0.91680593885E+00  0.10345526646E+02  0.51100000000E-03 0.  1.
        -12    1    3    3    0    0 -0.37894164088E+02 -0.47582228050E+01 -0.93460819905E+01  0.39318667383E+02  0.00000000000E+00 0.  1.
</event>
<event>
 7    1  0.3348003E-013  0.7246143E+02  0.7816164E-02  0.1226708E+00
        -11   -1    0    0    0    0  0.00000000000E+00  0.00000000000E+00  0.45593999997E+02  0.45594000000E+02  0.51100000000E-03 0.  1.
         11   -1    0    0    0    0 -0.00000000000E+00 -0.00000000000E+00 -0.45593999997E+02  0.45594000000E+02  0.51100000000E-03 0. -1.
    9900012    2    1    2    0    0 -0.83274315652E+01  0.16331696644E+02  0.38228460964E+01  0.72461425726E+02  0.69999811673E+02 0.  0.
         12    1    1    2    0    0  0.83274315652E+01 -0.16331696644E+02 -0.38228460964E+01  0.18726574274E+02  0.00000000000E+00 0. -1.
         11    1    3    3    0    0  0.87304726938E+01 -0.19481290291E+02 -0.11459550509E+02  0.24229385526E+02  0.51100000000E-03 0. -1.
        -11    1    3    3    0    0  0.51828467386E+01  0.10434298470E+02  0.13673287039E+01  0.11730561492E+02  0.51100000000E-03 0.  1.
        -12    1    3    3    0    0 -0.22240750998E+02  0.25378688465E+02  0.13915067902E+02  0.36501478708E+02  0.00000000000E+00 0.  1.
</event>
<event>
 7    1  0.3348003E-013  0.7246157E+02  0.7816164E-02  0.1226708E+00
        -11   -1    0    0    0    0  0.00000000000E+00  0.00000000000E+00  0.45593999997E+02  0.45594000000E+02  0.51100000000E-03 0.  1.
         11   -1    0    0    0    0 -0.00000000000E+00 -0.00000000000E+00 -0.45593999997E+02  0.45594000000E+02  0.51100000000E-03 0. -1.
    9900012    2    1    2    0    0 -0.89445121038E+01 -0.56479843143E+01  0.15452352544E+02  0.72461568874E+02  0.69999998149E+02 0.  0.
         12    1    1    2    0    0  0.89445121038E+01  0.56479843143E+01 -0.15452352544E+02  0.18726431126E+02  0.00000000000E+00 0. -1.
         11    1    3    3    0    0 -0.55260028369E+01 -0.21255786727E+02  0.24228189668E+02  0.32700922795E+02  0.51100000000E-03 0. -1.
        -11    1    3    3    0    0 -0.11736554093E+02  0.10904993378E+02  0.98642527481E+01  0.18814065618E+02  0.51100000000E-03 0.  1.
        -12    1    3    3    0    0  0.83180448259E+01  0.47028090347E+01 -0.18640089873E+02  0.20946580461E+02  0.00000000000E+00 0.  1.
</event>
<event>
 7    1  0.3348003E-013  0.7246158E+02  0.7816164E-02  0.1226708E+00
        -11   -1    0    0    0    0  0.00000000000E+00  0.00000000000E+00  0.45593999997E+02  0.45594000000E+02  0.51100000000E-03 0. -1.
         11   -1    0    0    0    0 -0.00000000000E+00 -0.00000000000E+00 -0.45593999997E+02  0.45594000000E+02  0.51100000000E-03 0.  1.
    9900012    2    1    2    0    0  0.18268050935E+02 -0.37711091381E+01 -0.16539875579E+01  0.72461584862E+02  0.70000018977E+02 0.  0.
         12    1    1    2    0    0 -0.18268050935E+02  0.37711091381E+01  0.16539875579E+01  0.18726415138E+02  0.00000000000E+00 0. -1.
         11    1    3    3    0    0 -0.60745649897E+01  0.45829233663E+01  0.14418391319E+02  0.16303175607E+02  0.51100000000E-03 0. -1.
        -11    1    3    3    0    0 -0.12304164035E+02  0.68677523679E+01 -0.51190744996E+01  0.14992111232E+02  0.51100000000E-03 0.  1.
        -12    1    3    3    0    0  0.36646779960E+02 -0.15221784872E+02 -0.10953304377E+02  0.41166298023E+02  0.00000000000E+00 0.  1.
</event>
<event>
 7    1  0.3348003E-013  0.7246161E+02  0.7816164E-02  0.1226708E+00
        -11   -1    0    0    0    0  0.00000000000E+00  0.00000000000E+00  0.45593999997E+02  0.45594000000E+02  0.51100000000E-03 0.  1.
         11   -1    0    0    0    0 -0.00000000000E+00 -0.00000000000E+00 -0.45593999997E+02  0.45594000000E+02  0.51100000000E-03 0. -1.
    9900012    2    1    2    0    0 -0.12170394364E+02  0.13423114416E+02  0.47306557079E+01  0.72461612121E+02  0.70000054487E+02 0.  0.
         12    1    1    2    0    0  0.12170394364E+02 -0.13423114416E+02 -0.47306557079E+01  0.18726387879E+02  0.00000000000E+00 0. -1.
         11    1    3    3    0    0  0.14223638016E+02 -0.98711742397E+01 -0.58553141556E+01  0.18276669921E+02  0.51100000000E-03 0. -1.
        -11    1    3    3    0    0  0.60128583338E+01 -0.47438259468E+01  0.82672586779E+01  0.11269690158E+02  0.51100000000E-03 0.  1.
        -12    1    3    3    0    0 -0.32406890714E+02  0.28038114602E+02  0.23187111855E+01  0.42915252041E+02  0.00000000000E+00 0.  1.
</event>
<event>
 7    1  0.3348003E-013  0.7246161E+02  0.7816164E-02  0.1226708E+00
        -11   -1    0    0    0    0  0.00000000000E+00  0.00000000000E+00  0.45593999997E+02  0.45594000000E+02  0.51100000000E-03 0.  1.
         11   -1    0    0    0    0 -0.00000000000E+00 -0.00000000000E+00 -0.45593999997E+02  0.45594000000E+02  0.51100000000E-03 0. -1.
    9900012    2    1    2    0    0 -0.15062328822E+02  0.13783420517E+01  0.11041022340E+02  0.72461608178E+02  0.70000049351E+02 0.  0.
         12    1    1    2    0    0  0.15062328822E+02 -0.13783420517E+01 -0.11041022340E+02  0.18726391822E+02  0.00000000000E+00 0. -1.
         11    1    3    3    0    0 -0.23551615083E+02 -0.72145632533E+01  0.52958931322E+01  0.25194741123E+02  0.51100000000E-03 0.  1.
        -11    1    3    3    0    0 -0.12037298459E+02 -0.75160158890E+01  0.13964883929E+02  0.19909922964E+02  0.51100000000E-03 0. -1.
         12    1    3    3    0    0  0.20526584720E+02  0.16108921194E+02 -0.82197547214E+01  0.27356944091E+02  0.00000000000E+00 0. -1.
</event>
<event>
 7    1  0.3348003E-013  0.7246156E+02  0.7816164E-02  0.1226708E+00
        -11   -1    0    0    0    0  0.00000000000E+00  0.00000000000E+00  0.45593999997E+02  0.45594000000E+02  0.51100000000E-03 0. -1.
         11   -1    0    0    0    0 -0.00000000000E+00 -0.00000000000E+00 -0.45593999997E+02  0.45594000000E+02  0.51100000000E-03 0.  1.
    9900012    2    1    2    0    0 -0.18537005177E+02 -0.26479498232E+01 -0.21743536861E+00  0.72461562076E+02  0.69999989294E+02 0.  0.
         12    1    1    2    0    0  0.18537005177E+02  0.26479498232E+01  0.21743536861E+00  0.18726437924E+02  0.00000000000E+00 0. -1.
         11    1    3    3    0    0  0.70411830579E+01 -0.16796376572E+01 -0.16483209049E+02  0.18002655980E+02  0.51100000000E-03 0. -1.
        -11    1    3    3    0    0 -0.18624365195E+02 -0.74395418624E+01 -0.12859353447E+02  0.23823868985E+02  0.51100000000E-03 0.  1.
         12    1    3    3    0    0 -0.69538230394E+01  0.64712296964E+01  0.29125127127E+02  0.30635037112E+02  0.00000000000E+00 0. -1.
</event>
<event>
 7    1  0.3348003E-013  0.7246154E+02  0.7816164E-02  0.1226708E+00
        -11   -1    0    0    0    0  0.00000000000E+00  0.00000000000E+00  0.45593999997E+02  0.45594000000E+02  0.51100000000E-03 0. -1.
         11   -1    0    0    0    0 -0.00000000000E+00 -0.00000000000E+00 -0.45593999997E+02  0.45594000000E+02  0.51100000000E-03 0.  1.
    9900012    2    1    2    0    0 -0.77900323947E+01 -0.16861115908E+02 -0.23871282965E+01  0.72461542357E+02  0.69999963606E+02 0.  0.
         12    1    1    2    0    0  0.77900323947E+01  0.16861115908E+02  0.23871282965E+01  0.18726457643E+02  0.00000000000E+00 0. -1.
         11    1    3    3    0    0  0.20857326957E+02  0.94709005907E+01  0.26765367803E+01  0.23062738241E+02  0.51100000000E-03 0. -1.
        -11    1    3    3    0    0  0.23069546254E+01 -0.11756258095E+02  0.60543405846E+01  0.13423363372E+02  0.51100000000E-03 0.  1.
        -12    1    3    3    0    0 -0.30954313977E+02 -0.14575758404E+02 -0.11118005661E+02  0.35975440744E+02  0.00000000000E+00 0.  1.
</event>
<event>
 7    1  0.3348003E-013  0.7246157E+02  0.7816164E-02  0.1226708E+00
        -11   -1    0    0    0    0  0.00000000000E+00  0.00000000000E+00  0.45593999997E+02  0.45594000000E+02  0.51100000000E-03 0.  1.
         11   -1    0    0    0    0 -0.00000000000E+00 -0.00000000000E+00 -0.45593999997E+02  0.45594000000E+02  0.51100000000E-03 0. -1.
    9900012    2    1    2    0    0 -0.60294379748E+01  0.14483441218E+02  0.10225213863E+02  0.72461569738E+02  0.69999999276E+02 0.  0.
         12    1    1    2    0    0  0.60294379748E+01 -0.14483441218E+02 -0.10225213863E+02  0.18726430262E+02  0.00000000000E+00 0. -1.
         11    1    3    3    0    0  0.12598776797E+02  0.20490096898E+02 -0.11148805571E+02  0.26511678815E+02  0.51100000000E-03 0. -1.
        -11    1    3    3    0    0 -0.68425738960E+01  0.69739841829E+01 -0.73991293969E+01  0.12255790019E+02  0.51100000000E-03 0.  1.
        -12    1    3    3    0    0 -0.11785640875E+02 -0.12980639863E+02  0.28773148831E+02  0.33694100904E+02  0.00000000000E+00 0.  1.
</event>
<event>
 7    1  0.3348003E-013  0.7246158E+02  0.7816164E-02  0.1226708E+00
        -11   -1    0    0    0    0  0.00000000000E+00  0.00000000000E+00  0.45593999997E+02  0.45594000000E+02  0.51100000000E-03 0. -1.
         11   -1    0    0    0    0 -0.00000000000E+00 -0.00000000000E+00 -0.45593999997E+02  0.45594000000E+02  0.51100000000E-03 0.  1.
    9900012    2    1    2    0    0  0.54788100670E+01  0.40026825929E+01 -0.17453943668E+02  0.72461575428E+02  0.70000006687E+02 0.  0.
         12    1    1    2    0    0 -0.54788100670E+01 -0.40026825929E+01  0.17453943668E+02  0.18726424572E+02  0.00000000000E+00 0. -1.
         11    1    3    3    0    0  0.11735099327E+02  0.19447521489E+02 -0.25237998944E+02  0.33954016541E+02  0.51100000000E-03 0. -1.
        -11    1    3    3    0    0 -0.15901577248E+02 -0.85687371660E+01 -0.71666524032E+01  0.19433072904E+02  0.51100000000E-03 0.  1.
         12    1    3    3    0    0  0.96452879877E+01 -0.68761017305E+01  0.14950707679E+02  0.19074485982E+02  0.00000000000E+00 0. -1.
</event>
<event>
 7    1  0.3348003E-013  0.7246152E+02  0.7816164E-02  0.1226708E+00
        -11   -1    0    0    0    0  0.00000000000E+00  0.00000000000E+00  0.45593999997E+02  0.45594000000E+02  0.51100000000E-03 0. -1.
         11   -1    0    0    0    0 -0.00000000000E+00 -0.00000000000E+00 -0.45593999997E+02  0.45594000000E+02  0.51100000000E-03 0.  1.
    9900012    2    1    2    0    0 -0.14129482514E+02 -0.49484155434E+01 -0.11249537162E+02  0.72461516644E+02  0.69999930111E+02 0.  0.
         12    1    1    2    0    0  0.14129482514E+02  0.49484155434E+01  0.11249537162E+02  0.18726483356E+02  0.00000000000E+00 0. -1.
         11    1    3    3    0    0  0.94715291645E+01 -0.80704550427E+01 -0.29490271728E+01  0.12788231732E+02  0.51100000000E-03 0. -1.
        -11    1    3    3    0    0  0.34070972027E+01 -0.59387312024E+01 -0.25495370748E+02  0.26398688783E+02  0.51100000000E-03 0.  1.
         12    1    3    3    0    0 -0.27008108881E+02  0.90607707016E+01  0.17194860759E+02  0.33274596129E+02  0.00000000000E+00 0. -1.
</event>
<event>
 7    1  0.3348003E-013  0.7246172E+02  0.7816164E-02  0.1226708E+00
        -11   -1    0    0    0    0  0.00000000000E+00  0.00000000000E+00  0.45593999997E+02  0.45594000000E+02  0.51100000000E-03 0.  1.
         11   -1    0    0    0    0 -0.00000000000E+00 -0.00000000000E+00 -0.45593999997E+02  0.45594000000E+02  0.51100000000E-03 0. -1.
    9900012    2    1    2    0    0  0.75403773861E+01 -0.69878336729E+01  0.15652041928E+02  0.72461720949E+02  0.70000196256E+02 0.  0.
         12    1    1    2    0    0 -0.75403773861E+01  0.69878336729E+01 -0.15652041928E+02  0.18726279051E+02  0.00000000000E+00 0. -1.
         11    1    3    3    0    0  0.16549116659E+02 -0.19164894457E+02  0.52451841046E+01  0.25858816646E+02  0.51100000000E-03 0. -1.
        -11    1    3    3    0    0 -0.13653989783E+02 -0.12383838246E+02  0.11244859458E+02  0.21592539248E+02  0.51100000000E-03 0.  1.
        -12    1    3    3    0    0  0.46452505097E+01  0.24560899030E+02 -0.83800163420E+00  0.25010365056E+02  0.00000000000E+00 0.  1.
</event>
<event>
 7    1  0.3348003E-013  0.7246158E+02  0.7816164E-02  0.1226708E+00
        -11   -1    0    0    0    0  0.00000000000E+00  0.00000000000E+00  0.45593999997E+02  0.45594000000E+02  0.51100000000E-03 0.  1.
         11   -1    0    0    0    0 -0.00000000000E+00 -0.00000000000E+00 -0.45593999997E+02  0.45594000000E+02  0.51100000000E-03 0. -1.
    9900012    2    1    2    0    0  0.15074088986E+02  0.48312893401E+01 -0.10005467616E+02  0.72461577553E+02  0.70000009456E+02 0.  0.
         12    1    1    2    0    0 -0.15074088986E+02 -0.48312893401E+01  0.10005467616E+02  0.18726422447E+02  0.00000000000E+00 0. -1.
         11    1    3    3    0    0 -0.50369979199E+01  0.15998181881E+02 -0.42889631261E+01  0.17312087583E+02  0.51100000000E-03 0. -1.
        -11    1    3    3    0    0  0.19416672701E+01  0.52124472243E+01  0.19344650364E+02  0.20128466802E+02  0.51100000000E-03 0.  1.
         12    1    3    3    0    0  0.18169419636E+02 -0.16379339765E+02 -0.25061154854E+02  0.35021023167E+02  0.00000000000E+00 0. -1.
</event>
<event>
 7    1  0.3348003E-013  0.7246154E+02  0.7816164E-02  0.1226708E+00
        -11   -1    0    0    0    0  0.00000000000E+00  0.00000000000E+00  0.45593999997E+02  0.45594000000E+02  0.51100000000E-03 0. -1.
         11   -1    0    0    0    0 -0.00000000000E+00 -0.00000000000E+00 -0.45593999997E+02  0.45594000000E+02  0.51100000000E-03 0.  1.
    9900012    2    1    2    0    0  0.90181724498E+01  0.14497340613E+02 -0.76928456782E+01  0.72461542945E+02  0.69999964373E+02 0.  0.
         12    1    1    2    0    0 -0.90181724498E+01 -0.14497340613E+02  0.76928456782E+01  0.18726457055E+02  0.00000000000E+00 0. -1.
         11    1    3    3    0    0 -0.15014550456E+02  0.56442226288E+00  0.35571693047E+01  0.15440490653E+02  0.51100000000E-03 0. -1.
        -11    1    3    3    0    0 -0.14533372714E+02  0.73743389371E+01  0.66335219139E-01  0.16297367819E+02  0.51100000000E-03 0.  1.
         12    1    3    3    0    0  0.38566095619E+02  0.65585794133E+01 -0.11316350202E+02  0.40723684474E+02  0.00000000000E+00 0. -1.
</event>
<event>
 7    1  0.3348003E-013  0.7246157E+02  0.7816164E-02  0.1226708E+00
        -11   -1    0    0    0    0  0.00000000000E+00  0.00000000000E+00  0.45593999997E+02  0.45594000000E+02  0.51100000000E-03 0.  1.
         11   -1    0    0    0    0 -0.00000000000E+00 -0.00000000000E+00 -0.45593999997E+02  0.45594000000E+02  0.51100000000E-03 0. -1.
    9900012    2    1    2    0    0  0.18407138293E+01  0.11455637283E-01  0.18635736693E+02  0.72461573733E+02  0.70000004480E+02 0.  0.
         12    1    1    2    0    0 -0.18407138293E+01 -0.11455637283E-01 -0.18635736693E+02  0.18726426267E+02  0.00000000000E+00 0. -1.
         11    1    3    3    0    0  0.12506856918E+02 -0.91407006664E+01 -0.39543952038E+01  0.15987842892E+02  0.51100000000E-03 0. -1.
        -11    1    3    3    0    0 -0.69062486725E+01 -0.13050597693E+02  0.29440757268E+02  0.32935885591E+02  0.51100000000E-03 0.  1.
        -12    1    3    3    0    0 -0.37598944166E+01  0.22202753997E+02 -0.68506253716E+01  0.23537845251E+02  0.00000000000E+00 0.  1.
</event>
<event>
 7    1  0.3348003E-013  0.7246158E+02  0.7816164E-02  0.1226708E+00
        -11   -1    0    0    0    0  0.00000000000E+00  0.00000000000E+00  0.45593999997E+02  0.45594000000E+02  0.51100000000E-03 0. -1.
         11   -1    0    0    0    0 -0.00000000000E+00 -0.00000000000E+00 -0.45593999997E+02  0.45594000000E+02  0.51100000000E-03 0.  1.
    9900012    2    1    2    0    0 -0.15802651490E+02 -0.88434600765E+01  0.47695276975E+01  0.72461575496E+02  0.70000006776E+02 0.  0.
         12    1    1    2    0    0  0.15802651490E+02  0.88434600765E+01 -0.47695276975E+01  0.18726424504E+02  0.00000000000E+00 0. -1.
         11    1    3    3    0    0 -0.76086616653E+01  0.90440984360E+01  0.15301415777E+02  0.19334445270E+02  0.51100000000E-03 0. -1.
        -11    1    3    3    0    0  0.11621772681E+02  0.80316284339E+01  0.73470374619E+01  0.15923304157E+02  0.51100000000E-03 0.  1.
         12    1    3    3    0    0 -0.19815762506E+02 -0.25919186946E+02 -0.17878925541E+02  0.37203826069E+02  0.00000000000E+00 0. -1.
</event>
<event>
 7    1  0.3348003E-013  0.7246155E+02  0.7816164E-02  0.1226708E+00
        -11   -1    0    0    0    0  0.00000000000E+00  0.00000000000E+00  0.45593999997E+02  0.45594000000E+02  0.51100000000E-03 0.  1.
         11   -1    0    0    0    0 -0.00000000000E+00 -0.00000000000E+00 -0.45593999997E+02  0.45594000000E+02  0.51100000000E-03 0. -1.
    9900012    2    1    2    0    0  0.58281121553E+01 -0.17796411244E+02  0.27538692272E-01  0.72461550714E+02  0.69999974493E+02 0.  0.
         12    1    1    2    0    0 -0.58281121553E+01  0.17796411244E+02 -0.27538692272E-01  0.18726449286E+02  0.00000000000E+00 0. -1.
         11    1    3    3    0    0  0.15638097491E+02 -0.24810466098E+02 -0.24311811634E+02  0.38094271306E+02  0.51100000000E-03 0. -1.
        -11    1    3    3    0    0  0.18063362833E+01 -0.18771599347E+01 -0.26200667040E+01  0.36947706266E+01  0.51100000000E-03 0.  1.
        -12    1    3    3    0    0 -0.11616321619E+02  0.88912147881E+01  0.26959417030E+02  0.30672508782E+02  0.00000000000E+00 0.  1.
</event>
<event>
 7    1  0.3348003E-013  0.7246157E+02  0.7816164E-02  0.1226708E+00
        -11   -1    0    0    0    0  0.00000000000E+00  0.00000000000E+00  0.45593999997E+02  0.45594000000E+02  0.51100000000E-03 0. -1.
         11   -1    0    0    0    0 -0.00000000000E+00 -0.00000000000E+00 -0.45593999997E+02  0.45594000000E+02  0.51100000000E-03 0.  1.
    9900012    2    1    2    0    0 -0.23320037869E+01  0.49502433747E-01 -0.18580595921E+02  0.72461568494E+02  0.69999997655E+02 0.  0.
         12    1    1    2    0    0  0.23320037869E+01 -0.49502433747E-01  0.18580595921E+02  0.18726431506E+02  0.00000000000E+00 0. -1.
         11    1    3    3    0    0 -0.66413553044E+01  0.37231493842E+01  0.19607074454E+01  0.78621762613E+01  0.51100000000E-03 0. -1.
        -11    1    3    3    0    0 -0.67944779034E+01  0.26659245076E+02 -0.16412655164E+02  0.32035223236E+02  0.51100000000E-03 0.  1.
         12    1    3    3    0    0  0.11103829421E+02 -0.30332892026E+02 -0.41286482026E+01  0.32564168997E+02  0.00000000000E+00 0. -1.
</event>
<event>
 7    1  0.3348003E-013  0.7246157E+02  0.7816164E-02  0.1226708E+00
        -11   -1    0    0    0    0  0.00000000000E+00  0.00000000000E+00  0.45593999997E+02  0.45594000000E+02  0.51100000000E-03 0.  1.
         11   -1    0    0    0    0 -0.00000000000E+00 -0.00000000000E+00 -0.45593999997E+02  0.45594000000E+02  0.51100000000E-03 0. -1.
    9900012    2    1    2    0    0  0.15509599143E+01 -0.15011532145E+02  0.11087276770E+02  0.72461567340E+02  0.69999996151E+02 0.  0.
         12    1    1    2    0    0 -0.15509599143E+01  0.15011532145E+02 -0.11087276770E+02  0.18726432660E+02  0.00000000000E+00 0. -1.
         11    1    3    3    0    0 -0.20119614791E+02 -0.62196841722E+01 -0.20283153814E+02  0.29238496873E+02  0.51100000000E-03 0. -1.
        -11    1    3    3    0    0  0.99713548215E+01  0.53859719927E+01  0.12734747270E+02  0.17047298894E+02  0.51100000000E-03 0.  1.
        -12    1    3    3    0    0  0.11699219883E+02 -0.14177819966E+02  0.18635683314E+02  0.26175771573E+02  0.00000000000E+00 0.  1.
</event>
<event>
 7    1  0.3348003E-013  0.7246168E+02  0.7816164E-02  0.1226708E+00
        -11   -1    0    0    0    0  0.00000000000E+00  0.00000000000E+00  0.45593999997E+02  0.45594000000E+02  0.51100000000E-03 0. -1.
         11   -1    0    0    0    0 -0.00000000000E+00 -0.00000000000E+00 -0.45593999997E+02  0.45594000000E+02  0.51100000000E-03 0.  1.
    9900012    2    1    2    0    0  0.16451867878E+01 -0.88020391851E+01 -0.16446651920E+02  0.72461684485E+02  0.70000148755E+02 0.  0.
         12    1    1    2    0    0 -0.16451867878E+01  0.88020391851E+01  0.16446651920E+02  0.18726315515E+02  0.00000000000E+00 0. -1.
         11    1    3    3    0    0  0.75977214137E+01 -0.19461639362E+02  0.35561850684E+01  0.21192622061E+02  0.51100000000E-03 0. -1.
        -11    1    3    3    0    0 -0.29845723995E+01 -0.11861360565E+02 -0.25159887438E+02  0.27975337049E+02  0.51100000000E-03 0.  1.
        -12    1    3    3    0    0 -0.29679622263E+01  0.22520960741E+02  0.51570504499E+01  0.23293725375E+02  0.00000000000E+00 0.  1.
</event>
<event>
 7    1  0.3348003E-013  0.7246157E+02  0.7816164E-02  0.1226708E+00
        -11   -1    0    0    0    0  0.00000000000E+00  0.00000000000E+00  0.45593999997E+02  0.45594000000E+02  0.51100000000E-03 0.  1.
         11   -1    0    0    0    0 -0.00000000000E+00 -0.00000000000E+00 -0.45593999997E+02  0.45594000000E+02  0.51100000000E-03 0. -1.
    9900012    2    1    2    0    0 -0.81253750437E+01  0.84573486860E+01  0.14598999598E+02  0.72461567994E+02  0.69999997004E+02 0.  0.
         12    1    1    2    0    0  0.81253750437E+01 -0.84573486860E+01 -0.14598999598E+02  0.18726432006E+02  0.00000000000E+00 0. -1.
         11    1    3    3    0    0  0.29897583735E+01  0.10662800930E+02 -0.10780656151E+02  0.15454983860E+02  0.51100000000E-03 0. -1.
        -11    1    3    3    0    0  0.11429702053E+02 -0.84324382846E+01 -0.79591426104E+01  0.16281647822E+02  0.51100000000E-03 0.  1.
        -12    1    3    3    0    0 -0.22544835471E+02  0.62269860410E+01  0.33338798360E+02  0.40724936312E+02  0.00000000000E+00 0.  1.
</event>
<event>
 7    1  0.3348003E-013  0.7246159E+02  0.7816164E-02  0.1226708E+00
        -11   -1    0    0    0    0  0.00000000000E+00  0.00000000000E+00  0.45593999997E+02  0.45594000000E+02  0.51100000000E-03 0.  1.
         11   -1    0    0    0    0 -0.00000000000E+00 -0.00000000000E+00 -0.45593999997E+02  0.45594000000E+02  0.51100000000E-03 0. -1.
    9900012    2    1    2    0    0 -0.14731035841E+02  0.38852325478E+01  0.10889446815E+02  0.72461588149E+02  0.70000023259E+02 0.  0.
         12    1    1    2    0    0  0.14731035841E+02 -0.38852325478E+01 -0.10889446815E+02  0.18726411851E+02  0.00000000000E+00 0. -1.
         11    1    3    3    0    0 -0.16860743156E+02  0.13972647582E+02  0.18751506211E+01  0.21978073854E+02  0.51100000000E-03 0. -1.
        -11    1    3    3    0    0 -0.20473823249E+02 -0.25199875619E+01  0.15474036182E+02  0.25787081490E+02  0.51100000000E-03 0.  1.
         12    1    3    3    0    0  0.22603530565E+02 -0.75674274719E+01 -0.64597399884E+01  0.24696432805E+02  0.00000000000E+00 0. -1.
</event>
<event>
 7    1  0.3348003E-013  0.7246157E+02  0.7816164E-02  0.1226708E+00
        -11   -1    0    0    0    0  0.00000000000E+00  0.00000000000E+00  0.45593999997E+02  0.45594000000E+02  0.51100000000E-03 0.  1.
         11   -1    0    0    0    0 -0.00000000000E+00 -0.00000000000E+00 -0.45593999997E+02  0.45594000000E+02  0.51100000000E-03 0. -1.
    9900012    2    1    2    0    0 -0.90255981511E+01 -0.59772716639E+01  0.15280376320E+02  0.72461572177E+02  0.70000002453E+02 0.  0.
         12    1    1    2    0    0  0.90255981511E+01  0.59772716639E+01 -0.15280376320E+02  0.18726427823E+02  0.00000000000E+00 0. -1.
         11    1    3    3    0    0 -0.11208025590E+02 -0.93011885286E+00 -0.63415269560E-01  0.11246731990E+02  0.51100000000E-03 0. -1.
        -11    1    3    3    0    0  0.25163712970E+00 -0.31225323778E+02  0.86749132781E+00  0.31238385166E+02  0.51100000000E-03 0.  1.
         12    1    3    3    0    0  0.19307903090E+01  0.26178170967E+02  0.14476300261E+02  0.29976455022E+02  0.00000000000E+00 0. -1.
</event>
<event>
 7    1  0.3348003E-013  0.7246161E+02  0.7816164E-02  0.1226708E+00
        -11   -1    0    0    0    0  0.00000000000E+00  0.00000000000E+00  0.45593999997E+02  0.45594000000E+02  0.51100000000E-03 0. -1.
         11   -1    0    0    0    0 -0.00000000000E+00 -0.00000000000E+00 -0.45593999997E+02  0.45594000000E+02  0.51100000000E-03 0.  1.
    9900012    2    1    2    0    0  0.19307603655E+01  0.18370082086E+02 -0.30805935351E+01  0.72461606648E+02  0.70000047357E+02 0.  0.
         12    1    1    2    0    0 -0.19307603655E+01 -0.18370082086E+02  0.30805935351E+01  0.18726393352E+02  0.00000000000E+00 0. -1.
         11    1    3    3    0    0  0.19035872114E+02  0.15970864353E+01  0.10734760969E+01  0.19132889573E+02  0.51100000000E-03 0. -1.
        -11    1    3    3    0    0  0.13497188647E+01  0.20273345635E+02 -0.20180452210E+02  0.28637055294E+02  0.51100000000E-03 0.  1.
         12    1    3    3    0    0 -0.18454830613E+02 -0.35003499834E+01  0.16026382578E+02  0.24691661781E+02  0.00000000000E+00 0. -1.
</event>
<event>
 7    1  0.3348003E-013  0.7246158E+02  0.7816164E-02  0.1226708E+00
        -11   -1    0    0    0    0  0.00000000000E+00  0.00000000000E+00  0.45593999997E+02  0.45594000000E+02  0.51100000000E-03 0.  1.
         11   -1    0    0    0    0 -0.00000000000E+00 -0.00000000000E+00 -0.45593999997E+02  0.45594000000E+02  0.51100000000E-03 0. -1.
    9900012    2    1    2    0    0 -0.53742640243E+01  0.10876145285E+02 -0.14265539013E+02  0.72461578735E+02  0.70000010996E+02 0.  0.
         12    1    1    2    0    0  0.53742640243E+01 -0.10876145285E+02  0.14265539013E+02  0.18726421265E+02  0.00000000000E+00 0. -1.
         11    1    3    3    0    0  0.19951521368E+02  0.13732788668E+02 -0.12040450305E+02  0.27048569894E+02  0.51100000000E-03 0. -1.
        -11    1    3    3    0    0 -0.24659105943E+02  0.28792617948E+01 -0.16638105001E+02  0.29886254243E+02  0.51100000000E-03 0.  1.
        -12    1    3    3    0    0 -0.66667944969E+00 -0.57359051783E+01  0.14413016293E+02  0.15526754599E+02  0.00000000000E+00 0.  1.
</event>
<event>
 7    1  0.3348003E-013  0.7246146E+02  0.7816164E-02  0.1226708E+00
        -11   -1    0    0    0    0  0.00000000000E+00  0.00000000000E+00  0.45593999997E+02  0.45594000000E+02  0.51100000000E-03 0. -1.
         11   -1    0    0    0    0 -0.00000000000E+00 -0.00000000000E+00 -0.45593999997E+02  0.45594000000E+02  0.51100000000E-03 0.  1.
    9900012    2    1    2    0    0  0.78674536390E+01  0.16934597312E+02 -0.14162317562E+01  0.72461464675E+02  0.69999862412E+02 0.  0.
         12    1    1    2    0    0 -0.78674536390E+01 -0.16934597312E+02  0.14162317562E+01  0.18726535325E+02  0.00000000000E+00 0. -1.
         11    1    3    3    0    0 -0.21015052699E+02  0.11806657170E+02  0.42959971860E+00  0.24108383389E+02  0.51100000000E-03 0. -1.
        -11    1    3    3    0    0 -0.87269770767E+01  0.31943003033E+01  0.42235988514E+01  0.10207961150E+02  0.51100000000E-03 0.  1.
        -12    1    3    3    0    0  0.37609483414E+02  0.19336398385E+01 -0.60694303262E+01  0.38145120136E+02  0.00000000000E+00 0.  1.
</event>
<event>
 7    1  0.3348003E-013  0.7246151E+02  0.7816164E-02  0.1226708E+00
        -11   -1    0    0    0    0  0.00000000000E+00  0.00000000000E+00  0.45593999997E+02  0.45594000000E+02  0.51100000000E-03 0.  1.
         11   -1    0    0    0    0 -0.00000000000E+00 -0.00000000000E+00 -0.45593999997E+02  0.45594000000E+02  0.51100000000E-03 0. -1.
    9900012    2    1    2    0    0 -0.90101903049E+01  0.12473535790E+02 -0.10672797967E+02  0.72461514989E+02  0.69999927954E+02 0.  0.
         12    1    1    2    0    0  0.90101903049E+01 -0.12473535790E+02  0.10672797967E+02  0.18726485011E+02  0.00000000000E+00 0. -1.
         11    1    3    3    0    0  0.40546401683E+01  0.73426900704E+01 -0.30289603265E+02  0.31429528640E+02  0.51100000000E-03 0. -1.
        -11    1    3    3    0    0 -0.68683081588E+01 -0.13791315304E+02  0.45557162223E+01  0.16066380593E+02  0.51100000000E-03 0.  1.
         12    1    3    3    0    0 -0.61965223144E+01  0.18922161024E+02  0.15061089075E+02  0.24965605756E+02  0.00000000000E+00 0. -1.
</event>
<event>
 7    1  0.3348003E-013  0.7246154E+02  0.7816164E-02  0.1226708E+00
        -11   -1    0    0    0    0  0.00000000000E+00  0.00000000000E+00  0.45593999997E+02  0.45594000000E+02  0.51100000000E-03 0.  1.
         11   -1    0    0    0    0 -0.00000000000E+00 -0.00000000000E+00 -0.45593999997E+02  0.45594000000E+02  0.51100000000E-03 0. -1.
    9900012    2    1    2    0    0  0.10947327930E+02  0.74698052317E+01  0.13230199528E+02  0.72461543887E+02  0.69999965600E+02 0.  0.
         12    1    1    2    0    0 -0.10947327930E+02 -0.74698052317E+01 -0.13230199528E+02  0.18726456113E+02  0.00000000000E+00 0. -1.
         11    1    3    3    0    0  0.17173795692E+02 -0.75309975708E+01 -0.89921588127E+01  0.20796973416E+02  0.51100000000E-03 0. -1.
        -11    1    3    3    0    0 -0.64613659918E+01 -0.13467760855E+02 -0.93404469755E+00  0.14966705472E+02  0.51100000000E-03 0.  1.
        -12    1    3    3    0    0  0.23489822964E+00  0.28468563657E+02  0.23156403038E+02  0.36697865000E+02  0.00000000000E+00 0.  1.
</event>
<event>
 7    1  0.3348003E-013  0.7246155E+02  0.7816164E-02  0.1226708E+00
        -11   -1    0    0    0    0  0.00000000000E+00  0.00000000000E+00  0.45593999997E+02  0.45594000000E+02  0.51100000000E-03 0.  1.
         11   -1    0    0    0    0 -0.00000000000E+00 -0.00000000000E+00 -0.45593999997E+02  0.45594000000E+02  0.51100000000E-03 0. -1.
    9900012    2    1    2    0    0  0.60555505956E+01  0.17664182867E+02  0.14095753868E+01  0.72461549398E+02  0.69999972778E+02 0.  0.
         12    1    1    2    0    0 -0.60555505956E+01 -0.17664182867E+02 -0.14095753868E+01  0.18726450602E+02  0.00000000000E+00 0. -1.
         11    1    3    3    0    0  0.39766975777E+01  0.16289595030E+02  0.10230308742E+02  0.19642409401E+02  0.51100000000E-03 0. -1.
        -11    1    3    3    0    0 -0.20897252126E+01  0.14052854003E+02  0.17958309668E+02  0.22898701786E+02  0.51100000000E-03 0.  1.
         12    1    3    3    0    0  0.41685782306E+01 -0.12678266166E+02 -0.26779043024E+02  0.29920438210E+02  0.00000000000E+00 0. -1.
</event>
<event>
 7    1  0.3348003E-013  0.7246161E+02  0.7816164E-02  0.1226708E+00
        -11   -1    0    0    0    0  0.00000000000E+00  0.00000000000E+00  0.45593999997E+02  0.45594000000E+02  0.51100000000E-03 0.  1.
         11   -1    0    0    0    0 -0.00000000000E+00 -0.00000000000E+00 -0.45593999997E+02  0.45594000000E+02  0.51100000000E-03 0. -1.
    9900012    2    1    2    0    0 -0.34495266618E+00 -0.21787637715E+01  0.18596014716E+02  0.72461607736E+02  0.70000048774E+02 0.  0.
         12    1    1    2    0    0  0.34495266618E+00  0.21787637715E+01 -0.18596014716E+02  0.18726392264E+02  0.00000000000E+00 0. -1.
         11    1    3    3    0    0 -0.53364594457E-01 -0.16383401000E+02  0.59650600781E+01  0.17435613499E+02  0.51100000000E-03 0. -1.
        -11    1    3    3    0    0 -0.91444650022E+01 -0.74704532163E+01  0.25649325940E+02  0.28236799268E+02  0.51100000000E-03 0.  1.
         12    1    3    3    0    0  0.88528769305E+01  0.21675090444E+02 -0.13018371302E+02  0.26789194969E+02  0.00000000000E+00 0. -1.
</event>
<event>
 7    1  0.3348003E-013  0.7246159E+02  0.7816164E-02  0.1226708E+00
        -11   -1    0    0    0    0  0.00000000000E+00  0.00000000000E+00  0.45593999997E+02  0.45594000000E+02  0.51100000000E-03 0.  1.
         11   -1    0    0    0    0 -0.00000000000E+00 -0.00000000000E+00 -0.45593999997E+02  0.45594000000E+02  0.51100000000E-03 0. -1.
    9900012    2    1    2    0    0  0.16972506496E+02 -0.32209826923E+01 -0.72275768631E+01  0.72461586206E+02  0.70000020728E+02 0.  0.
         12    1    1    2    0    0 -0.16972506496E+02  0.32209826923E+01  0.72275768631E+01  0.18726413794E+02  0.00000000000E+00 0. -1.
         11    1    3    3    0    0  0.11640608408E+02 -0.20395047175E+02 -0.12095497387E+01  0.23514351452E+02  0.51100000000E-03 0. -1.
        -11    1    3    3    0    0  0.25219411518E+02  0.11340680799E+02 -0.56242285127E+01  0.28218109520E+02  0.51100000000E-03 0.  1.
        -12    1    3    3    0    0 -0.19887513429E+02  0.58333836842E+01 -0.39379861172E+00  0.20729125233E+02  0.00000000000E+00 0.  1.
</event>
<event>
 7    1  0.3348003E-013  0.7246156E+02  0.7816164E-02  0.1226708E+00
        -11   -1    0    0    0    0  0.00000000000E+00  0.00000000000E+00  0.45593999997E+02  0.45594000000E+02  0.51100000000E-03 0.  1.
         11   -1    0    0    0    0 -0.00000000000E+00 -0.00000000000E+00 -0.45593999997E+02  0.45594000000E+02  0.51100000000E-03 0. -1.
    9900012    2    1    2    0    0 -0.35931746292E+01 -0.13139419557E+02  0.12850068549E+02  0.72461561152E+02  0.69999988091E+02 0.  0.
         12    1    1    2    0    0  0.35931746292E+01  0.13139419557E+02 -0.12850068549E+02  0.18726438848E+02  0.00000000000E+00 0. -1.
         11    1    3    3    0    0 -0.22870580991E+02  0.49614662788E+01  0.37489746570E+01  0.23700937402E+02  0.51100000000E-03 0. -1.
        -11    1    3    3    0    0 -0.12009037162E+02 -0.33359721015E+01  0.65274551831E+01  0.14069589719E+02  0.51100000000E-03 0.  1.
        -12    1    3    3    0    0  0.31286443524E+02 -0.14764913734E+02  0.25736387085E+01  0.34691034031E+02  0.00000000000E+00 0.  1.
</event>
<event>
 7    1  0.3348003E-013  0.7246159E+02  0.7816164E-02  0.1226708E+00
        -11   -1    0    0    0    0  0.00000000000E+00  0.00000000000E+00  0.45593999997E+02  0.45594000000E+02  0.51100000000E-03 0.  1.
         11   -1    0    0    0    0 -0.00000000000E+00 -0.00000000000E+00 -0.45593999997E+02  0.45594000000E+02  0.51100000000E-03 0. -1.
    9900012    2    1    2    0    0 -0.65406071331E+01 -0.49718090618E+00  0.17540000249E+02  0.72461592462E+02  0.70000028878E+02 0.  0.
         12    1    1    2    0    0  0.65406071331E+01  0.49718090618E+00 -0.17540000249E+02  0.18726407538E+02  0.00000000000E+00 0. -1.
         11    1    3    3    0    0  0.79705279341E+01  0.39646337299E+01  0.85889717207E+01  0.12370047358E+02  0.51100000000E-03 0. -1.
        -11    1    3    3    0    0 -0.16531845636E+02  0.24341842912E+02 -0.12941082506E+01  0.29453386103E+02  0.51100000000E-03 0.  1.
         12    1    3    3    0    0  0.20207105691E+01 -0.28803657548E+02  0.10245136779E+02  0.30638159001E+02  0.00000000000E+00 0. -1.
</event>
<event>
 7    1  0.3348003E-013  0.7246158E+02  0.7816164E-02  0.1226708E+00
        -11   -1    0    0    0    0  0.00000000000E+00  0.00000000000E+00  0.45593999997E+02  0.45594000000E+02  0.51100000000E-03 0.  1.
         11   -1    0    0    0    0 -0.00000000000E+00 -0.00000000000E+00 -0.45593999997E+02  0.45594000000E+02  0.51100000000E-03 0. -1.
    9900012    2    1    2    0    0 -0.13673893610E+02 -0.63611148106E+01  0.11101328566E+02  0.72461584325E+02  0.70000018278E+02 0.  0.
         12    1    1    2    0    0  0.13673893610E+02  0.63611148106E+01 -0.11101328566E+02  0.18726415675E+02  0.00000000000E+00 0. -1.
         11    1    3    3    0    0 -0.27376157350E+02 -0.13935166589E+02 -0.14791790765E+02  0.34094573372E+02  0.51100000000E-03 0. -1.
        -11    1    3    3    0    0  0.45606722963E+01  0.12616816263E+02  0.38194891097E+01  0.13948916865E+02  0.51100000000E-03 0.  1.
        -12    1    3    3    0    0  0.91415914431E+01 -0.50427644846E+01  0.22073630221E+02  0.24418094088E+02  0.00000000000E+00 0.  1.
</event>
<event>
 7    1  0.3348003E-013  0.7246154E+02  0.7816164E-02  0.1226708E+00
        -11   -1    0    0    0    0  0.00000000000E+00  0.00000000000E+00  0.45593999997E+02  0.45594000000E+02  0.51100000000E-03 0. -1.
         11   -1    0    0    0    0 -0.00000000000E+00 -0.00000000000E+00 -0.45593999997E+02  0.45594000000E+02  0.51100000000E-03 0.  1.
    9900012    2    1    2    0    0  0.40315515341E+01 -0.17843340835E+02  0.40052409029E+01  0.72461543458E+02  0.69999965040E+02 0.  0.
         12    1    1    2    0    0 -0.40315515341E+01  0.17843340835E+02 -0.40052409029E+01  0.18726456542E+02  0.00000000000E+00 0. -1.
         11    1    3    3    0    0 -0.29788688003E+02  0.24310791572E+01 -0.71070997333E+01  0.30721115633E+02  0.51100000000E-03 0. -1.
        -11    1    3    3    0    0  0.13199171462E+02 -0.11403125043E+02  0.21727410162E+01  0.17577547946E+02  0.51100000000E-03 0.  1.
        -12    1    3    3    0    0  0.20621068075E+02 -0.88712949499E+01  0.89395996200E+01  0.24162879879E+02  0.00000000000E+00 0.  1.
</event>
<event>
 7    1  0.3512136E-013  0.7246156E+02  0.7816164E-02  0.1226708E+00
        -11   -1    0    0    0    0  0.00000000000E+00  0.00000000000E+00  0.45593999997E+02  0.45594000000E+02  0.51100000000E-03 0. -1.
         11   -1    0    0    0    0 -0.00000000000E+00 -0.00000000000E+00 -0.45593999997E+02  0.45594000000E+02  0.51100000000E-03 0.  1.
    9900012    2    1    2    0    0  0.37061160805E+01  0.95055326852E+01 -0.15703151959E+02  0.72461563353E+02  0.69999990958E+02 0.  0.
         12    1    1    2    0    0 -0.37061160805E+01 -0.95055326852E+01  0.15703151959E+02  0.18726436647E+02  0.00000000000E+00 0. -1.
         11    1    3    3    0    0 -0.43559743182E+01 -0.18746691241E+02 -0.86270401290E+01  0.21091201161E+02  0.51100000000E-03 0. -1.
        -11    1    3    3    0    0 -0.79693703855E+01  0.31631772684E+01 -0.17773300896E+02  0.19733392505E+02  0.51100000000E-03 0.  1.
        -12    1    3    3    0    0  0.16031460784E+02  0.25089046658E+02  0.10697189066E+02  0.31636969687E+02  0.00000000000E+00 0.  1.
</event>
<event>
 7    1  0.3348003E-013  0.7246154E+02  0.7816164E-02  0.1226708E+00
        -11   -1    0    0    0    0  0.00000000000E+00  0.00000000000E+00  0.45593999997E+02  0.45594000000E+02  0.51100000000E-03 0. -1.
         11   -1    0    0    0    0 -0.00000000000E+00 -0.00000000000E+00 -0.45593999997E+02  0.45594000000E+02  0.51100000000E-03 0.  1.
    9900012    2    1    2    0    0  0.16968705854E+02 -0.26347481846E+01 -0.74700405707E+01  0.72461537908E+02  0.69999957810E+02 0.  0.
         12    1    1    2    0    0 -0.16968705854E+02  0.26347481846E+01  0.74700405707E+01  0.18726462092E+02  0.00000000000E+00 0. -1.
         11    1    3    3    0    0  0.61810747400E+01 -0.92146133480E+01  0.98588631022E+01  0.14842909621E+02  0.51100000000E-03 0. -1.
        -11    1    3    3    0    0  0.86383646545E+01  0.29032015524E+02 -0.17658561320E+02  0.35061432621E+02  0.51100000000E-03 0.  1.
         12    1    3    3    0    0  0.21492664599E+01 -0.22452150360E+02  0.32965764726E+00  0.22557195665E+02  0.00000000000E+00 0. -1.
</event>
<event>
 7    1  0.3348003E-013  0.7246156E+02  0.7816164E-02  0.1226708E+00
        -11   -1    0    0    0    0  0.00000000000E+00  0.00000000000E+00  0.45593999997E+02  0.45594000000E+02  0.51100000000E-03 0.  1.
         11   -1    0    0    0    0 -0.00000000000E+00 -0.00000000000E+00 -0.45593999997E+02  0.45594000000E+02  0.51100000000E-03 0. -1.
    9900012    2    1    2    0    0  0.15009184075E+02 -0.12657354466E+01 -0.11126628346E+02  0.72461560104E+02  0.69999986726E+02 0.  0.
         12    1    1    2    0    0 -0.15009184075E+02  0.12657354466E+01  0.11126628346E+02  0.18726439896E+02  0.00000000000E+00 0. -1.
         11    1    3    3    0    0 -0.20030467069E+02 -0.15211616958E+02 -0.18412962802E+01  0.25219105332E+02  0.51100000000E-03 0. -1.
        -11    1    3    3    0    0  0.10137303043E+02 -0.17233693868E+00  0.87636948464E+01  0.13401379057E+02  0.51100000000E-03 0.  1.
        -12    1    3    3    0    0  0.24902348100E+02  0.14118218450E+02 -0.18049026912E+02  0.33841075716E+02  0.00000000000E+00 0.  1.
</event>
<event>
 7    1  0.3348003E-013  0.7246160E+02  0.7816164E-02  0.1226708E+00
        -11   -1    0    0    0    0  0.00000000000E+00  0.00000000000E+00  0.45593999997E+02  0.45594000000E+02  0.51100000000E-03 0.  1.
         11   -1    0    0    0    0 -0.00000000000E+00 -0.00000000000E+00 -0.45593999997E+02  0.45594000000E+02  0.51100000000E-03 0. -1.
    9900012    2    1    2    0    0 -0.13708014319E+02  0.12171716829E+02 -0.38232957454E+01  0.72461603190E+02  0.70000042852E+02 0.  0.
         12    1    1    2    0    0  0.13708014319E+02 -0.12171716829E+02  0.38232957454E+01  0.18726396810E+02  0.00000000000E+00 0. -1.
         11    1    3    3    0    0 -0.29578047185E+02 -0.57297467705E+01  0.37949422213E+01  0.30365975369E+02  0.51100000000E-03 0. -1.
        -11    1    3    3    0    0 -0.90602899022E+01  0.61658388852E+01 -0.94630915093E+01  0.14479520829E+02  0.51100000000E-03 0.  1.
        -12    1    3    3    0    0  0.24930322769E+02  0.11735624715E+02  0.18448535426E+01  0.27616106992E+02  0.00000000000E+00 0.  1.
</event>
<event>
 7    1  0.3348003E-013  0.7246160E+02  0.7816164E-02  0.1226708E+00
        -11   -1    0    0    0    0  0.00000000000E+00  0.00000000000E+00  0.45593999997E+02  0.45594000000E+02  0.51100000000E-03 0. -1.
         11   -1    0    0    0    0 -0.00000000000E+00 -0.00000000000E+00 -0.45593999997E+02  0.45594000000E+02  0.51100000000E-03 0.  1.
    9900012    2    1    2    0    0  0.15278417862E+02 -0.45026019178E+01 -0.98475715216E+01  0.72461597749E+02  0.70000035764E+02 0.  0.
         12    1    1    2    0    0 -0.15278417862E+02  0.45026019178E+01  0.98475715216E+01  0.18726402251E+02  0.00000000000E+00 0. -1.
         11    1    3    3    0    0  0.25203744539E+02 -0.11146153921E+02 -0.29617576948E+01  0.27717097520E+02  0.51100000000E-03 0. -1.
        -11    1    3    3    0    0  0.52609794868E+01  0.14621613634E+01 -0.22020310113E+02  0.22687218400E+02  0.51100000000E-03 0.  1.
        -12    1    3    3    0    0 -0.15186306163E+02  0.51813906403E+01  0.15134496286E+02  0.22057281829E+02  0.00000000000E+00 0.  1.
</event>
<event>
 7    1  0.3348003E-013  0.7246148E+02  0.7816164E-02  0.1226708E+00
        -11   -1    0    0    0    0  0.00000000000E+00  0.00000000000E+00  0.45593999997E+02  0.45594000000E+02  0.51100000000E-03 0.  1.
         11   -1    0    0    0    0 -0.00000000000E+00 -0.00000000000E+00 -0.45593999997E+02  0.45594000000E+02  0.51100000000E-03 0. -1.
    9900012    2    1    2    0    0  0.18500374611E+02  0.27156949012E+01  0.10216054259E+01  0.72461480377E+02  0.69999882866E+02 0.  0.
         12    1    1    2    0    0 -0.18500374611E+02 -0.27156949012E+01 -0.10216054259E+01  0.18726519623E+02  0.00000000000E+00 0. -1.
         11    1    3    3    0    0  0.29694174491E+01  0.11618011309E+02  0.18440243031E+02  0.21996322194E+02  0.51100000000E-03 0. -1.
        -11    1    3    3    0    0  0.16107489400E+01  0.13310604629E+02  0.65705439627E+01  0.14931133780E+02  0.51100000000E-03 0.  1.
         12    1    3    3    0    0  0.13920208222E+02 -0.22212921037E+02 -0.23989181568E+02  0.35534024402E+02  0.00000000000E+00 0. -1.
</event>
<event>
 7    1  0.3348003E-013  0.7246154E+02  0.7816164E-02  0.1226708E+00
        -11   -1    0    0    0    0  0.00000000000E+00  0.00000000000E+00  0.45593999997E+02  0.45594000000E+02  0.51100000000E-03 0. -1.
         11   -1    0    0    0    0 -0.00000000000E+00 -0.00000000000E+00 -0.45593999997E+02  0.45594000000E+02  0.51100000000E-03 0.  1.
    9900012    2    1    2    0    0  0.13531219175E+02  0.61354966300E+01 -0.11399213810E+02  0.72461540464E+02  0.69999961141E+02 0.  0.
         12    1    1    2    0    0 -0.13531219175E+02 -0.61354966300E+01  0.11399213810E+02  0.18726459536E+02  0.00000000000E+00 0. -1.
         11    1    3    3    0    0 -0.39576939917E+00  0.66443504083E+01  0.53051726912E+01  0.85116909783E+01  0.51100000000E-03 0. -1.
        -11    1    3    3    0    0  0.79463555025E+01 -0.19190769119E+02  0.15723203122E+02  0.26050898293E+02  0.51100000000E-03 0.  1.
         12    1    3    3    0    0  0.59806330714E+01  0.18681915341E+02 -0.32427589624E+02  0.37898951193E+02  0.00000000000E+00 0. -1.
</event>
<event>
 7    1  0.3348003E-013  0.7246117E+02  0.7816164E-02  0.1226709E+00
        -11   -1    0    0    0    0  0.00000000000E+00  0.00000000000E+00  0.45593999997E+02  0.45594000000E+02  0.51100000000E-03 0. -1.
         11   -1    0    0    0    0 -0.00000000000E+00 -0.00000000000E+00 -0.45593999997E+02  0.45594000000E+02  0.51100000000E-03 0.  1.
    9900012    2    1    2    0    0  0.12672892844E+01  0.17603469312E+02 -0.62614823759E+01  0.72461165898E+02  0.69999473197E+02 0.  0.
         12    1    1    2    0    0 -0.12672892844E+01 -0.17603469312E+02  0.62614823759E+01  0.18726834102E+02  0.00000000000E+00 0. -1.
         11    1    3    3    0    0  0.14168375171E+01 -0.11476448358E+01 -0.11621799753E+00  0.18270260269E+01  0.51100000000E-03 0. -1.
        -11    1    3    3    0    0  0.29670011908E+02 -0.33967030139E+01 -0.13491497063E+02  0.32769920525E+02  0.51100000000E-03 0.  1.
         12    1    3    3    0    0 -0.29819560141E+02  0.22147817161E+02  0.73462326846E+01  0.37864219346E+02  0.00000000000E+00 0. -1.
</event>
<event>
 7    1  0.3348003E-013  0.7246157E+02  0.7816164E-02  0.1226708E+00
        -11   -1    0    0    0    0  0.00000000000E+00  0.00000000000E+00  0.45593999997E+02  0.45594000000E+02  0.51100000000E-03 0.  1.
         11   -1    0    0    0    0 -0.00000000000E+00 -0.00000000000E+00 -0.45593999997E+02  0.45594000000E+02  0.51100000000E-03 0. -1.
    9900012    2    1    2    0    0 -0.18420895271E+02 -0.20930937826E+01 -0.26398167755E+01  0.72461573304E+02  0.70000003921E+02 0.  0.
         12    1    1    2    0    0  0.18420895271E+02  0.20930937826E+01  0.26398167755E+01  0.18726426696E+02  0.00000000000E+00 0. -1.
         11    1    3    3    0    0  0.55898606291E+01  0.15529389991E+00  0.77278040084E+01  0.95388475772E+01  0.51100000000E-03 0. -1.
        -11    1    3    3    0    0 -0.50499205685E+01 -0.16811365279E+02  0.18458435912E+02  0.25472289981E+02  0.51100000000E-03 0.  1.
         12    1    3    3    0    0 -0.18960835332E+02  0.14562977596E+02 -0.28826056696E+02  0.37450435746E+02  0.00000000000E+00 0. -1.
</event>
<event>
 7    1  0.3348003E-013  0.7246155E+02  0.7816164E-02  0.1226708E+00
        -11   -1    0    0    0    0  0.00000000000E+00  0.00000000000E+00  0.45593999997E+02  0.45594000000E+02  0.51100000000E-03 0.  1.
         11   -1    0    0    0    0 -0.00000000000E+00 -0.00000000000E+00 -0.45593999997E+02  0.45594000000E+02  0.51100000000E-03 0. -1.
    9900012    2    1    2    0    0  0.17234640136E+02  0.96832116927E+00 -0.72601207711E+01  0.72461552924E+02  0.69999977371E+02 0.  0.
         12    1    1    2    0    0 -0.17234640136E+02 -0.96832116927E+00  0.72601207711E+01  0.18726447076E+02  0.00000000000E+00 0. -1.
         11    1    3    3    0    0  0.17486277897E+02 -0.46918731148E+01 -0.34025069793E+02  0.38542041496E+02  0.51100000000E-03 0. -1.
        -11    1    3    3    0    0 -0.53384534772E+01 -0.75436991945E+00 -0.53547140651E+00  0.54180152632E+01  0.51100000000E-03 0.  1.
        -12    1    3    3    0    0  0.50868157158E+01  0.64145642036E+01  0.27300420428E+02  0.28501496164E+02  0.00000000000E+00 0.  1.
</event>
<event>
 7    1  0.3348003E-013  0.7246152E+02  0.7816164E-02  0.1226708E+00
        -11   -1    0    0    0    0  0.00000000000E+00  0.00000000000E+00  0.45593999997E+02  0.45594000000E+02  0.51100000000E-03 0. -1.
         11   -1    0    0    0    0 -0.00000000000E+00 -0.00000000000E+00 -0.45593999997E+02  0.45594000000E+02  0.51100000000E-03 0.  1.
    9900012    2    1    2    0    0 -0.13341880131E+02  0.12782209570E+02 -0.30480162141E+01  0.72461520091E+02  0.69999934601E+02 0.  0.
         12    1    1    2    0    0  0.13341880131E+02 -0.12782209570E+02  0.30480162141E+01  0.18726479909E+02  0.00000000000E+00 0. -1.
         11    1    3    3    0    0  0.82937292789E+01  0.47982525930E+01  0.83367670558E+01  0.12700821174E+02  0.51100000000E-03 0. -1.
        -11    1    3    3    0    0  0.15959731783E+02  0.61311179919E+01  0.62370688712E+01  0.18199029501E+02  0.51100000000E-03 0.  1.
         12    1    3    3    0    0 -0.37595341193E+02  0.18528389856E+01 -0.17621852141E+02  0.41561669416E+02  0.00000000000E+00 0. -1.
</event>
<event>
 7    1  0.3348003E-013  0.7246157E+02  0.7816164E-02  0.1226708E+00
        -11   -1    0    0    0    0  0.00000000000E+00  0.00000000000E+00  0.45593999997E+02  0.45594000000E+02  0.51100000000E-03 0. -1.
         11   -1    0    0    0    0 -0.00000000000E+00 -0.00000000000E+00 -0.45593999997E+02  0.45594000000E+02  0.51100000000E-03 0.  1.
    9900012    2    1    2    0    0 -0.97271545669E+01  0.24766423293E+01 -0.15809104635E+02  0.72461572616E+02  0.70000003024E+02 0.  0.
         12    1    1    2    0    0  0.97271545669E+01 -0.24766423293E+01  0.15809104635E+02  0.18726427384E+02  0.00000000000E+00 0. -1.
         11    1    3    3    0    0 -0.71937642017E+01 -0.10961953231E+02 -0.14214777650E+02  0.19338422012E+02  0.51100000000E-03 0. -1.
        -11    1    3    3    0    0  0.90017205678E+01  0.21061631021E+02 -0.19790282067E+02  0.30270093145E+02  0.51100000000E-03 0.  1.
         12    1    3    3    0    0 -0.11535110933E+02 -0.76230354607E+01  0.18195955082E+02  0.22853057459E+02  0.00000000000E+00 0. -1.
</event>
<event>
 7    1  0.3348003E-013  0.7246151E+02  0.7816164E-02  0.1226708E+00
        -11   -1    0    0    0    0  0.00000000000E+00  0.00000000000E+00  0.45593999997E+02  0.45594000000E+02  0.51100000000E-03 0.  1.
         11   -1    0    0    0    0 -0.00000000000E+00 -0.00000000000E+00 -0.45593999997E+02  0.45594000000E+02  0.51100000000E-03 0. -1.
    9900012    2    1    2    0    0 -0.99990942463E+01  0.37604991515E+01  0.15380442891E+02  0.72461514394E+02  0.69999927180E+02 0.  0.
         12    1    1    2    0    0  0.99990942463E+01 -0.37604991515E+01 -0.15380442891E+02  0.18726485606E+02  0.00000000000E+00 0. -1.
         11    1    3    3    0    0 -0.65658565546E+01  0.79455013021E+01 -0.17465753284E+01  0.10454280888E+02  0.51100000000E-03 0. -1.
        -11    1    3    3    0    0 -0.24363270181E+02  0.65662627847E+01  0.26580055391E+02  0.36649475927E+02  0.51100000000E-03 0.  1.
        -12    1    3    3    0    0  0.20930032490E+02 -0.10751264935E+02 -0.94530371711E+01  0.25357757580E+02  0.00000000000E+00 0.  1.
</event>
<event>
 7    1  0.3348003E-013  0.7246157E+02  0.7816164E-02  0.1226708E+00
        -11   -1    0    0    0    0  0.00000000000E+00  0.00000000000E+00  0.45593999997E+02  0.45594000000E+02  0.51100000000E-03 0. -1.
         11   -1    0    0    0    0 -0.00000000000E+00 -0.00000000000E+00 -0.45593999997E+02  0.45594000000E+02  0.51100000000E-03 0.  1.
    9900012    2    1    2    0    0 -0.51154365583E+01  0.70100234067E+01 -0.16594311980E+02  0.72461566559E+02  0.69999995134E+02 0.  0.
         12    1    1    2    0    0  0.51154365583E+01 -0.70100234067E+01  0.16594311980E+02  0.18726433441E+02  0.00000000000E+00 0. -1.
         11    1    3    3    0    0 -0.13149312255E+02 -0.43812093157E+01  0.71035879359E+01  0.15574349735E+02  0.51100000000E-03 0. -1.
        -11    1    3    3    0    0  0.75761269104E+01  0.65285034454E+01  0.14919943276E+02  0.17961730535E+02  0.51100000000E-03 0.  1.
        -12    1    3    3    0    0  0.45774878639E+00  0.48627292770E+01 -0.38617843192E+02  0.38925486288E+02  0.00000000000E+00 0.  1.
</event>
<event>
 7    1  0.3348003E-013  0.7246157E+02  0.7816164E-02  0.1226708E+00
        -11   -1    0    0    0    0  0.00000000000E+00  0.00000000000E+00  0.45593999997E+02  0.45594000000E+02  0.51100000000E-03 0.  1.
         11   -1    0    0    0    0 -0.00000000000E+00 -0.00000000000E+00 -0.45593999997E+02  0.45594000000E+02  0.51100000000E-03 0. -1.
    9900012    2    1    2    0    0  0.96624355994E+01  0.60318211441E+01  0.14863837914E+02  0.72461569332E+02  0.69999998746E+02 0.  0.
         12    1    1    2    0    0 -0.96624355994E+01 -0.60318211441E+01 -0.14863837914E+02  0.18726430668E+02  0.00000000000E+00 0. -1.
         11    1    3    3    0    0  0.13092323461E+02 -0.38739178492E+01  0.36391179436E+02  0.38868163246E+02  0.51100000000E-03 0.  1.
        -11    1    3    3    0    0  0.65219949393E+01  0.32807978412E+01  0.16765477549E+01  0.74907185969E+01  0.51100000000E-03 0. -1.
        -12    1    3    3    0    0 -0.99518828013E+01  0.66249411521E+01 -0.23203889277E+02  0.26102687489E+02  0.00000000000E+00 0.  1.
</event>
<event>
 7    1  0.3348003E-013  0.7246150E+02  0.7816164E-02  0.1226708E+00
        -11   -1    0    0    0    0  0.00000000000E+00  0.00000000000E+00  0.45593999997E+02  0.45594000000E+02  0.51100000000E-03 0.  1.
         11   -1    0    0    0    0 -0.00000000000E+00 -0.00000000000E+00 -0.45593999997E+02  0.45594000000E+02  0.51100000000E-03 0. -1.
    9900012    2    1    2    0    0  0.86570697979E+01  0.15628984624E+02 -0.56099767843E+01  0.72461498528E+02  0.69999906511E+02 0.  0.
         12    1    1    2    0    0 -0.86570697979E+01 -0.15628984624E+02  0.56099767843E+01  0.18726501472E+02  0.00000000000E+00 0. -1.
         11    1    3    3    0    0  0.54904843998E+01  0.23204410625E+02 -0.18722772108E+01  0.23918518216E+02  0.51100000000E-03 0. -1.
        -11    1    3    3    0    0  0.23727165121E+02  0.98623182786E+00  0.55899093057E+01  0.24396682237E+02  0.51100000000E-03 0.  1.
         12    1    3    3    0    0 -0.20560579723E+02 -0.85616578295E+01 -0.93276088792E+01  0.24146298075E+02  0.00000000000E+00 0. -1.
</event>
<event>
 7    1  0.3348003E-013  0.7246153E+02  0.7816164E-02  0.1226708E+00
        -11   -1    0    0    0    0  0.00000000000E+00  0.00000000000E+00  0.45593999997E+02  0.45594000000E+02  0.51100000000E-03 0. -1.
         11   -1    0    0    0    0 -0.00000000000E+00 -0.00000000000E+00 -0.45593999997E+02  0.45594000000E+02  0.51100000000E-03 0.  1.
    9900012    2    1    2    0    0 -0.14523133338E+02  0.11033763515E+02  0.42444407494E+01  0.72461531658E+02  0.69999949670E+02 0.  0.
         12    1    1    2    0    0  0.14523133338E+02 -0.11033763515E+02 -0.42444407494E+01  0.18726468342E+02  0.00000000000E+00 0. -1.
         11    1    3    3    0    0  0.39848571100E+01  0.64969773337E+01  0.25839810202E+02  0.26940408167E+02  0.51100000000E-03 0. -1.
        -11    1    3    3    0    0 -0.61783211846E+01  0.61516524307E+01  0.89785644188E+01  0.12515154796E+02  0.51100000000E-03 0.  1.
        -12    1    3    3    0    0 -0.12329669264E+02 -0.16148662492E+01 -0.30573933871E+02  0.33005968695E+02  0.00000000000E+00 0.  1.
</event>
<event>
 7    1  0.3348003E-013  0.7246156E+02  0.7816164E-02  0.1226708E+00
        -11   -1    0    0    0    0  0.00000000000E+00  0.00000000000E+00  0.45593999997E+02  0.45594000000E+02  0.51100000000E-03 0. -1.
         11   -1    0    0    0    0 -0.00000000000E+00 -0.00000000000E+00 -0.45593999997E+02  0.45594000000E+02  0.51100000000E-03 0.  1.
    9900012    2    1    2    0    0  0.11424423558E+02  0.75689948446E+01 -0.12762144764E+02  0.72461562123E+02  0.69999989355E+02 0.  0.
         12    1    1    2    0    0 -0.11424423558E+02 -0.75689948446E+01  0.12762144764E+02  0.18726437877E+02  0.00000000000E+00 0. -1.
         11    1    3    3    0    0  0.33847397580E+00 -0.58944531753E+01 -0.27338054520E+01  0.65063688321E+01  0.51100000000E-03 0. -1.
        -11    1    3    3    0    0 -0.28790735699E+01 -0.24006904900E+02 -0.94582045539E+01  0.25963015640E+02  0.51100000000E-03 0.  1.
         12    1    3    3    0    0  0.13965023152E+02  0.37470352920E+02 -0.57013475814E+00  0.39992177650E+02  0.00000000000E+00 0. -1.
</event>
<event>
 7    1  0.3348003E-013  0.7246156E+02  0.7816164E-02  0.1226708E+00
        -11   -1    0    0    0    0  0.00000000000E+00  0.00000000000E+00  0.45593999997E+02  0.45594000000E+02  0.51100000000E-03 0.  1.
         11   -1    0    0    0    0 -0.00000000000E+00 -0.00000000000E+00 -0.45593999997E+02  0.45594000000E+02  0.51100000000E-03 0. -1.
    9900012    2    1    2    0    0  0.72153329938E+01  0.10930822204E+02  0.13384155637E+02  0.72461560766E+02  0.69999987587E+02 0.  0.
         12    1    1    2    0    0 -0.72153329938E+01 -0.10930822204E+02 -0.13384155637E+02  0.18726439234E+02  0.00000000000E+00 0. -1.
         11    1    3    3    0    0 -0.94203797381E+01 -0.41017911130E+01 -0.12265302588E+02  0.16000184142E+02  0.51100000000E-03 0. -1.
        -11    1    3    3    0    0  0.26341196493E+01 -0.13125944762E+02 -0.32226639862E+01  0.13770060845E+02  0.51100000000E-03 0.  1.
        -12    1    3    3    0    0  0.14001593083E+02  0.28158558080E+02  0.28872122211E+02  0.42691315779E+02  0.00000000000E+00 0.  1.
</event>
<event>
 7    1  0.3348003E-013  0.7246160E+02  0.7816164E-02  0.1226708E+00
        -11   -1    0    0    0    0  0.00000000000E+00  0.00000000000E+00  0.45593999997E+02  0.45594000000E+02  0.51100000000E-03 0.  1.
         11   -1    0    0    0    0 -0.00000000000E+00 -0.00000000000E+00 -0.45593999997E+02  0.45594000000E+02  0.51100000000E-03 0. -1.
    9900012    2    1    2    0    0  0.15466949503E+02 -0.10120238981E+02  0.30053812688E+01  0.72461599371E+02  0.70000037878E+02 0.  0.
         12    1    1    2    0    0 -0.15466949503E+02  0.10120238981E+02 -0.30053812688E+01  0.18726400629E+02  0.00000000000E+00 0. -1.
         11    1    3    3    0    0  0.72526148664E+01 -0.52046436542E+01 -0.27506955407E+01  0.93410419219E+01  0.51100000000E-03 0.  1.
        -11    1    3    3    0    0  0.19485410371E+01  0.12666853104E+02  0.29942080058E+02  0.32569527755E+02  0.51100000000E-03 0. -1.
         12    1    3    3    0    0  0.62657935990E+01 -0.17582448431E+02 -0.24186003248E+02  0.30551029694E+02  0.00000000000E+00 0. -1.
</event>
<event>
 7    1  0.3348003E-013  0.7246145E+02  0.7816164E-02  0.1226708E+00
        -11   -1    0    0    0    0  0.00000000000E+00  0.00000000000E+00  0.45593999997E+02  0.45594000000E+02  0.51100000000E-03 0.  1.
         11   -1    0    0    0    0 -0.00000000000E+00 -0.00000000000E+00 -0.45593999997E+02  0.45594000000E+02  0.51100000000E-03 0. -1.
    9900012    2    1    2    0    0 -0.16882507684E+01  0.31438266497E+01  0.18383412051E+02  0.72461449990E+02  0.69999843281E+02 0.  0.
         12    1    1    2    0    0  0.16882507684E+01 -0.31438266497E+01 -0.18383412051E+02  0.18726550010E+02  0.00000000000E+00 0. -1.
         11    1    3    3    0    0  0.13003249341E+02  0.20332925834E+02  0.15733125078E+02  0.28810477111E+02  0.51100000000E-03 0. -1.
        -11    1    3    3    0    0  0.65183107862E+01 -0.27471235400E+01  0.13928694617E+02  0.15621894803E+02  0.51100000000E-03 0.  1.
         12    1    3    3    0    0 -0.21209810896E+02 -0.14441975644E+02 -0.11278407644E+02  0.28029078075E+02  0.00000000000E+00 0. -1.
</event>
<event>
 7    1  0.3348003E-013  0.7246155E+02  0.7816164E-02  0.1226708E+00
        -11   -1    0    0    0    0  0.00000000000E+00  0.00000000000E+00  0.45593999997E+02  0.45594000000E+02  0.51100000000E-03 0. -1.
         11   -1    0    0    0    0 -0.00000000000E+00 -0.00000000000E+00 -0.45593999997E+02  0.45594000000E+02  0.51100000000E-03 0.  1.
    9900012    2    1    2    0    0 -0.83786598221E+01  0.15997432914E+02 -0.49558280944E+01  0.72461547257E+02  0.69999969989E+02 0.  0.
         12    1    1    2    0    0  0.83786598221E+01 -0.15997432914E+02  0.49558280944E+01  0.18726452743E+02  0.00000000000E+00 0. -1.
         11    1    3    3    0    0  0.15263548063E+02 -0.82943380141E+01  0.15687865986E+02  0.23406859722E+02  0.51100000000E-03 0. -1.
        -11    1    3    3    0    0  0.65517346670E+01  0.63714172988E+01 -0.64353389869E+01  0.11177377764E+02  0.51100000000E-03 0.  1.
        -12    1    3    3    0    0 -0.30193942552E+02  0.17920353629E+02 -0.14208355094E+02  0.37877309771E+02  0.00000000000E+00 0.  1.
</event>
<event>
 7    1  0.3348003E-013  0.7246154E+02  0.7816164E-02  0.1226708E+00
        -11   -1    0    0    0    0  0.00000000000E+00  0.00000000000E+00  0.45593999997E+02  0.45594000000E+02  0.51100000000E-03 0.  1.
         11   -1    0    0    0    0 -0.00000000000E+00 -0.00000000000E+00 -0.45593999997E+02  0.45594000000E+02  0.51100000000E-03 0. -1.
    9900012    2    1    2    0    0  0.18405203654E+02  0.30037689384E+01 -0.17047903865E+01  0.72461535848E+02  0.69999955127E+02 0.  0.
         12    1    1    2    0    0 -0.18405203654E+02 -0.30037689384E+01  0.17047903865E+01  0.18726464152E+02  0.00000000000E+00 0. -1.
         11    1    3    3    0    0  0.30121974474E+01 -0.34603123423E+00  0.13307309057E+02  0.13648353222E+02  0.51100000000E-03 0. -1.
        -11    1    3    3    0    0  0.49683203481E+01 -0.21501972665E+02  0.79002863203E+01  0.23439999142E+02  0.51100000000E-03 0.  1.
         12    1    3    3    0    0  0.10424685858E+02  0.24851772838E+02 -0.22912385764E+02  0.35373183484E+02  0.00000000000E+00 0. -1.
</event>
<event>
 7    1  0.3348003E-013  0.7246155E+02  0.7816164E-02  0.1226708E+00
        -11   -1    0    0    0    0  0.00000000000E+00  0.00000000000E+00  0.45593999997E+02  0.45594000000E+02  0.51100000000E-03 0.  1.
         11   -1    0    0    0    0 -0.00000000000E+00 -0.00000000000E+00 -0.45593999997E+02  0.45594000000E+02  0.51100000000E-03 0. -1.
    9900012    2    1    2    0    0  0.11545311095E+02 -0.71454449353E+01  0.12896832541E+02  0.72461551293E+02  0.69999975247E+02 0.  0.
         12    1    1    2    0    0 -0.11545311095E+02  0.71454449353E+01 -0.12896832541E+02  0.18726448707E+02  0.00000000000E+00 0. -1.
         11    1    3    3    0    0  0.35940619218E+01 -0.15675255852E+02  0.12020107756E+02  0.20077697026E+02  0.51100000000E-03 0. -1.
        -11    1    3    3    0    0  0.70776492208E+01  0.50527795209E+01  0.25788588369E+02  0.27215344747E+02  0.51100000000E-03 0.  1.
         12    1    3    3    0    0  0.87359995230E+00  0.34770313959E+01 -0.24911863584E+02  0.25168509520E+02  0.00000000000E+00 0. -1.
</event>
<event>
 7    1  0.3348003E-013  0.7246169E+02  0.7816164E-02  0.1226708E+00
        -11   -1    0    0    0    0  0.00000000000E+00  0.00000000000E+00  0.45593999997E+02  0.45594000000E+02  0.51100000000E-03 0. -1.
         11   -1    0    0    0    0 -0.00000000000E+00 -0.00000000000E+00 -0.45593999997E+02  0.45594000000E+02  0.51100000000E-03 0.  1.
    9900012    2    1    2    0    0  0.14478103565E+02 -0.67785233481E+01 -0.97524864862E+01  0.72461685512E+02  0.70000150092E+02 0.  0.
         12    1    1    2    0    0 -0.14478103565E+02  0.67785233481E+01  0.97524864862E+01  0.18726314488E+02  0.00000000000E+00 0. -1.
         11    1    3    3    0    0  0.23878801089E+01  0.24871490575E+01  0.57677027462E+01  0.67196932281E+01  0.51100000000E-03 0. -1.
        -11    1    3    3    0    0  0.36685750762E+02 -0.69147749924E+01 -0.15623873062E+01  0.37364414574E+02  0.51100000000E-03 0.  1.
         12    1    3    3    0    0 -0.24595527305E+02 -0.23508974133E+01 -0.13957801926E+02  0.28377577710E+02  0.00000000000E+00 0. -1.
</event>
<event>
 7    1  0.3348003E-013  0.7246153E+02  0.7816164E-02  0.1226708E+00
        -11   -1    0    0    0    0  0.00000000000E+00  0.00000000000E+00  0.45593999997E+02  0.45594000000E+02  0.51100000000E-03 0. -1.
         11   -1    0    0    0    0 -0.00000000000E+00 -0.00000000000E+00 -0.45593999997E+02  0.45594000000E+02  0.51100000000E-03 0.  1.
    9900012    2    1    2    0    0 -0.19736357356E+01  0.97560142791E+01 -0.15862086430E+02  0.72461525731E+02  0.69999941948E+02 0.  0.
         12    1    1    2    0    0  0.19736357356E+01 -0.97560142791E+01  0.15862086430E+02  0.18726474269E+02  0.00000000000E+00 0. -1.
         11    1    3    3    0    0 -0.90743828129E+00  0.88760237563E+01 -0.17426164839E+02  0.19577498901E+02  0.51100000000E-03 0. -1.
        -11    1    3    3    0    0 -0.22963917795E+02 -0.13453967173E+02  0.21876791243E+01  0.26704619327E+02  0.51100000000E-03 0.  1.
         12    1    3    3    0    0  0.21897720341E+02  0.14333957696E+02 -0.62360071598E+00  0.26179407503E+02  0.00000000000E+00 0. -1.
</event>
<event>
 7    1  0.3348003E-013  0.7246159E+02  0.7816164E-02  0.1226708E+00
        -11   -1    0    0    0    0  0.00000000000E+00  0.00000000000E+00  0.45593999997E+02  0.45594000000E+02  0.51100000000E-03 0. -1.
         11   -1    0    0    0    0 -0.00000000000E+00 -0.00000000000E+00 -0.45593999997E+02  0.45594000000E+02  0.51100000000E-03 0.  1.
    9900012    2    1    2    0    0 -0.10887718748E+02  0.84926331538E+00 -0.15212316710E+02  0.72461594915E+02  0.70000032073E+02 0.  0.
         12    1    1    2    0    0  0.10887718748E+02 -0.84926331538E+00  0.15212316710E+02  0.18726405085E+02  0.00000000000E+00 0. -1.
         11    1    3    3    0    0 -0.40178990561E+01  0.25910005360E+02 -0.62315485207E+01  0.26950029458E+02  0.51100000000E-03 0. -1.
        -11    1    3    3    0    0 -0.11587011988E+02  0.10028016661E+01 -0.14364970774E+02  0.18482879743E+02  0.51100000000E-03 0.  1.
        -12    1    3    3    0    0  0.47171922967E+01 -0.26063543711E+02  0.53842025849E+01  0.27028685713E+02  0.00000000000E+00 0.  1.
</event>
<event>
 7    1  0.3348003E-013  0.7246139E+02  0.7816164E-02  0.1226708E+00
        -11   -1    0    0    0    0  0.00000000000E+00  0.00000000000E+00  0.45593999997E+02  0.45594000000E+02  0.51100000000E-03 0.  1.
         11   -1    0    0    0    0 -0.00000000000E+00 -0.00000000000E+00 -0.45593999997E+02  0.45594000000E+02  0.51100000000E-03 0. -1.
    9900012    2    1    2    0    0  0.26099089601E+01  0.18543530754E+02  0.10819733286E+00  0.72461391543E+02  0.69999767143E+02 0.  0.
         12    1    1    2    0    0 -0.26099089601E+01 -0.18543530754E+02 -0.10819733286E+00  0.18726608457E+02  0.00000000000E+00 0. -1.
         11    1    3    3    0    0  0.28143617971E+02  0.15098699553E+02  0.98841732019E+01  0.33432481823E+02  0.51100000000E-03 0. -1.
        -11    1    3    3    0    0 -0.20241722422E+02  0.54014740474E+01  0.63930515955E+01  0.21903752132E+02  0.51100000000E-03 0.  1.
        -12    1    3    3    0    0 -0.52919865889E+01 -0.19566428461E+01 -0.16169027465E+02  0.17125157589E+02  0.00000000000E+00 0.  1.
</event>
<event>
 7    1  0.3348003E-013  0.7246163E+02  0.7816164E-02  0.1226708E+00
        -11   -1    0    0    0    0  0.00000000000E+00  0.00000000000E+00  0.45593999997E+02  0.45594000000E+02  0.51100000000E-03 0.  1.
         11   -1    0    0    0    0 -0.00000000000E+00 -0.00000000000E+00 -0.45593999997E+02  0.45594000000E+02  0.51100000000E-03 0. -1.
    9900012    2    1    2    0    0  0.54356289806E+01 -0.31821152223E+01  0.17635339486E+02  0.72461625058E+02  0.70000071339E+02 0.  0.
         12    1    1    2    0    0 -0.54356289806E+01  0.31821152223E+01 -0.17635339486E+02  0.18726374942E+02  0.00000000000E+00 0. -1.
         11    1    3    3    0    0  0.80837762361E+01  0.26168763271E+02  0.17066326243E+02  0.32270901771E+02  0.51100000000E-03 0. -1.
        -11    1    3    3    0    0 -0.23742969192E+01 -0.63978376441E+01  0.12559003920E+02  0.14293291857E+02  0.51100000000E-03 0.  1.
        -12    1    3    3    0    0 -0.27385033634E+00 -0.22953040849E+02 -0.11989990678E+02  0.25897431430E+02  0.00000000000E+00 0.  1.
</event>
<event>
 7    1  0.3348003E-013  0.7246162E+02  0.7816164E-02  0.1226708E+00
        -11   -1    0    0    0    0  0.00000000000E+00  0.00000000000E+00  0.45593999997E+02  0.45594000000E+02  0.51100000000E-03 0.  1.
         11   -1    0    0    0    0 -0.00000000000E+00 -0.00000000000E+00 -0.45593999997E+02  0.45594000000E+02  0.51100000000E-03 0. -1.
    9900012    2    1    2    0    0  0.68993365243E+01 -0.16042510648E+02  0.67612495505E+01  0.72461615195E+02  0.70000058492E+02 0.  0.
         12    1    1    2    0    0 -0.68993365243E+01  0.16042510648E+02 -0.67612495505E+01  0.18726384805E+02  0.00000000000E+00 0. -1.
         11    1    3    3    0    0 -0.56355643304E+01 -0.67102696956E+01  0.89211216428E+01  0.12504947674E+02  0.51100000000E-03 0. -1.
        -11    1    3    3    0    0 -0.18973263120E+02  0.61956042409E+01  0.10581447755E+02  0.22590645457E+02  0.51100000000E-03 0.  1.
        -12    1    3    3    0    0  0.31508163975E+02 -0.15527845194E+02 -0.12741319847E+02  0.37366022064E+02  0.00000000000E+00 0.  1.
</event>
<event>
 7    1  0.3348003E-013  0.7246154E+02  0.7816164E-02  0.1226708E+00
        -11   -1    0    0    0    0  0.00000000000E+00  0.00000000000E+00  0.45593999997E+02  0.45594000000E+02  0.51100000000E-03 0.  1.
         11   -1    0    0    0    0 -0.00000000000E+00 -0.00000000000E+00 -0.45593999997E+02  0.45594000000E+02  0.51100000000E-03 0. -1.
    9900012    2    1    2    0    0 -0.18034031000E+02  0.47357968973E+01 -0.17395906854E+01  0.72461542189E+02  0.69999963388E+02 0.  0.
         12    1    1    2    0    0  0.18034031000E+02 -0.47357968973E+01  0.17395906854E+01  0.18726457811E+02  0.00000000000E+00 0. -1.
         11    1    3    3    0    0 -0.13100479682E+01 -0.14291917477E+02 -0.27124161983E+01  0.14605900614E+02  0.51100000000E-03 0. -1.
        -11    1    3    3    0    0  0.98319420498E+01 -0.11038806784E+02  0.84831576787E+01  0.17043658767E+02  0.51100000000E-03 0.  1.
         12    1    3    3    0    0 -0.26555925082E+02  0.30066521159E+02 -0.75103321658E+01  0.40811982809E+02  0.00000000000E+00 0. -1.
</event>
<event>
 7    1  0.3348003E-013  0.7246156E+02  0.7816164E-02  0.1226708E+00
        -11   -1    0    0    0    0  0.00000000000E+00  0.00000000000E+00  0.45593999997E+02  0.45594000000E+02  0.51100000000E-03 0.  1.
         11   -1    0    0    0    0 -0.00000000000E+00 -0.00000000000E+00 -0.45593999997E+02  0.45594000000E+02  0.51100000000E-03 0. -1.
    9900012    2    1    2    0    0 -0.17724225029E+02  0.50552425581E+01  0.33130084134E+01  0.72461557333E+02  0.69999983116E+02 0.  0.
         12    1    1    2    0    0  0.17724225029E+02 -0.50552425581E+01 -0.33130084134E+01  0.18726442667E+02  0.00000000000E+00 0. -1.
         11    1    3    3    0    0  0.11872301729E+02 -0.13475580083E+02 -0.18798155147E+01  0.18057588808E+02  0.51100000000E-03 0. -1.
        -11    1    3    3    0    0  0.81407769466E+01 -0.39705289647E+01  0.52469149633E+01  0.10467447943E+02  0.51100000000E-03 0.  1.
         12    1    3    3    0    0 -0.37737303705E+02  0.22501351606E+02 -0.54091035207E-01  0.43936520582E+02  0.00000000000E+00 0. -1.
</event>
<event>
 7    1  0.3348003E-013  0.7246157E+02  0.7816164E-02  0.1226708E+00
        -11   -1    0    0    0    0  0.00000000000E+00  0.00000000000E+00  0.45593999997E+02  0.45594000000E+02  0.51100000000E-03 0.  1.
         11   -1    0    0    0    0 -0.00000000000E+00 -0.00000000000E+00 -0.45593999997E+02  0.45594000000E+02  0.51100000000E-03 0. -1.
    9900012    2    1    2    0    0 -0.27858682573E+01  0.72196434164E+00  0.18503971693E+02  0.72461567802E+02  0.69999996753E+02 0.  0.
         12    1    1    2    0    0  0.27858682573E+01 -0.72196434164E+00 -0.18503971693E+02  0.18726432198E+02  0.00000000000E+00 0. -1.
         11    1    3    3    0    0  0.13954830454E+01  0.21576321673E+02 -0.54905886065E+01  0.22307657729E+02  0.51100000000E-03 0. -1.
        -11    1    3    3    0    0  0.12524085895E+01  0.86796660068E+01 -0.34965740028E+01  0.94409300009E+01  0.51100000000E-03 0.  1.
        -12    1    3    3    0    0 -0.54337598922E+01 -0.29534023338E+02  0.27491134302E+02  0.40712980072E+02  0.00000000000E+00 0.  1.
</event>
<event>
 7    1  0.3348003E-013  0.7246142E+02  0.7816164E-02  0.1226708E+00
        -11   -1    0    0    0    0  0.00000000000E+00  0.00000000000E+00  0.45593999997E+02  0.45594000000E+02  0.51100000000E-03 0. -1.
         11   -1    0    0    0    0 -0.00000000000E+00 -0.00000000000E+00 -0.45593999997E+02  0.45594000000E+02  0.51100000000E-03 0.  1.
    9900012    2    1    2    0    0  0.16253597825E+02  0.45397697257E+01  0.81176165105E+01  0.72461423986E+02  0.69999809405E+02 0.  0.
         12    1    1    2    0    0 -0.16253597825E+02 -0.45397697257E+01 -0.81176165105E+01  0.18726576014E+02  0.00000000000E+00 0. -1.
         11    1    3    3    0    0 -0.18355838741E+02 -0.50718145955E+01  0.20655698360E+02  0.28094803686E+02  0.51100000000E-03 0. -1.
        -11    1    3    3    0    0  0.22386205598E+01  0.91068400748E+01  0.66862904213E+00  0.94017563900E+01  0.51100000000E-03 0.  1.
        -12    1    3    3    0    0  0.32370816006E+02  0.50474424633E+00 -0.13206710891E+02  0.34964863909E+02  0.00000000000E+00 0.  1.
</event>
<event>
 7    1  0.3348003E-013  0.7246157E+02  0.7816164E-02  0.1226708E+00
        -11   -1    0    0    0    0  0.00000000000E+00  0.00000000000E+00  0.45593999997E+02  0.45594000000E+02  0.51100000000E-03 0.  1.
         11   -1    0    0    0    0 -0.00000000000E+00 -0.00000000000E+00 -0.45593999997E+02  0.45594000000E+02  0.51100000000E-03 0. -1.
    9900012    2    1    2    0    0 -0.17648901068E+02 -0.49636047668E+01 -0.38155050846E+01  0.72461570542E+02  0.70000000323E+02 0.  0.
         12    1    1    2    0    0  0.17648901068E+02  0.49636047668E+01  0.38155050846E+01  0.18726429458E+02  0.00000000000E+00 0. -1.
         11    1    3    3    0    0 -0.12177898732E+02 -0.16256318357E+02  0.44461624131E+01  0.20792726241E+02  0.51100000000E-03 0. -1.
        -11    1    3    3    0    0 -0.96908880026E+01 -0.18510698629E+02 -0.38726988439E+01  0.21249872249E+02  0.51100000000E-03 0.  1.
         12    1    3    3    0    0  0.42198856671E+01  0.29803412219E+02 -0.43889686537E+01  0.30418972053E+02  0.00000000000E+00 0. -1.
</event>
<event>
 7    1  0.3348003E-013  0.7246151E+02  0.7816164E-02  0.1226708E+00
        -11   -1    0    0    0    0  0.00000000000E+00  0.00000000000E+00  0.45593999997E+02  0.45594000000E+02  0.51100000000E-03 0. -1.
         11   -1    0    0    0    0 -0.00000000000E+00 -0.00000000000E+00 -0.45593999997E+02  0.45594000000E+02  0.51100000000E-03 0.  1.
    9900012    2    1    2    0    0 -0.33543857075E+01  0.76889865541E+01 -0.16742431845E+02  0.72461509625E+02  0.69999920966E+02 0.  0.
         12    1    1    2    0    0  0.33543857075E+01 -0.76889865541E+01  0.16742431845E+02  0.18726490375E+02  0.00000000000E+00 0. -1.
         11    1    3    3    0    0 -0.16562242172E+02  0.23551850422E+02 -0.97171838035E+01  0.30387846014E+02  0.51100000000E-03 0.  1.
        -11    1    3    3    0    0 -0.10731095705E+02 -0.10198749429E+02  0.36650129031E+01  0.15251335180E+02  0.51100000000E-03 0. -1.
        -12    1    3    3    0    0  0.23938952170E+02 -0.56641144389E+01 -0.10690260944E+02  0.26822328430E+02  0.00000000000E+00 0.  1.
</event>
<event>
 7    1  0.3348003E-013  0.7246166E+02  0.7816164E-02  0.1226708E+00
        -11   -1    0    0    0    0  0.00000000000E+00  0.00000000000E+00  0.45593999997E+02  0.45594000000E+02  0.51100000000E-03 0. -1.
         11   -1    0    0    0    0 -0.00000000000E+00 -0.00000000000E+00 -0.45593999997E+02  0.45594000000E+02  0.51100000000E-03 0.  1.
    9900012    2    1    2    0    0  0.12189369696E+02 -0.10652497506E+02  0.94137894887E+01  0.72461658413E+02  0.70000114790E+02 0.  0.
         12    1    1    2    0    0 -0.12189369696E+02  0.10652497506E+02 -0.94137894887E+01  0.18726341587E+02  0.00000000000E+00 0. -1.
         11    1    3    3    0    0 -0.14596756059E+02 -0.16108694501E+01 -0.11693603423E+01  0.14731856356E+02  0.51100000000E-03 0. -1.
        -11    1    3    3    0    0  0.36432982988E+02  0.73549541809E+01  0.31354886887E+01  0.37299985121E+02  0.51100000000E-03 0.  1.
         12    1    3    3    0    0 -0.96468572329E+01 -0.16396582237E+02  0.74476611423E+01  0.20429816935E+02  0.00000000000E+00 0. -1.
</event>
<event>
 7    1  0.3348003E-013  0.7246157E+02  0.7816164E-02  0.1226708E+00
        -11   -1    0    0    0    0  0.00000000000E+00  0.00000000000E+00  0.45593999997E+02  0.45594000000E+02  0.51100000000E-03 0.  1.
         11   -1    0    0    0    0 -0.00000000000E+00 -0.00000000000E+00 -0.45593999997E+02  0.45594000000E+02  0.51100000000E-03 0. -1.
    9900012    2    1    2    0    0  0.15297050668E+02  0.23076633703E+00  0.10799360864E+02  0.72461569285E+02  0.69999998685E+02 0.  0.
         12    1    1    2    0    0 -0.15297050668E+02 -0.23076633703E+00 -0.10799360864E+02  0.18726430715E+02  0.00000000000E+00 0. -1.
         11    1    3    3    0    0  0.69310720940E+01  0.14382409200E+02 -0.49503686095E+01  0.16715250653E+02  0.51100000000E-03 0. -1.
        -11    1    3    3    0    0 -0.15931349779E+02 -0.15464841432E+02 -0.61188071224E+01  0.23030610655E+02  0.51100000000E-03 0.  1.
         12    1    3    3    0    0  0.24297328353E+02  0.13131985693E+01  0.21868536596E+02  0.32715707977E+02  0.00000000000E+00 0. -1.
</event>
<event>
 7    1  0.3348003E-013  0.7246156E+02  0.7816164E-02  0.1226708E+00
        -11   -1    0    0    0    0  0.00000000000E+00  0.00000000000E+00  0.45593999997E+02  0.45594000000E+02  0.51100000000E-03 0. -1.
         11   -1    0    0    0    0 -0.00000000000E+00 -0.00000000000E+00 -0.45593999997E+02  0.45594000000E+02  0.51100000000E-03 0.  1.
    9900012    2    1    2    0    0 -0.12764948010E+01 -0.18191121031E+02 -0.42583075635E+01  0.72461561293E+02  0.69999988274E+02 0.  0.
         12    1    1    2    0    0  0.12764948010E+01  0.18191121031E+02  0.42583075635E+01  0.18726438707E+02  0.00000000000E+00 0. -1.
         11    1    3    3    0    0  0.39950339160E+01  0.10047887670E+01 -0.10530471296E+02  0.11307551566E+02  0.51100000000E-03 0. -1.
        -11    1    3    3    0    0 -0.17995227399E+02 -0.14403747937E+01 -0.20029443558E+02  0.26964448783E+02  0.51100000000E-03 0.  1.
         12    1    3    3    0    0  0.12723698682E+02 -0.17755535004E+02  0.26301607291E+02  0.34189560943E+02  0.00000000000E+00 0. -1.
</event>
<event>
 7    1  0.3348003E-013  0.7246155E+02  0.7816164E-02  0.1226708E+00
        -11   -1    0    0    0    0  0.00000000000E+00  0.00000000000E+00  0.45593999997E+02  0.45594000000E+02  0.51100000000E-03 0.  1.
         11   -1    0    0    0    0 -0.00000000000E+00 -0.00000000000E+00 -0.45593999997E+02  0.45594000000E+02  0.51100000000E-03 0. -1.
    9900012    2    1    2    0    0  0.16776806825E+02  0.36940665454E+00  0.83115811631E+01  0.72461545718E+02  0.69999967985E+02 0.  0.
         12    1    1    2    0    0 -0.16776806825E+02 -0.36940665454E+00 -0.83115811631E+01  0.18726454282E+02  0.00000000000E+00 0. -1.
         11    1    3    3    0    0  0.17858381042E+01 -0.12884954678E+02 -0.89532321019E+01  0.15791505315E+02  0.51100000000E-03 0. -1.
        -11    1    3    3    0    0  0.24014312016E+02  0.27792542740E+02  0.98962661499E+01  0.38040093290E+02  0.51100000000E-03 0.  1.
         12    1    3    3    0    0 -0.90233432954E+01 -0.14538181407E+02  0.73685471151E+01  0.18629947113E+02  0.00000000000E+00 0. -1.
</event>
<event>
 7    1  0.3348003E-013  0.7246158E+02  0.7816164E-02  0.1226708E+00
        -11   -1    0    0    0    0  0.00000000000E+00  0.00000000000E+00  0.45593999997E+02  0.45594000000E+02  0.51100000000E-03 0.  1.
         11   -1    0    0    0    0 -0.00000000000E+00 -0.00000000000E+00 -0.45593999997E+02  0.45594000000E+02  0.51100000000E-03 0. -1.
    9900012    2    1    2    0    0 -0.12848266590E+02 -0.11162613423E+02  0.78100537839E+01  0.72461579282E+02  0.70000011708E+02 0.  0.
         12    1    1    2    0    0  0.12848266590E+02  0.11162613423E+02 -0.78100537839E+01  0.18726420718E+02  0.00000000000E+00 0. -1.
         11    1    3    3    0    0 -0.10356410376E+02 -0.72639429312E+01  0.16615884399E+01  0.12758564935E+02  0.51100000000E-03 0. -1.
        -11    1    3    3    0    0 -0.24769502369E+02 -0.15993084513E+02  0.14706702592E+02  0.32948355061E+02  0.51100000000E-03 0.  1.
         12    1    3    3    0    0  0.22277646154E+02  0.12094414022E+02 -0.85582372485E+01  0.26754659286E+02  0.00000000000E+00 0. -1.
</event>
<event>
 7    1  0.3348003E-013  0.7246173E+02  0.7816164E-02  0.1226708E+00
        -11   -1    0    0    0    0  0.00000000000E+00  0.00000000000E+00  0.45593999997E+02  0.45594000000E+02  0.51100000000E-03 0. -1.
         11   -1    0    0    0    0 -0.00000000000E+00 -0.00000000000E+00 -0.45593999997E+02  0.45594000000E+02  0.51100000000E-03 0.  1.
    9900012    2    1    2    0    0 -0.94768000214E+01  0.15008308508E+02 -0.59677501993E+01  0.72461732209E+02  0.70000210924E+02 0.  0.
         12    1    1    2    0    0  0.94768000214E+01 -0.15008308508E+02  0.59677501993E+01  0.18726267791E+02  0.00000000000E+00 0. -1.
         11    1    3    3    0    0  0.79904961152E+01 -0.62944794913E+01  0.12940025845E+02  0.16459427978E+02  0.51100000000E-03 0. -1.
        -11    1    3    3    0    0 -0.23664715924E+02 -0.52751148792E+01 -0.30445158327E+01  0.24435930382E+02  0.51100000000E-03 0.  1.
         12    1    3    3    0    0  0.61974197871E+01  0.26577902879E+02 -0.15863260211E+02  0.31566373849E+02  0.00000000000E+00 0. -1.
</event>
<event>
 7    1  0.3348003E-013  0.7246160E+02  0.7816164E-02  0.1226708E+00
        -11   -1    0    0    0    0  0.00000000000E+00  0.00000000000E+00  0.45593999997E+02  0.45594000000E+02  0.51100000000E-03 0.  1.
         11   -1    0    0    0    0 -0.00000000000E+00 -0.00000000000E+00 -0.45593999997E+02  0.45594000000E+02  0.51100000000E-03 0. -1.
    9900012    2    1    2    0    0  0.99607887383E+01  0.12293786128E+02 -0.10016168198E+02  0.72461598450E+02  0.70000036678E+02 0.  0.
         12    1    1    2    0    0 -0.99607887383E+01 -0.12293786128E+02  0.10016168198E+02  0.18726401550E+02  0.00000000000E+00 0. -1.
         11    1    3    3    0    0 -0.13246111651E+02  0.39500994300E+01 -0.10899015960E+01  0.13865447888E+02  0.51100000000E-03 0. -1.
        -11    1    3    3    0    0 -0.41452653898E+01  0.25463158103E+01  0.18680670690E+02  0.19303740752E+02  0.51100000000E-03 0.  1.
         12    1    3    3    0    0  0.27352165779E+02  0.57973708880E+01 -0.27606937291E+02  0.39292409809E+02  0.00000000000E+00 0. -1.
</event>
<event>
 7    1  0.3348003E-013  0.7246160E+02  0.7816164E-02  0.1226708E+00
        -11   -1    0    0    0    0  0.00000000000E+00  0.00000000000E+00  0.45593999997E+02  0.45594000000E+02  0.51100000000E-03 0.  1.
         11   -1    0    0    0    0 -0.00000000000E+00 -0.00000000000E+00 -0.45593999997E+02  0.45594000000E+02  0.51100000000E-03 0. -1.
    9900012    2    1    2    0    0  0.14883419062E+02 -0.60435214208E+01 -0.96248460516E+01  0.72461602171E+02  0.70000041525E+02 0.  0.
         12    1    1    2    0    0 -0.14883419062E+02  0.60435214208E+01  0.96248460516E+01  0.18726397829E+02  0.00000000000E+00 0. -1.
         11    1    3    3    0    0  0.26264699228E+02  0.10198243938E+02  0.12862149144E+01  0.28204484644E+02  0.51100000000E-03 0. -1.
        -11    1    3    3    0    0 -0.99918548943E+01  0.77411476128E+01  0.68544173640E+01  0.14378649737E+02  0.51100000000E-03 0.  1.
         12    1    3    3    0    0 -0.13894252718E+01 -0.23982912971E+02 -0.17765478330E+02  0.29878467790E+02  0.00000000000E+00 0. -1.
</event>
<event>
 7    1  0.4710580E-013  0.7246160E+02  0.7816164E-02  0.1226708E+00
        -11   -1    0    0    0    0  0.00000000000E+00  0.00000000000E+00  0.45593999997E+02  0.45594000000E+02  0.51100000000E-03 0. -1.
         11   -1    0    0    0    0 -0.00000000000E+00 -0.00000000000E+00 -0.45593999997E+02  0.45594000000E+02  0.51100000000E-03 0.  1.
    9900012    2    1    2    0    0 -0.21205199268E+01 -0.12943352262E+02 -0.13366047607E+02  0.72461596149E+02  0.70000033681E+02 0.  0.
         12    1    1    2    0    0  0.21205199268E+01  0.12943352262E+02  0.13366047607E+02  0.18726403851E+02  0.00000000000E+00 0. -1.
         11    1    3    3    0    0  0.21784040478E+02 -0.15300536032E+02 -0.80112745190E+01  0.27799844282E+02  0.51100000000E-03 0. -1.
        -11    1    3    3    0    0  0.52636171719E+01  0.76429778507E+01  0.79025867624E+01  0.12188997250E+02  0.51100000000E-03 0.  1.
        -12    1    3    3    0    0 -0.29168177577E+02 -0.52857940811E+01 -0.13257359851E+02  0.32472754617E+02  0.00000000000E+00 0.  1.
</event>
<event>
 7    1  0.3348003E-013  0.7246158E+02  0.7816164E-02  0.1226708E+00
        -11   -1    0    0    0    0  0.00000000000E+00  0.00000000000E+00  0.45593999997E+02  0.45594000000E+02  0.51100000000E-03 0.  1.
         11   -1    0    0    0    0 -0.00000000000E+00 -0.00000000000E+00 -0.45593999997E+02  0.45594000000E+02  0.51100000000E-03 0. -1.
    9900012    2    1    2    0    0  0.10805250535E+02 -0.41420457902E+00  0.15289008323E+02  0.72461580693E+02  0.70000013547E+02 0.  0.
         12    1    1    2    0    0 -0.10805250535E+02  0.41420457902E+00 -0.15289008323E+02  0.18726419307E+02  0.00000000000E+00 0. -1.
         11    1    3    3    0    0 -0.18710363087E+02  0.55854381817E+01 -0.16571128944E+01  0.19596449421E+02  0.51100000000E-03 0. -1.
        -11    1    3    3    0    0 -0.17697245575E+01  0.64257427236E+01  0.17991571333E+02  0.19186420558E+02  0.51100000000E-03 0.  1.
         12    1    3    3    0    0  0.31285338179E+02 -0.12425385484E+02 -0.10454501156E+01  0.33678710714E+02  0.00000000000E+00 0. -1.
</event>
<event>
 7    1  0.3348003E-013  0.7246156E+02  0.7816164E-02  0.1226708E+00
        -11   -1    0    0    0    0  0.00000000000E+00  0.00000000000E+00  0.45593999997E+02  0.45594000000E+02  0.51100000000E-03 0. -1.
         11   -1    0    0    0    0 -0.00000000000E+00 -0.00000000000E+00 -0.45593999997E+02  0.45594000000E+02  0.51100000000E-03 0.  1.
    9900012    2    1    2    0    0 -0.15228616951E+02  0.73181172183E+01 -0.80755122745E+01  0.72461561141E+02  0.69999988076E+02 0.  0.
         12    1    1    2    0    0  0.15228616951E+02 -0.73181172183E+01  0.80755122745E+01  0.18726438859E+02  0.00000000000E+00 0. -1.
         11    1    3    3    0    0  0.30791181760E+01  0.11601424509E+02  0.40378021136E+01  0.12664038280E+02  0.51100000000E-03 0. -1.
        -11    1    3    3    0    0  0.16850381811E+02 -0.10256511944E+02  0.48392190400E+01  0.20311313242E+02  0.51100000000E-03 0.  1.
         12    1    3    3    0    0 -0.35158116938E+02  0.59732046533E+01 -0.16952533428E+02  0.39486209619E+02  0.00000000000E+00 0. -1.
</event>
<event>
 7    1  0.3922651E-013  0.7246156E+02  0.7816164E-02  0.1226708E+00
        -11   -1    0    0    0    0  0.00000000000E+00  0.00000000000E+00  0.45593999997E+02  0.45594000000E+02  0.51100000000E-03 0.  1.
         11   -1    0    0    0    0 -0.00000000000E+00 -0.00000000000E+00 -0.45593999997E+02  0.45594000000E+02  0.51100000000E-03 0. -1.
    9900012    2    1    2    0    0  0.59921285323E+01  0.17231276924E+02 -0.42257388456E+01  0.72461564739E+02  0.69999992763E+02 0.  0.
         12    1    1    2    0    0 -0.59921285323E+01 -0.17231276924E+02  0.42257388456E+01  0.18726435261E+02  0.00000000000E+00 0. -1.
         11    1    3    3    0    0  0.32324551581E+02  0.46832157685E+01  0.11728494113E+01  0.32683095337E+02  0.51100000000E-03 0.  1.
        -11    1    3    3    0    0 -0.69853920761E+01  0.10735987988E+02 -0.13604384972E+02  0.18685192834E+02  0.51100000000E-03 0. -1.
        -12    1    3    3    0    0 -0.19347030972E+02  0.18120731678E+01  0.82057967151E+01  0.21093276567E+02  0.00000000000E+00 0.  1.
</event>
<event>
 7    1  0.3348003E-013  0.7246157E+02  0.7816164E-02  0.1226708E+00
        -11   -1    0    0    0    0  0.00000000000E+00  0.00000000000E+00  0.45593999997E+02  0.45594000000E+02  0.51100000000E-03 0.  1.
         11   -1    0    0    0    0 -0.00000000000E+00 -0.00000000000E+00 -0.45593999997E+02  0.45594000000E+02  0.51100000000E-03 0. -1.
    9900012    2    1    2    0    0  0.17295794141E+01 -0.16469434328E+02  0.87433064920E+01  0.72461571604E+02  0.70000001707E+02 0.  0.
         12    1    1    2    0    0 -0.17295794141E+01  0.16469434328E+02 -0.87433064920E+01  0.18726428396E+02  0.00000000000E+00 0. -1.
         11    1    3    3    0    0  0.24120846776E+02  0.35898981568E+00 -0.12102412187E+02  0.26989118249E+02  0.51100000000E-03 0. -1.
        -11    1    3    3    0    0  0.60209576639E+01 -0.10869558459E+01 -0.11750446055E+01  0.62300990592E+01  0.51100000000E-03 0.  1.
        -12    1    3    3    0    0 -0.28412225026E+02 -0.15741468298E+02  0.22020763284E+02  0.39242354296E+02  0.00000000000E+00 0.  1.
</event>
<event>
 7    1  0.3348003E-013  0.7246233E+02  0.7816164E-02  0.1226706E+00
        -11   -1    0    0    0    0  0.00000000000E+00  0.00000000000E+00  0.45593999997E+02  0.45594000000E+02  0.51100000000E-03 0. -1.
         11   -1    0    0    0    0 -0.00000000000E+00 -0.00000000000E+00 -0.45593999997E+02  0.45594000000E+02  0.51100000000E-03 0.  1.
    9900012    2    1    2    0    0 -0.70870036054E+01  0.12722676388E+02 -0.11771089433E+02  0.72462331493E+02  0.70000991596E+02 0.  0.
         12    1    1    2    0    0  0.70870036054E+01 -0.12722676388E+02  0.11771089433E+02  0.18725668507E+02  0.00000000000E+00 0. -1.
         11    1    3    3    0    0  0.33695888262E+01  0.15620197374E+02  0.34888948360E+01  0.16355949447E+02  0.51100000000E-03 0. -1.
        -11    1    3    3    0    0  0.13128879102E+02  0.17467586746E+02 -0.11576066810E+02  0.24728311229E+02  0.51100000000E-03 0.  1.
         12    1    3    3    0    0 -0.23585471533E+02 -0.20365107732E+02 -0.36839174586E+01  0.31378070817E+02  0.00000000000E+00 0. -1.
</event>
<event>
 7    1  0.3348003E-013  0.7246156E+02  0.7816164E-02  0.1226708E+00
        -11   -1    0    0    0    0  0.00000000000E+00  0.00000000000E+00  0.45593999997E+02  0.45594000000E+02  0.51100000000E-03 0. -1.
         11   -1    0    0    0    0 -0.00000000000E+00 -0.00000000000E+00 -0.45593999997E+02  0.45594000000E+02  0.51100000000E-03 0.  1.
    9900012    2    1    2    0    0  0.15244504970E+02 -0.10700732291E+02  0.19439674528E+01  0.72461558459E+02  0.69999984582E+02 0.  0.
         12    1    1    2    0    0 -0.15244504970E+02  0.10700732291E+02 -0.19439674528E+01  0.18726441541E+02  0.00000000000E+00 0. -1.
         11    1    3    3    0    0 -0.16150759348E+02 -0.77133547188E+01  0.69994623309E+01  0.19218099326E+02  0.51100000000E-03 0. -1.
        -11    1    3    3    0    0  0.21516070804E+02 -0.18225622482E+02 -0.15618590944E+02  0.32234376076E+02  0.51100000000E-03 0.  1.
        -12    1    3    3    0    0  0.98791935138E+01  0.15238244909E+02  0.10563096066E+02  0.21009083057E+02  0.00000000000E+00 0.  1.
</event>
<event>
 7    1  0.3348003E-013  0.7246157E+02  0.7816164E-02  0.1226708E+00
        -11   -1    0    0    0    0  0.00000000000E+00  0.00000000000E+00  0.45593999997E+02  0.45594000000E+02  0.51100000000E-03 0.  1.
         11   -1    0    0    0    0 -0.00000000000E+00 -0.00000000000E+00 -0.45593999997E+02  0.45594000000E+02  0.51100000000E-03 0. -1.
    9900012    2    1    2    0    0  0.28318821155E+01 -0.61673408997E+01  0.17453466559E+02  0.72461570948E+02  0.70000000852E+02 0.  0.
         12    1    1    2    0    0 -0.28318821155E+01  0.61673408997E+01 -0.17453466559E+02  0.18726429052E+02  0.00000000000E+00 0. -1.
         11    1    3    3    0    0 -0.52170460036E+01  0.71338856657E+00  0.13045486560E+02  0.14068091985E+02  0.51100000000E-03 0. -1.
        -11    1    3    3    0    0  0.28941191115E+02 -0.18343753067E+02  0.45277355019E+01  0.34562786473E+02  0.51100000000E-03 0.  1.
         12    1    3    3    0    0 -0.20892262996E+02  0.11463023601E+02 -0.11975550240E+00  0.23830692490E+02  0.00000000000E+00 0. -1.
</event>
<event>
 7    1  0.3348003E-013  0.7246152E+02  0.7816164E-02  0.1226708E+00
        -11   -1    0    0    0    0  0.00000000000E+00  0.00000000000E+00  0.45593999997E+02  0.45594000000E+02  0.51100000000E-03 0.  1.
         11   -1    0    0    0    0 -0.00000000000E+00 -0.00000000000E+00 -0.45593999997E+02  0.45594000000E+02  0.51100000000E-03 0. -1.
    9900012    2    1    2    0    0 -0.52852982002E+01 -0.17479612022E+02 -0.41484584303E+01  0.72461523534E+02  0.69999939086E+02 0.  0.
         12    1    1    2    0    0  0.52852982002E+01  0.17479612022E+02  0.41484584303E+01  0.18726476466E+02  0.00000000000E+00 0. -1.
         11    1    3    3    0    0 -0.16294415120E+02  0.66111447584E+01  0.25759774161E+01  0.17772193422E+02  0.51100000000E-03 0. -1.
        -11    1    3    3    0    0 -0.23087830168E+01 -0.14613759540E+02  0.19079605704E+02  0.24143814963E+02  0.51100000000E-03 0.  1.
         12    1    3    3    0    0  0.13317899936E+02 -0.94769972402E+01 -0.25804041550E+02  0.30545515149E+02  0.00000000000E+00 0. -1.
</event>
<event>
 7    1  0.3348003E-013  0.7246151E+02  0.7816164E-02  0.1226708E+00
        -11   -1    0    0    0    0  0.00000000000E+00  0.00000000000E+00  0.45593999997E+02  0.45594000000E+02  0.51100000000E-03 0. -1.
         11   -1    0    0    0    0 -0.00000000000E+00 -0.00000000000E+00 -0.45593999997E+02  0.45594000000E+02  0.51100000000E-03 0.  1.
    9900012    2    1    2    0    0 -0.17206763234E+02  0.54935744095E+01 -0.49426258712E+01  0.72461505099E+02  0.69999915071E+02 0.  0.
         12    1    1    2    0    0  0.17206763234E+02 -0.54935744095E+01  0.49426258712E+01  0.18726494901E+02  0.00000000000E+00 0. -1.
         11    1    3    3    0    0 -0.36150334660E+02  0.24617032583E+02  0.62695792848E+00  0.43740576879E+02  0.51100000000E-03 0.  1.
        -11    1    3    3    0    0  0.93434373649E+01 -0.79048554381E+01 -0.66267788214E+01  0.13917642009E+02  0.51100000000E-03 0. -1.
        -12    1    3    3    0    0  0.96001340611E+01 -0.11218602735E+02  0.10571950217E+01  0.14803286211E+02  0.00000000000E+00 0.  1.
</event>
<event>
 7    1  0.3348003E-013  0.7246157E+02  0.7816164E-02  0.1226708E+00
        -11   -1    0    0    0    0  0.00000000000E+00  0.00000000000E+00  0.45593999997E+02  0.45594000000E+02  0.51100000000E-03 0.  1.
         11   -1    0    0    0    0 -0.00000000000E+00 -0.00000000000E+00 -0.45593999997E+02  0.45594000000E+02  0.51100000000E-03 0. -1.
    9900012    2    1    2    0    0 -0.16905582145E+02 -0.38497406523E+01 -0.70753188648E+01  0.72461565535E+02  0.69999993800E+02 0.  0.
         12    1    1    2    0    0  0.16905582145E+02  0.38497406523E+01  0.70753188648E+01  0.18726434465E+02  0.00000000000E+00 0. -1.
         11    1    3    3    0    0 -0.14166520556E+02  0.24423010340E+02  0.11720893329E+02  0.30570460896E+02  0.51100000000E-03 0. -1.
        -11    1    3    3    0    0  0.36256014229E+01  0.22034653079E+01 -0.77877831858E+01  0.88684729380E+01  0.51100000000E-03 0.  1.
        -12    1    3    3    0    0 -0.63646630121E+01 -0.30476216300E+02 -0.11008429008E+02  0.33022631701E+02  0.00000000000E+00 0.  1.
</event>
<event>
 7    1  0.3348003E-013  0.7246154E+02  0.7816164E-02  0.1226708E+00
        -11   -1    0    0    0    0  0.00000000000E+00  0.00000000000E+00  0.45593999997E+02  0.45594000000E+02  0.51100000000E-03 0. -1.
         11   -1    0    0    0    0 -0.00000000000E+00 -0.00000000000E+00 -0.45593999997E+02  0.45594000000E+02  0.51100000000E-03 0.  1.
    9900012    2    1    2    0    0  0.10262775864E+02  0.14835794760E+02 -0.50254340782E+01  0.72461538448E+02  0.69999958514E+02 0.  0.
         12    1    1    2    0    0 -0.10262775864E+02 -0.14835794760E+02  0.50254340782E+01  0.18726461552E+02  0.00000000000E+00 0. -1.
         11    1    3    3    0    0  0.27203197593E+02  0.17318772552E+02  0.16927813920E+02  0.36421212588E+02  0.51100000000E-03 0. -1.
        -11    1    3    3    0    0  0.55638763628E+00  0.61056942784E+01  0.68295395312E+00  0.61689136958E+01  0.51100000000E-03 0.  1.
        -12    1    3    3    0    0 -0.17496809366E+02 -0.85886720706E+01 -0.22636201951E+02  0.29871412164E+02  0.00000000000E+00 0.  1.
</event>
<event>
 7    1  0.3348003E-013  0.7246145E+02  0.7816164E-02  0.1226708E+00
        -11   -1    0    0    0    0  0.00000000000E+00  0.00000000000E+00  0.45593999997E+02  0.45594000000E+02  0.51100000000E-03 0. -1.
         11   -1    0    0    0    0 -0.00000000000E+00 -0.00000000000E+00 -0.45593999997E+02  0.45594000000E+02  0.51100000000E-03 0.  1.
    9900012    2    1    2    0    0  0.68245861261E+00 -0.11974933667E+02 -0.14381200930E+02  0.72461448629E+02  0.69999841508E+02 0.  0.
         12    1    1    2    0    0 -0.68245861261E+00  0.11974933667E+02  0.14381200930E+02  0.18726551371E+02  0.00000000000E+00 0. -1.
         11    1    3    3    0    0  0.73680328696E+01 -0.24351560165E+02  0.21697277446E+02  0.33437377883E+02  0.51100000000E-03 0. -1.
        -11    1    3    3    0    0 -0.24222794472E+01  0.50806580326E+01 -0.86213966506E+01  0.10296067416E+02  0.51100000000E-03 0.  1.
        -12    1    3    3    0    0 -0.42632948098E+01  0.72959684657E+01 -0.27457081725E+02  0.28728003330E+02  0.00000000000E+00 0.  1.
</event>
<event>
 7    1  0.3348003E-013  0.7246163E+02  0.7816164E-02  0.1226708E+00
        -11   -1    0    0    0    0  0.00000000000E+00  0.00000000000E+00  0.45593999997E+02  0.45594000000E+02  0.51100000000E-03 0. -1.
         11   -1    0    0    0    0 -0.00000000000E+00 -0.00000000000E+00 -0.45593999997E+02  0.45594000000E+02  0.51100000000E-03 0.  1.
    9900012    2    1    2    0    0 -0.78053918041E+01 -0.35293929085E+01 -0.16652211121E+02  0.72461631138E+02  0.70000079261E+02 0.  0.
         12    1    1    2    0    0  0.78053918041E+01  0.35293929085E+01  0.16652211121E+02  0.18726368862E+02  0.00000000000E+00 0. -1.
         11    1    3    3    0    0 -0.12054914452E+02  0.19550919189E+02  0.48484412464E+01  0.23474811743E+02  0.51100000000E-03 0. -1.
        -11    1    3    3    0    0 -0.89407418223E+01 -0.34558806212E+01  0.70626313074E+01  0.11906331780E+02  0.51100000000E-03 0.  1.
        -12    1    3    3    0    0  0.13190264470E+02 -0.19624431476E+02 -0.28563283675E+02  0.37080487616E+02  0.00000000000E+00 0.  1.
</event>
<event>
 7    1  0.3348003E-013  0.7246152E+02  0.7816164E-02  0.1226708E+00
        -11   -1    0    0    0    0  0.00000000000E+00  0.00000000000E+00  0.45593999997E+02  0.45594000000E+02  0.51100000000E-03 0. -1.
         11   -1    0    0    0    0 -0.00000000000E+00 -0.00000000000E+00 -0.45593999997E+02  0.45594000000E+02  0.51100000000E-03 0.  1.
    9900012    2    1    2    0    0 -0.17807710509E+02  0.22458543166E+01 -0.53406574325E+01  0.72461520433E+02  0.69999935046E+02 0.  0.
         12    1    1    2    0    0  0.17807710509E+02 -0.22458543166E+01  0.53406574325E+01  0.18726479567E+02  0.00000000000E+00 0. -1.
         11    1    3    3    0    0  0.10428235846E+01  0.12049861146E+02 -0.17415302570E+01  0.12219638397E+02  0.51100000000E-03 0. -1.
        -11    1    3    3    0    0  0.15915899658E+02  0.10358875282E+02 -0.61763194523E+01  0.19969203321E+02  0.51100000000E-03 0.  1.
         12    1    3    3    0    0 -0.34766433751E+02 -0.20162882112E+02  0.25771922768E+01  0.40272678715E+02  0.00000000000E+00 0. -1.
</event>
<event>
 7    1  0.3348003E-013  0.7246156E+02  0.7816164E-02  0.1226708E+00
        -11   -1    0    0    0    0  0.00000000000E+00  0.00000000000E+00  0.45593999997E+02  0.45594000000E+02  0.51100000000E-03 0.  1.
         11   -1    0    0    0    0 -0.00000000000E+00 -0.00000000000E+00 -0.45593999997E+02  0.45594000000E+02  0.51100000000E-03 0. -1.
    9900012    2    1    2    0    0 -0.78500335985E+01 -0.92136569535E+01  0.14288632950E+02  0.72461560575E+02  0.69999987339E+02 0.  0.
         12    1    1    2    0    0  0.78500335985E+01  0.92136569535E+01 -0.14288632950E+02  0.18726439425E+02  0.00000000000E+00 0. -1.
         11    1    3    3    0    0  0.71626248138E+01  0.16484652025E+02 -0.13673271910E+01  0.18025441201E+02  0.51100000000E-03 0. -1.
        -11    1    3    3    0    0 -0.73969498720E+01 -0.21391707671E+02  0.30032417430E+02  0.37606729736E+02  0.51100000000E-03 0.  1.
         12    1    3    3    0    0 -0.76157085403E+01 -0.43066013074E+01 -0.14376457289E+02  0.16829389638E+02  0.00000000000E+00 0. -1.
</event>
<event>
 7    1  0.3348003E-013  0.7246157E+02  0.7816164E-02  0.1226708E+00
        -11   -1    0    0    0    0  0.00000000000E+00  0.00000000000E+00  0.45593999997E+02  0.45594000000E+02  0.51100000000E-03 0.  1.
         11   -1    0    0    0    0 -0.00000000000E+00 -0.00000000000E+00 -0.45593999997E+02  0.45594000000E+02  0.51100000000E-03 0. -1.
    9900012    2    1    2    0    0  0.14461823044E+02 -0.10472439494E+02 -0.56447042023E+01  0.72461574814E+02  0.70000005887E+02 0.  0.
         12    1    1    2    0    0 -0.14461823044E+02  0.10472439494E+02  0.56447042023E+01  0.18726425186E+02  0.00000000000E+00 0. -1.
         11    1    3    3    0    0 -0.22026304406E+02 -0.34761171751E+01  0.44074204216E+01  0.22730306453E+02  0.51100000000E-03 0. -1.
        -11    1    3    3    0    0  0.45232083722E+01  0.60674915431E+01  0.77916300826E+01  0.10862014878E+02  0.51100000000E-03 0.  1.
        -12    1    3    3    0    0  0.31964919078E+02 -0.13063813862E+02 -0.17843754706E+02  0.38869253483E+02  0.00000000000E+00 0.  1.
</event>
<event>
 7    1  0.3348003E-013  0.7246155E+02  0.7816164E-02  0.1226708E+00
        -11   -1    0    0    0    0  0.00000000000E+00  0.00000000000E+00  0.45593999997E+02  0.45594000000E+02  0.51100000000E-03 0. -1.
         11   -1    0    0    0    0 -0.00000000000E+00 -0.00000000000E+00 -0.45593999997E+02  0.45594000000E+02  0.51100000000E-03 0.  1.
    9900012    2    1    2    0    0  0.89583789634E+01 -0.25296249236E+01 -0.16248947184E+02  0.72461552380E+02  0.69999976663E+02 0.  0.
         12    1    1    2    0    0 -0.89583789634E+01  0.25296249236E+01  0.16248947184E+02  0.18726447620E+02  0.00000000000E+00 0. -1.
         11    1    3    3    0    0  0.42639462803E+01  0.15008048450E+02  0.11720837504E+02  0.19514117665E+02  0.51100000000E-03 0. -1.
        -11    1    3    3    0    0 -0.11206193284E+02  0.43804676580E+01  0.23892970669E+01  0.12266866166E+02  0.51100000000E-03 0.  1.
        -12    1    3    3    0    0  0.15900625967E+02 -0.21918141032E+02 -0.30359081755E+02  0.40680568548E+02  0.00000000000E+00 0.  1.
</event>
<event>
 7    1  0.3348003E-013  0.7246158E+02  0.7816164E-02  0.1226708E+00
        -11   -1    0    0    0    0  0.00000000000E+00  0.00000000000E+00  0.45593999997E+02  0.45594000000E+02  0.51100000000E-03 0. -1.
         11   -1    0    0    0    0 -0.00000000000E+00 -0.00000000000E+00 -0.45593999997E+02  0.45594000000E+02  0.51100000000E-03 0.  1.
    9900012    2    1    2    0    0  0.16532595761E+02 -0.85846631077E+01  0.19119942875E+01  0.72461577880E+02  0.70000009881E+02 0.  0.
         12    1    1    2    0    0 -0.16532595761E+02  0.85846631077E+01 -0.19119942875E+01  0.18726422120E+02  0.00000000000E+00 0. -1.
         11    1    3    3    0    0  0.99778773888E+01 -0.22872050485E+02 -0.63068510368E+01  0.25738397402E+02  0.51100000000E-03 0. -1.
        -11    1    3    3    0    0 -0.26777660319E+01 -0.50164217421E+01  0.21028649364E+02  0.21783916369E+02  0.51100000000E-03 0.  1.
        -12    1    3    3    0    0  0.92324844042E+01  0.19303809119E+02 -0.12809804040E+02  0.24939264109E+02  0.00000000000E+00 0.  1.
</event>
<event>
 7    1  0.3348003E-013  0.7246158E+02  0.7816164E-02  0.1226708E+00
        -11   -1    0    0    0    0  0.00000000000E+00  0.00000000000E+00  0.45593999997E+02  0.45594000000E+02  0.51100000000E-03 0.  1.
         11   -1    0    0    0    0 -0.00000000000E+00 -0.00000000000E+00 -0.45593999997E+02  0.45594000000E+02  0.51100000000E-03 0. -1.
    9900012    2    1    2    0    0  0.11919118881E+02 -0.11251921625E+02  0.90558097087E+01  0.72461579502E+02  0.70000011995E+02 0.  0.
         12    1    1    2    0    0 -0.11919118881E+02  0.11251921625E+02 -0.90558097087E+01  0.18726420498E+02  0.00000000000E+00 0. -1.
         11    1    3    3    0    0 -0.62310615892E+01 -0.94778298758E+01  0.12963340014E+02  0.17225085551E+02  0.51100000000E-03 0. -1.
        -11    1    3    3    0    0  0.73624022984E+01 -0.10136630840E+02  0.22362108350E+02  0.25632404150E+02  0.51100000000E-03 0.  1.
         12    1    3    3    0    0  0.10787778172E+02  0.83625390903E+01 -0.26269638655E+02  0.29604089801E+02  0.00000000000E+00 0. -1.
</event>
<event>
 7    1  0.3348003E-013  0.7246150E+02  0.7816164E-02  0.1226708E+00
        -11   -1    0    0    0    0  0.00000000000E+00  0.00000000000E+00  0.45593999997E+02  0.45594000000E+02  0.51100000000E-03 0. -1.
         11   -1    0    0    0    0 -0.00000000000E+00 -0.00000000000E+00 -0.45593999997E+02  0.45594000000E+02  0.51100000000E-03 0.  1.
    9900012    2    1    2    0    0 -0.10353194926E+02  0.12889580118E+02  0.87949881208E+01  0.72461501747E+02  0.69999910704E+02 0.  0.
         12    1    1    2    0    0  0.10353194926E+02 -0.12889580118E+02 -0.87949881208E+01  0.18726498253E+02  0.00000000000E+00 0. -1.
         11    1    3    3    0    0 -0.37465393934E+01  0.59242895190E+01  0.24195399214E+00  0.70137226725E+01  0.51100000000E-03 0. -1.
        -11    1    3    3    0    0 -0.31340417043E+02  0.34338022072E+01 -0.11345791992E+02  0.33507308669E+02  0.51100000000E-03 0.  1.
         12    1    3    3    0    0  0.24733761511E+02  0.35314883916E+01  0.19898826120E+02  0.31940470405E+02  0.00000000000E+00 0. -1.
</event>
<event>
 7    1  0.3348003E-013  0.7246159E+02  0.7816164E-02  0.1226708E+00
        -11   -1    0    0    0    0  0.00000000000E+00  0.00000000000E+00  0.45593999997E+02  0.45594000000E+02  0.51100000000E-03 0.  1.
         11   -1    0    0    0    0 -0.00000000000E+00 -0.00000000000E+00 -0.45593999997E+02  0.45594000000E+02  0.51100000000E-03 0. -1.
    9900012    2    1    2    0    0  0.10953181754E+02 -0.26021094959E+01  0.14964464121E+02  0.72461592154E+02  0.70000028477E+02 0.  0.
         12    1    1    2    0    0 -0.10953181754E+02  0.26021094959E+01 -0.14964464121E+02  0.18726407846E+02  0.00000000000E+00 0. -1.
         11    1    3    3    0    0  0.24004011671E+02 -0.64222789035E+01 -0.10679057220E+02  0.27045896287E+02  0.51100000000E-03 0. -1.
        -11    1    3    3    0    0  0.76816308426E+01 -0.99021428007E+01  0.71408638853E+01  0.14424001585E+02  0.51100000000E-03 0.  1.
        -12    1    3    3    0    0 -0.20732460760E+02  0.13722312208E+02  0.18502657456E+02  0.30991694281E+02  0.00000000000E+00 0.  1.
</event>
<event>
 7    1  0.3348003E-013  0.7246167E+02  0.7816164E-02  0.1226708E+00
        -11   -1    0    0    0    0  0.00000000000E+00  0.00000000000E+00  0.45593999997E+02  0.45594000000E+02  0.51100000000E-03 0. -1.
         11   -1    0    0    0    0 -0.00000000000E+00 -0.00000000000E+00 -0.45593999997E+02  0.45594000000E+02  0.51100000000E-03 0.  1.
    9900012    2    1    2    0    0  0.26175066914E+01  0.49599446979E+01 -0.17866812280E+02  0.72461671643E+02  0.70000132026E+02 0.  0.
         12    1    1    2    0    0 -0.26175066914E+01 -0.49599446979E+01  0.17866812280E+02  0.18726328357E+02  0.00000000000E+00 0. -1.
         11    1    3    3    0    0 -0.28877706481E+01  0.54349321609E+01  0.65150906382E+01  0.89623720741E+01  0.51100000000E-03 0. -1.
        -11    1    3    3    0    0 -0.22825629019E+02  0.11144800933E+02 -0.20483096316E+02  0.32630862123E+02  0.51100000000E-03 0.  1.
         12    1    3    3    0    0  0.28330906358E+02 -0.11619788396E+02 -0.38988066019E+01  0.30868437446E+02  0.00000000000E+00 0. -1.
</event>
<event>
 7    1  0.3348003E-013  0.7246154E+02  0.7816164E-02  0.1226708E+00
        -11   -1    0    0    0    0  0.00000000000E+00  0.00000000000E+00  0.45593999997E+02  0.45594000000E+02  0.51100000000E-03 0.  1.
         11   -1    0    0    0    0 -0.00000000000E+00 -0.00000000000E+00 -0.45593999997E+02  0.45594000000E+02  0.51100000000E-03 0. -1.
    9900012    2    1    2    0    0  0.12924298359E+02 -0.24394120819E+01  0.13330125223E+02  0.72461535896E+02  0.69999955190E+02 0.  0.
         12    1    1    2    0    0 -0.12924298359E+02  0.24394120819E+01 -0.13330125223E+02  0.18726464104E+02  0.00000000000E+00 0. -1.
         11    1    3    3    0    0 -0.27368140117E+01  0.39292840834E+01 -0.26006936384E-01  0.47885384998E+01  0.51100000000E-03 0. -1.
        -11    1    3    3    0    0  0.37968230014E+02  0.92848858620E+01  0.82073312765E+01  0.39939402635E+02  0.51100000000E-03 0.  1.
         12    1    3    3    0    0 -0.22307117644E+02 -0.15653582027E+02  0.51488008830E+01  0.27733594762E+02  0.00000000000E+00 0. -1.
</event>
<event>
 7    1  0.3348003E-013  0.7246151E+02  0.7816164E-02  0.1226708E+00
        -11   -1    0    0    0    0  0.00000000000E+00  0.00000000000E+00  0.45593999997E+02  0.45594000000E+02  0.51100000000E-03 0.  1.
         11   -1    0    0    0    0 -0.00000000000E+00 -0.00000000000E+00 -0.45593999997E+02  0.45594000000E+02  0.51100000000E-03 0. -1.
    9900012    2    1    2    0    0  0.68296247186E+01 -0.14721724285E+02  0.93439057311E+01  0.72461507695E+02  0.69999918453E+02 0.  0.
         12    1    1    2    0    0 -0.68296247186E+01  0.14721724285E+02 -0.93439057311E+01  0.18726492305E+02  0.00000000000E+00 0. -1.
         11    1    3    3    0    0 -0.13483325403E+02  0.17002208984E+02 -0.47486241190E+01  0.22213162889E+02  0.51100000000E-03 0. -1.
        -11    1    3    3    0    0  0.13008873385E+01 -0.14540973194E+02  0.19197951697E+02  0.24118324132E+02  0.51100000000E-03 0.  1.
        -12    1    3    3    0    0  0.19012062783E+02 -0.17182960075E+02 -0.51054218472E+01  0.26130020674E+02  0.00000000000E+00 0.  1.
</event>
<event>
 7    1  0.3348003E-013  0.7246151E+02  0.7816164E-02  0.1226708E+00
        -11   -1    0    0    0    0  0.00000000000E+00  0.00000000000E+00  0.45593999997E+02  0.45594000000E+02  0.51100000000E-03 0. -1.
         11   -1    0    0    0    0 -0.00000000000E+00 -0.00000000000E+00 -0.45593999997E+02  0.45594000000E+02  0.51100000000E-03 0.  1.
    9900012    2    1    2    0    0 -0.11476264745E+02 -0.68958347061E+01 -0.13092909093E+02  0.72461509210E+02  0.69999920426E+02 0.  0.
         12    1    1    2    0    0  0.11476264745E+02  0.68958347061E+01  0.13092909093E+02  0.18726490790E+02  0.00000000000E+00 0. -1.
         11    1    3    3    0    0 -0.23723019276E+01  0.78640760240E+01  0.49532079344E+01  0.95919642019E+01  0.51100000000E-03 0. -1.
        -11    1    3    3    0    0 -0.58051354176E+01  0.49959601942E+01 -0.35491177937E+02  0.36308166122E+02  0.51100000000E-03 0.  1.
         12    1    3    3    0    0 -0.32988273999E+01 -0.19755870924E+02  0.17445060910E+02  0.26561378886E+02  0.00000000000E+00 0. -1.
</event>
<event>
 7    1  0.3348003E-013  0.7246158E+02  0.7816164E-02  0.1226708E+00
        -11   -1    0    0    0    0  0.00000000000E+00  0.00000000000E+00  0.45593999997E+02  0.45594000000E+02  0.51100000000E-03 0.  1.
         11   -1    0    0    0    0 -0.00000000000E+00 -0.00000000000E+00 -0.45593999997E+02  0.45594000000E+02  0.51100000000E-03 0. -1.
    9900012    2    1    2    0    0 -0.38970071439E+01 -0.26744538890E+00  0.18314490586E+02  0.72461581305E+02  0.70000014344E+02 0.  0.
         12    1    1    2    0    0  0.38970071439E+01  0.26744538890E+00 -0.18314490586E+02  0.18726418695E+02  0.00000000000E+00 0. -1.
         11    1    3    3    0    0 -0.84133242713E+01 -0.14554454345E+01 -0.49553750671E+01  0.98720863562E+01  0.51100000000E-03 0. -1.
        -11    1    3    3    0    0 -0.24711848899E+02  0.43790779676E+01  0.21647175420E+02  0.33142902766E+02  0.51100000000E-03 0.  1.
         12    1    3    3    0    0  0.29228166026E+02 -0.31910779220E+01  0.16226902329E+01  0.29446592182E+02  0.00000000000E+00 0. -1.
</event>
<event>
 7    1  0.3348003E-013  0.7246163E+02  0.7816164E-02  0.1226708E+00
        -11   -1    0    0    0    0  0.00000000000E+00  0.00000000000E+00  0.45593999997E+02  0.45594000000E+02  0.51100000000E-03 0. -1.
         11   -1    0    0    0    0 -0.00000000000E+00 -0.00000000000E+00 -0.45593999997E+02  0.45594000000E+02  0.51100000000E-03 0.  1.
    9900012    2    1    2    0    0  0.13177715659E+02 -0.18683594427E+01  0.13173226537E+02  0.72461632109E+02  0.70000080525E+02 0.  0.
         12    1    1    2    0    0 -0.13177715659E+02  0.18683594427E+01 -0.13173226537E+02  0.18726367891E+02  0.00000000000E+00 0. -1.
         11    1    3    3    0    0 -0.22334127067E+02 -0.68239397202E+01 -0.34189807723E+01  0.23602305289E+02  0.51100000000E-03 0. -1.
        -11    1    3    3    0    0  0.98803121621E+01 -0.28930839529E+01 -0.75636504352E+01  0.12774948585E+02  0.51100000000E-03 0.  1.
         12    1    3    3    0    0  0.25631530564E+02  0.78486642304E+01  0.24155857744E+02  0.36084378235E+02  0.00000000000E+00 0. -1.
</event>
<event>
 7    1  0.3348003E-013  0.7246152E+02  0.7816164E-02  0.1226708E+00
        -11   -1    0    0    0    0  0.00000000000E+00  0.00000000000E+00  0.45593999997E+02  0.45594000000E+02  0.51100000000E-03 0.  1.
         11   -1    0    0    0    0 -0.00000000000E+00 -0.00000000000E+00 -0.45593999997E+02  0.45594000000E+02  0.51100000000E-03 0. -1.
    9900012    2    1    2    0    0  0.16389094440E+02  0.85094020076E+01 -0.31094650451E+01  0.72461518431E+02  0.69999932438E+02 0.  0.
         12    1    1    2    0    0 -0.16389094440E+02 -0.85094020076E+01  0.31094650451E+01  0.18726481569E+02  0.00000000000E+00 0. -1.
         11    1    3    3    0    0 -0.10686218126E+02 -0.36823693620E+01 -0.12354775679E+02  0.16745016700E+02  0.51100000000E-03 0. -1.
        -11    1    3    3    0    0 -0.18090718639E+01 -0.12771032165E+02  0.11763284832E+02  0.17457000712E+02  0.51100000000E-03 0.  1.
        -12    1    3    3    0    0  0.28884384430E+02  0.24962803534E+02 -0.25179741981E+01  0.38259501019E+02  0.00000000000E+00 0.  1.
</event>
<event>
 7    1  0.3348003E-013  0.7246152E+02  0.7816164E-02  0.1226708E+00
        -11   -1    0    0    0    0  0.00000000000E+00  0.00000000000E+00  0.45593999997E+02  0.45594000000E+02  0.51100000000E-03 0. -1.
         11   -1    0    0    0    0 -0.00000000000E+00 -0.00000000000E+00 -0.45593999997E+02  0.45594000000E+02  0.51100000000E-03 0.  1.
    9900012    2    1    2    0    0  0.16660362030E+02 -0.83127374856E+01  0.20029137706E+01  0.72461523261E+02  0.69999938730E+02 0.  0.
         12    1    1    2    0    0 -0.16660362030E+02  0.83127374856E+01 -0.20029137706E+01  0.18726476739E+02  0.00000000000E+00 0. -1.
         11    1    3    3    0    0  0.29254370079E+02 -0.36439601144E+01  0.19750542067E+02  0.35484933792E+02  0.51100000000E-03 0. -1.
        -11    1    3    3    0    0 -0.41403747163E+01 -0.29502850755E+01  0.81913240175E+01  0.96407818272E+01  0.51100000000E-03 0.  1.
        -12    1    3    3    0    0 -0.84536333323E+01 -0.17184922957E+01 -0.25938952314E+02  0.27335807642E+02  0.00000000000E+00 0.  1.
</event>
<event>
 7    1  0.3348003E-013  0.7246164E+02  0.7816164E-02  0.1226708E+00
        -11   -1    0    0    0    0  0.00000000000E+00  0.00000000000E+00  0.45593999997E+02  0.45594000000E+02  0.51100000000E-03 0. -1.
         11   -1    0    0    0    0 -0.00000000000E+00 -0.00000000000E+00 -0.45593999997E+02  0.45594000000E+02  0.51100000000E-03 0.  1.
    9900012    2    1    2    0    0 -0.99494505906E+01  0.15149809793E+02 -0.47083374120E+01  0.72461635029E+02  0.70000084329E+02 0.  0.
         12    1    1    2    0    0  0.99494505906E+01 -0.15149809793E+02  0.47083374120E+01  0.18726364971E+02  0.00000000000E+00 0. -1.
         11    1    3    3    0    0 -0.74706313855E+01  0.11289467591E+02 -0.24413571509E+01  0.13755821923E+02  0.51100000000E-03 0. -1.
        -11    1    3    3    0    0 -0.16247509844E+02  0.81065663709E+01 -0.25538101306E+02  0.31335165757E+02  0.51100000000E-03 0.  1.
         12    1    3    3    0    0  0.13768690639E+02 -0.42462241687E+01  0.23271121045E+02  0.27370647349E+02  0.00000000000E+00 0. -1.
</event>
<event>
 7    1  0.3348003E-013  0.7246160E+02  0.7816164E-02  0.1226708E+00
        -11   -1    0    0    0    0  0.00000000000E+00  0.00000000000E+00  0.45593999997E+02  0.45594000000E+02  0.51100000000E-03 0.  1.
         11   -1    0    0    0    0 -0.00000000000E+00 -0.00000000000E+00 -0.45593999997E+02  0.45594000000E+02  0.51100000000E-03 0. -1.
    9900012    2    1    2    0    0 -0.38311158453E+01 -0.13537572387E+01  0.18280257534E+02  0.72461603582E+02  0.70000043364E+02 0.  0.
         12    1    1    2    0    0  0.38311158453E+01  0.13537572387E+01 -0.18280257534E+02  0.18726396418E+02  0.00000000000E+00 0. -1.
         11    1    3    3    0    0  0.11892626626E+02  0.17553375764E+02  0.74628231578E+01  0.22477751190E+02  0.51100000000E-03 0. -1.
        -11    1    3    3    0    0 -0.19576226745E+02 -0.64040254168E+01  0.23852944536E+02  0.31515125866E+02  0.51100000000E-03 0.  1.
        -12    1    3    3    0    0  0.38524842730E+01 -0.12503107586E+02 -0.13035510159E+02  0.18468726526E+02  0.00000000000E+00 0.  1.
</event>
<event>
 7    1  0.3348003E-013  0.7246163E+02  0.7816164E-02  0.1226708E+00
        -11   -1    0    0    0    0  0.00000000000E+00  0.00000000000E+00  0.45593999997E+02  0.45594000000E+02  0.51100000000E-03 0.  1.
         11   -1    0    0    0    0 -0.00000000000E+00 -0.00000000000E+00 -0.45593999997E+02  0.45594000000E+02  0.51100000000E-03 0. -1.
    9900012    2    1    2    0    0  0.14062892530E+02  0.83892614708E+01  0.90847331729E+01  0.72461627389E+02  0.70000074376E+02 0.  0.
         12    1    1    2    0    0 -0.14062892530E+02 -0.83892614708E+01 -0.90847331729E+01  0.18726372611E+02  0.00000000000E+00 0. -1.
         11    1    3    3    0    0  0.95835975592E+01 -0.11818097677E+02 -0.10256757080E+02  0.18349764057E+02  0.51100000000E-03 0. -1.
        -11    1    3    3    0    0 -0.94906539488E+01 -0.99626934458E+01 -0.29640456831E+01  0.14075274070E+02  0.51100000000E-03 0.  1.
        -12    1    3    3    0    0  0.13969948920E+02  0.30170052594E+02  0.22305535936E+02  0.40036589262E+02  0.00000000000E+00 0.  1.
</event>
<event>
 7    1  0.3348003E-013  0.7246156E+02  0.7816164E-02  0.1226708E+00
        -11   -1    0    0    0    0  0.00000000000E+00  0.00000000000E+00  0.45593999997E+02  0.45594000000E+02  0.51100000000E-03 0.  1.
         11   -1    0    0    0    0 -0.00000000000E+00 -0.00000000000E+00 -0.45593999997E+02  0.45594000000E+02  0.51100000000E-03 0. -1.
    9900012    2    1    2    0    0  0.86783161717E+01  0.89605796610E+01  0.13966898447E+02  0.72461563829E+02  0.69999991578E+02 0.  0.
         12    1    1    2    0    0 -0.86783161717E+01 -0.89605796610E+01 -0.13966898447E+02  0.18726436171E+02  0.00000000000E+00 0. -1.
         11    1    3    3    0    0 -0.10461594967E+01  0.19897368943E+02 -0.30062180922E+01  0.20150361982E+02  0.51100000000E-03 0. -1.
        -11    1    3    3    0    0  0.16076183865E+01  0.35087462055E+01  0.30609436403E+02  0.30851796285E+02  0.51100000000E-03 0.  1.
         12    1    3    3    0    0  0.81168572819E+01 -0.14445535487E+02 -0.13636319865E+02  0.21459405562E+02  0.00000000000E+00 0. -1.
</event>
<event>
 7    1  0.3348003E-013  0.7246159E+02  0.7816164E-02  0.1226708E+00
        -11   -1    0    0    0    0  0.00000000000E+00  0.00000000000E+00  0.45593999997E+02  0.45594000000E+02  0.51100000000E-03 0.  1.
         11   -1    0    0    0    0 -0.00000000000E+00 -0.00000000000E+00 -0.45593999997E+02  0.45594000000E+02  0.51100000000E-03 0. -1.
    9900012    2    1    2    0    0 -0.64740054476E+00  0.12488201991E+02  0.13939298475E+02  0.72461591951E+02  0.70000028212E+02 0.  0.
         12    1    1    2    0    0  0.64740054476E+00 -0.12488201991E+02 -0.13939298475E+02  0.18726408049E+02  0.00000000000E+00 0. -1.
         11    1    3    3    0    0  0.10291357823E+02 -0.80844151316E+01 -0.11029726139E+02  0.17115042297E+02  0.51100000000E-03 0. -1.
        -11    1    3    3    0    0 -0.16151712122E+02  0.72705100157E+01 -0.79845698164E+01  0.19429139862E+02  0.51100000000E-03 0.  1.
        -12    1    3    3    0    0  0.52129537546E+01  0.13302107106E+02  0.32953594430E+02  0.35917409793E+02  0.00000000000E+00 0.  1.
</event>
<event>
 7    1  0.3348003E-013  0.7246162E+02  0.7816164E-02  0.1226708E+00
        -11   -1    0    0    0    0  0.00000000000E+00  0.00000000000E+00  0.45593999997E+02  0.45594000000E+02  0.51100000000E-03 0. -1.
         11   -1    0    0    0    0 -0.00000000000E+00 -0.00000000000E+00 -0.45593999997E+02  0.45594000000E+02  0.51100000000E-03 0.  1.
    9900012    2    1    2    0    0  0.14876589036E+02 -0.48566585629E+01 -0.10284806685E+02  0.72461620684E+02  0.70000065642E+02 0.  0.
         12    1    1    2    0    0 -0.14876589036E+02  0.48566585629E+01  0.10284806685E+02  0.18726379316E+02  0.00000000000E+00 0. -1.
         11    1    3    3    0    0  0.77230488035E+01  0.16000447364E+02 -0.60454035354E+01  0.18767170880E+02  0.51100000000E-03 0. -1.
        -11    1    3    3    0    0  0.23008617703E+02  0.46084913382E+01 -0.31560237985E+01  0.23676891002E+02  0.51100000000E-03 0.  1.
         12    1    3    3    0    0 -0.15855077470E+02 -0.25465597265E+02 -0.10833793507E+01  0.30017558803E+02  0.00000000000E+00 0. -1.
</event>
<event>
 7    1  0.3348003E-013  0.7246138E+02  0.7816164E-02  0.1226709E+00
        -11   -1    0    0    0    0  0.00000000000E+00  0.00000000000E+00  0.45593999997E+02  0.45594000000E+02  0.51100000000E-03 0.  1.
         11   -1    0    0    0    0 -0.00000000000E+00 -0.00000000000E+00 -0.45593999997E+02  0.45594000000E+02  0.51100000000E-03 0. -1.
    9900012    2    1    2    0    0  0.28312046833E+01  0.64194868219E+01  0.17362625230E+02  0.72461380287E+02  0.69999752480E+02 0.  0.
         12    1    1    2    0    0 -0.28312046833E+01 -0.64194868219E+01 -0.17362625230E+02  0.18726619713E+02  0.00000000000E+00 0. -1.
         11    1    3    3    0    0 -0.24168874675E+02 -0.13308669731E+01  0.89200636733E+01  0.25796768134E+02  0.51100000000E-03 0. -1.
        -11    1    3    3    0    0  0.36670542381E+01  0.95793574872E+01  0.18529350607E+02  0.21178956792E+02  0.51100000000E-03 0.  1.
         12    1    3    3    0    0  0.23333025121E+02 -0.18290036921E+01 -0.10086789050E+02  0.25485655360E+02  0.00000000000E+00 0. -1.
</event>
<event>
 7    1  0.3348003E-013  0.7246154E+02  0.7816164E-02  0.1226708E+00
        -11   -1    0    0    0    0  0.00000000000E+00  0.00000000000E+00  0.45593999997E+02  0.45594000000E+02  0.51100000000E-03 0. -1.
         11   -1    0    0    0    0 -0.00000000000E+00 -0.00000000000E+00 -0.45593999997E+02  0.45594000000E+02  0.51100000000E-03 0.  1.
    9900012    2    1    2    0    0 -0.95139430687E+01  0.81231009007E-01 -0.16129427785E+02  0.72461544066E+02  0.69999965832E+02 0.  0.
         12    1    1    2    0    0  0.95139430687E+01 -0.81231009007E-01  0.16129427785E+02  0.18726455934E+02  0.00000000000E+00 0. -1.
         11    1    3    3    0    0  0.17897795920E+02 -0.12090075091E+02 -0.11989423608E+02  0.24703183868E+02  0.51100000000E-03 0. -1.
        -11    1    3    3    0    0 -0.90950622830E+01 -0.26059078017E+01  0.14788859236E+02  0.17556231690E+02  0.51100000000E-03 0.  1.
        -12    1    3    3    0    0 -0.18316676706E+02  0.14777213902E+02 -0.18928863413E+02  0.30202128507E+02  0.00000000000E+00 0.  1.
</event>
<event>
 7    1  0.3348003E-013  0.7246155E+02  0.7816164E-02  0.1226708E+00
        -11   -1    0    0    0    0  0.00000000000E+00  0.00000000000E+00  0.45593999997E+02  0.45594000000E+02  0.51100000000E-03 0. -1.
         11   -1    0    0    0    0 -0.00000000000E+00 -0.00000000000E+00 -0.45593999997E+02  0.45594000000E+02  0.51100000000E-03 0.  1.
    9900012    2    1    2    0    0  0.29274382018E+01 -0.45864930328E+01 -0.17918539181E+02  0.72461551881E+02  0.69999976013E+02 0.  0.
         12    1    1    2    0    0 -0.29274382018E+01  0.45864930328E+01  0.17918539181E+02  0.18726448119E+02  0.00000000000E+00 0. -1.
         11    1    3    3    0    0 -0.10065378314E+02 -0.19836683267E+02  0.12234935323E+02  0.25386994431E+02  0.51100000000E-03 0. -1.
        -11    1    3    3    0    0 -0.92374137185E+01  0.85714977488E-01 -0.79054856830E+01  0.12158694971E+02  0.51100000000E-03 0.  1.
        -12    1    3    3    0    0  0.22230230234E+02  0.15164475256E+02 -0.22247988821E+02  0.34915862479E+02  0.00000000000E+00 0.  1.
</event>
<event>
 7    1  0.3348003E-013  0.7246158E+02  0.7816164E-02  0.1226708E+00
        -11   -1    0    0    0    0  0.00000000000E+00  0.00000000000E+00  0.45593999997E+02  0.45594000000E+02  0.51100000000E-03 0.  1.
         11   -1    0    0    0    0 -0.00000000000E+00 -0.00000000000E+00 -0.45593999997E+02  0.45594000000E+02  0.51100000000E-03 0. -1.
    9900012    2    1    2    0    0  0.87072901380E+01  0.27622165224E+01  0.16347238846E+02  0.72461575900E+02  0.70000007303E+02 0.  0.
         12    1    1    2    0    0 -0.87072901380E+01 -0.27622165224E+01 -0.16347238846E+02  0.18726424100E+02  0.00000000000E+00 0. -1.
         11    1    3    3    0    0  0.73429625709E+01 -0.87390919057E+01 -0.37876715358E+01  0.12026524127E+02  0.51100000000E-03 0. -1.
        -11    1    3    3    0    0  0.13587212105E+02 -0.16440199918E+02  0.20990875032E+02  0.29925062088E+02  0.51100000000E-03 0.  1.
        -12    1    3    3    0    0 -0.12222884538E+02  0.27941508346E+02 -0.85596464985E+00  0.30509989685E+02  0.00000000000E+00 0.  1.
</event>
<event>
 7    1  0.3348003E-013  0.7246149E+02  0.7816164E-02  0.1226708E+00
        -11   -1    0    0    0    0  0.00000000000E+00  0.00000000000E+00  0.45593999997E+02  0.45594000000E+02  0.51100000000E-03 0. -1.
         11   -1    0    0    0    0 -0.00000000000E+00 -0.00000000000E+00 -0.45593999997E+02  0.45594000000E+02  0.51100000000E-03 0.  1.
    9900012    2    1    2    0    0 -0.85856107158E+01  0.13418767628E+02 -0.98440956428E+01  0.72461487911E+02  0.69999892680E+02 0.  0.
         12    1    1    2    0    0  0.85856107158E+01 -0.13418767628E+02  0.98440956428E+01  0.18726512089E+02  0.00000000000E+00 0. -1.
         11    1    3    3    0    0  0.16515391192E+02  0.18961042500E+02 -0.34460080451E+01  0.25380194062E+02  0.51100000000E-03 0. -1.
        -11    1    3    3    0    0 -0.67216144654E+01 -0.19870385661E+00  0.16156343373E+02  0.17499914734E+02  0.51100000000E-03 0.  1.
        -12    1    3    3    0    0 -0.18379387442E+02 -0.53435710154E+01 -0.22554430971E+02  0.29581379115E+02  0.00000000000E+00 0.  1.
</event>
<event>
 7    1  0.3348003E-013  0.7246155E+02  0.7816164E-02  0.1226708E+00
        -11   -1    0    0    0    0  0.00000000000E+00  0.00000000000E+00  0.45593999997E+02  0.45594000000E+02  0.51100000000E-03 0.  1.
         11   -1    0    0    0    0 -0.00000000000E+00 -0.00000000000E+00 -0.45593999997E+02  0.45594000000E+02  0.51100000000E-03 0. -1.
    9900012    2    1    2    0    0 -0.12967852896E+01 -0.17320865911E+02  0.69989860348E+01  0.72461552031E+02  0.69999976209E+02 0.  0.
         12    1    1    2    0    0  0.12967852896E+01  0.17320865911E+02 -0.69989860348E+01  0.18726447969E+02  0.00000000000E+00 0. -1.
         11    1    3    3    0    0  0.15289832254E+02  0.22766591414E+02  0.69285739517E+01  0.28286070640E+02  0.51100000000E-03 0.  1.
        -11    1    3    3    0    0 -0.35379207729E+01 -0.18597882772E+02  0.15228258495E+01  0.18992554484E+02  0.51100000000E-03 0. -1.
        -12    1    3    3    0    0 -0.13048696771E+02 -0.21489574554E+02 -0.14524137664E+01  0.25182926908E+02  0.00000000000E+00 0.  1.
</event>
<event>
 7    1  0.3348003E-013  0.7246156E+02  0.7816164E-02  0.1226708E+00
        -11   -1    0    0    0    0  0.00000000000E+00  0.00000000000E+00  0.45593999997E+02  0.45594000000E+02  0.51100000000E-03 0.  1.
         11   -1    0    0    0    0 -0.00000000000E+00 -0.00000000000E+00 -0.45593999997E+02  0.45594000000E+02  0.51100000000E-03 0. -1.
    9900012    2    1    2    0    0  0.14966050911E+01  0.95322055344E+01  0.16049196013E+02  0.72461562490E+02  0.69999989834E+02 0.  0.
         12    1    1    2    0    0 -0.14966050911E+01 -0.95322055344E+01 -0.16049196013E+02  0.18726437510E+02  0.00000000000E+00 0. -1.
         11    1    3    3    0    0  0.90947690554E+01  0.20645861357E+02 -0.82317438844E+00  0.22575296934E+02  0.51100000000E-03 0. -1.
        -11    1    3    3    0    0  0.83644724507E+01  0.12344343002E+02 -0.30455827604E+01  0.15219158260E+02  0.51100000000E-03 0.  1.
        -12    1    3    3    0    0 -0.15962636415E+02 -0.23457998824E+02  0.19917953162E+02  0.34667107296E+02  0.00000000000E+00 0.  1.
</event>
<event>
 7    1  0.3348003E-013  0.7246154E+02  0.7816164E-02  0.1226708E+00
        -11   -1    0    0    0    0  0.00000000000E+00  0.00000000000E+00  0.45593999997E+02  0.45594000000E+02  0.51100000000E-03 0.  1.
         11   -1    0    0    0    0 -0.00000000000E+00 -0.00000000000E+00 -0.45593999997E+02  0.45594000000E+02  0.51100000000E-03 0. -1.
    9900012    2    1    2    0    0 -0.25319522222E+01 -0.17526560215E+02  0.60900786957E+01  0.72461544021E+02  0.69999965774E+02 0.  0.
         12    1    1    2    0    0  0.25319522222E+01  0.17526560215E+02 -0.60900786957E+01  0.18726455979E+02  0.00000000000E+00 0. -1.
         11    1    3    3    0    0  0.48562179359E+01  0.32651200430E+01  0.19583654839E+01  0.61708230541E+01  0.51100000000E-03 0. -1.
        -11    1    3    3    0    0  0.23539457015E+01 -0.31419976594E+02 -0.20613275060E+02  0.37651867131E+02  0.51100000000E-03 0.  1.
         12    1    3    3    0    0 -0.97421158596E+01  0.10628296336E+02  0.24744988272E+02  0.28638853835E+02  0.00000000000E+00 0. -1.
</event>
<event>
 7    1  0.3348003E-013  0.7246149E+02  0.7816164E-02  0.1226708E+00
        -11   -1    0    0    0    0  0.00000000000E+00  0.00000000000E+00  0.45593999997E+02  0.45594000000E+02  0.51100000000E-03 0.  1.
         11   -1    0    0    0    0 -0.00000000000E+00 -0.00000000000E+00 -0.45593999997E+02  0.45594000000E+02  0.51100000000E-03 0. -1.
    9900012    2    1    2    0    0  0.51118730701E+01 -0.10091868307E+02  0.14923312278E+02  0.72461486669E+02  0.69999891062E+02 0.  0.
         12    1    1    2    0    0 -0.51118730701E+01  0.10091868307E+02 -0.14923312278E+02  0.18726513331E+02  0.00000000000E+00 0. -1.
         11    1    3    3    0    0 -0.65004163259E+01 -0.58635474780E+01  0.22971812068E+02  0.24583342966E+02  0.51100000000E-03 0.  1.
        -11    1    3    3    0    0 -0.13936366827E+02  0.61951424653E+01 -0.12760580122E+02  0.19885535341E+02  0.51100000000E-03 0. -1.
        -12    1    3    3    0    0  0.25548656223E+02 -0.10423463294E+02  0.47120803318E+01  0.27992608361E+02  0.00000000000E+00 0.  1.
</event>
<event>
 7    1  0.3348003E-013  0.7246158E+02  0.7816164E-02  0.1226708E+00
        -11   -1    0    0    0    0  0.00000000000E+00  0.00000000000E+00  0.45593999997E+02  0.45594000000E+02  0.51100000000E-03 0.  1.
         11   -1    0    0    0    0 -0.00000000000E+00 -0.00000000000E+00 -0.45593999997E+02  0.45594000000E+02  0.51100000000E-03 0. -1.
    9900012    2    1    2    0    0 -0.92941141920E+00  0.15730747182E+02  0.10117249300E+02  0.72461576265E+02  0.70000007778E+02 0.  0.
         12    1    1    2    0    0  0.92941141920E+00 -0.15730747182E+02 -0.10117249300E+02  0.18726423735E+02  0.00000000000E+00 0. -1.
         11    1    3    3    0    0 -0.14358253789E+02  0.32764902211E+01 -0.11702543596E+02  0.18810751365E+02  0.51100000000E-03 0. -1.
        -11    1    3    3    0    0 -0.10893825747E+02 -0.13392030777E+01  0.23189344370E+02  0.25655693264E+02  0.51100000000E-03 0.  1.
        -12    1    3    3    0    0  0.24322668116E+02  0.13793460039E+02 -0.13695514739E+01  0.27995131637E+02  0.00000000000E+00 0.  1.
</event>
<event>
 7    1  0.3348003E-013  0.7246157E+02  0.7816164E-02  0.1226708E+00
        -11   -1    0    0    0    0  0.00000000000E+00  0.00000000000E+00  0.45593999997E+02  0.45594000000E+02  0.51100000000E-03 0. -1.
         11   -1    0    0    0    0 -0.00000000000E+00 -0.00000000000E+00 -0.45593999997E+02  0.45594000000E+02  0.51100000000E-03 0.  1.
    9900012    2    1    2    0    0 -0.34809016270E+01 -0.17417450057E+02 -0.59325415991E+01  0.72461567012E+02  0.69999995724E+02 0.  0.
         12    1    1    2    0    0  0.34809016270E+01  0.17417450057E+02  0.59325415991E+01  0.18726432988E+02  0.00000000000E+00 0. -1.
         11    1    3    3    0    0 -0.13781578088E+01 -0.19370908951E+01  0.94710295701E+00  0.25590319173E+01  0.51100000000E-03 0. -1.
        -11    1    3    3    0    0  0.30784851467E+02  0.38458215833E+01 -0.67816313211E+01  0.31756699248E+02  0.51100000000E-03 0.  1.
         12    1    3    3    0    0 -0.32887595285E+02 -0.19326180746E+02 -0.98013235047E-01  0.38145835847E+02  0.00000000000E+00 0. -1.
</event>
<event>
 7    1  0.3348003E-013  0.7246155E+02  0.7816164E-02  0.1226708E+00
        -11   -1    0    0    0    0  0.00000000000E+00  0.00000000000E+00  0.45593999997E+02  0.45594000000E+02  0.51100000000E-03 0.  1.
         11   -1    0    0    0    0 -0.00000000000E+00 -0.00000000000E+00 -0.45593999997E+02  0.45594000000E+02  0.51100000000E-03 0. -1.
    9900012    2    1    2    0    0  0.14022408139E+02  0.40205827840E+01  0.11742522174E+02  0.72461552313E+02  0.69999976577E+02 0.  0.
         12    1    1    2    0    0 -0.14022408139E+02 -0.40205827840E+01 -0.11742522174E+02  0.18726447687E+02  0.00000000000E+00 0. -1.
         11    1    3    3    0    0  0.33082469320E+02 -0.55682594568E+01  0.15644924469E+02  0.37016468654E+02  0.51100000000E-03 0. -1.
        -11    1    3    3    0    0  0.68584086972E+01 -0.10951732181E+01 -0.24801691273E+01  0.73748500593E+01  0.51100000000E-03 0.  1.
        -12    1    3    3    0    0 -0.25918469879E+02  0.10684015459E+02 -0.14222331672E+01  0.28070233600E+02  0.00000000000E+00 0.  1.
</event>
<event>
 7    1  0.3348003E-013  0.7246156E+02  0.7816164E-02  0.1226708E+00
        -11   -1    0    0    0    0  0.00000000000E+00  0.00000000000E+00  0.45593999997E+02  0.45594000000E+02  0.51100000000E-03 0.  1.
         11   -1    0    0    0    0 -0.00000000000E+00 -0.00000000000E+00 -0.45593999997E+02  0.45594000000E+02  0.51100000000E-03 0. -1.
    9900012    2    1    2    0    0 -0.34052447708E+01 -0.12129242450E+02  0.13855161244E+02  0.72461555932E+02  0.69999981290E+02 0.  0.
         12    1    1    2    0    0  0.34052447708E+01  0.12129242450E+02 -0.13855161244E+02  0.18726444068E+02  0.00000000000E+00 0. -1.
         11    1    3    3    0    0 -0.13765835065E+00 -0.98199468006E+01 -0.51836028638E+01  0.11104955826E+02  0.51100000000E-03 0. -1.
        -11    1    3    3    0    0 -0.28485363891E+02  0.10007462174E+02  0.11378106460E+02  0.32264943236E+02  0.51100000000E-03 0.  1.
         12    1    3    3    0    0  0.25217777470E+02 -0.12316757823E+02  0.76606576474E+01  0.29091656870E+02  0.00000000000E+00 0. -1.
</event>
<event>
 7    1  0.3348003E-013  0.7246157E+02  0.7816164E-02  0.1226708E+00
        -11   -1    0    0    0    0  0.00000000000E+00  0.00000000000E+00  0.45593999997E+02  0.45594000000E+02  0.51100000000E-03 0. -1.
         11   -1    0    0    0    0 -0.00000000000E+00 -0.00000000000E+00 -0.45593999997E+02  0.45594000000E+02  0.51100000000E-03 0.  1.
    9900012    2    1    2    0    0 -0.62765266315E+01 -0.17081855944E+02 -0.44152885343E+01  0.72461565158E+02  0.69999993309E+02 0.  0.
         12    1    1    2    0    0  0.62765266315E+01  0.17081855944E+02  0.44152885343E+01  0.18726434842E+02  0.00000000000E+00 0. -1.
         11    1    3    3    0    0 -0.21784054779E-01  0.74567045170E+01  0.61887620191E+01  0.96903917562E+01  0.51100000000E-03 0. -1.
        -11    1    3    3    0    0  0.16265404223E+02  0.86855472700E+01  0.59191911044E+01  0.19365921861E+02  0.51100000000E-03 0.  1.
         12    1    3    3    0    0 -0.22520146800E+02 -0.33224107731E+02 -0.16523241658E+02  0.43405251541E+02  0.00000000000E+00 0. -1.
</event>
<event>
 7    1  0.3348003E-013  0.7246159E+02  0.7816164E-02  0.1226708E+00
        -11   -1    0    0    0    0  0.00000000000E+00  0.00000000000E+00  0.45593999997E+02  0.45594000000E+02  0.51100000000E-03 0. -1.
         11   -1    0    0    0    0 -0.00000000000E+00 -0.00000000000E+00 -0.45593999997E+02  0.45594000000E+02  0.51100000000E-03 0.  1.
    9900012    2    1    2    0    0  0.17032304435E+02 -0.62244888131E+01 -0.46727767744E+01  0.72461588221E+02  0.70000023353E+02 0.  0.
         12    1    1    2    0    0 -0.17032304435E+02  0.62244888131E+01  0.46727767744E+01  0.18726411779E+02  0.00000000000E+00 0. -1.
         11    1    3    3    0    0 -0.21771032544E+02  0.11113679131E+02 -0.72101489413E+00  0.24454275385E+02  0.51100000000E-03 0. -1.
        -11    1    3    3    0    0 -0.25901984995E+01 -0.31586410490E+01 -0.14949516893E+00  0.40876020611E+01  0.51100000000E-03 0.  1.
        -12    1    3    3    0    0  0.41393535479E+02 -0.14179526895E+02 -0.38022667113E+01  0.43919710775E+02  0.00000000000E+00 0.  1.
</event>
<event>
 7    1  0.3348003E-013  0.7246156E+02  0.7816164E-02  0.1226708E+00
        -11   -1    0    0    0    0  0.00000000000E+00  0.00000000000E+00  0.45593999997E+02  0.45594000000E+02  0.51100000000E-03 0.  1.
         11   -1    0    0    0    0 -0.00000000000E+00 -0.00000000000E+00 -0.45593999997E+02  0.45594000000E+02  0.51100000000E-03 0. -1.
    9900012    2    1    2    0    0 -0.11242427223E+02  0.31490204296E+01  0.14641418994E+02  0.72461557474E+02  0.69999983299E+02 0.  0.
         12    1    1    2    0    0  0.11242427223E+02 -0.31490204296E+01 -0.14641418994E+02  0.18726442526E+02  0.00000000000E+00 0. -1.
         11    1    3    3    0    0 -0.89543123458E+01 -0.15421576803E+02 -0.14674370216E+02  0.23094195855E+02  0.51100000000E-03 0. -1.
        -11    1    3    3    0    0 -0.17905526227E+02  0.40567630275E+01  0.12449516593E+02  0.22182327637E+02  0.51100000000E-03 0.  1.
        -12    1    3    3    0    0  0.15617411350E+02  0.14513834205E+02  0.16866272617E+02  0.27185033982E+02  0.00000000000E+00 0.  1.
</event>
<event>
 7    1  0.3348003E-013  0.7246163E+02  0.7816164E-02  0.1226708E+00
        -11   -1    0    0    0    0  0.00000000000E+00  0.00000000000E+00  0.45593999997E+02  0.45594000000E+02  0.51100000000E-03 0. -1.
         11   -1    0    0    0    0 -0.00000000000E+00 -0.00000000000E+00 -0.45593999997E+02  0.45594000000E+02  0.51100000000E-03 0.  1.
    9900012    2    1    2    0    0  0.97627011063E+00 -0.10623788057E+02 -0.15390218215E+02  0.72461633756E+02  0.70000082670E+02 0.  0.
         12    1    1    2    0    0 -0.97627011063E+00  0.10623788057E+02  0.15390218215E+02  0.18726366244E+02  0.00000000000E+00 0. -1.
         11    1    3    3    0    0 -0.19310272866E+02 -0.13900314769E+02  0.84086735400E+01  0.25235117986E+02  0.51100000000E-03 0. -1.
        -11    1    3    3    0    0  0.48016368488E+00  0.11519303870E+02  0.39182184982E+01  0.12176918957E+02  0.51100000000E-03 0.  1.
        -12    1    3    3    0    0  0.19806379292E+02 -0.82427771589E+01 -0.27717110253E+02  0.35049596813E+02  0.00000000000E+00 0.  1.
</event>
<event>
 7    1  0.3348003E-013  0.7246163E+02  0.7816164E-02  0.1226708E+00
        -11   -1    0    0    0    0  0.00000000000E+00  0.00000000000E+00  0.45593999997E+02  0.45594000000E+02  0.51100000000E-03 0.  1.
         11   -1    0    0    0    0 -0.00000000000E+00 -0.00000000000E+00 -0.45593999997E+02  0.45594000000E+02  0.51100000000E-03 0. -1.
    9900012    2    1    2    0    0 -0.38573414925E+01 -0.86066977295E+01  0.16177847344E+02  0.72461626249E+02  0.70000072891E+02 0.  0.
         12    1    1    2    0    0  0.38573414925E+01  0.86066977295E+01 -0.16177847344E+02  0.18726373751E+02  0.00000000000E+00 0. -1.
         11    1    3    3    0    0  0.30135749725E+01  0.10565287119E+01 -0.13896069085E+02  0.14258282622E+02  0.51100000000E-03 0. -1.
        -11    1    3    3    0    0 -0.83387488767E+01  0.19135271902E+02  0.10627381565E+02  0.23422950343E+02  0.51100000000E-03 0.  1.
         12    1    3    3    0    0  0.14678324117E+01 -0.28798498343E+02  0.19446534863E+02  0.34780393284E+02  0.00000000000E+00 0. -1.
</event>
<event>
 7    1  0.3348003E-013  0.7246155E+02  0.7816164E-02  0.1226708E+00
        -11   -1    0    0    0    0  0.00000000000E+00  0.00000000000E+00  0.45593999997E+02  0.45594000000E+02  0.51100000000E-03 0.  1.
         11   -1    0    0    0    0 -0.00000000000E+00 -0.00000000000E+00 -0.45593999997E+02  0.45594000000E+02  0.51100000000E-03 0. -1.
    9900012    2    1    2    0    0  0.14017514403E+02  0.56323238403E+00  0.12404513144E+02  0.72461551135E+02  0.69999975042E+02 0.  0.
         12    1    1    2    0    0 -0.14017514403E+02 -0.56323238403E+00 -0.12404513144E+02  0.18726448865E+02  0.00000000000E+00 0. -1.
         11    1    3    3    0    0 -0.14164456495E+02 -0.53951717364E+01 -0.73579941420E+01  0.16848732413E+02  0.51100000000E-03 0. -1.
        -11    1    3    3    0    0 -0.45187190033E+01  0.62337157731E+01  0.21527996263E+02  0.22863347461E+02  0.51100000000E-03 0.  1.
         12    1    3    3    0    0  0.32700689902E+02 -0.27531165270E+00 -0.17654889771E+01  0.32749471261E+02  0.00000000000E+00 0. -1.
</event>
<event>
 7    1  0.3348003E-013  0.7246161E+02  0.7816164E-02  0.1226708E+00
        -11   -1    0    0    0    0  0.00000000000E+00  0.00000000000E+00  0.45593999997E+02  0.45594000000E+02  0.51100000000E-03 0. -1.
         11   -1    0    0    0    0 -0.00000000000E+00 -0.00000000000E+00 -0.45593999997E+02  0.45594000000E+02  0.51100000000E-03 0.  1.
    9900012    2    1    2    0    0  0.51314553717E+01 -0.28367583037E+01 -0.17784791434E+02  0.72461605840E+02  0.70000046304E+02 0.  0.
         12    1    1    2    0    0 -0.51314553717E+01  0.28367583037E+01  0.17784791434E+02  0.18726394160E+02  0.00000000000E+00 0. -1.
         11    1    3    3    0    0 -0.87383532605E+01  0.23401854678E+01  0.13576617487E+02  0.16314405548E+02  0.51100000000E-03 0. -1.
        -11    1    3    3    0    0 -0.12469693779E+02 -0.19243730743E+01 -0.26242993923E+02  0.29118571479E+02  0.51100000000E-03 0.  1.
         12    1    3    3    0    0  0.26339502411E+02 -0.32525706972E+01 -0.51184149984E+01  0.27028628813E+02  0.00000000000E+00 0. -1.
</event>
<event>
 7    1  0.3348003E-013  0.7246135E+02  0.7816164E-02  0.1226709E+00
        -11   -1    0    0    0    0  0.00000000000E+00  0.00000000000E+00  0.45593999997E+02  0.45594000000E+02  0.51100000000E-03 0.  1.
         11   -1    0    0    0    0 -0.00000000000E+00 -0.00000000000E+00 -0.45593999997E+02  0.45594000000E+02  0.51100000000E-03 0. -1.
    9900012    2    1    2    0    0 -0.14801131064E+02  0.21113677951E+01  0.11276349858E+02  0.72461349983E+02  0.69999713003E+02 0.  0.
         12    1    1    2    0    0  0.14801131064E+02 -0.21113677951E+01 -0.11276349858E+02  0.18726650017E+02  0.00000000000E+00 0. -1.
         11    1    3    3    0    0  0.66629425648E+01 -0.49947455613E+01 -0.13563393438E+02  0.15915650432E+02  0.51100000000E-03 0. -1.
        -11    1    3    3    0    0 -0.24453532178E+02 -0.14970406210E+01 -0.52947501185E+01  0.25064930594E+02  0.51100000000E-03 0.  1.
        -12    1    3    3    0    0  0.29894585491E+01  0.86031539774E+01  0.30134493414E+02  0.31480768957E+02  0.00000000000E+00 0.  1.
</event>
<event>
 7    1  0.3348003E-013  0.7246159E+02  0.7816164E-02  0.1226708E+00
        -11   -1    0    0    0    0  0.00000000000E+00  0.00000000000E+00  0.45593999997E+02  0.45594000000E+02  0.51100000000E-03 0.  1.
         11   -1    0    0    0    0 -0.00000000000E+00 -0.00000000000E+00 -0.45593999997E+02  0.45594000000E+02  0.51100000000E-03 0. -1.
    9900012    2    1    2    0    0 -0.55485652572E+01 -0.10160280310E+02  0.14719395590E+02  0.72461588733E+02  0.70000024020E+02 0.  0.
         12    1    1    2    0    0  0.55485652572E+01  0.10160280310E+02 -0.14719395590E+02  0.18726411267E+02  0.00000000000E+00 0. -1.
         11    1    3    3    0    0 -0.10138630189E+02 -0.94036871301E+01 -0.38401353250E+01  0.14351578078E+02  0.51100000000E-03 0. -1.
        -11    1    3    3    0    0  0.55188824512E+01 -0.18746418924E+02 -0.11785686261E+02  0.22820795054E+02  0.51100000000E-03 0.  1.
        -12    1    3    3    0    0 -0.92881751966E+00  0.17989825743E+02  0.30345217177E+02  0.35289215601E+02  0.00000000000E+00 0.  1.
</event>
<event>
 7    1  0.3348003E-013  0.7246159E+02  0.7816164E-02  0.1226708E+00
        -11   -1    0    0    0    0  0.00000000000E+00  0.00000000000E+00  0.45593999997E+02  0.45594000000E+02  0.51100000000E-03 0. -1.
         11   -1    0    0    0    0 -0.00000000000E+00 -0.00000000000E+00 -0.45593999997E+02  0.45594000000E+02  0.51100000000E-03 0.  1.
    9900012    2    1    2    0    0 -0.14731637354E+02 -0.27071837703E+01  0.11239591394E+02  0.72461590899E+02  0.70000026842E+02 0.  0.
         12    1    1    2    0    0  0.14731637354E+02  0.27071837703E+01 -0.11239591394E+02  0.18726409101E+02  0.00000000000E+00 0. -1.
         11    1    3    3    0    0  0.46664098140E+01 -0.20766425570E+01 -0.42534143207E+01  0.66467554872E+01  0.51100000000E-03 0. -1.
        -11    1    3    3    0    0  0.20908457145E+02 -0.34578618059E+01  0.13965905351E+02  0.25380443278E+02  0.51100000000E-03 0.  1.
        -12    1    3    3    0    0 -0.40306504314E+02  0.28273205926E+01  0.15271003637E+01  0.40434392134E+02  0.00000000000E+00 0.  1.
</event>
<event>
 7    1  0.3348003E-013  0.7246156E+02  0.7816164E-02  0.1226708E+00
        -11   -1    0    0    0    0  0.00000000000E+00  0.00000000000E+00  0.45593999997E+02  0.45594000000E+02  0.51100000000E-03 0.  1.
         11   -1    0    0    0    0 -0.00000000000E+00 -0.00000000000E+00 -0.45593999997E+02  0.45594000000E+02  0.51100000000E-03 0. -1.
    9900012    2    1    2    0    0 -0.17295258231E+01 -0.17915942732E+02  0.51679214754E+01  0.72461556773E+02  0.69999982386E+02 0.  0.
         12    1    1    2    0    0  0.17295258231E+01  0.17915942732E+02 -0.51679214754E+01  0.18726443227E+02  0.00000000000E+00 0. -1.
         11    1    3    3    0    0  0.50933371705E+00 -0.72957836788E+01 -0.66030870031E+01  0.98533567151E+01  0.51100000000E-03 0. -1.
        -11    1    3    3    0    0 -0.15749544664E+02  0.21384499093E+02  0.26435047139E+01  0.26689568674E+02  0.51100000000E-03 0.  1.
         12    1    3    3    0    0  0.13510685123E+02 -0.32004658146E+02  0.91275037646E+01  0.35918631384E+02  0.00000000000E+00 0. -1.
</event>
<event>
 7    1  0.3348003E-013  0.7246151E+02  0.7816164E-02  0.1226708E+00
        -11   -1    0    0    0    0  0.00000000000E+00  0.00000000000E+00  0.45593999997E+02  0.45594000000E+02  0.51100000000E-03 0.  1.
         11   -1    0    0    0    0 -0.00000000000E+00 -0.00000000000E+00 -0.45593999997E+02  0.45594000000E+02  0.51100000000E-03 0. -1.
    9900012    2    1    2    0    0  0.89538828393E+01  0.15656025530E+02  0.50396569276E+01  0.72461513537E+02  0.69999926063E+02 0.  0.
         12    1    1    2    0    0 -0.89538828393E+01 -0.15656025530E+02 -0.50396569276E+01  0.18726486463E+02  0.00000000000E+00 0. -1.
         11    1    3    3    0    0  0.28096685529E+01  0.47521668877E+01  0.21736825922E+01  0.59331461956E+01  0.51100000000E-03 0. -1.
        -11    1    3    3    0    0 -0.68506327710E+01  0.34018666480E+02  0.14451821424E+02  0.37590636882E+02  0.51100000000E-03 0.  1.
         12    1    3    3    0    0  0.12994847057E+02 -0.23114807837E+02 -0.11585847089E+02  0.28937730460E+02  0.00000000000E+00 0. -1.
</event>
<event>
 7    1  0.3348003E-013  0.7246213E+02  0.7816164E-02  0.1226707E+00
        -11   -1    0    0    0    0  0.00000000000E+00  0.00000000000E+00  0.45593999997E+02  0.45594000000E+02  0.51100000000E-03 0. -1.
         11   -1    0    0    0    0 -0.00000000000E+00 -0.00000000000E+00 -0.45593999997E+02  0.45594000000E+02  0.51100000000E-03 0.  1.
    9900012    2    1    2    0    0  0.18417636752E+02  0.32324458532E+01  0.10000178720E+01  0.72462133252E+02  0.70000733353E+02 0.  0.
         12    1    1    2    0    0 -0.18417636752E+02 -0.32324458532E+01 -0.10000178720E+01  0.18725866748E+02  0.00000000000E+00 0. -1.
         11    1    3    3    0    0 -0.31944402278E+01 -0.94355967208E-01  0.34056998680E+01  0.46703472322E+01  0.51100000000E-03 0. -1.
        -11    1    3    3    0    0 -0.34756855033E+01  0.27837179896E+02 -0.13325934071E+02  0.31057519112E+02  0.51100000000E-03 0.  1.
         12    1    3    3    0    0  0.25087762483E+02 -0.24510378076E+02  0.10920252075E+02  0.36734266907E+02  0.00000000000E+00 0. -1.
</event>
<event>
 7    1  0.3348003E-013  0.7246156E+02  0.7816164E-02  0.1226708E+00
        -11   -1    0    0    0    0  0.00000000000E+00  0.00000000000E+00  0.45593999997E+02  0.45594000000E+02  0.51100000000E-03 0.  1.
         11   -1    0    0    0    0 -0.00000000000E+00 -0.00000000000E+00 -0.45593999997E+02  0.45594000000E+02  0.51100000000E-03 0. -1.
    9900012    2    1    2    0    0 -0.15828601257E+02 -0.56695934981E+01  0.82456449427E+01  0.72461559636E+02  0.69999986115E+02 0.  0.
         12    1    1    2    0    0  0.15828601257E+02  0.56695934981E+01 -0.82456449427E+01  0.18726440364E+02  0.00000000000E+00 0. -1.
         11    1    3    3    0    0  0.18423978297E+02 -0.10350916166E+02  0.16177623515E+02  0.26613905099E+02  0.51100000000E-03 0. -1.
        -11    1    3    3    0    0 -0.61013315470E+01  0.19237376767E+01  0.10350223689E+02  0.12167750160E+02  0.51100000000E-03 0.  1.
         12    1    3    3    0    0 -0.28151248007E+02  0.27575849910E+01 -0.18282202261E+02  0.33679904377E+02  0.00000000000E+00 0. -1.
</event>
<event>
 7    1  0.3348003E-013  0.7246157E+02  0.7816164E-02  0.1226708E+00
        -11   -1    0    0    0    0  0.00000000000E+00  0.00000000000E+00  0.45593999997E+02  0.45594000000E+02  0.51100000000E-03 0. -1.
         11   -1    0    0    0    0 -0.00000000000E+00 -0.00000000000E+00 -0.45593999997E+02  0.45594000000E+02  0.51100000000E-03 0.  1.
    9900012    2    1    2    0    0 -0.43861203399E+00 -0.90801602961E+01 -0.16371849394E+02  0.72461570973E+02  0.70000000884E+02 0.  0.
         12    1    1    2    0    0  0.43861203399E+00  0.90801602961E+01  0.16371849394E+02  0.18726429027E+02  0.00000000000E+00 0. -1.
         11    1    3    3    0    0  0.32962195502E+01  0.93837668339E+00  0.25005806867E+01  0.42424660464E+01  0.51100000000E-03 0. -1.
        -11    1    3    3    0    0  0.11236970910E+02  0.17697714551E+02  0.11963643855E+02  0.24137261446E+02  0.51100000000E-03 0.  1.
         12    1    3    3    0    0 -0.14971802494E+02 -0.27716251530E+02 -0.30836073936E+02  0.44081843480E+02  0.00000000000E+00 0. -1.
</event>
<event>
 7    1  0.3348003E-013  0.7246154E+02  0.7816164E-02  0.1226708E+00
        -11   -1    0    0    0    0  0.00000000000E+00  0.00000000000E+00  0.45593999997E+02  0.45594000000E+02  0.51100000000E-03 0. -1.
         11   -1    0    0    0    0 -0.00000000000E+00 -0.00000000000E+00 -0.45593999997E+02  0.45594000000E+02  0.51100000000E-03 0.  1.
    9900012    2    1    2    0    0  0.21264014163E+01  0.16273855810E+02 -0.90177820372E+01  0.72461538541E+02  0.69999958636E+02 0.  0.
         12    1    1    2    0    0 -0.21264014163E+01 -0.16273855810E+02  0.90177820372E+01  0.18726461459E+02  0.00000000000E+00 0. -1.
         11    1    3    3    0    0  0.14893618848E+02  0.89890973437E+01  0.15845289707E+02  0.23530766235E+02  0.51100000000E-03 0. -1.
        -11    1    3    3    0    0  0.10321298264E+02  0.14396166690E+02 -0.78075985441E+01  0.19358135461E+02  0.51100000000E-03 0.  1.
         12    1    3    3    0    0 -0.23088515695E+02 -0.71114082243E+01 -0.17055473200E+02  0.29572636846E+02  0.00000000000E+00 0. -1.
</event>
<event>
 7    1  0.3348003E-013  0.7246160E+02  0.7816164E-02  0.1226708E+00
        -11   -1    0    0    0    0  0.00000000000E+00  0.00000000000E+00  0.45593999997E+02  0.45594000000E+02  0.51100000000E-03 0. -1.
         11   -1    0    0    0    0 -0.00000000000E+00 -0.00000000000E+00 -0.45593999997E+02  0.45594000000E+02  0.51100000000E-03 0.  1.
    9900012    2    1    2    0    0 -0.99635847237E+01 -0.91394989452E+01 -0.12956641058E+02  0.72461601280E+02  0.70000040365E+02 0.  0.
         12    1    1    2    0    0  0.99635847237E+01  0.91394989452E+01  0.12956641058E+02  0.18726398720E+02  0.00000000000E+00 0. -1.
         11    1    3    3    0    0  0.12686699615E+02 -0.12726163487E+02  0.13389902446E+02  0.22409753948E+02  0.51100000000E-03 0. -1.
        -11    1    3    3    0    0 -0.94145319171E+01  0.23734675628E+01  0.84072321610E+01  0.12843220482E+02  0.51100000000E-03 0.  1.
        -12    1    3    3    0    0 -0.13235752422E+02  0.12131969792E+01 -0.34753775665E+02  0.37208626850E+02  0.00000000000E+00 0.  1.
</event>
<event>
 7    1  0.3348003E-013  0.7246154E+02  0.7816164E-02  0.1226708E+00
        -11   -1    0    0    0    0  0.00000000000E+00  0.00000000000E+00  0.45593999997E+02  0.45594000000E+02  0.51100000000E-03 0.  1.
         11   -1    0    0    0    0 -0.00000000000E+00 -0.00000000000E+00 -0.45593999997E+02  0.45594000000E+02  0.51100000000E-03 0. -1.
    9900012    2    1    2    0    0 -0.43577180187E+01 -0.85530787575E+01  0.16079031900E+02  0.72461544665E+02  0.69999966613E+02 0.  0.
         12    1    1    2    0    0  0.43577180187E+01  0.85530787575E+01 -0.16079031900E+02  0.18726455335E+02  0.00000000000E+00 0. -1.
         11    1    3    3    0    0 -0.14140641698E+02 -0.61961393168E+01  0.96114980308E+01  0.18186005189E+02  0.51100000000E-03 0.  1.
        -11    1    3    3    0    0  0.47174098376E+01  0.25050031530E+02 -0.69112097876E+00  0.25499719287E+02  0.51100000000E-03 0. -1.
         12    1    3    3    0    0  0.50655138420E+01 -0.27406970971E+02  0.71586548484E+01  0.28775820189E+02  0.00000000000E+00 0. -1.
</event>
<event>
 7    1  0.3348003E-013  0.7246158E+02  0.7816164E-02  0.1226708E+00
        -11   -1    0    0    0    0  0.00000000000E+00  0.00000000000E+00  0.45593999997E+02  0.45594000000E+02  0.51100000000E-03 0.  1.
         11   -1    0    0    0    0 -0.00000000000E+00 -0.00000000000E+00 -0.45593999997E+02  0.45594000000E+02  0.51100000000E-03 0. -1.
    9900012    2    1    2    0    0 -0.15950823561E+02 -0.69133884523E+01 -0.69609741146E+01  0.72461578217E+02  0.70000010321E+02 0.  0.
         12    1    1    2    0    0  0.15950823561E+02  0.69133884523E+01  0.69609741146E+01  0.18726421783E+02  0.00000000000E+00 0. -1.
         11    1    3    3    0    0 -0.12279387239E+02  0.16725649239E+01 -0.68223356741E+01  0.14146557486E+02  0.51100000000E-03 0. -1.
        -11    1    3    3    0    0  0.94383554747E+01  0.13681140215E+02  0.19673117952E+02  0.25754372868E+02  0.51100000000E-03 0.  1.
         12    1    3    3    0    0 -0.13109791797E+02 -0.22267093591E+02 -0.19811756392E+02  0.32560647863E+02  0.00000000000E+00 0. -1.
</event>
<event>
 7    1  0.3348003E-013  0.7246158E+02  0.7816164E-02  0.1226708E+00
        -11   -1    0    0    0    0  0.00000000000E+00  0.00000000000E+00  0.45593999997E+02  0.45594000000E+02  0.51100000000E-03 0.  1.
         11   -1    0    0    0    0 -0.00000000000E+00 -0.00000000000E+00 -0.45593999997E+02  0.45594000000E+02  0.51100000000E-03 0. -1.
    9900012    2    1    2    0    0 -0.17890293532E+02  0.13939648967E-01  0.55331690316E+01  0.72461581322E+02  0.70000014365E+02 0.  0.
         12    1    1    2    0    0  0.17890293532E+02 -0.13939648967E-01 -0.55331690316E+01  0.18726418678E+02  0.00000000000E+00 0. -1.
         11    1    3    3    0    0  0.16443447514E+02 -0.34162244712E+01 -0.37804524701E+01  0.17214801100E+02  0.51100000000E-03 0. -1.
        -11    1    3    3    0    0 -0.85708566342E+01  0.21172484162E+02  0.92466840101E+00  0.22860198620E+02  0.51100000000E-03 0.  1.
        -12    1    3    3    0    0 -0.25762884412E+02 -0.17742320042E+02  0.83889531007E+01  0.32386581601E+02  0.00000000000E+00 0.  1.
</event>
<event>
 7    1  0.3348003E-013  0.7246157E+02  0.7816164E-02  0.1226708E+00
        -11   -1    0    0    0    0  0.00000000000E+00  0.00000000000E+00  0.45593999997E+02  0.45594000000E+02  0.51100000000E-03 0.  1.
         11   -1    0    0    0    0 -0.00000000000E+00 -0.00000000000E+00 -0.45593999997E+02  0.45594000000E+02  0.51100000000E-03 0. -1.
    9900012    2    1    2    0    0  0.78788683007E+01  0.16427442947E+02  0.43291855703E+01  0.72461566939E+02  0.69999995630E+02 0.  0.
         12    1    1    2    0    0 -0.78788683007E+01 -0.16427442947E+02 -0.43291855703E+01  0.18726433061E+02  0.00000000000E+00 0. -1.
         11    1    3    3    0    0  0.85951529846E+00  0.92236506428E+01  0.16906383998E+01  0.94166212724E+01  0.51100000000E-03 0. -1.
        -11    1    3    3    0    0 -0.15616042162E+02  0.27831251004E+02  0.51161692107E+01  0.32320496483E+02  0.51100000000E-03 0.  1.
         12    1    3    3    0    0  0.22635395164E+02 -0.20627458700E+02 -0.24776220401E+01  0.30724449184E+02  0.00000000000E+00 0. -1.
</event>
<event>
 7    1  0.3348003E-013  0.7246140E+02  0.7816164E-02  0.1226708E+00
        -11   -1    0    0    0    0  0.00000000000E+00  0.00000000000E+00  0.45593999997E+02  0.45594000000E+02  0.51100000000E-03 0.  1.
         11   -1    0    0    0    0 -0.00000000000E+00 -0.00000000000E+00 -0.45593999997E+02  0.45594000000E+02  0.51100000000E-03 0. -1.
    9900012    2    1    2    0    0 -0.12154090178E+02 -0.93434689058E+01  0.10754689330E+02  0.72461396949E+02  0.69999774186E+02 0.  0.
         12    1    1    2    0    0  0.12154090178E+02  0.93434689058E+01 -0.10754689330E+02  0.18726603051E+02  0.00000000000E+00 0. -1.
         11    1    3    3    0    0 -0.32277018005E+01  0.26935974049E+01 -0.48542447709E+01  0.64216211699E+01  0.51100000000E-03 0. -1.
        -11    1    3    3    0    0 -0.34204971306E+02  0.31954089621E+01  0.11578068620E+02  0.36252480932E+02  0.51100000000E-03 0.  1.
         12    1    3    3    0    0  0.25278582929E+02 -0.15232475273E+02  0.40308654800E+01  0.29787294848E+02  0.00000000000E+00 0. -1.
</event>
<event>
 7    1  0.3348003E-013  0.7246154E+02  0.7816164E-02  0.1226708E+00
        -11   -1    0    0    0    0  0.00000000000E+00  0.00000000000E+00  0.45593999997E+02  0.45594000000E+02  0.51100000000E-03 0.  1.
         11   -1    0    0    0    0 -0.00000000000E+00 -0.00000000000E+00 -0.45593999997E+02  0.45594000000E+02  0.51100000000E-03 0. -1.
    9900012    2    1    2    0    0 -0.65148569584E+01 -0.20095620762E+01  0.17441295415E+02  0.72461535126E+02  0.69999954186E+02 0.  0.
         12    1    1    2    0    0  0.65148569584E+01  0.20095620762E+01 -0.17441295415E+02  0.18726464874E+02  0.00000000000E+00 0. -1.
         11    1    3    3    0    0 -0.14840470629E+02 -0.14629610211E+01 -0.20930737848E+02  0.25699720049E+02  0.51100000000E-03 0. -1.
        -11    1    3    3    0    0 -0.61540756360E+01  0.67392969776E+01  0.71902245376E+01  0.11618523996E+02  0.51100000000E-03 0.  1.
        -12    1    3    3    0    0  0.14479689306E+02 -0.72858980328E+01  0.31181808726E+02  0.35143291081E+02  0.00000000000E+00 0.  1.
</event>
<event>
 7    1  0.3348003E-013  0.7246159E+02  0.7816164E-02  0.1226708E+00
        -11   -1    0    0    0    0  0.00000000000E+00  0.00000000000E+00  0.45593999997E+02  0.45594000000E+02  0.51100000000E-03 0.  1.
         11   -1    0    0    0    0 -0.00000000000E+00 -0.00000000000E+00 -0.45593999997E+02  0.45594000000E+02  0.51100000000E-03 0. -1.
    9900012    2    1    2    0    0 -0.68108391370E+01  0.81059447798E+01  0.15446182160E+02  0.72461590471E+02  0.70000026284E+02 0.  0.
         12    1    1    2    0    0  0.68108391370E+01 -0.81059447798E+01 -0.15446182160E+02  0.18726409529E+02  0.00000000000E+00 0. -1.
         11    1    3    3    0    0  0.43103771209E+01 -0.14371878590E+01  0.73298380098E+01  0.86238845875E+01  0.51100000000E-03 0. -1.
        -11    1    3    3    0    0  0.10955735974E+02  0.21276695540E+02  0.24259813549E+02  0.34077330845E+02  0.51100000000E-03 0.  1.
         12    1    3    3    0    0 -0.22076952232E+02 -0.11733562901E+02 -0.16143469399E+02  0.29760375038E+02  0.00000000000E+00 0. -1.
</event>
<event>
 7    1  0.3348003E-013  0.7246161E+02  0.7816164E-02  0.1226708E+00
        -11   -1    0    0    0    0  0.00000000000E+00  0.00000000000E+00  0.45593999997E+02  0.45594000000E+02  0.51100000000E-03 0. -1.
         11   -1    0    0    0    0 -0.00000000000E+00 -0.00000000000E+00 -0.45593999997E+02  0.45594000000E+02  0.51100000000E-03 0.  1.
    9900012    2    1    2    0    0 -0.11147012034E+02  0.14919924208E+02 -0.19539148453E+01  0.72461606890E+02  0.70000047673E+02 0.  0.
         12    1    1    2    0    0  0.11147012034E+02 -0.14919924208E+02  0.19539148453E+01  0.18726393110E+02  0.00000000000E+00 0. -1.
         11    1    3    3    0    0  0.76085572618E+01  0.11176299528E+02  0.17659155704E+02  0.22240629379E+02  0.51100000000E-03 0. -1.
        -11    1    3    3    0    0 -0.12170353551E+02  0.94362631935E+01  0.10654602749E+02  0.18726482014E+02  0.51100000000E-03 0.  1.
        -12    1    3    3    0    0 -0.65852157451E+01 -0.56926385131E+01 -0.30267673299E+02  0.31494495497E+02  0.00000000000E+00 0.  1.
</event>
<event>
 7    1  0.3348003E-013  0.7246157E+02  0.7816164E-02  0.1226708E+00
        -11   -1    0    0    0    0  0.00000000000E+00  0.00000000000E+00  0.45593999997E+02  0.45594000000E+02  0.51100000000E-03 0. -1.
         11   -1    0    0    0    0 -0.00000000000E+00 -0.00000000000E+00 -0.45593999997E+02  0.45594000000E+02  0.51100000000E-03 0.  1.
    9900012    2    1    2    0    0 -0.15507993628E+02  0.84423484779E+01 -0.62376378160E+01  0.72461568420E+02  0.69999997559E+02 0.  0.
         12    1    1    2    0    0  0.15507993628E+02 -0.84423484779E+01  0.62376378160E+01  0.18726431580E+02  0.00000000000E+00 0. -1.
         11    1    3    3    0    0 -0.90993602839E+01  0.11499034431E+02  0.82205231951E+01  0.16810804630E+02  0.51100000000E-03 0.  1.
        -11    1    3    3    0    0 -0.49241517887E+01  0.29297544213E+01  0.19917953904E+02  0.20725723626E+02  0.51100000000E-03 0. -1.
        -12    1    3    3    0    0 -0.14844815554E+01 -0.59864403748E+01 -0.34376114915E+02  0.34925040165E+02  0.00000000000E+00 0.  1.
</event>
<event>
 7    1  0.3348003E-013  0.7246157E+02  0.7816164E-02  0.1226708E+00
        -11   -1    0    0    0    0  0.00000000000E+00  0.00000000000E+00  0.45593999997E+02  0.45594000000E+02  0.51100000000E-03 0.  1.
         11   -1    0    0    0    0 -0.00000000000E+00 -0.00000000000E+00 -0.45593999997E+02  0.45594000000E+02  0.51100000000E-03 0. -1.
    9900012    2    1    2    0    0 -0.18536174207E+02 -0.96945506388E+00 -0.24798030074E+01  0.72461574279E+02  0.70000005190E+02 0.  0.
         12    1    1    2    0    0  0.18536174207E+02  0.96945506388E+00  0.24798030074E+01  0.18726425721E+02  0.00000000000E+00 0. -1.
         11    1    3    3    0    0 -0.99566815072E-01 -0.21888075588E+00  0.52142241025E+00  0.57419850835E+00  0.51100000000E-03 0. -1.
        -11    1    3    3    0    0  0.13863337503E+02  0.21375177453E+02  0.14151110082E+02  0.29143511365E+02  0.51100000000E-03 0.  1.
         12    1    3    3    0    0 -0.32299944895E+02 -0.22125751761E+02 -0.17152335500E+02  0.42743864405E+02  0.00000000000E+00 0. -1.
</event>
<event>
 7    1  0.3348003E-013  0.7246150E+02  0.7816164E-02  0.1226708E+00
        -11   -1    0    0    0    0  0.00000000000E+00  0.00000000000E+00  0.45593999997E+02  0.45594000000E+02  0.51100000000E-03 0. -1.
         11   -1    0    0    0    0 -0.00000000000E+00 -0.00000000000E+00 -0.45593999997E+02  0.45594000000E+02  0.51100000000E-03 0.  1.
    9900012    2    1    2    0    0  0.15818485525E+02  0.89081055109E+01 -0.45937852224E+01  0.72461502976E+02  0.69999912306E+02 0.  0.
         12    1    1    2    0    0 -0.15818485525E+02 -0.89081055109E+01  0.45937852224E+01  0.18726497024E+02  0.00000000000E+00 0. -1.
         11    1    3    3    0    0  0.65083695841E+01  0.36518180486E+01  0.77520696160E+01  0.10760540567E+02  0.51100000000E-03 0. -1.
        -11    1    3    3    0    0  0.34292447034E+02 -0.72715566527E+00 -0.32687633204E+01  0.34455558229E+02  0.51100000000E-03 0.  1.
         12    1    3    3    0    0 -0.24982331093E+02  0.59834431276E+01 -0.90770915180E+01  0.27245404180E+02  0.00000000000E+00 0. -1.
</event>
<event>
 7    1  0.3348003E-013  0.7246158E+02  0.7816164E-02  0.1226708E+00
        -11   -1    0    0    0    0  0.00000000000E+00  0.00000000000E+00  0.45593999997E+02  0.45594000000E+02  0.51100000000E-03 0. -1.
         11   -1    0    0    0    0 -0.00000000000E+00 -0.00000000000E+00 -0.45593999997E+02  0.45594000000E+02  0.51100000000E-03 0.  1.
    9900012    2    1    2    0    0  0.17878643736E+02 -0.14536423603E+01 -0.53777166644E+01  0.72461579774E+02  0.70000012349E+02 0.  0.
         12    1    1    2    0    0 -0.17878643736E+02  0.14536423603E+01  0.53777166644E+01  0.18726420226E+02  0.00000000000E+00 0. -1.
         11    1    3    3    0    0  0.14168480718E+02  0.21031389177E+02  0.17467867026E+02  0.30792719192E+02  0.51100000000E-03 0. -1.
        -11    1    3    3    0    0  0.41268375371E+01  0.40330171557E+01  0.11726216451E+01  0.58882134150E+01  0.51100000000E-03 0.  1.
        -12    1    3    3    0    0 -0.41667451894E+00 -0.26518048693E+02 -0.24018205335E+02  0.35780647166E+02  0.00000000000E+00 0.  1.
</event>
<event>
 7    1  0.3348003E-013  0.7246160E+02  0.7816164E-02  0.1226708E+00
        -11   -1    0    0    0    0  0.00000000000E+00  0.00000000000E+00  0.45593999997E+02  0.45594000000E+02  0.51100000000E-03 0. -1.
         11   -1    0    0    0    0 -0.00000000000E+00 -0.00000000000E+00 -0.45593999997E+02  0.45594000000E+02  0.51100000000E-03 0.  1.
    9900012    2    1    2    0    0 -0.43397995621E+00  0.37916809613E+01 -0.18333378700E+02  0.72461602651E+02  0.70000042151E+02 0.  0.
         12    1    1    2    0    0  0.43397995621E+00 -0.37916809613E+01  0.18333378700E+02  0.18726397349E+02  0.00000000000E+00 0. -1.
         11    1    3    3    0    0 -0.38683479289E+01  0.19124340729E+02 -0.18285578544E+02  0.26740734975E+02  0.51100000000E-03 0. -1.
        -11    1    3    3    0    0  0.12581938098E+02 -0.15602090650E+02 -0.17114109671E+02  0.26355704298E+02  0.51100000000E-03 0.  1.
         12    1    3    3    0    0 -0.91475701248E+01  0.26943088217E+00  0.17066309516E+02  0.19365163379E+02  0.00000000000E+00 0. -1.
</event>
<event>
 7    1  0.3348003E-013  0.7246152E+02  0.7816164E-02  0.1226708E+00
        -11   -1    0    0    0    0  0.00000000000E+00  0.00000000000E+00  0.45593999997E+02  0.45594000000E+02  0.51100000000E-03 0.  1.
         11   -1    0    0    0    0 -0.00000000000E+00 -0.00000000000E+00 -0.45593999997E+02  0.45594000000E+02  0.51100000000E-03 0. -1.
    9900012    2    1    2    0    0 -0.12471490474E+02  0.12450329954E+02  0.63349996470E+01  0.72461521122E+02  0.69999935944E+02 0.  0.
         12    1    1    2    0    0  0.12471490474E+02 -0.12450329954E+02 -0.63349996470E+01  0.18726478878E+02  0.00000000000E+00 0. -1.
         11    1    3    3    0    0 -0.73305629489E+01 -0.10703144818E+02 -0.16771906384E+02  0.21203568241E+02  0.51100000000E-03 0. -1.
        -11    1    3    3    0    0 -0.11428130028E+02  0.43026611145E+01 -0.78175097870E+01  0.14499258883E+02  0.51100000000E-03 0.  1.
        -12    1    3    3    0    0  0.62872025029E+01  0.18850813658E+02  0.30924415818E+02  0.36758693999E+02  0.00000000000E+00 0.  1.
</event>
<event>
 7    1  0.3348003E-013  0.7246164E+02  0.7816164E-02  0.1226708E+00
        -11   -1    0    0    0    0  0.00000000000E+00  0.00000000000E+00  0.45593999997E+02  0.45594000000E+02  0.51100000000E-03 0.  1.
         11   -1    0    0    0    0 -0.00000000000E+00 -0.00000000000E+00 -0.45593999997E+02  0.45594000000E+02  0.51100000000E-03 0. -1.
    9900012    2    1    2    0    0 -0.36762887378E+01 -0.10685133181E+02  0.14932825628E+02  0.72461642874E+02  0.70000094549E+02 0.  0.
         12    1    1    2    0    0  0.36762887378E+01  0.10685133181E+02 -0.14932825628E+02  0.18726357126E+02  0.00000000000E+00 0. -1.
         11    1    3    3    0    0  0.16109791231E+02  0.22483604756E+01  0.24740805363E+02  0.29608916708E+02  0.51100000000E-03 0. -1.
        -11    1    3    3    0    0  0.71421633129E+01 -0.12589585390E+02 -0.96068859215E+00  0.14506242791E+02  0.51100000000E-03 0.  1.
        -12    1    3    3    0    0 -0.26928243282E+02 -0.34390826577E+00 -0.88472911435E+01  0.28346483375E+02  0.00000000000E+00 0.  1.
</event>
<event>
 7    1  0.3348003E-013  0.7246155E+02  0.7816164E-02  0.1226708E+00
        -11   -1    0    0    0    0  0.00000000000E+00  0.00000000000E+00  0.45593999997E+02  0.45594000000E+02  0.51100000000E-03 0. -1.
         11   -1    0    0    0    0 -0.00000000000E+00 -0.00000000000E+00 -0.45593999997E+02  0.45594000000E+02  0.51100000000E-03 0.  1.
    9900012    2    1    2    0    0 -0.97346941056E+01 -0.14393022989E+02  0.69825868317E+01  0.72461550819E+02  0.69999974629E+02 0.  0.
         12    1    1    2    0    0  0.97346941056E+01  0.14393022989E+02 -0.69825868317E+01  0.18726449181E+02  0.00000000000E+00 0. -1.
         11    1    3    3    0    0  0.27157278604E+01 -0.76102354709E+01  0.42873793327E+01  0.91472664516E+01  0.51100000000E-03 0. -1.
        -11    1    3    3    0    0 -0.62554470731E+01  0.11549972100E+01  0.31845160059E+02  0.32474279916E+02  0.51100000000E-03 0.  1.
        -12    1    3    3    0    0 -0.61949748929E+01 -0.79377847277E+01 -0.29149952560E+02  0.30840004451E+02  0.00000000000E+00 0.  1.
</event>
<event>
 7    1  0.3348003E-013  0.7246122E+02  0.7816164E-02  0.1226709E+00
        -11   -1    0    0    0    0  0.00000000000E+00  0.00000000000E+00  0.45593999997E+02  0.45594000000E+02  0.51100000000E-03 0. -1.
         11   -1    0    0    0    0 -0.00000000000E+00 -0.00000000000E+00 -0.45593999997E+02  0.45594000000E+02  0.51100000000E-03 0.  1.
    9900012    2    1    2    0    0  0.11459960480E+02  0.49822446873E+01 -0.13947714432E+02  0.72461222536E+02  0.69999546978E+02 0.  0.
         12    1    1    2    0    0 -0.11459960480E+02 -0.49822446873E+01  0.13947714432E+02  0.18726777464E+02  0.00000000000E+00 0. -1.
         11    1    3    3    0    0  0.26988395905E+02  0.80702018365E+01 -0.17121920867E+02  0.32964554382E+02  0.51100000000E-03 0. -1.
        -11    1    3    3    0    0 -0.12088028382E+02  0.10314588412E+02 -0.11279837551E+02  0.19487070064E+02  0.51100000000E-03 0.  1.
         12    1    3    3    0    0 -0.34404070428E+01 -0.13402545561E+02  0.14454043986E+02  0.20009598089E+02  0.00000000000E+00 0. -1.
</event>
<event>
 7    1  0.3348003E-013  0.7246162E+02  0.7816164E-02  0.1226708E+00
        -11   -1    0    0    0    0  0.00000000000E+00  0.00000000000E+00  0.45593999997E+02  0.45594000000E+02  0.51100000000E-03 0. -1.
         11   -1    0    0    0    0 -0.00000000000E+00 -0.00000000000E+00 -0.45593999997E+02  0.45594000000E+02  0.51100000000E-03 0.  1.
    9900012    2    1    2    0    0 -0.10803287480E+02  0.15195588800E+02  0.17493467947E+01  0.72461624121E+02  0.70000070119E+02 0.  0.
         12    1    1    2    0    0  0.10803287480E+02 -0.15195588800E+02 -0.17493467947E+01  0.18726375879E+02  0.00000000000E+00 0. -1.
         11    1    3    3    0    0  0.31615516180E+01 -0.25464001022E+01  0.12615929492E+02  0.13252970962E+02  0.51100000000E-03 0. -1.
        -11    1    3    3    0    0 -0.36585065030E+01  0.36063208358E+02 -0.17349838788E+01  0.36289803474E+02  0.51100000000E-03 0.  1.
         12    1    3    3    0    0 -0.10306332595E+02 -0.18321219455E+02 -0.91315988188E+01  0.22918849685E+02  0.00000000000E+00 0. -1.
</event>
<event>
 7    1  0.3348003E-013  0.7246158E+02  0.7816164E-02  0.1226708E+00
        -11   -1    0    0    0    0  0.00000000000E+00  0.00000000000E+00  0.45593999997E+02  0.45594000000E+02  0.51100000000E-03 0.  1.
         11   -1    0    0    0    0 -0.00000000000E+00 -0.00000000000E+00 -0.45593999997E+02  0.45594000000E+02  0.51100000000E-03 0. -1.
    9900012    2    1    2    0    0  0.94402781254E+01 -0.11555977379E+02  0.11314562693E+02  0.72461580342E+02  0.70000013089E+02 0.  0.
         12    1    1    2    0    0 -0.94402781254E+01  0.11555977379E+02 -0.11314562693E+02  0.18726419658E+02  0.00000000000E+00 0. -1.
         11    1    3    3    0    0  0.13914395749E+02  0.60133223336E+01 -0.19480893843E+02  0.24683510280E+02  0.51100000000E-03 0. -1.
        -11    1    3    3    0    0 -0.65515278722E+01  0.29850268362E+01 -0.32939554197E+01  0.79172624840E+01  0.51100000000E-03 0.  1.
        -12    1    3    3    0    0  0.20774102482E+01 -0.20554326548E+02  0.34089411957E+02  0.39860807578E+02  0.00000000000E+00 0.  1.
</event>
<event>
 7    1  0.3348003E-013  0.7246150E+02  0.7816164E-02  0.1226708E+00
        -11   -1    0    0    0    0  0.00000000000E+00  0.00000000000E+00  0.45593999997E+02  0.45594000000E+02  0.51100000000E-03 0. -1.
         11   -1    0    0    0    0 -0.00000000000E+00 -0.00000000000E+00 -0.45593999997E+02  0.45594000000E+02  0.51100000000E-03 0.  1.
    9900012    2    1    2    0    0  0.15606627056E+02 -0.10349428354E+02 -0.64806646894E-01  0.72461503391E+02  0.69999912846E+02 0.  0.
         12    1    1    2    0    0 -0.15606627056E+02  0.10349428354E+02  0.64806646894E-01  0.18726496609E+02  0.00000000000E+00 0. -1.
         11    1    3    3    0    0  0.11072429694E+02 -0.17466285786E+02 -0.84780443659E+01  0.22350549770E+02  0.51100000000E-03 0. -1.
        -11    1    3    3    0    0  0.13542295487E+02  0.21675022667E+02 -0.76056679236E+01  0.26665456296E+02  0.51100000000E-03 0.  1.
         12    1    3    3    0    0 -0.90080981249E+01 -0.14558165235E+02  0.16018905643E+02  0.23445497325E+02  0.00000000000E+00 0. -1.
</event>
<event>
 7    1  0.3348003E-013  0.7246160E+02  0.7816164E-02  0.1226708E+00
        -11   -1    0    0    0    0  0.00000000000E+00  0.00000000000E+00  0.45593999997E+02  0.45594000000E+02  0.51100000000E-03 0. -1.
         11   -1    0    0    0    0 -0.00000000000E+00 -0.00000000000E+00 -0.45593999997E+02  0.45594000000E+02  0.51100000000E-03 0.  1.
    9900012    2    1    2    0    0 -0.94427178625E+01 -0.21959400682E+01 -0.16021581134E+02  0.72461597904E+02  0.70000035967E+02 0.  0.
         12    1    1    2    0    0  0.94427178625E+01  0.21959400682E+01  0.16021581134E+02  0.18726402096E+02  0.00000000000E+00 0. -1.
         11    1    3    3    0    0  0.14399639465E+02 -0.15895928514E+01  0.32493853576E+01  0.14847051142E+02  0.51100000000E-03 0. -1.
        -11    1    3    3    0    0  0.12419095094E+02  0.52301173148E+01  0.40948470845E+01  0.14083885224E+02  0.51100000000E-03 0.  1.
        -12    1    3    3    0    0 -0.36261452421E+02 -0.58364645316E+01 -0.23365813576E+02  0.43530661539E+02  0.00000000000E+00 0.  1.
</event>
<event>
 7    1  0.3348003E-013  0.7246149E+02  0.7816164E-02  0.1226708E+00
        -11   -1    0    0    0    0  0.00000000000E+00  0.00000000000E+00  0.45593999997E+02  0.45594000000E+02  0.51100000000E-03 0.  1.
         11   -1    0    0    0    0 -0.00000000000E+00 -0.00000000000E+00 -0.45593999997E+02  0.45594000000E+02  0.51100000000E-03 0. -1.
    9900012    2    1    2    0    0  0.14680622263E+02  0.67354431304E+01  0.94760366615E+01  0.72461491116E+02  0.69999896855E+02 0.  0.
         12    1    1    2    0    0 -0.14680622263E+02 -0.67354431304E+01 -0.94760366615E+01  0.18726508884E+02  0.00000000000E+00 0. -1.
         11    1    3    3    0    0  0.18635126047E+02  0.12574187127E+01  0.66195198003E+01  0.19815828705E+02  0.51100000000E-03 0. -1.
        -11    1    3    3    0    0 -0.31223856825E+01  0.23646346421E+02  0.17263370402E+02  0.29443555310E+02  0.51100000000E-03 0.  1.
         12    1    3    3    0    0 -0.83211810191E+00 -0.18168322004E+02 -0.14406853541E+02  0.23202107100E+02  0.00000000000E+00 0. -1.
</event>
<event>
 7    1  0.3348003E-013  0.7246165E+02  0.7816164E-02  0.1226708E+00
        -11   -1    0    0    0    0  0.00000000000E+00  0.00000000000E+00  0.45593999997E+02  0.45594000000E+02  0.51100000000E-03 0.  1.
         11   -1    0    0    0    0 -0.00000000000E+00 -0.00000000000E+00 -0.45593999997E+02  0.45594000000E+02  0.51100000000E-03 0. -1.
    9900012    2    1    2    0    0  0.13836579341E+02 -0.77383836949E+01  0.99670797060E+01  0.72461649903E+02  0.70000103705E+02 0.  0.
         12    1    1    2    0    0 -0.13836579341E+02  0.77383836949E+01 -0.99670797060E+01  0.18726350097E+02  0.00000000000E+00 0. -1.
         11    1    3    3    0    0 -0.54736316030E+01 -0.34298741536E+01  0.19842915040E+02  0.20867821093E+02  0.51100000000E-03 0. -1.
        -11    1    3    3    0    0 -0.82880600532E+01 -0.67633527589E+01  0.12157522652E+02  0.16193833310E+02  0.51100000000E-03 0.  1.
         12    1    3    3    0    0  0.27598270997E+02  0.24548432176E+01 -0.22033357986E+02  0.35399995500E+02  0.00000000000E+00 0. -1.
</event>
<event>
 7    1  0.3348003E-013  0.7246160E+02  0.7816164E-02  0.1226708E+00
        -11   -1    0    0    0    0  0.00000000000E+00  0.00000000000E+00  0.45593999997E+02  0.45594000000E+02  0.51100000000E-03 0. -1.
         11   -1    0    0    0    0 -0.00000000000E+00 -0.00000000000E+00 -0.45593999997E+02  0.45594000000E+02  0.51100000000E-03 0.  1.
    9900012    2    1    2    0    0  0.95488770040E+01 -0.95099624947E+01 -0.13002223054E+02  0.72461595032E+02  0.70000032225E+02 0.  0.
         12    1    1    2    0    0 -0.95488770040E+01  0.95099624947E+01  0.13002223054E+02  0.18726404968E+02  0.00000000000E+00 0. -1.
         11    1    3    3    0    0  0.89059554084E+01 -0.23409316819E+02 -0.10637801931E+01  0.25068781068E+02  0.51100000000E-03 0. -1.
        -11    1    3    3    0    0  0.18190043943E+02 -0.30466326187E+01  0.31486702123E+01  0.18710259039E+02  0.51100000000E-03 0.  1.
        -12    1    3    3    0    0 -0.17547122347E+02  0.16945986943E+02 -0.15087113073E+02  0.28682554925E+02  0.00000000000E+00 0.  1.
</event>
<event>
 7    1  0.3348003E-013  0.7246153E+02  0.7816164E-02  0.1226708E+00
        -11   -1    0    0    0    0  0.00000000000E+00  0.00000000000E+00  0.45593999997E+02  0.45594000000E+02  0.51100000000E-03 0. -1.
         11   -1    0    0    0    0 -0.00000000000E+00 -0.00000000000E+00 -0.45593999997E+02  0.45594000000E+02  0.51100000000E-03 0.  1.
    9900012    2    1    2    0    0 -0.68660607987E+01  0.17410965053E+02 -0.62953117601E+00  0.72461526641E+02  0.69999943133E+02 0.  0.
         12    1    1    2    0    0  0.68660607987E+01 -0.17410965053E+02  0.62953117601E+00  0.18726473359E+02  0.00000000000E+00 0. -1.
         11    1    3    3    0    0  0.88294124237E+01 -0.73218938407E+01 -0.14126038227E+02  0.18196527400E+02  0.51100000000E-03 0. -1.
        -11    1    3    3    0    0  0.10601830628E+02  0.17890357301E+02 -0.50072911126E+01  0.21390106628E+02  0.51100000000E-03 0.  1.
         12    1    3    3    0    0 -0.26297303850E+02  0.68425015923E+01  0.18503798163E+02  0.32874892613E+02  0.00000000000E+00 0. -1.
</event>
<event>
 7    1  0.3348003E-013  0.7246159E+02  0.7816164E-02  0.1226708E+00
        -11   -1    0    0    0    0  0.00000000000E+00  0.00000000000E+00  0.45593999997E+02  0.45594000000E+02  0.51100000000E-03 0.  1.
         11   -1    0    0    0    0 -0.00000000000E+00 -0.00000000000E+00 -0.45593999997E+02  0.45594000000E+02  0.51100000000E-03 0. -1.
    9900012    2    1    2    0    0  0.16161515255E+02  0.93904375373E+01  0.11417146991E+01  0.72461590709E+02  0.70000026594E+02 0.  0.
         12    1    1    2    0    0 -0.16161515255E+02 -0.93904375373E+01 -0.11417146991E+01  0.18726409291E+02  0.00000000000E+00 0. -1.
         11    1    3    3    0    0  0.23879043104E+02 -0.76844932340E+01 -0.11300119858E+02  0.27512776030E+02  0.51100000000E-03 0.  1.
        -11    1    3    3    0    0 -0.15844179297E+02 -0.28562571896E+01 -0.54106514003E+01  0.16984444989E+02  0.51100000000E-03 0. -1.
        -12    1    3    3    0    0  0.81266514488E+01  0.19931187961E+02  0.17852485958E+02  0.27964369690E+02  0.00000000000E+00 0.  1.
</event>
<event>
 7    1  0.3348003E-013  0.7246157E+02  0.7816164E-02  0.1226708E+00
        -11   -1    0    0    0    0  0.00000000000E+00  0.00000000000E+00  0.45593999997E+02  0.45594000000E+02  0.51100000000E-03 0.  1.
         11   -1    0    0    0    0 -0.00000000000E+00 -0.00000000000E+00 -0.45593999997E+02  0.45594000000E+02  0.51100000000E-03 0. -1.
    9900012    2    1    2    0    0  0.11562309431E+01  0.15826233346E+02  0.99434660682E+01  0.72461573502E+02  0.70000004179E+02 0.  0.
         12    1    1    2    0    0 -0.11562309431E+01 -0.15826233346E+02 -0.99434660682E+01  0.18726426498E+02  0.00000000000E+00 0. -1.
         11    1    3    3    0    0 -0.17245175278E+02  0.14571391499E+01 -0.17301710139E+02  0.24471789858E+02  0.51100000000E-03 0. -1.
        -11    1    3    3    0    0 -0.75609821880E+01 -0.25060076228E+01  0.91260997369E+01  0.12113390216E+02  0.51100000000E-03 0.  1.
         12    1    3    3    0    0  0.25962388409E+02  0.16875101819E+02  0.18119076470E+02  0.35876393428E+02  0.00000000000E+00 0. -1.
</event>
<event>
 7    1  0.3348003E-013  0.7246170E+02  0.7816164E-02  0.1226708E+00
        -11   -1    0    0    0    0  0.00000000000E+00  0.00000000000E+00  0.45593999997E+02  0.45594000000E+02  0.51100000000E-03 0.  1.
         11   -1    0    0    0    0 -0.00000000000E+00 -0.00000000000E+00 -0.45593999997E+02  0.45594000000E+02  0.51100000000E-03 0. -1.
    9900012    2    1    2    0    0  0.38981723959E+01  0.10073024110E+02  0.15297478788E+02  0.72461697108E+02  0.70000165198E+02 0.  0.
         12    1    1    2    0    0 -0.38981723959E+01 -0.10073024110E+02 -0.15297478788E+02  0.18726302892E+02  0.00000000000E+00 0. -1.
         11    1    3    3    0    0 -0.45616147577E+01 -0.14040148667E+02  0.24455588874E+02  0.28565887545E+02  0.51100000000E-03 0. -1.
        -11    1    3    3    0    0  0.50502752888E+01  0.12323880972E+02  0.12971214344E+02  0.18591280874E+02  0.51100000000E-03 0.  1.
         12    1    3    3    0    0  0.34095118647E+01  0.11789291805E+02 -0.22129324431E+02  0.25304528689E+02  0.00000000000E+00 0. -1.
</event>
<event>
 7    1  0.3348003E-013  0.7246151E+02  0.7816164E-02  0.1226708E+00
        -11   -1    0    0    0    0  0.00000000000E+00  0.00000000000E+00  0.45593999997E+02  0.45594000000E+02  0.51100000000E-03 0. -1.
         11   -1    0    0    0    0 -0.00000000000E+00 -0.00000000000E+00 -0.45593999997E+02  0.45594000000E+02  0.51100000000E-03 0.  1.
    9900012    2    1    2    0    0  0.17993965889E+00 -0.74036370908E-01 -0.18725480584E+02  0.72461508530E+02  0.69999919541E+02 0.  0.
         12    1    1    2    0    0 -0.17993965889E+00  0.74036370908E-01  0.18725480584E+02  0.18726491470E+02  0.00000000000E+00 0. -1.
         11    1    3    3    0    0  0.57342142797E+01 -0.49424605375E+01 -0.44699161541E+01  0.87914322073E+01  0.51100000000E-03 0. -1.
        -11    1    3    3    0    0 -0.20696054346E+02 -0.22627076374E+02 -0.70903644443E+01  0.31473552690E+02  0.51100000000E-03 0.  1.
        -12    1    3    3    0    0  0.15141779725E+02  0.27495500540E+02 -0.71651999857E+01  0.32196523633E+02  0.00000000000E+00 0.  1.
</event>
<event>
 7    1  0.3348003E-013  0.7246157E+02  0.7816164E-02  0.1226708E+00
        -11   -1    0    0    0    0  0.00000000000E+00  0.00000000000E+00  0.45593999997E+02  0.45594000000E+02  0.51100000000E-03 0.  1.
         11   -1    0    0    0    0 -0.00000000000E+00 -0.00000000000E+00 -0.45593999997E+02  0.45594000000E+02  0.51100000000E-03 0. -1.
    9900012    2    1    2    0    0  0.11728716570E+02 -0.88848920554E+01  0.11583398773E+02  0.72461568777E+02  0.69999998024E+02 0.  0.
         12    1    1    2    0    0 -0.11728716570E+02  0.88848920554E+01 -0.11583398773E+02  0.18726431223E+02  0.00000000000E+00 0. -1.
         11    1    3    3    0    0 -0.58152753090E+01  0.10504833397E+02  0.48306584736E+01  0.12942341873E+02  0.51100000000E-03 0. -1.
        -11    1    3    3    0    0  0.26543578081E+02  0.16705902480E+01 -0.12697728487E+02  0.29471761367E+02  0.51100000000E-03 0.  1.
         12    1    3    3    0    0 -0.89995862016E+01 -0.21060315700E+02  0.19450468786E+02  0.30047465537E+02  0.00000000000E+00 0. -1.
</event>
<event>
 7    1  0.3348003E-013  0.7246154E+02  0.7816164E-02  0.1226708E+00
        -11   -1    0    0    0    0  0.00000000000E+00  0.00000000000E+00  0.45593999997E+02  0.45594000000E+02  0.51100000000E-03 0. -1.
         11   -1    0    0    0    0 -0.00000000000E+00 -0.00000000000E+00 -0.45593999997E+02  0.45594000000E+02  0.51100000000E-03 0.  1.
    9900012    2    1    2    0    0 -0.16452024038E+02  0.68843511287E+01  0.57111303369E+01  0.72461537570E+02  0.69999957371E+02 0.  0.
         12    1    1    2    0    0  0.16452024038E+02 -0.68843511287E+01 -0.57111303369E+01  0.18726462430E+02  0.00000000000E+00 0. -1.
         11    1    3    3    0    0 -0.73681711715E+01 -0.17364725868E+02  0.17210260406E+02  0.25534617961E+02  0.51100000000E-03 0. -1.
        -11    1    3    3    0    0 -0.14120342936E+02 -0.17014869253E+01 -0.14513945547E+02  0.20320771589E+02  0.51100000000E-03 0.  1.
        -12    1    3    3    0    0  0.50364900692E+01  0.25950563922E+02  0.30148154779E+01  0.26606148020E+02  0.00000000000E+00 0.  1.
</event>
<event>
 7    1  0.3348003E-013  0.7246160E+02  0.7816164E-02  0.1226708E+00
        -11   -1    0    0    0    0  0.00000000000E+00  0.00000000000E+00  0.45593999997E+02  0.45594000000E+02  0.51100000000E-03 0. -1.
         11   -1    0    0    0    0 -0.00000000000E+00 -0.00000000000E+00 -0.45593999997E+02  0.45594000000E+02  0.51100000000E-03 0.  1.
    9900012    2    1    2    0    0 -0.50264766859E+01 -0.11562699490E+02  0.13846172587E+02  0.72461601983E+02  0.70000041281E+02 0.  0.
         12    1    1    2    0    0  0.50264766859E+01  0.11562699490E+02 -0.13846172587E+02  0.18726398017E+02  0.00000000000E+00 0. -1.
         11    1    3    3    0    0  0.60118921864E+01  0.10745016597E+02 -0.81289358205E+01  0.14753908878E+02  0.51100000000E-03 0. -1.
        -11    1    3    3    0    0  0.15398186423E+02 -0.18111489540E+02  0.11622928287E+01  0.23800863920E+02  0.51100000000E-03 0.  1.
         12    1    3    3    0    0 -0.26436555295E+02 -0.41962265475E+01  0.20812815579E+02  0.33906829186E+02  0.00000000000E+00 0. -1.
</event>
<event>
 7    1  0.3348003E-013  0.7246152E+02  0.7816164E-02  0.1226708E+00
        -11   -1    0    0    0    0  0.00000000000E+00  0.00000000000E+00  0.45593999997E+02  0.45594000000E+02  0.51100000000E-03 0. -1.
         11   -1    0    0    0    0 -0.00000000000E+00 -0.00000000000E+00 -0.45593999997E+02  0.45594000000E+02  0.51100000000E-03 0.  1.
    9900012    2    1    2    0    0 -0.11788967078E+02 -0.67929519037E+01 -0.12866893650E+02  0.72461524290E+02  0.69999940070E+02 0.  0.
         12    1    1    2    0    0  0.11788967078E+02  0.67929519037E+01  0.12866893650E+02  0.18726475710E+02  0.00000000000E+00 0. -1.
         11    1    3    3    0    0  0.14396025560E+02  0.26839526378E+01  0.78943302703E+01  0.16636393971E+02  0.51100000000E-03 0. -1.
        -11    1    3    3    0    0  0.38755224832E+01 -0.57777509244E+01 -0.24351484351E+02  0.25325814313E+02  0.51100000000E-03 0.  1.
         12    1    3    3    0    0 -0.30060515121E+02 -0.36991536171E+01  0.35902604309E+01  0.30499316005E+02  0.00000000000E+00 0. -1.
</event>
<event>
 7    1  0.3348003E-013  0.7246154E+02  0.7816164E-02  0.1226708E+00
        -11   -1    0    0    0    0  0.00000000000E+00  0.00000000000E+00  0.45593999997E+02  0.45594000000E+02  0.51100000000E-03 0.  1.
         11   -1    0    0    0    0 -0.00000000000E+00 -0.00000000000E+00 -0.45593999997E+02  0.45594000000E+02  0.51100000000E-03 0. -1.
    9900012    2    1    2    0    0 -0.15917374004E+01 -0.14739011845E+02  0.11441510442E+02  0.72461541196E+02  0.69999962095E+02 0.  0.
         12    1    1    2    0    0  0.15917374004E+01  0.14739011845E+02 -0.11441510442E+02  0.18726458804E+02  0.00000000000E+00 0. -1.
         11    1    3    3    0    0 -0.25441559974E+02 -0.29159924969E+02  0.83751031339E+00  0.38707565435E+02  0.51100000000E-03 0. -1.
        -11    1    3    3    0    0  0.50991787279E+01  0.68094259631E+01 -0.33819279218E+01  0.91546350214E+01  0.51100000000E-03 0.  1.
        -12    1    3    3    0    0  0.18750643846E+02  0.76114871606E+01  0.13985928050E+02  0.24599340740E+02  0.00000000000E+00 0.  1.
</event>
<event>
 7    1  0.3348003E-013  0.7246170E+02  0.7816164E-02  0.1226708E+00
        -11   -1    0    0    0    0  0.00000000000E+00  0.00000000000E+00  0.45593999997E+02  0.45594000000E+02  0.51100000000E-03 0. -1.
         11   -1    0    0    0    0 -0.00000000000E+00 -0.00000000000E+00 -0.45593999997E+02  0.45594000000E+02  0.51100000000E-03 0.  1.
    9900012    2    1    2    0    0 -0.13116849405E+02  0.89287956443E+01 -0.99448140349E+01  0.72461696142E+02  0.70000163940E+02 0.  0.
         12    1    1    2    0    0  0.13116849405E+02 -0.89287956443E+01  0.99448140349E+01  0.18726303858E+02  0.00000000000E+00 0. -1.
         11    1    3    3    0    0  0.10472815368E+02  0.36791128418E+01 -0.67818266399E+01  0.13008032360E+02  0.51100000000E-03 0. -1.
        -11    1    3    3    0    0 -0.12015409837E+02 -0.77407747383E+00 -0.28508478202E+02  0.30946770415E+02  0.51100000000E-03 0.  1.
         12    1    3    3    0    0 -0.11574254937E+02  0.60237602763E+01  0.25345490807E+02  0.28506893367E+02  0.00000000000E+00 0. -1.
</event>
<event>
 7    1  0.3348003E-013  0.7246155E+02  0.7816164E-02  0.1226708E+00
        -11   -1    0    0    0    0  0.00000000000E+00  0.00000000000E+00  0.45593999997E+02  0.45594000000E+02  0.51100000000E-03 0.  1.
         11   -1    0    0    0    0 -0.00000000000E+00 -0.00000000000E+00 -0.45593999997E+02  0.45594000000E+02  0.51100000000E-03 0. -1.
    9900012    2    1    2    0    0  0.57219497937E+01 -0.17305447139E+02  0.42965928130E+01  0.72461550259E+02  0.69999973900E+02 0.  0.
         12    1    1    2    0    0 -0.57219497937E+01  0.17305447139E+02 -0.42965928130E+01  0.18726449741E+02  0.00000000000E+00 0. -1.
         11    1    3    3    0    0  0.21778039569E+02  0.10493633875E+02 -0.98729660063E+01  0.26112732860E+02  0.51100000000E-03 0. -1.
        -11    1    3    3    0    0 -0.63777141846E+01  0.56192158181E+01  0.65542883467E+01  0.10733569799E+02  0.51100000000E-03 0.  1.
        -12    1    3    3    0    0 -0.96783755910E+01 -0.33418296832E+02  0.76152704726E+01  0.35615247600E+02  0.00000000000E+00 0.  1.
</event>
<event>
 7    1  0.3348003E-013  0.7246159E+02  0.7816164E-02  0.1226708E+00
        -11   -1    0    0    0    0  0.00000000000E+00  0.00000000000E+00  0.45593999997E+02  0.45594000000E+02  0.51100000000E-03 0.  1.
         11   -1    0    0    0    0 -0.00000000000E+00 -0.00000000000E+00 -0.45593999997E+02  0.45594000000E+02  0.51100000000E-03 0. -1.
    9900012    2    1    2    0    0  0.10488773875E+02 -0.11144846601E+02  0.10791507193E+02  0.72461585216E+02  0.70000019438E+02 0.  0.
         12    1    1    2    0    0 -0.10488773875E+02  0.11144846601E+02 -0.10791507193E+02  0.18726414784E+02  0.00000000000E+00 0. -1.
         11    1    3    3    0    0  0.33844016295E+02 -0.61582110692E+01 -0.53381871402E+01  0.34811452781E+02  0.51100000000E-03 0. -1.
        -11    1    3    3    0    0  0.37836829733E+00  0.59689630509E+01 -0.14427673578E+01  0.61525003357E+01  0.51100000000E-03 0.  1.
        -12    1    3    3    0    0 -0.23733610717E+02 -0.10955598583E+02  0.17572461691E+02  0.31497632099E+02  0.00000000000E+00 0.  1.
</event>
<event>
 7    1  0.3348003E-013  0.7246160E+02  0.7816164E-02  0.1226708E+00
        -11   -1    0    0    0    0  0.00000000000E+00  0.00000000000E+00  0.45593999997E+02  0.45594000000E+02  0.51100000000E-03 0. -1.
         11   -1    0    0    0    0 -0.00000000000E+00 -0.00000000000E+00 -0.45593999997E+02  0.45594000000E+02  0.51100000000E-03 0.  1.
    9900012    2    1    2    0    0  0.11770449766E+01  0.14871364217E+02 -0.11319687793E+02  0.72461595105E+02  0.70000032321E+02 0.  0.
         12    1    1    2    0    0 -0.11770449766E+01 -0.14871364217E+02  0.11319687793E+02  0.18726404895E+02  0.00000000000E+00 0. -1.
         11    1    3    3    0    0  0.44098608219E+01  0.73808975835E+01  0.14928850469E+02  0.17227742109E+02  0.51100000000E-03 0. -1.
        -11    1    3    3    0    0 -0.11728041672E+02  0.44263283659E+01  0.11139948562E+02  0.16770146049E+02  0.51100000000E-03 0.  1.
        -12    1    3    3    0    0  0.84952258271E+01  0.30641382675E+01 -0.37388486824E+02  0.38463706947E+02  0.00000000000E+00 0.  1.
</event>
<event>
 7    1  0.3348003E-013  0.7246148E+02  0.7816164E-02  0.1226708E+00
        -11   -1    0    0    0    0  0.00000000000E+00  0.00000000000E+00  0.45593999997E+02  0.45594000000E+02  0.51100000000E-03 0. -1.
         11   -1    0    0    0    0 -0.00000000000E+00 -0.00000000000E+00 -0.45593999997E+02  0.45594000000E+02  0.51100000000E-03 0.  1.
    9900012    2    1    2    0    0 -0.10448207977E+02 -0.32002075477E+01 -0.15207772959E+02  0.72461475051E+02  0.69999875928E+02 0.  0.
         12    1    1    2    0    0  0.10448207977E+02  0.32002075477E+01  0.15207772959E+02  0.18726524949E+02  0.00000000000E+00 0. -1.
         11    1    3    3    0    0  0.57637170301E+01  0.10051754557E+02 -0.13786564963E+02  0.18009097073E+02  0.51100000000E-03 0. -1.
        -11    1    3    3    0    0 -0.20350617837E+02 -0.99425497158E+01 -0.22971720426E+02  0.32259911358E+02  0.51100000000E-03 0.  1.
         12    1    3    3    0    0  0.41386928303E+01 -0.33094123885E+01  0.21550512430E+02  0.22192466620E+02  0.00000000000E+00 0. -1.
</event>
<event>
 7    1  0.3348003E-013  0.7246169E+02  0.7816164E-02  0.1226708E+00
        -11   -1    0    0    0    0  0.00000000000E+00  0.00000000000E+00  0.45593999997E+02  0.45594000000E+02  0.51100000000E-03 0.  1.
         11   -1    0    0    0    0 -0.00000000000E+00 -0.00000000000E+00 -0.45593999997E+02  0.45594000000E+02  0.51100000000E-03 0. -1.
    9900012    2    1    2    0    0 -0.55407327811E+01  0.17887004189E+02 -0.17362406226E+00  0.72461687391E+02  0.70000152540E+02 0.  0.
         12    1    1    2    0    0  0.55407327811E+01 -0.17887004189E+02  0.17362406226E+00  0.18726312609E+02  0.00000000000E+00 0. -1.
         11    1    3    3    0    0 -0.20408917873E+02 -0.12294747135E+02 -0.75690519418E+01  0.24999505664E+02  0.51100000000E-03 0. -1.
        -11    1    3    3    0    0  0.88255265993E+01  0.14426460719E+02 -0.12752686536E+02  0.21181211079E+02  0.51100000000E-03 0.  1.
        -12    1    3    3    0    0  0.60426584929E+01  0.15755290606E+02  0.20148114415E+02  0.26280970648E+02  0.00000000000E+00 0.  1.
</event>
<event>
 7    1  0.3348003E-013  0.7246156E+02  0.7816164E-02  0.1226708E+00
        -11   -1    0    0    0    0  0.00000000000E+00  0.00000000000E+00  0.45593999997E+02  0.45594000000E+02  0.51100000000E-03 0.  1.
         11   -1    0    0    0    0 -0.00000000000E+00 -0.00000000000E+00 -0.45593999997E+02  0.45594000000E+02  0.51100000000E-03 0. -1.
    9900012    2    1    2    0    0  0.16051914376E+02 -0.87731328551E+01  0.40059450221E+01  0.72461563854E+02  0.69999991610E+02 0.  0.
         12    1    1    2    0    0 -0.16051914376E+02  0.87731328551E+01 -0.40059450221E+01  0.18726436146E+02  0.00000000000E+00 0. -1.
         11    1    3    3    0    0 -0.21651632037E+00 -0.20024336917E+02 -0.47858640855E+01  0.20589449813E+02  0.51100000000E-03 0. -1.
        -11    1    3    3    0    0 -0.46123451111E+00 -0.90514824128E+01  0.20998307647E+02  0.22870745407E+02  0.51100000000E-03 0.  1.
         12    1    3    3    0    0  0.16729665207E+02  0.20302686475E+02 -0.12206498540E+02  0.29001368634E+02  0.00000000000E+00 0. -1.
</event>
<event>
 7    1  0.3348003E-013  0.7246155E+02  0.7816164E-02  0.1226708E+00
        -11   -1    0    0    0    0  0.00000000000E+00  0.00000000000E+00  0.45593999997E+02  0.45594000000E+02  0.51100000000E-03 0.  1.
         11   -1    0    0    0    0 -0.00000000000E+00 -0.00000000000E+00 -0.45593999997E+02  0.45594000000E+02  0.51100000000E-03 0. -1.
    9900012    2    1    2    0    0 -0.87080915799E+01  0.71637736494E+01  0.14950897474E+02  0.72461552202E+02  0.69999976431E+02 0.  0.
         12    1    1    2    0    0  0.87080915799E+01 -0.71637736494E+01 -0.14950897474E+02  0.18726447798E+02  0.00000000000E+00 0. -1.
         11    1    3    3    0    0  0.92714597574E+01  0.97254739508E+01  0.62614534374E+01  0.14823987622E+02  0.51100000000E-03 0. -1.
        -11    1    3    3    0    0 -0.53200624612E+01 -0.19365248289E+02  0.24237997212E+02  0.31476918766E+02  0.51100000000E-03 0.  1.
         12    1    3    3    0    0 -0.12659488876E+02  0.16803547987E+02 -0.15548553176E+02  0.26160645814E+02  0.00000000000E+00 0. -1.
</event>
<event>
 7    1  0.3348003E-013  0.7246156E+02  0.7816164E-02  0.1226708E+00
        -11   -1    0    0    0    0  0.00000000000E+00  0.00000000000E+00  0.45593999997E+02  0.45594000000E+02  0.51100000000E-03 0. -1.
         11   -1    0    0    0    0 -0.00000000000E+00 -0.00000000000E+00 -0.45593999997E+02  0.45594000000E+02  0.51100000000E-03 0.  1.
    9900012    2    1    2    0    0  0.13434709576E+02 -0.60172348658E+01 -0.11575020818E+02  0.72461557631E+02  0.69999983504E+02 0.  0.
         12    1    1    2    0    0 -0.13434709576E+02  0.60172348658E+01  0.11575020818E+02  0.18726442369E+02  0.00000000000E+00 0. -1.
         11    1    3    3    0    0  0.31837909614E+02  0.12974669213E+02 -0.12104469051E+01  0.34401449268E+02  0.51100000000E-03 0. -1.
        -11    1    3    3    0    0  0.63926271929E+01 -0.40452281078E+01 -0.99910582152E+00  0.76307119966E+01  0.51100000000E-03 0.  1.
        -12    1    3    3    0    0 -0.24795827231E+02 -0.14946675971E+02 -0.93654680919E+01  0.30429396366E+02  0.00000000000E+00 0.  1.
</event>
<event>
 7    1  0.3348003E-013  0.7246178E+02  0.7816164E-02  0.1226707E+00
        -11   -1    0    0    0    0  0.00000000000E+00  0.00000000000E+00  0.45593999997E+02  0.45594000000E+02  0.51100000000E-03 0. -1.
         11   -1    0    0    0    0 -0.00000000000E+00 -0.00000000000E+00 -0.45593999997E+02  0.45594000000E+02  0.51100000000E-03 0.  1.
    9900012    2    1    2    0    0 -0.17944692731E+02 -0.20666972778E+01  0.49384231850E+01  0.72461781524E+02  0.70000275166E+02 0.  0.
         12    1    1    2    0    0  0.17944692731E+02  0.20666972778E+01 -0.49384231850E+01  0.18726218476E+02  0.00000000000E+00 0. -1.
         11    1    3    3    0    0  0.50952679215E+01 -0.28346562144E+02 -0.59015447363E+01  0.29399278412E+02  0.51100000000E-03 0. -1.
        -11    1    3    3    0    0 -0.18195381830E+01  0.80127783570E+01 -0.61926136826E+01  0.10289013591E+02  0.51100000000E-03 0.  1.
        -12    1    3    3    0    0 -0.21220422469E+02  0.18267086510E+02  0.17032581604E+02  0.32773489522E+02  0.00000000000E+00 0.  1.
</event>
<event>
 7    1  0.3348003E-013  0.7246162E+02  0.7816164E-02  0.1226708E+00
        -11   -1    0    0    0    0  0.00000000000E+00  0.00000000000E+00  0.45593999997E+02  0.45594000000E+02  0.51100000000E-03 0. -1.
         11   -1    0    0    0    0 -0.00000000000E+00 -0.00000000000E+00 -0.45593999997E+02  0.45594000000E+02  0.51100000000E-03 0.  1.
    9900012    2    1    2    0    0 -0.13437906083E+00  0.17363029061E+02 -0.70131757264E+01  0.72461615681E+02  0.70000059125E+02 0.  0.
         12    1    1    2    0    0  0.13437906083E+00 -0.17363029061E+02  0.70131757264E+01  0.18726384319E+02  0.00000000000E+00 0. -1.
         11    1    3    3    0    0  0.16083308833E+02 -0.26316016964E+01  0.73395551343E+01  0.17873645972E+02  0.51100000000E-03 0. -1.
        -11    1    3    3    0    0  0.32299159849E+00  0.28653640231E+02 -0.20158840695E+02  0.35035899881E+02  0.51100000000E-03 0.  1.
         12    1    3    3    0    0 -0.16540679492E+02 -0.86590094738E+01  0.58061098348E+01  0.19552069828E+02  0.00000000000E+00 0. -1.
</event>
<event>
 7    1  0.3348003E-013  0.7246156E+02  0.7816164E-02  0.1226708E+00
        -11   -1    0    0    0    0  0.00000000000E+00  0.00000000000E+00  0.45593999997E+02  0.45594000000E+02  0.51100000000E-03 0.  1.
         11   -1    0    0    0    0 -0.00000000000E+00 -0.00000000000E+00 -0.45593999997E+02  0.45594000000E+02  0.51100000000E-03 0. -1.
    9900012    2    1    2    0    0  0.63529560957E+01 -0.17202122535E+02  0.37956111760E+01  0.72461555194E+02  0.69999980329E+02 0.  0.
         12    1    1    2    0    0 -0.63529560957E+01  0.17202122535E+02 -0.37956111760E+01  0.18726444806E+02  0.00000000000E+00 0. -1.
         11    1    3    3    0    0  0.56785517162E+01 -0.94149122026E+01 -0.38602304551E+01  0.11652806563E+02  0.51100000000E-03 0. -1.
        -11    1    3    3    0    0  0.26599798763E+02 -0.24851483142E+01 -0.10513040880E+02  0.28709741991E+02  0.51100000000E-03 0.  1.
         12    1    3    3    0    0 -0.25925394384E+02 -0.53020620183E+01  0.18168882511E+02  0.32099006640E+02  0.00000000000E+00 0. -1.
</event>
<event>
 7    1  0.3348003E-013  0.7246157E+02  0.7816164E-02  0.1226708E+00
        -11   -1    0    0    0    0  0.00000000000E+00  0.00000000000E+00  0.45593999997E+02  0.45594000000E+02  0.51100000000E-03 0. -1.
         11   -1    0    0    0    0 -0.00000000000E+00 -0.00000000000E+00 -0.45593999997E+02  0.45594000000E+02  0.51100000000E-03 0.  1.
    9900012    2    1    2    0    0 -0.16323257650E+02  0.89879096558E+01  0.18568722770E+01  0.72461568548E+02  0.69999997725E+02 0.  0.
         12    1    1    2    0    0  0.16323257650E+02 -0.89879096558E+01 -0.18568722770E+01  0.18726431452E+02  0.00000000000E+00 0. -1.
         11    1    3    3    0    0 -0.22824529543E+02 -0.56191410072E+01 -0.20845804480E+02  0.31417852555E+02  0.51100000000E-03 0.  1.
        -11    1    3    3    0    0 -0.93844330432E+01 -0.35610417698E+01  0.73475505864E+01  0.12439256485E+02  0.51100000000E-03 0. -1.
         12    1    3    3    0    0  0.15885704936E+02  0.18168092433E+02  0.15355126171E+02  0.28604459507E+02  0.00000000000E+00 0. -1.
</event>
<event>
 7    1  0.3348003E-013  0.7246153E+02  0.7816164E-02  0.1226708E+00
        -11   -1    0    0    0    0  0.00000000000E+00  0.00000000000E+00  0.45593999997E+02  0.45594000000E+02  0.51100000000E-03 0.  1.
         11   -1    0    0    0    0 -0.00000000000E+00 -0.00000000000E+00 -0.45593999997E+02  0.45594000000E+02  0.51100000000E-03 0. -1.
    9900012    2    1    2    0    0 -0.13888124282E+01  0.17835078863E+02  0.55373148653E+01  0.72461529592E+02  0.69999946978E+02 0.  0.
         12    1    1    2    0    0  0.13888124282E+01 -0.17835078863E+02 -0.55373148653E+01  0.18726470408E+02  0.00000000000E+00 0. -1.
         11    1    3    3    0    0  0.50970931867E+01  0.49280655794E+01  0.17635920574E+01  0.73059185949E+01  0.51100000000E-03 0. -1.
        -11    1    3    3    0    0  0.70320608258E+01  0.36691676148E+02 -0.10582337792E+01  0.37374440959E+02  0.51100000000E-03 0.  1.
         12    1    3    3    0    0 -0.13517966441E+02 -0.23784662864E+02  0.48319565871E+01  0.27781170038E+02  0.00000000000E+00 0. -1.
</event>
<event>
 7    1  0.3348003E-013  0.7246155E+02  0.7816164E-02  0.1226708E+00
        -11   -1    0    0    0    0  0.00000000000E+00  0.00000000000E+00  0.45593999997E+02  0.45594000000E+02  0.51100000000E-03 0.  1.
         11   -1    0    0    0    0 -0.00000000000E+00 -0.00000000000E+00 -0.45593999997E+02  0.45594000000E+02  0.51100000000E-03 0. -1.
    9900012    2    1    2    0    0  0.11731680886E+02  0.22847963608E+01  0.14416216740E+02  0.72461549832E+02  0.69999973343E+02 0.  0.
         12    1    1    2    0    0 -0.11731680886E+02 -0.22847963608E+01 -0.14416216740E+02  0.18726450168E+02  0.00000000000E+00 0. -1.
         11    1    3    3    0    0  0.30854891003E+02  0.10887326006E+02 -0.20524560142E+01  0.32783696288E+02  0.51100000000E-03 0.  1.
        -11    1    3    3    0    0 -0.90420256471E+01  0.22644631198E+01 -0.71811162898E+01  0.11766667007E+02  0.51100000000E-03 0. -1.
        -12    1    3    3    0    0 -0.10081184470E+02 -0.10866992765E+02  0.23649789044E+02  0.27911186537E+02  0.00000000000E+00 0.  1.
</event>
<event>
 7    1  0.3348003E-013  0.7246160E+02  0.7816164E-02  0.1226708E+00
        -11   -1    0    0    0    0  0.00000000000E+00  0.00000000000E+00  0.45593999997E+02  0.45594000000E+02  0.51100000000E-03 0.  1.
         11   -1    0    0    0    0 -0.00000000000E+00 -0.00000000000E+00 -0.45593999997E+02  0.45594000000E+02  0.51100000000E-03 0. -1.
    9900012    2    1    2    0    0 -0.15911907797E+02  0.36574260468E+01  0.91712918308E+01  0.72461597012E+02  0.70000034805E+02 0.  0.
         12    1    1    2    0    0  0.15911907797E+02 -0.36574260468E+01 -0.91712918308E+01  0.18726402988E+02  0.00000000000E+00 0. -1.
         11    1    3    3    0    0 -0.13216172706E+02  0.19204340623E+02  0.13809249614E+02  0.27095558583E+02  0.51100000000E-03 0. -1.
        -11    1    3    3    0    0  0.15591650280E+02  0.61350313986E+01 -0.21545009594E+01  0.16893195179E+02  0.51100000000E-03 0.  1.
        -12    1    3    3    0    0 -0.18287385371E+02 -0.21681945975E+02 -0.24834568237E+01  0.28472843250E+02  0.00000000000E+00 0.  1.
</event>
<event>
 7    1  0.3348003E-013  0.7246160E+02  0.7816164E-02  0.1226708E+00
        -11   -1    0    0    0    0  0.00000000000E+00  0.00000000000E+00  0.45593999997E+02  0.45594000000E+02  0.51100000000E-03 0.  1.
         11   -1    0    0    0    0 -0.00000000000E+00 -0.00000000000E+00 -0.45593999997E+02  0.45594000000E+02  0.51100000000E-03 0. -1.
    9900012    2    1    2    0    0  0.11231512389E+02  0.50661132385E+01  0.14101967818E+02  0.72461604986E+02  0.70000045193E+02 0.  0.
         12    1    1    2    0    0 -0.11231512389E+02 -0.50661132385E+01 -0.14101967818E+02  0.18726395014E+02  0.00000000000E+00 0. -1.
         11    1    3    3    0    0  0.11131323004E+02  0.14274605918E+02 -0.34466523409E+01  0.18426886296E+02  0.51100000000E-03 0. -1.
        -11    1    3    3    0    0 -0.85335705368E+01  0.18091391955E+02  0.15543121720E+02  0.25331974302E+02  0.51100000000E-03 0.  1.
         12    1    3    3    0    0  0.86337599213E+01 -0.27299884635E+02  0.20054984388E+01  0.28702744389E+02  0.00000000000E+00 0. -1.
</event>
<event>
 7    1  0.3348003E-013  0.7246096E+02  0.7816164E-02  0.1226710E+00
        -11   -1    0    0    0    0  0.00000000000E+00  0.00000000000E+00  0.45593999997E+02  0.45594000000E+02  0.51100000000E-03 0. -1.
         11   -1    0    0    0    0 -0.00000000000E+00 -0.00000000000E+00 -0.45593999997E+02  0.45594000000E+02  0.51100000000E-03 0.  1.
    9900012    2    1    2    0    0 -0.54692329288E+01 -0.44922268023E+01 -0.17338089047E+02  0.72460962266E+02  0.69999207926E+02 0.  0.
         12    1    1    2    0    0  0.54692329288E+01  0.44922268023E+01  0.17338089047E+02  0.18727037734E+02  0.00000000000E+00 0. -1.
         11    1    3    3    0    0 -0.72390491198E+01 -0.56533896659E+01  0.59749422104E+01  0.10957398485E+02  0.51100000000E-03 0. -1.
        -11    1    3    3    0    0  0.35450392121E+01 -0.25300660929E+02 -0.23887904325E+02  0.34976030646E+02  0.51100000000E-03 0.  1.
         12    1    3    3    0    0 -0.17752230210E+01  0.26461823793E+02  0.57487306736E+00  0.26527533135E+02  0.00000000000E+00 0. -1.
</event>
<event>
 7    1  0.3348003E-013  0.7246164E+02  0.7816164E-02  0.1226708E+00
        -11   -1    0    0    0    0  0.00000000000E+00  0.00000000000E+00  0.45593999997E+02  0.45594000000E+02  0.51100000000E-03 0.  1.
         11   -1    0    0    0    0 -0.00000000000E+00 -0.00000000000E+00 -0.45593999997E+02  0.45594000000E+02  0.51100000000E-03 0. -1.
    9900012    2    1    2    0    0 -0.14220901408E+01 -0.16777121332E+02 -0.81964797723E+01  0.72461643675E+02  0.70000095592E+02 0.  0.
         12    1    1    2    0    0  0.14220901408E+01  0.16777121332E+02  0.81964797723E+01  0.18726356325E+02  0.00000000000E+00 0. -1.
         11    1    3    3    0    0 -0.16183203225E+02  0.10792786129E+02  0.26014703278E+01  0.19625186551E+02  0.51100000000E-03 0. -1.
        -11    1    3    3    0    0  0.16168754288E+02 -0.49476166419E+01  0.11964424932E+02  0.20713642603E+02  0.51100000000E-03 0.  1.
         12    1    3    3    0    0 -0.14076412036E+01 -0.22622290819E+02 -0.22762375032E+02  0.32122814521E+02  0.00000000000E+00 0. -1.
</event>
<event>
 7    1  0.3348003E-013  0.7246157E+02  0.7816164E-02  0.1226708E+00
        -11   -1    0    0    0    0  0.00000000000E+00  0.00000000000E+00  0.45593999997E+02  0.45594000000E+02  0.51100000000E-03 0.  1.
         11   -1    0    0    0    0 -0.00000000000E+00 -0.00000000000E+00 -0.45593999997E+02  0.45594000000E+02  0.51100000000E-03 0. -1.
    9900012    2    1    2    0    0  0.21678470002E+00  0.17304094873E+02 -0.71554499082E+01  0.72461570592E+02  0.70000000388E+02 0.  0.
         12    1    1    2    0    0 -0.21678470002E+00 -0.17304094873E+02  0.71554499082E+01  0.18726429408E+02  0.00000000000E+00 0. -1.
         11    1    3    3    0    0 -0.16358947768E+02 -0.47293255472E+01 -0.21149333772E+02  0.27152826952E+02  0.51100000000E-03 0. -1.
        -11    1    3    3    0    0  0.13751757335E+02 -0.12019915609E+01 -0.54883562130E+01  0.14855223583E+02  0.51100000000E-03 0.  1.
         12    1    3    3    0    0  0.28239751332E+01  0.23235411981E+02  0.19482240077E+02  0.30453520058E+02  0.00000000000E+00 0. -1.
</event>
<event>
 7    1  0.3348003E-013  0.7246154E+02  0.7816164E-02  0.1226708E+00
        -11   -1    0    0    0    0  0.00000000000E+00  0.00000000000E+00  0.45593999997E+02  0.45594000000E+02  0.51100000000E-03 0. -1.
         11   -1    0    0    0    0 -0.00000000000E+00 -0.00000000000E+00 -0.45593999997E+02  0.45594000000E+02  0.51100000000E-03 0.  1.
    9900012    2    1    2    0    0 -0.17135908763E+02 -0.56781311344E+01 -0.49799216065E+01  0.72461543808E+02  0.69999965496E+02 0.  0.
         12    1    1    2    0    0  0.17135908763E+02  0.56781311344E+01  0.49799216065E+01  0.18726456192E+02  0.00000000000E+00 0. -1.
         11    1    3    3    0    0  0.56922209045E+01 -0.11154203703E+01  0.11045277637E+02  0.12475724419E+02  0.51100000000E-03 0. -1.
        -11    1    3    3    0    0 -0.30471368683E+00  0.22335270317E+02 -0.96304389729E+01  0.24324935881E+02  0.51100000000E-03 0.  1.
        -12    1    3    3    0    0 -0.22523415981E+02 -0.26897981081E+02 -0.63947602708E+01  0.35660883508E+02  0.00000000000E+00 0.  1.
</event>
<event>
 7    1  0.3348003E-013  0.7246154E+02  0.7816164E-02  0.1226708E+00
        -11   -1    0    0    0    0  0.00000000000E+00  0.00000000000E+00  0.45593999997E+02  0.45594000000E+02  0.51100000000E-03 0. -1.
         11   -1    0    0    0    0 -0.00000000000E+00 -0.00000000000E+00 -0.45593999997E+02  0.45594000000E+02  0.51100000000E-03 0.  1.
    9900012    2    1    2    0    0  0.13383168609E+02  0.81977059210E+01 -0.10216103099E+02  0.72461538857E+02  0.69999959048E+02 0.  0.
         12    1    1    2    0    0 -0.13383168609E+02 -0.81977059210E+01  0.10216103099E+02  0.18726461143E+02  0.00000000000E+00 0. -1.
         11    1    3    3    0    0 -0.22117245865E+02  0.17838756148E+02 -0.27196507770E+01  0.28544531634E+02  0.51100000000E-03 0. -1.
        -11    1    3    3    0    0  0.65393456082E+00 -0.31982358987E+01  0.53131075685E+01  0.62358203605E+01  0.51100000000E-03 0.  1.
        -12    1    3    3    0    0  0.34846479914E+02 -0.64428143287E+01 -0.12809559890E+02  0.37681186863E+02  0.00000000000E+00 0.  1.
</event>
<event>
 7    1  0.3348003E-013  0.7246149E+02  0.7816164E-02  0.1226708E+00
        -11   -1    0    0    0    0  0.00000000000E+00  0.00000000000E+00  0.45593999997E+02  0.45594000000E+02  0.51100000000E-03 0.  1.
         11   -1    0    0    0    0 -0.00000000000E+00 -0.00000000000E+00 -0.45593999997E+02  0.45594000000E+02  0.51100000000E-03 0. -1.
    9900012    2    1    2    0    0 -0.17507819931E+02 -0.12531538765E+00  0.66439979850E+01  0.72461490130E+02  0.69999895571E+02 0.  0.
         12    1    1    2    0    0  0.17507819931E+02  0.12531538765E+00 -0.66439979850E+01  0.18726509870E+02  0.00000000000E+00 0. -1.
         11    1    3    3    0    0  0.17345069579E+02  0.10007789334E+02  0.22024702113E+01  0.20145921705E+02  0.51100000000E-03 0. -1.
        -11    1    3    3    0    0  0.42653439862E+01  0.79044966481E+01  0.17821671401E+01  0.91569834856E+01  0.51100000000E-03 0.  1.
        -12    1    3    3    0    0 -0.39118233496E+02 -0.18037601369E+02  0.26593606335E+01  0.43158584940E+02  0.00000000000E+00 0.  1.
</event>
<event>
 7    1  0.3348003E-013  0.7246155E+02  0.7816164E-02  0.1226708E+00
        -11   -1    0    0    0    0  0.00000000000E+00  0.00000000000E+00  0.45593999997E+02  0.45594000000E+02  0.51100000000E-03 0.  1.
         11   -1    0    0    0    0 -0.00000000000E+00 -0.00000000000E+00 -0.45593999997E+02  0.45594000000E+02  0.51100000000E-03 0. -1.
    9900012    2    1    2    0    0 -0.18582861388E+02  0.11063011396E+01 -0.20330350830E+01  0.72461551559E+02  0.69999975594E+02 0.  0.
         12    1    1    2    0    0  0.18582861388E+02 -0.11063011396E+01  0.20330350830E+01  0.18726448441E+02  0.00000000000E+00 0. -1.
         11    1    3    3    0    0  0.37974267660E+01 -0.25179016715E+01  0.68934009484E+00  0.46081958398E+01  0.51100000000E-03 0. -1.
        -11    1    3    3    0    0  0.18988940646E+02 -0.79891561060E+01 -0.12074669288E+02  0.23878947230E+02  0.51100000000E-03 0.  1.
        -12    1    3    3    0    0 -0.41369228800E+02  0.11613358917E+02  0.93522941102E+01  0.43974408489E+02  0.00000000000E+00 0.  1.
</event>
<event>
 7    1  0.3348003E-013  0.7246158E+02  0.7816164E-02  0.1226708E+00
        -11   -1    0    0    0    0  0.00000000000E+00  0.00000000000E+00  0.45593999997E+02  0.45594000000E+02  0.51100000000E-03 0.  1.
         11   -1    0    0    0    0 -0.00000000000E+00 -0.00000000000E+00 -0.45593999997E+02  0.45594000000E+02  0.51100000000E-03 0. -1.
    9900012    2    1    2    0    0 -0.12278946381E+02  0.13731087837E+02  0.33710052571E+01  0.72461575519E+02  0.70000006806E+02 0.  0.
         12    1    1    2    0    0  0.12278946381E+02 -0.13731087837E+02 -0.33710052571E+01  0.18726424481E+02  0.00000000000E+00 0. -1.
         11    1    3    3    0    0 -0.55688308222E+01  0.99928929055E+01 -0.23044760684E+02  0.25728015481E+02  0.51100000000E-03 0. -1.
        -11    1    3    3    0    0  0.72801851959E+01 -0.85263222639E+01 -0.32883535838E+01  0.11683857984E+02  0.51100000000E-03 0.  1.
         12    1    3    3    0    0 -0.13990300755E+02  0.12264517195E+02  0.29704119525E+02  0.35049702053E+02  0.00000000000E+00 0. -1.
</event>
<event>
 7    1  0.3348003E-013  0.7246120E+02  0.7816164E-02  0.1226709E+00
        -11   -1    0    0    0    0  0.00000000000E+00  0.00000000000E+00  0.45593999997E+02  0.45594000000E+02  0.51100000000E-03 0. -1.
         11   -1    0    0    0    0 -0.00000000000E+00 -0.00000000000E+00 -0.45593999997E+02  0.45594000000E+02  0.51100000000E-03 0.  1.
    9900012    2    1    2    0    0  0.58884973870E+00 -0.15878390989E+02 -0.99107542562E+01  0.72461198502E+02  0.69999515669E+02 0.  0.
         12    1    1    2    0    0 -0.58884973870E+00  0.15878390989E+02  0.99107542562E+01  0.18726801498E+02  0.00000000000E+00 0. -1.
         11    1    3    3    0    0  0.27519306912E+01 -0.23337329479E+01 -0.13094234713E+01  0.38384921636E+01  0.51100000000E-03 0. -1.
        -11    1    3    3    0    0  0.10802318511E+02 -0.28561332902E+02 -0.27594821316E+02  0.41157186324E+02  0.51100000000E-03 0.  1.
         12    1    3    3    0    0 -0.12965399464E+02  0.15016674860E+02  0.18993490531E+02  0.27465520015E+02  0.00000000000E+00 0. -1.
</event>
<event>
 7    1  0.3348003E-013  0.7246157E+02  0.7816164E-02  0.1226708E+00
        -11   -1    0    0    0    0  0.00000000000E+00  0.00000000000E+00  0.45593999997E+02  0.45594000000E+02  0.51100000000E-03 0.  1.
         11   -1    0    0    0    0 -0.00000000000E+00 -0.00000000000E+00 -0.45593999997E+02  0.45594000000E+02  0.51100000000E-03 0. -1.
    9900012    2    1    2    0    0 -0.16876282953E+02 -0.66279498872E+01 -0.46840901651E+01  0.72461565564E+02  0.69999993837E+02 0.  0.
         12    1    1    2    0    0  0.16876282953E+02  0.66279498872E+01  0.46840901651E+01  0.18726434436E+02  0.00000000000E+00 0. -1.
         11    1    3    3    0    0 -0.76823159141E+01 -0.23168022615E+02 -0.21953787643E+02  0.32829012197E+02  0.51100000000E-03 0. -1.
        -11    1    3    3    0    0 -0.10249272828E+02 -0.61113028408E+01  0.15329219309E+01  0.12031020980E+02  0.51100000000E-03 0.  1.
        -12    1    3    3    0    0  0.10553057892E+01  0.22651375569E+02  0.15736775547E+02  0.27601532386E+02  0.00000000000E+00 0.  1.
</event>
<event>
 7    1  0.3348003E-013  0.7246157E+02  0.7816164E-02  0.1226708E+00
        -11   -1    0    0    0    0  0.00000000000E+00  0.00000000000E+00  0.45593999997E+02  0.45594000000E+02  0.51100000000E-03 0.  1.
         11   -1    0    0    0    0 -0.00000000000E+00 -0.00000000000E+00 -0.45593999997E+02  0.45594000000E+02  0.51100000000E-03 0. -1.
    9900012    2    1    2    0    0 -0.15720539734E+02  0.10168911095E+02 -0.37027155845E+00  0.72461568856E+02  0.69999998126E+02 0.  0.
         12    1    1    2    0    0  0.15720539734E+02 -0.10168911095E+02  0.37027155845E+00  0.18726431144E+02  0.00000000000E+00 0. -1.
         11    1    3    3    0    0  0.18286160539E+01  0.12609387185E+01  0.87277428047E+01  0.90059590189E+01  0.51100000000E-03 0. -1.
        -11    1    3    3    0    0 -0.31078714292E+02  0.22060331382E+02  0.68827183189E+01  0.38728755653E+02  0.51100000000E-03 0.  1.
         12    1    3    3    0    0  0.13529558505E+02 -0.13152359006E+02 -0.15980732682E+02  0.24726854183E+02  0.00000000000E+00 0. -1.
</event>
<event>
 7    1  0.3348003E-013  0.7246152E+02  0.7816164E-02  0.1226708E+00
        -11   -1    0    0    0    0  0.00000000000E+00  0.00000000000E+00  0.45593999997E+02  0.45594000000E+02  0.51100000000E-03 0.  1.
         11   -1    0    0    0    0 -0.00000000000E+00 -0.00000000000E+00 -0.45593999997E+02  0.45594000000E+02  0.51100000000E-03 0. -1.
    9900012    2    1    2    0    0 -0.75958949480E+00  0.11405931276E+02  0.14832696345E+02  0.72461518074E+02  0.69999931973E+02 0.  0.
         12    1    1    2    0    0  0.75958949480E+00 -0.11405931276E+02 -0.14832696345E+02  0.18726481926E+02  0.00000000000E+00 0. -1.
         11    1    3    3    0    0 -0.18473712434E+01  0.47794049346E+01  0.58400198223E+01  0.77692550368E+01  0.51100000000E-03 0.  1.
        -11    1    3    3    0    0  0.25252273229E+02  0.13178113849E+02  0.22450210664E+02  0.36267781115E+02  0.51100000000E-03 0. -1.
         12    1    3    3    0    0 -0.24164491481E+02 -0.65515875074E+01 -0.13457534142E+02  0.28424481922E+02  0.00000000000E+00 0. -1.
</event>
<event>
 7    1  0.3348003E-013  0.7246156E+02  0.7816164E-02  0.1226708E+00
        -11   -1    0    0    0    0  0.00000000000E+00  0.00000000000E+00  0.45593999997E+02  0.45594000000E+02  0.51100000000E-03 0. -1.
         11   -1    0    0    0    0 -0.00000000000E+00 -0.00000000000E+00 -0.45593999997E+02  0.45594000000E+02  0.51100000000E-03 0.  1.
    9900012    2    1    2    0    0 -0.15098413260E+02 -0.13521554768E+01 -0.10994959195E+02  0.72461560533E+02  0.69999987284E+02 0.  0.
         12    1    1    2    0    0  0.15098413260E+02  0.13521554768E+01  0.10994959195E+02  0.18726439467E+02  0.00000000000E+00 0. -1.
         11    1    3    3    0    0  0.13213935658E+02  0.37192400433E+00  0.14072940670E+02  0.19307876175E+02  0.51100000000E-03 0. -1.
        -11    1    3    3    0    0 -0.43286160793E+01 -0.16220528080E+02 -0.20983298827E+01  0.16918789464E+02  0.51100000000E-03 0.  1.
        -12    1    3    3    0    0 -0.23983732838E+02  0.14496448599E+02 -0.22969569982E+02  0.36234894894E+02  0.00000000000E+00 0.  1.
</event>
<event>
 7    1  0.3348003E-013  0.7246160E+02  0.7816164E-02  0.1226708E+00
        -11   -1    0    0    0    0  0.00000000000E+00  0.00000000000E+00  0.45593999997E+02  0.45594000000E+02  0.51100000000E-03 0. -1.
         11   -1    0    0    0    0 -0.00000000000E+00 -0.00000000000E+00 -0.45593999997E+02  0.45594000000E+02  0.51100000000E-03 0.  1.
    9900012    2    1    2    0    0 -0.11884100849E+02  0.77477122751E+01 -0.12223709128E+02  0.72461602500E+02  0.70000041954E+02 0.  0.
         12    1    1    2    0    0  0.11884100849E+02 -0.77477122751E+01  0.12223709128E+02  0.18726397500E+02  0.00000000000E+00 0. -1.
         11    1    3    3    0    0 -0.43109287005E+00  0.82980064243E+01 -0.38745307896E-01  0.83092871620E+01  0.51100000000E-03 0. -1.
        -11    1    3    3    0    0 -0.36023779367E+02  0.80236903684E+01 -0.84546537941E+01  0.37862560109E+02  0.51100000000E-03 0.  1.
         12    1    3    3    0    0  0.24570771388E+02 -0.85739845175E+01 -0.37303100257E+01  0.26289755229E+02  0.00000000000E+00 0. -1.
</event>
<event>
 7    1  0.3348003E-013  0.7246157E+02  0.7816164E-02  0.1226708E+00
        -11   -1    0    0    0    0  0.00000000000E+00  0.00000000000E+00  0.45593999997E+02  0.45594000000E+02  0.51100000000E-03 0. -1.
         11   -1    0    0    0    0 -0.00000000000E+00 -0.00000000000E+00 -0.45593999997E+02  0.45594000000E+02  0.51100000000E-03 0.  1.
    9900012    2    1    2    0    0  0.38442464662E+01 -0.87633457628E+01 -0.16096733346E+02  0.72461567231E+02  0.69999996009E+02 0.  0.
         12    1    1    2    0    0 -0.38442464662E+01  0.87633457628E+01  0.16096733346E+02  0.18726432769E+02  0.00000000000E+00 0. -1.
         11    1    3    3    0    0  0.20541870282E+02  0.11957992415E+02  0.21488370847E+01  0.23865865129E+02  0.51100000000E-03 0. -1.
        -11    1    3    3    0    0 -0.24002531507E+01 -0.76053464512E+01  0.10946767064E+02  0.13543788954E+02  0.51100000000E-03 0.  1.
        -12    1    3    3    0    0 -0.14297370665E+02 -0.13115991727E+02 -0.29192337494E+02  0.35051913147E+02  0.00000000000E+00 0.  1.
</event>
<event>
 7    1  0.3348003E-013  0.7246157E+02  0.7816164E-02  0.1226708E+00
        -11   -1    0    0    0    0  0.00000000000E+00  0.00000000000E+00  0.45593999997E+02  0.45594000000E+02  0.51100000000E-03 0.  1.
         11   -1    0    0    0    0 -0.00000000000E+00 -0.00000000000E+00 -0.45593999997E+02  0.45594000000E+02  0.51100000000E-03 0. -1.
    9900012    2    1    2    0    0 -0.12081851502E+02  0.13449142031E+02  0.48814441012E+01  0.72461573389E+02  0.70000004032E+02 0.  0.
         12    1    1    2    0    0  0.12081851502E+02 -0.13449142031E+02 -0.48814441012E+01  0.18726426611E+02  0.00000000000E+00 0. -1.
         11    1    3    3    0    0  0.71515309074E+01 -0.48190578606E+01 -0.86683201279E+01  0.12227325426E+02  0.51100000000E-03 0. -1.
        -11    1    3    3    0    0  0.17383329449E+02  0.12968088325E+02  0.53697128280E+01  0.22342454513E+02  0.51100000000E-03 0.  1.
        -12    1    3    3    0    0 -0.36616711858E+02  0.53001115672E+01  0.81800514010E+01  0.37891793450E+02  0.00000000000E+00 0.  1.
</event>
<event>
 7    1  0.3348003E-013  0.7246156E+02  0.7816164E-02  0.1226708E+00
        -11   -1    0    0    0    0  0.00000000000E+00  0.00000000000E+00  0.45593999997E+02  0.45594000000E+02  0.51100000000E-03 0. -1.
         11   -1    0    0    0    0 -0.00000000000E+00 -0.00000000000E+00 -0.45593999997E+02  0.45594000000E+02  0.51100000000E-03 0.  1.
    9900012    2    1    2    0    0  0.86513412049E+01  0.16381209214E+02  0.27367744564E+01  0.72461557349E+02  0.69999983136E+02 0.  0.
         12    1    1    2    0    0 -0.86513412049E+01 -0.16381209214E+02 -0.27367744564E+01  0.18726442651E+02  0.00000000000E+00 0. -1.
         11    1    3    3    0    0  0.20920397415E+02 -0.74660798773E+01  0.76262569506E+01  0.23485424673E+02  0.51100000000E-03 0. -1.
        -11    1    3    3    0    0 -0.18048269510E+02 -0.29200590194E+01 -0.10413184118E+02  0.21040465316E+02  0.51100000000E-03 0.  1.
        -12    1    3    3    0    0  0.57792133002E+01  0.26767348110E+02  0.55237016235E+01  0.27935667360E+02  0.00000000000E+00 0.  1.
</event>
<event>
 7    1  0.3348003E-013  0.7246157E+02  0.7816164E-02  0.1226708E+00
        -11   -1    0    0    0    0  0.00000000000E+00  0.00000000000E+00  0.45593999997E+02  0.45594000000E+02  0.51100000000E-03 0. -1.
         11   -1    0    0    0    0 -0.00000000000E+00 -0.00000000000E+00 -0.45593999997E+02  0.45594000000E+02  0.51100000000E-03 0.  1.
    9900012    2    1    2    0    0 -0.11766606831E+02  0.40790366323E+01 -0.13985265301E+02  0.72461568901E+02  0.69999998185E+02 0.  0.
         12    1    1    2    0    0  0.11766606831E+02 -0.40790366323E+01  0.13985265301E+02  0.18726431099E+02  0.00000000000E+00 0. -1.
         11    1    3    3    0    0 -0.39791498610E+01  0.29672981136E+01  0.20916848724E+02  0.21497745290E+02  0.51100000000E-03 0. -1.
        -11    1    3    3    0    0  0.21639714539E+01  0.51752861613E+01  0.62691958122E+01  0.84124417203E+01  0.51100000000E-03 0.  1.
        -12    1    3    3    0    0 -0.99514284237E+01 -0.40635476426E+01 -0.41171309838E+02  0.42551381891E+02  0.00000000000E+00 0.  1.
</event>
<event>
 7    1  0.3348003E-013  0.7246163E+02  0.7816164E-02  0.1226708E+00
        -11   -1    0    0    0    0  0.00000000000E+00  0.00000000000E+00  0.45593999997E+02  0.45594000000E+02  0.51100000000E-03 0.  1.
         11   -1    0    0    0    0 -0.00000000000E+00 -0.00000000000E+00 -0.45593999997E+02  0.45594000000E+02  0.51100000000E-03 0. -1.
    9900012    2    1    2    0    0 -0.10600670742E+02  0.14946658053E+02  0.38600742197E+01  0.72461628752E+02  0.70000076152E+02 0.  0.
         12    1    1    2    0    0  0.10600670742E+02 -0.14946658053E+02 -0.38600742197E+01  0.18726371248E+02  0.00000000000E+00 0. -1.
         11    1    3    3    0    0 -0.11265106848E+02  0.94042853212E+01  0.10515106414E+02  0.18052996368E+02  0.51100000000E-03 0.  1.
        -11    1    3    3    0    0  0.16138346019E+02 -0.14482798870E+02 -0.16506331420E+02  0.27251727515E+02  0.51100000000E-03 0. -1.
         12    1    3    3    0    0 -0.15473909913E+02  0.20025171601E+02  0.98512992256E+01  0.27156904870E+02  0.00000000000E+00 0. -1.
</event>
<event>
 7    1  0.3348003E-013  0.7246156E+02  0.7816164E-02  0.1226708E+00
        -11   -1    0    0    0    0  0.00000000000E+00  0.00000000000E+00  0.45593999997E+02  0.45594000000E+02  0.51100000000E-03 0. -1.
         11   -1    0    0    0    0 -0.00000000000E+00 -0.00000000000E+00 -0.45593999997E+02  0.45594000000E+02  0.51100000000E-03 0.  1.
    9900012    2    1    2    0    0 -0.67146632615E+01 -0.63939385707E+00 -0.17469511828E+02  0.72461564922E+02  0.69999993002E+02 0.  0.
         12    1    1    2    0    0  0.67146632615E+01  0.63939385707E+00  0.17469511828E+02  0.18726435078E+02  0.00000000000E+00 0. -1.
         11    1    3    3    0    0  0.11055815396E+02  0.12156032936E+01 -0.16319474767E+02  0.19749278528E+02  0.51100000000E-03 0. -1.
        -11    1    3    3    0    0  0.10483789597E+02  0.20213540105E+01 -0.17007558672E+02  0.20081154563E+02  0.51100000000E-03 0.  1.
         12    1    3    3    0    0 -0.28254268255E+02 -0.38763511611E+01  0.15857521611E+02  0.32631131831E+02  0.00000000000E+00 0. -1.
</event>
<event>
 7    1  0.3348003E-013  0.7246155E+02  0.7816164E-02  0.1226708E+00
        -11   -1    0    0    0    0  0.00000000000E+00  0.00000000000E+00  0.45593999997E+02  0.45594000000E+02  0.51100000000E-03 0.  1.
         11   -1    0    0    0    0 -0.00000000000E+00 -0.00000000000E+00 -0.45593999997E+02  0.45594000000E+02  0.51100000000E-03 0. -1.
    9900012    2    1    2    0    0 -0.29629971298E+01 -0.11728503491E+02  0.14294846262E+02  0.72461554107E+02  0.69999978913E+02 0.  0.
         12    1    1    2    0    0  0.29629971298E+01  0.11728503491E+02 -0.14294846262E+02  0.18726445893E+02  0.00000000000E+00 0. -1.
         11    1    3    3    0    0 -0.21695877034E+02  0.65375090830E+00  0.12751349946E+02  0.25174101697E+02  0.51100000000E-03 0. -1.
        -11    1    3    3    0    0  0.87030852943E+00  0.49860433854E+01  0.17154909214E+02  0.17885999440E+02  0.51100000000E-03 0.  1.
         12    1    3    3    0    0  0.17862571375E+02 -0.17368297785E+02 -0.15611412897E+02  0.29401452970E+02  0.00000000000E+00 0. -1.
</event>
<event>
 7    1  0.3348003E-013  0.7246159E+02  0.7816164E-02  0.1226708E+00
        -11   -1    0    0    0    0  0.00000000000E+00  0.00000000000E+00  0.45593999997E+02  0.45594000000E+02  0.51100000000E-03 0.  1.
         11   -1    0    0    0    0 -0.00000000000E+00 -0.00000000000E+00 -0.45593999997E+02  0.45594000000E+02  0.51100000000E-03 0. -1.
    9900012    2    1    2    0    0  0.14809518967E+02  0.11221004046E+02 -0.23336014955E+01  0.72461588711E+02  0.70000023991E+02 0.  0.
         12    1    1    2    0    0 -0.14809518967E+02 -0.11221004046E+02  0.23336014955E+01  0.18726411289E+02  0.00000000000E+00 0. -1.
         11    1    3    3    0    0 -0.11689422887E+02  0.13119712651E+02 -0.53358136336E+01  0.18364105611E+02  0.51100000000E-03 0. -1.
        -11    1    3    3    0    0 -0.49960620257E+01  0.16704222835E+02  0.95098204626E+00  0.17461273247E+02  0.51100000000E-03 0.  1.
        -12    1    3    3    0    0  0.31495003879E+02 -0.18602931441E+02  0.20512300918E+01  0.36636209853E+02  0.00000000000E+00 0.  1.
</event>
<event>
 7    1  0.3348003E-013  0.7246156E+02  0.7816164E-02  0.1226708E+00
        -11   -1    0    0    0    0  0.00000000000E+00  0.00000000000E+00  0.45593999997E+02  0.45594000000E+02  0.51100000000E-03 0.  1.
         11   -1    0    0    0    0 -0.00000000000E+00 -0.00000000000E+00 -0.45593999997E+02  0.45594000000E+02  0.51100000000E-03 0. -1.
    9900012    2    1    2    0    0 -0.16244362100E+01 -0.18638463243E+02  0.80516395736E+00  0.72461564300E+02  0.69999992191E+02 0.  0.
         12    1    1    2    0    0  0.16244362100E+01  0.18638463243E+02 -0.80516395736E+00  0.18726435700E+02  0.00000000000E+00 0. -1.
         11    1    3    3    0    0  0.98734194192E+01 -0.81092931554E+01  0.50854505989E+01  0.13751612799E+02  0.51100000000E-03 0. -1.
        -11    1    3    3    0    0 -0.16269698127E+02  0.20653739601E+02  0.26064281733E+01  0.26421080688E+02  0.51100000000E-03 0.  1.
         12    1    3    3    0    0  0.47718424983E+01 -0.31182909688E+02 -0.68867148148E+01  0.32288870813E+02  0.00000000000E+00 0. -1.
</event>
<event>
 7    1  0.3348003E-013  0.7246155E+02  0.7816164E-02  0.1226708E+00
        -11   -1    0    0    0    0  0.00000000000E+00  0.00000000000E+00  0.45593999997E+02  0.45594000000E+02  0.51100000000E-03 0. -1.
         11   -1    0    0    0    0 -0.00000000000E+00 -0.00000000000E+00 -0.45593999997E+02  0.45594000000E+02  0.51100000000E-03 0.  1.
    9900012    2    1    2    0    0  0.11838222779E+02  0.94681562155E+01 -0.10995012379E+02  0.72461553516E+02  0.69999978144E+02 0.  0.
         12    1    1    2    0    0 -0.11838222779E+02 -0.94681562155E+01  0.10995012379E+02  0.18726446484E+02  0.00000000000E+00 0. -1.
         11    1    3    3    0    0  0.79705901788E+01  0.49408122236E+01  0.64086773806E+01  0.11358392459E+02  0.51100000000E-03 0. -1.
        -11    1    3    3    0    0  0.24747882755E+02 -0.11512130967E+02  0.34552947158E+01  0.27512286748E+02  0.51100000000E-03 0.  1.
         12    1    3    3    0    0 -0.20880250155E+02  0.16039474959E+02 -0.20858984475E+02  0.33590874309E+02  0.00000000000E+00 0. -1.
</event>
<event>
 7    1  0.3348003E-013  0.7246161E+02  0.7816164E-02  0.1226708E+00
        -11   -1    0    0    0    0  0.00000000000E+00  0.00000000000E+00  0.45593999997E+02  0.45594000000E+02  0.51100000000E-03 0.  1.
         11   -1    0    0    0    0 -0.00000000000E+00 -0.00000000000E+00 -0.45593999997E+02  0.45594000000E+02  0.51100000000E-03 0. -1.
    9900012    2    1    2    0    0  0.12683433377E+01 -0.11936077388E+02  0.14373559806E+02  0.72461605266E+02  0.70000045557E+02 0.  0.
         12    1    1    2    0    0 -0.12683433377E+01  0.11936077388E+02 -0.14373559806E+02  0.18726394734E+02  0.00000000000E+00 0. -1.
         11    1    3    3    0    0  0.20422404476E+01 -0.50533505413E+01 -0.91538792119E+01  0.10653666159E+02  0.51100000000E-03 0. -1.
        -11    1    3    3    0    0 -0.16206432548E+02 -0.78126306420E+01  0.37101840182E+02  0.41233871982E+02  0.51100000000E-03 0.  1.
         12    1    3    3    0    0  0.15432535438E+02  0.92990379585E+00 -0.13574401164E+02  0.20574067125E+02  0.00000000000E+00 0. -1.
</event>
<event>
 7    1  0.3348003E-013  0.7246173E+02  0.7816164E-02  0.1226708E+00
        -11   -1    0    0    0    0  0.00000000000E+00  0.00000000000E+00  0.45593999997E+02  0.45594000000E+02  0.51100000000E-03 0. -1.
         11   -1    0    0    0    0 -0.00000000000E+00 -0.00000000000E+00 -0.45593999997E+02  0.45594000000E+02  0.51100000000E-03 0.  1.
    9900012    2    1    2    0    0  0.10014439289E+02 -0.11982204400E+02 -0.10334946414E+02  0.72461726107E+02  0.70000202974E+02 0.  0.
         12    1    1    2    0    0 -0.10014439289E+02  0.11982204400E+02  0.10334946414E+02  0.18726273893E+02  0.00000000000E+00 0. -1.
         11    1    3    3    0    0 -0.28643097063E+01 -0.23856177354E+02  0.14216984958E+02  0.27918526637E+02  0.51100000000E-03 0. -1.
        -11    1    3    3    0    0  0.10948157219E+02 -0.81836969064E+01 -0.12330699799E+01  0.13724266953E+02  0.51100000000E-03 0.  1.
         12    1    3    3    0    0  0.19305917761E+01  0.20057669861E+02 -0.23318861392E+02  0.30818932517E+02  0.00000000000E+00 0. -1.
</event>
<event>
 7    1  0.3348003E-013  0.7246156E+02  0.7816164E-02  0.1226708E+00
        -11   -1    0    0    0    0  0.00000000000E+00  0.00000000000E+00  0.45593999997E+02  0.45594000000E+02  0.51100000000E-03 0. -1.
         11   -1    0    0    0    0 -0.00000000000E+00 -0.00000000000E+00 -0.45593999997E+02  0.45594000000E+02  0.51100000000E-03 0.  1.
    9900012    2    1    2    0    0 -0.10792373703E+02  0.11852831810E+02  0.96806395711E+01  0.72461555208E+02  0.69999980347E+02 0.  0.
         12    1    1    2    0    0  0.10792373703E+02 -0.11852831810E+02 -0.96806395711E+01  0.18726444792E+02  0.00000000000E+00 0. -1.
         11    1    3    3    0    0 -0.84799597935E+01  0.16314491008E+01  0.61099241553E+01  0.10578398636E+02  0.51100000000E-03 0. -1.
        -11    1    3    3    0    0 -0.25889308074E+02 -0.90668218106E+01 -0.90862061114E+01  0.28896758850E+02  0.51100000000E-03 0.  1.
         12    1    3    3    0    0  0.23576894165E+02  0.19288204520E+02  0.12656921527E+02  0.32986397721E+02  0.00000000000E+00 0. -1.
</event>
<event>
 7    1  0.3348003E-013  0.7246158E+02  0.7816164E-02  0.1226708E+00
        -11   -1    0    0    0    0  0.00000000000E+00  0.00000000000E+00  0.45593999997E+02  0.45594000000E+02  0.51100000000E-03 0.  1.
         11   -1    0    0    0    0 -0.00000000000E+00 -0.00000000000E+00 -0.45593999997E+02  0.45594000000E+02  0.51100000000E-03 0. -1.
    9900012    2    1    2    0    0 -0.17641363376E+01 -0.11281437259E+02  0.14842367414E+02  0.72461578182E+02  0.70000010275E+02 0.  0.
         12    1    1    2    0    0  0.17641363376E+01  0.11281437259E+02 -0.14842367414E+02  0.18726421818E+02  0.00000000000E+00 0. -1.
         11    1    3    3    0    0 -0.67612594885E+01 -0.19020358080E+02  0.23398592682E+01  0.20321505678E+02  0.51100000000E-03 0. -1.
        -11    1    3    3    0    0 -0.51773016972E+01 -0.19712423691E+02  0.10152659710E+02  0.22769729908E+02  0.51100000000E-03 0.  1.
         12    1    3    3    0    0  0.10174424848E+02  0.27451344512E+02  0.23498484363E+01  0.29370342596E+02  0.00000000000E+00 0. -1.
</event>
<event>
 7    1  0.3348003E-013  0.7246159E+02  0.7816164E-02  0.1226708E+00
        -11   -1    0    0    0    0  0.00000000000E+00  0.00000000000E+00  0.45593999997E+02  0.45594000000E+02  0.51100000000E-03 0.  1.
         11   -1    0    0    0    0 -0.00000000000E+00 -0.00000000000E+00 -0.45593999997E+02  0.45594000000E+02  0.51100000000E-03 0. -1.
    9900012    2    1    2    0    0 -0.10790515214E+02  0.12544231538E+02  0.87684337184E+01  0.72461591018E+02  0.70000026997E+02 0.  0.
         12    1    1    2    0    0  0.10790515214E+02 -0.12544231538E+02 -0.87684337184E+01  0.18726408982E+02  0.00000000000E+00 0. -1.
         11    1    3    3    0    0 -0.75302627525E+01 -0.29294855199E+00  0.19227437964E+02  0.20651514397E+02  0.51100000000E-03 0. -1.
        -11    1    3    3    0    0 -0.91352920889E+00 -0.20849696643E+01  0.18770529094E+02  0.18908051112E+02  0.51100000000E-03 0.  1.
         12    1    3    3    0    0 -0.23467232530E+01  0.14922149755E+02 -0.29229533340E+02  0.32902025509E+02  0.00000000000E+00 0. -1.
</event>
<event>
 7    1  0.3348003E-013  0.7246155E+02  0.7816164E-02  0.1226708E+00
        -11   -1    0    0    0    0  0.00000000000E+00  0.00000000000E+00  0.45593999997E+02  0.45594000000E+02  0.51100000000E-03 0.  1.
         11   -1    0    0    0    0 -0.00000000000E+00 -0.00000000000E+00 -0.45593999997E+02  0.45594000000E+02  0.51100000000E-03 0. -1.
    9900012    2    1    2    0    0  0.18545627694E+02  0.17199517930E+01 -0.19445318478E+01  0.72461554933E+02  0.69999979989E+02 0.  0.
         12    1    1    2    0    0 -0.18545627694E+02 -0.17199517930E+01  0.19445318478E+01  0.18726445067E+02  0.00000000000E+00 0. -1.
         11    1    3    3    0    0  0.10958985527E+02 -0.11225802392E+02 -0.19087954723E+02  0.24707651019E+02  0.51100000000E-03 0. -1.
        -11    1    3    3    0    0 -0.96104159656E+01 -0.10346891869E+02  0.11599461142E+02  0.18274730243E+02  0.51100000000E-03 0.  1.
         12    1    3    3    0    0  0.17197058133E+02  0.23292646055E+02  0.55439617330E+01  0.29479173671E+02  0.00000000000E+00 0. -1.
</event>
<event>
 7    1  0.3348003E-013  0.7246158E+02  0.7816164E-02  0.1226708E+00
        -11   -1    0    0    0    0  0.00000000000E+00  0.00000000000E+00  0.45593999997E+02  0.45594000000E+02  0.51100000000E-03 0.  1.
         11   -1    0    0    0    0 -0.00000000000E+00 -0.00000000000E+00 -0.45593999997E+02  0.45594000000E+02  0.51100000000E-03 0. -1.
    9900012    2    1    2    0    0  0.30944071810E+01 -0.18467911920E+02 -0.19919049910E+00  0.72461580072E+02  0.70000012737E+02 0.  0.
         12    1    1    2    0    0 -0.30944071810E+01  0.18467911920E+02  0.19919049910E+00  0.18726419928E+02  0.00000000000E+00 0. -1.
         11    1    3    3    0    0  0.14110044647E+02 -0.27840645399E+01 -0.31232245825E+01  0.14717299595E+02  0.51100000000E-03 0. -1.
        -11    1    3    3    0    0  0.83371098937E+00 -0.17291932191E+02  0.26300500278E+02  0.31486859291E+02  0.51100000000E-03 0.  1.
         12    1    3    3    0    0 -0.11849348456E+02  0.16080848110E+01 -0.23376466194E+02  0.26257421186E+02  0.00000000000E+00 0. -1.
</event>
<event>
 7    1  0.3348003E-013  0.7246158E+02  0.7816164E-02  0.1226708E+00
        -11   -1    0    0    0    0  0.00000000000E+00  0.00000000000E+00  0.45593999997E+02  0.45594000000E+02  0.51100000000E-03 0. -1.
         11   -1    0    0    0    0 -0.00000000000E+00 -0.00000000000E+00 -0.45593999997E+02  0.45594000000E+02  0.51100000000E-03 0.  1.
    9900012    2    1    2    0    0  0.14769802226E+02 -0.70117071626E+01 -0.91305844027E+01  0.72461583721E+02  0.70000017491E+02 0.  0.
         12    1    1    2    0    0 -0.14769802226E+02  0.70117071626E+01  0.91305844027E+01  0.18726416279E+02  0.00000000000E+00 0. -1.
         11    1    3    3    0    0 -0.22278440432E+02  0.18731819590E+01 -0.63071927983E+01  0.23229687902E+02  0.51100000000E-03 0. -1.
        -11    1    3    3    0    0  0.58017821546E+01 -0.95915698141E+01 -0.12232407037E+02  0.16591885663E+02  0.51100000000E-03 0.  1.
        -12    1    3    3    0    0  0.31246460504E+02  0.70668069249E+00  0.94090154326E+01  0.32640010156E+02  0.00000000000E+00 0.  1.
</event>
<event>
 7    1  0.3348003E-013  0.7246153E+02  0.7816164E-02  0.1226708E+00
        -11   -1    0    0    0    0  0.00000000000E+00  0.00000000000E+00  0.45593999997E+02  0.45594000000E+02  0.51100000000E-03 0.  1.
         11   -1    0    0    0    0 -0.00000000000E+00 -0.00000000000E+00 -0.45593999997E+02  0.45594000000E+02  0.51100000000E-03 0. -1.
    9900012    2    1    2    0    0  0.41704305635E+01  0.23309453822E+01  0.18106763392E+02  0.72461530018E+02  0.69999947532E+02 0.  0.
         12    1    1    2    0    0 -0.41704305635E+01 -0.23309453822E+01 -0.18106763392E+02  0.18726469982E+02  0.00000000000E+00 0. -1.
         11    1    3    3    0    0 -0.61965238973E+01 -0.33360585911E+01  0.21127759306E+01  0.73477899893E+01  0.51100000000E-03 0. -1.
        -11    1    3    3    0    0 -0.98448261865E+01  0.91636387118E+01  0.34785653146E+02  0.37295234845E+02  0.51100000000E-03 0.  1.
         12    1    3    3    0    0  0.20211780647E+02 -0.34966347385E+01 -0.18791665685E+02  0.27818505183E+02  0.00000000000E+00 0. -1.
</event>
<event>
 7    1  0.3348003E-013  0.7246160E+02  0.7816164E-02  0.1226708E+00
        -11   -1    0    0    0    0  0.00000000000E+00  0.00000000000E+00  0.45593999997E+02  0.45594000000E+02  0.51100000000E-03 0. -1.
         11   -1    0    0    0    0 -0.00000000000E+00 -0.00000000000E+00 -0.45593999997E+02  0.45594000000E+02  0.51100000000E-03 0.  1.
    9900012    2    1    2    0    0 -0.11111920645E+02 -0.11539056230E+02 -0.96981073442E+01  0.72461604587E+02  0.70000044673E+02 0.  0.
         12    1    1    2    0    0  0.11111920645E+02  0.11539056230E+02  0.96981073442E+01  0.18726395413E+02  0.00000000000E+00 0. -1.
         11    1    3    3    0    0  0.13350072924E+02 -0.21666113639E+02  0.13271390212E+00  0.25449214930E+02  0.51100000000E-03 0. -1.
        -11    1    3    3    0    0  0.50232214641E+01 -0.82493685257E+01  0.27816424274E+01  0.10050988499E+02  0.51100000000E-03 0.  1.
        -12    1    3    3    0    0 -0.29485215033E+02  0.18376425935E+02 -0.12612463674E+02  0.36961401159E+02  0.00000000000E+00 0.  1.
</event>
<event>
 7    1  0.3348003E-013  0.7246154E+02  0.7816164E-02  0.1226708E+00
        -11   -1    0    0    0    0  0.00000000000E+00  0.00000000000E+00  0.45593999997E+02  0.45594000000E+02  0.51100000000E-03 0. -1.
         11   -1    0    0    0    0 -0.00000000000E+00 -0.00000000000E+00 -0.45593999997E+02  0.45594000000E+02  0.51100000000E-03 0.  1.
    9900012    2    1    2    0    0  0.41497013341E+01 -0.39685163637E+01 -0.17824456900E+02  0.72461537252E+02  0.69999956956E+02 0.  0.
         12    1    1    2    0    0 -0.41497013341E+01  0.39685163637E+01  0.17824456900E+02  0.18726462748E+02  0.00000000000E+00 0. -1.
         11    1    3    3    0    0 -0.56153299692E+01 -0.20835524305E+02 -0.11465885067E+02  0.24435988303E+02  0.51100000000E-03 0. -1.
        -11    1    3    3    0    0  0.79877353840E+01 -0.12301037183E+01  0.16763300825E+02  0.18609818015E+02  0.51100000000E-03 0.  1.
        -12    1    3    3    0    0  0.17772959193E+01  0.18097111659E+02 -0.23121872658E+02  0.29415730934E+02  0.00000000000E+00 0.  1.
</event>
<event>
 7    1  0.3348003E-013  0.7246158E+02  0.7816164E-02  0.1226708E+00
        -11   -1    0    0    0    0  0.00000000000E+00  0.00000000000E+00  0.45593999997E+02  0.45594000000E+02  0.51100000000E-03 0.  1.
         11   -1    0    0    0    0 -0.00000000000E+00 -0.00000000000E+00 -0.45593999997E+02  0.45594000000E+02  0.51100000000E-03 0. -1.
    9900012    2    1    2    0    0 -0.53551647462E+01  0.14013603515E+02  0.11208036473E+02  0.72461576035E+02  0.70000007478E+02 0.  0.
         12    1    1    2    0    0  0.53551647462E+01 -0.14013603515E+02 -0.11208036473E+02  0.18726423965E+02  0.00000000000E+00 0. -1.
         11    1    3    3    0    0  0.19803620606E+02 -0.39901238732E+01  0.76589735333E+01  0.21604729887E+02  0.51100000000E-03 0. -1.
        -11    1    3    3    0    0 -0.87660729530E+01 -0.47734793424E+01  0.17017927298E+02  0.19729165969E+02  0.51100000000E-03 0.  1.
         12    1    3    3    0    0 -0.16392712399E+02  0.22777206731E+02 -0.13468864358E+02  0.31127680179E+02  0.00000000000E+00 0. -1.
</event>
<event>
 7    1  0.3348003E-013  0.7246128E+02  0.7816164E-02  0.1226709E+00
        -11   -1    0    0    0    0  0.00000000000E+00  0.00000000000E+00  0.45593999997E+02  0.45594000000E+02  0.51100000000E-03 0.  1.
         11   -1    0    0    0    0 -0.00000000000E+00 -0.00000000000E+00 -0.45593999997E+02  0.45594000000E+02  0.51100000000E-03 0. -1.
    9900012    2    1    2    0    0  0.14538404411E+02 -0.49038634469E+01  0.10736717790E+02  0.72461276089E+02  0.69999616742E+02 0.  0.
         12    1    1    2    0    0 -0.14538404411E+02  0.49038634469E+01 -0.10736717790E+02  0.18726723911E+02  0.00000000000E+00 0. -1.
         11    1    3    3    0    0  0.26334642196E+01  0.18815557955E+01 -0.99058622612E+01  0.10421204029E+02  0.51100000000E-03 0. -1.
        -11    1    3    3    0    0  0.20733945767E+02  0.11142072456E+02  0.31480016703E+02  0.39306917171E+02  0.51100000000E-03 0.  1.
         12    1    3    3    0    0 -0.88290055749E+01 -0.17927491698E+02 -0.10837436651E+02  0.22733154889E+02  0.00000000000E+00 0. -1.
</event>
<event>
 7    1  0.3348003E-013  0.7246159E+02  0.7816164E-02  0.1226708E+00
        -11   -1    0    0    0    0  0.00000000000E+00  0.00000000000E+00  0.45593999997E+02  0.45594000000E+02  0.51100000000E-03 0. -1.
         11   -1    0    0    0    0 -0.00000000000E+00 -0.00000000000E+00 -0.45593999997E+02  0.45594000000E+02  0.51100000000E-03 0.  1.
    9900012    2    1    2    0    0  0.81420743710E+01 -0.12683436014E+00 -0.16863248477E+02  0.72461585201E+02  0.70000019419E+02 0.  0.
         12    1    1    2    0    0 -0.81420743710E+01  0.12683436014E+00  0.16863248477E+02  0.18726414799E+02  0.00000000000E+00 0. -1.
         11    1    3    3    0    0 -0.85856141341E+01  0.80631959259E+01 -0.19373921241E+02  0.22673260090E+02  0.51100000000E-03 0. -1.
        -11    1    3    3    0    0  0.16884417559E+02 -0.21784195442E+02 -0.11860936930E+02  0.30005275410E+02  0.51100000000E-03 0.  1.
         12    1    3    3    0    0 -0.15672905354E+00  0.13594165156E+02  0.14371609693E+02  0.19783049701E+02  0.00000000000E+00 0. -1.
</event>
<event>
 7    1  0.3348003E-013  0.7246153E+02  0.7816164E-02  0.1226708E+00
        -11   -1    0    0    0    0  0.00000000000E+00  0.00000000000E+00  0.45593999997E+02  0.45594000000E+02  0.51100000000E-03 0.  1.
         11   -1    0    0    0    0 -0.00000000000E+00 -0.00000000000E+00 -0.45593999997E+02  0.45594000000E+02  0.51100000000E-03 0. -1.
    9900012    2    1    2    0    0 -0.14503971806E+02  0.37794266036E+01  0.11226372114E+02  0.72461529579E+02  0.69999946961E+02 0.  0.
         12    1    1    2    0    0  0.14503971806E+02 -0.37794266036E+01 -0.11226372114E+02  0.18726470421E+02  0.00000000000E+00 0. -1.
         11    1    3    3    0    0  0.21138857517E+02  0.32832060240E+01  0.76204342943E+01  0.22709067748E+02  0.51100000000E-03 0. -1.
        -11    1    3    3    0    0 -0.12835768528E+02 -0.13050273068E+02  0.12048952093E+02  0.21914466173E+02  0.51100000000E-03 0.  1.
         12    1    3    3    0    0 -0.22807060794E+02  0.13546493647E+02 -0.84430142739E+01  0.27837995658E+02  0.00000000000E+00 0. -1.
</event>
<event>
 7    1  0.3348003E-013  0.7246162E+02  0.7816164E-02  0.1226708E+00
        -11   -1    0    0    0    0  0.00000000000E+00  0.00000000000E+00  0.45593999997E+02  0.45594000000E+02  0.51100000000E-03 0. -1.
         11   -1    0    0    0    0 -0.00000000000E+00 -0.00000000000E+00 -0.45593999997E+02  0.45594000000E+02  0.51100000000E-03 0.  1.
    9900012    2    1    2    0    0  0.65390065058E+01  0.15143419426E+02 -0.88654085640E+01  0.72461622160E+02  0.70000067565E+02 0.  0.
         12    1    1    2    0    0 -0.65390065058E+01 -0.15143419426E+02  0.88654085640E+01  0.18726377840E+02  0.00000000000E+00 0. -1.
         11    1    3    3    0    0  0.23616367353E+02 -0.52767405435E+01  0.94011890123E+01  0.25960723272E+02  0.51100000000E-03 0. -1.
        -11    1    3    3    0    0  0.67719328096E+01  0.38210590813E-01 -0.13043776205E+02  0.14696959957E+02  0.51100000000E-03 0.  1.
        -12    1    3    3    0    0 -0.23849293657E+02  0.20381949379E+02 -0.52228213709E+01  0.31803938930E+02  0.00000000000E+00 0.  1.
</event>
<event>
 7    1  0.3348003E-013  0.7246161E+02  0.7816164E-02  0.1226708E+00
        -11   -1    0    0    0    0  0.00000000000E+00  0.00000000000E+00  0.45593999997E+02  0.45594000000E+02  0.51100000000E-03 0.  1.
         11   -1    0    0    0    0 -0.00000000000E+00 -0.00000000000E+00 -0.45593999997E+02  0.45594000000E+02  0.51100000000E-03 0. -1.
    9900012    2    1    2    0    0 -0.35009073656E+01  0.14503560593E+02  0.11316712233E+02  0.72461612254E+02  0.70000054660E+02 0.  0.
         12    1    1    2    0    0  0.35009073656E+01 -0.14503560593E+02 -0.11316712233E+02  0.18726387746E+02  0.00000000000E+00 0. -1.
         11    1    3    3    0    0 -0.55563862143E+01 -0.11168214429E+02 -0.19542598323E+02  0.23184382475E+02  0.51100000000E-03 0. -1.
        -11    1    3    3    0    0 -0.11022882703E+02  0.19884911591E+01  0.11153684055E+02  0.15807046164E+02  0.51100000000E-03 0.  1.
        -12    1    3    3    0    0  0.13078361552E+02  0.23683283862E+02  0.19705626501E+02  0.33470183614E+02  0.00000000000E+00 0.  1.
</event>
<event>
 7    1  0.3348003E-013  0.7246148E+02  0.7816164E-02  0.1226708E+00
        -11   -1    0    0    0    0  0.00000000000E+00  0.00000000000E+00  0.45593999997E+02  0.45594000000E+02  0.51100000000E-03 0. -1.
         11   -1    0    0    0    0 -0.00000000000E+00 -0.00000000000E+00 -0.45593999997E+02  0.45594000000E+02  0.51100000000E-03 0.  1.
    9900012    2    1    2    0    0 -0.74906139013E+01 -0.33596675895E+01 -0.16831096166E+02  0.72461482409E+02  0.69999885513E+02 0.  0.
         12    1    1    2    0    0  0.74906139013E+01  0.33596675895E+01  0.16831096166E+02  0.18726517591E+02  0.00000000000E+00 0. -1.
         11    1    3    3    0    0 -0.19881350049E+02 -0.25416465118E+02 -0.38486120937E+01  0.32497332108E+02  0.51100000000E-03 0. -1.
        -11    1    3    3    0    0  0.75255758904E+01  0.62906485057E+01 -0.19811831682E+02  0.22106904486E+02  0.51100000000E-03 0.  1.
        -12    1    3    3    0    0  0.48651602577E+01  0.15766149022E+02  0.68293476091E+01  0.17857245815E+02  0.00000000000E+00 0.  1.
</event>
<event>
 7    1  0.3348003E-013  0.7246156E+02  0.7816164E-02  0.1226708E+00
        -11   -1    0    0    0    0  0.00000000000E+00  0.00000000000E+00  0.45593999997E+02  0.45594000000E+02  0.51100000000E-03 0.  1.
         11   -1    0    0    0    0 -0.00000000000E+00 -0.00000000000E+00 -0.45593999997E+02  0.45594000000E+02  0.51100000000E-03 0. -1.
    9900012    2    1    2    0    0 -0.18155443299E+02  0.38831912203E+01 -0.24454349718E+01  0.72461562868E+02  0.69999990326E+02 0.  0.
         12    1    1    2    0    0  0.18155443299E+02 -0.38831912203E+01  0.24454349718E+01  0.18726437132E+02  0.00000000000E+00 0. -1.
         11    1    3    3    0    0 -0.88282621228E+00 -0.95607606466E+01  0.88844895734E+01  0.13081348612E+02  0.51100000000E-03 0. -1.
        -11    1    3    3    0    0  0.12183274348E+02 -0.15824681463E+01  0.13331713118E+02  0.18129284437E+02  0.51100000000E-03 0.  1.
         12    1    3    3    0    0 -0.29455891435E+02  0.15026420013E+02 -0.24661637664E+02  0.41250929819E+02  0.00000000000E+00 0. -1.
</event>
<event>
 7    1  0.3348003E-013  0.7246189E+02  0.7816164E-02  0.1226707E+00
        -11   -1    0    0    0    0  0.00000000000E+00  0.00000000000E+00  0.45593999997E+02  0.45594000000E+02  0.51100000000E-03 0.  1.
         11   -1    0    0    0    0 -0.00000000000E+00 -0.00000000000E+00 -0.45593999997E+02  0.45594000000E+02  0.51100000000E-03 0. -1.
    9900012    2    1    2    0    0  0.18155832398E+02  0.45745563188E+01 -0.32590623922E+00  0.72461894413E+02  0.70000422223E+02 0.  0.
         12    1    1    2    0    0 -0.18155832398E+02 -0.45745563188E+01  0.32590623922E+00  0.18726105587E+02  0.00000000000E+00 0. -1.
         11    1    3    3    0    0  0.28496505437E+01  0.18415373973E+02 -0.17914087840E+02  0.25848811388E+02  0.51100000000E-03 0. -1.
        -11    1    3    3    0    0  0.26511603545E+02 -0.34177248325E+01  0.59458214793E+01  0.27384279411E+02  0.51100000000E-03 0.  1.
        -12    1    3    3    0    0 -0.11205421690E+02 -0.10423092822E+02  0.11642360121E+02  0.19228803614E+02  0.00000000000E+00 0.  1.
</event>
<event>
 7    1  0.3348003E-013  0.7246169E+02  0.7816164E-02  0.1226708E+00
        -11   -1    0    0    0    0  0.00000000000E+00  0.00000000000E+00  0.45593999997E+02  0.45594000000E+02  0.51100000000E-03 0. -1.
         11   -1    0    0    0    0 -0.00000000000E+00 -0.00000000000E+00 -0.45593999997E+02  0.45594000000E+02  0.51100000000E-03 0.  1.
    9900012    2    1    2    0    0 -0.11642421497E+01  0.63391191977E+00 -0.18679334782E+02  0.72461685573E+02  0.70000150172E+02 0.  0.
         12    1    1    2    0    0  0.11642421497E+01 -0.63391191977E+00  0.18679334782E+02  0.18726314427E+02  0.00000000000E+00 0. -1.
         11    1    3    3    0    0 -0.29996262951E+02  0.13153163024E+02 -0.16313590851E+01  0.32793944887E+02  0.51100000000E-03 0. -1.
        -11    1    3    3    0    0 -0.77185155842E+00  0.11811581651E+01  0.15678378002E+01  0.21092664763E+01  0.51100000000E-03 0.  1.
        -12    1    3    3    0    0  0.29603872359E+02 -0.13700409269E+02 -0.18615813497E+02  0.37558474210E+02  0.00000000000E+00 0.  1.
</event>
<event>
 7    1  0.3348003E-013  0.7246161E+02  0.7816164E-02  0.1226708E+00
        -11   -1    0    0    0    0  0.00000000000E+00  0.00000000000E+00  0.45593999997E+02  0.45594000000E+02  0.51100000000E-03 0.  1.
         11   -1    0    0    0    0 -0.00000000000E+00 -0.00000000000E+00 -0.45593999997E+02  0.45594000000E+02  0.51100000000E-03 0. -1.
    9900012    2    1    2    0    0 -0.87872695117E+01 -0.60005498189E+01  0.15409577600E+02  0.72461607250E+02  0.70000048142E+02 0.  0.
         12    1    1    2    0    0  0.87872695117E+01  0.60005498189E+01 -0.15409577600E+02  0.18726392750E+02  0.00000000000E+00 0. -1.
         11    1    3    3    0    0  0.17094842731E+02 -0.94202486902E+01  0.75454550986E+01  0.20926266420E+02  0.51100000000E-03 0.  1.
        -11    1    3    3    0    0 -0.21014101485E+02 -0.10563901333E+02 -0.12281658817E+02  0.26533518729E+02  0.51100000000E-03 0. -1.
         12    1    3    3    0    0 -0.48680107581E+01  0.13983600205E+02  0.20145781318E+02  0.25001822101E+02  0.00000000000E+00 0. -1.
</event>
<event>
 7    1  0.3348003E-013  0.7246159E+02  0.7816164E-02  0.1226708E+00
        -11   -1    0    0    0    0  0.00000000000E+00  0.00000000000E+00  0.45593999997E+02  0.45594000000E+02  0.51100000000E-03 0. -1.
         11   -1    0    0    0    0 -0.00000000000E+00 -0.00000000000E+00 -0.45593999997E+02  0.45594000000E+02  0.51100000000E-03 0.  1.
    9900012    2    1    2    0    0  0.96072340782E+01  0.13932594212E+02 -0.80163699584E+01  0.72461593099E+02  0.70000029708E+02 0.  0.
         12    1    1    2    0    0 -0.96072340782E+01 -0.13932594212E+02  0.80163699584E+01  0.18726406901E+02  0.00000000000E+00 0. -1.
         11    1    3    3    0    0 -0.15502314667E+02  0.37971907268E+01  0.11379901578E+02  0.19602106459E+02  0.51100000000E-03 0. -1.
        -11    1    3    3    0    0 -0.10277491811E+02  0.50138895789E+00  0.18795793565E+01  0.10459973596E+02  0.51100000000E-03 0.  1.
        -12    1    3    3    0    0  0.35387040556E+02  0.96340145270E+01 -0.21275850893E+02  0.42399513045E+02  0.00000000000E+00 0.  1.
</event>
<event>
 7    1  0.3348003E-013  0.7246151E+02  0.7816164E-02  0.1226708E+00
        -11   -1    0    0    0    0  0.00000000000E+00  0.00000000000E+00  0.45593999997E+02  0.45594000000E+02  0.51100000000E-03 0.  1.
         11   -1    0    0    0    0 -0.00000000000E+00 -0.00000000000E+00 -0.45593999997E+02  0.45594000000E+02  0.51100000000E-03 0. -1.
    9900012    2    1    2    0    0  0.16268888290E+01 -0.18338535193E+02  0.34253015243E+01  0.72461512587E+02  0.69999924826E+02 0.  0.
         12    1    1    2    0    0 -0.16268888290E+01  0.18338535193E+02 -0.34253015243E+01  0.18726487413E+02  0.00000000000E+00 0. -1.
         11    1    3    3    0    0 -0.12400662081E+01  0.20751343723E+02  0.70822909197E+00  0.20800423535E+02  0.51100000000E-03 0. -1.
        -11    1    3    3    0    0  0.37276951316E+01  0.39680618103E+01 -0.55872715495E+01  0.78012069036E+01  0.51100000000E-03 0.  1.
        -12    1    3    3    0    0 -0.86074009453E+00 -0.43057940727E+02  0.83043439818E+01  0.43859882149E+02  0.00000000000E+00 0.  1.
</event>
<event>
 7    1  0.3348003E-013  0.7246098E+02  0.7816164E-02  0.1226710E+00
        -11   -1    0    0    0    0  0.00000000000E+00  0.00000000000E+00  0.45593999997E+02  0.45594000000E+02  0.51100000000E-03 0.  1.
         11   -1    0    0    0    0 -0.00000000000E+00 -0.00000000000E+00 -0.45593999997E+02  0.45594000000E+02  0.51100000000E-03 0. -1.
    9900012    2    1    2    0    0  0.15082745264E+02  0.11066911979E+02 -0.85761532352E+00  0.72460980763E+02  0.69999232022E+02 0.  0.
         12    1    1    2    0    0 -0.15082745264E+02 -0.11066911979E+02  0.85761532352E+00  0.18727019237E+02  0.00000000000E+00 0. -1.
         11    1    3    3    0    0  0.15012406837E+02 -0.22797266702E+02  0.57025722615E+01  0.27885606660E+02  0.51100000000E-03 0.  1.
        -11    1    3    3    0    0 -0.13526583105E+01  0.20689423749E+02 -0.17701939168E+02  0.27262439182E+02  0.51100000000E-03 0. -1.
        -12    1    3    3    0    0  0.14229967370E+01  0.13174754933E+02  0.11141751583E+02  0.17312934922E+02  0.00000000000E+00 0.  1.
</event>
<event>
 7    1  0.3348003E-013  0.7246157E+02  0.7816164E-02  0.1226708E+00
        -11   -1    0    0    0    0  0.00000000000E+00  0.00000000000E+00  0.45593999997E+02  0.45594000000E+02  0.51100000000E-03 0.  1.
         11   -1    0    0    0    0 -0.00000000000E+00 -0.00000000000E+00 -0.45593999997E+02  0.45594000000E+02  0.51100000000E-03 0. -1.
    9900012    2    1    2    0    0 -0.17059141412E+02  0.55001730729E+01  0.54233824222E+01  0.72461567173E+02  0.69999995934E+02 0.  0.
         12    1    1    2    0    0  0.17059141412E+02 -0.55001730729E+01 -0.54233824222E+01  0.18726432827E+02  0.00000000000E+00 0. -1.
         11    1    3    3    0    0  0.49540285951E+01  0.36746637581E+01 -0.19564818661E+01  0.64709639629E+01  0.51100000000E-03 0. -1.
        -11    1    3    3    0    0 -0.69589725352E+01  0.37456562997E+01  0.34239680450E+02  0.35139905484E+02  0.51100000000E-03 0.  1.
         12    1    3    3    0    0 -0.15054197472E+02 -0.19201469849E+01 -0.26859816161E+02  0.30850697726E+02  0.00000000000E+00 0. -1.
</event>
<event>
 7    1  0.3348003E-013  0.7246161E+02  0.7816164E-02  0.1226708E+00
        -11   -1    0    0    0    0  0.00000000000E+00  0.00000000000E+00  0.45593999997E+02  0.45594000000E+02  0.51100000000E-03 0.  1.
         11   -1    0    0    0    0 -0.00000000000E+00 -0.00000000000E+00 -0.45593999997E+02  0.45594000000E+02  0.51100000000E-03 0. -1.
    9900012    2    1    2    0    0  0.98316565857E+01 -0.13682746072E+02 -0.81730489540E+01  0.72461608450E+02  0.70000049704E+02 0.  0.
         12    1    1    2    0    0 -0.98316565857E+01  0.13682746072E+02  0.81730489540E+01  0.18726391550E+02  0.00000000000E+00 0. -1.
         11    1    3    3    0    0 -0.11607685670E+02 -0.23491309998E+02  0.26487360800E+01  0.26336207303E+02  0.51100000000E-03 0. -1.
        -11    1    3    3    0    0  0.55261527419E+01 -0.12208647192E+02  0.54411465606E+01  0.14463592450E+02  0.51100000000E-03 0.  1.
         12    1    3    3    0    0  0.15913189514E+02  0.22017211118E+02 -0.16262931595E+02  0.31661808697E+02  0.00000000000E+00 0. -1.
</event>
<event>
 7    1  0.3348003E-013  0.7246154E+02  0.7816164E-02  0.1226708E+00
        -11   -1    0    0    0    0  0.00000000000E+00  0.00000000000E+00  0.45593999997E+02  0.45594000000E+02  0.51100000000E-03 0.  1.
         11   -1    0    0    0    0 -0.00000000000E+00 -0.00000000000E+00 -0.45593999997E+02  0.45594000000E+02  0.51100000000E-03 0. -1.
    9900012    2    1    2    0    0 -0.13670993430E+02 -0.12633449436E+02 -0.20445902989E+01  0.72461535958E+02  0.69999955271E+02 0.  0.
         12    1    1    2    0    0  0.13670993430E+02  0.12633449436E+02  0.20445902989E+01  0.18726464042E+02  0.00000000000E+00 0. -1.
         11    1    3    3    0    0 -0.98576796220E-01 -0.29355668935E+01 -0.15588632134E+02  0.15862935492E+02  0.51100000000E-03 0. -1.
        -11    1    3    3    0    0 -0.29471167029E+02 -0.11782946173E+02 -0.49478774395E+01  0.32122717787E+02  0.51100000000E-03 0.  1.
        -12    1    3    3    0    0  0.15898750396E+02  0.20850636312E+01  0.18491919274E+02  0.24475882679E+02  0.00000000000E+00 0.  1.
</event>
<event>
 7    1  0.3348003E-013  0.7246157E+02  0.7816164E-02  0.1226708E+00
        -11   -1    0    0    0    0  0.00000000000E+00  0.00000000000E+00  0.45593999997E+02  0.45594000000E+02  0.51100000000E-03 0. -1.
         11   -1    0    0    0    0 -0.00000000000E+00 -0.00000000000E+00 -0.45593999997E+02  0.45594000000E+02  0.51100000000E-03 0.  1.
    9900012    2    1    2    0    0  0.60758331203E+01 -0.16275720544E+02 -0.69903142867E+01  0.72461566246E+02  0.69999994726E+02 0.  0.
         12    1    1    2    0    0 -0.60758331203E+01  0.16275720544E+02  0.69903142867E+01  0.18726433754E+02  0.00000000000E+00 0. -1.
         11    1    3    3    0    0  0.14213098054E+02 -0.34547884789E+02 -0.53253070617E+00  0.37361103957E+02  0.51100000000E-03 0. -1.
        -11    1    3    3    0    0  0.36974492733E+00 -0.74019160221E+01 -0.67009261241E+00  0.74413773241E+01  0.51100000000E-03 0.  1.
        -12    1    3    3    0    0 -0.85070098608E+01  0.25674080267E+02 -0.57876909681E+01  0.27659084965E+02  0.00000000000E+00 0.  1.
</event>
<event>
 7    1  0.3348003E-013  0.7246160E+02  0.7816164E-02  0.1226708E+00
        -11   -1    0    0    0    0  0.00000000000E+00  0.00000000000E+00  0.45593999997E+02  0.45594000000E+02  0.51100000000E-03 0.  1.
         11   -1    0    0    0    0 -0.00000000000E+00 -0.00000000000E+00 -0.45593999997E+02  0.45594000000E+02  0.51100000000E-03 0. -1.
    9900012    2    1    2    0    0  0.87918533903E+01 -0.15763931495E+02 -0.49879626231E+01  0.72461601698E+02  0.70000040910E+02 0.  0.
         12    1    1    2    0    0 -0.87918533903E+01  0.15763931495E+02  0.49879626231E+01  0.18726398302E+02  0.00000000000E+00 0. -1.
         11    1    3    3    0    0  0.11890420910E+01 -0.36263426742E+01 -0.25098469766E+02  0.25386952695E+02  0.51100000000E-03 0. -1.
        -11    1    3    3    0    0 -0.12191837598E+02 -0.32553311773E+01  0.21930950810E+02  0.25302266475E+02  0.51100000000E-03 0.  1.
         12    1    3    3    0    0  0.19794648897E+02 -0.88822576437E+01 -0.18204436670E+01  0.21772382528E+02  0.00000000000E+00 0. -1.
</event>
<event>
 7    1  0.3348003E-013  0.7246161E+02  0.7816164E-02  0.1226708E+00
        -11   -1    0    0    0    0  0.00000000000E+00  0.00000000000E+00  0.45593999997E+02  0.45594000000E+02  0.51100000000E-03 0. -1.
         11   -1    0    0    0    0 -0.00000000000E+00 -0.00000000000E+00 -0.45593999997E+02  0.45594000000E+02  0.51100000000E-03 0.  1.
    9900012    2    1    2    0    0  0.17388438479E+02  0.15273626879E+01 -0.67813752403E+01  0.72461610074E+02  0.70000051820E+02 0.  0.
         12    1    1    2    0    0 -0.17388438479E+02 -0.15273626879E+01  0.67813752403E+01  0.18726389926E+02  0.00000000000E+00 0. -1.
         11    1    3    3    0    0 -0.21256115012E+02 -0.24181362112E+01 -0.27323524502E+01  0.21567001607E+02  0.51100000000E-03 0. -1.
        -11    1    3    3    0    0  0.15206415573E+02 -0.90255513900E+00 -0.17690848251E+02  0.23345573295E+02  0.51100000000E-03 0.  1.
         12    1    3    3    0    0  0.23438137918E+02  0.48480540381E+01  0.13641825461E+02  0.27549035172E+02  0.00000000000E+00 0. -1.
</event>
<event>
 7    1  0.3348003E-013  0.7246157E+02  0.7816164E-02  0.1226708E+00
        -11   -1    0    0    0    0  0.00000000000E+00  0.00000000000E+00  0.45593999997E+02  0.45594000000E+02  0.51100000000E-03 0.  1.
         11   -1    0    0    0    0 -0.00000000000E+00 -0.00000000000E+00 -0.45593999997E+02  0.45594000000E+02  0.51100000000E-03 0. -1.
    9900012    2    1    2    0    0 -0.72078810038E+01 -0.12867118656E+02  0.11539619550E+02  0.72461571872E+02  0.70000002055E+02 0.  0.
         12    1    1    2    0    0  0.72078810038E+01  0.12867118656E+02 -0.11539619550E+02  0.18726428128E+02  0.00000000000E+00 0. -1.
         11    1    3    3    0    0 -0.87900441024E+01 -0.98508408359E+00 -0.38502896244E+01  0.96467609293E+01  0.51100000000E-03 0. -1.
        -11    1    3    3    0    0  0.21952963568E+02  0.15158404972E+02  0.10214919602E+02  0.28566666474E+02  0.51100000000E-03 0.  1.
         12    1    3    3    0    0 -0.20370800469E+02 -0.27040439544E+02  0.51749895728E+01  0.34248144469E+02  0.00000000000E+00 0. -1.
</event>
<event>
 7    1  0.3348003E-013  0.7246155E+02  0.7816164E-02  0.1226708E+00
        -11   -1    0    0    0    0  0.00000000000E+00  0.00000000000E+00  0.45593999997E+02  0.45594000000E+02  0.51100000000E-03 0.  1.
         11   -1    0    0    0    0 -0.00000000000E+00 -0.00000000000E+00 -0.45593999997E+02  0.45594000000E+02  0.51100000000E-03 0. -1.
    9900012    2    1    2    0    0  0.69658746350E+01  0.15602763874E+02  0.76622588313E+01  0.72461551850E+02  0.69999975972E+02 0.  0.
         12    1    1    2    0    0 -0.69658746350E+01 -0.15602763874E+02 -0.76622588313E+01  0.18726448150E+02  0.00000000000E+00 0. -1.
         11    1    3    3    0    0  0.37081073856E+00  0.66853411905E+01 -0.21665407314E+02  0.22676445087E+02  0.51100000000E-03 0. -1.
        -11    1    3    3    0    0  0.18226140167E+01  0.19033423975E+02  0.79347770273E+00  0.19136947437E+02  0.51100000000E-03 0.  1.
        -12    1    3    3    0    0  0.47724498798E+01 -0.10116001292E+02  0.28534188443E+02  0.30648159326E+02  0.00000000000E+00 0.  1.
</event>
<event>
 7    1  0.3348003E-013  0.7246156E+02  0.7816164E-02  0.1226708E+00
        -11   -1    0    0    0    0  0.00000000000E+00  0.00000000000E+00  0.45593999997E+02  0.45594000000E+02  0.51100000000E-03 0.  1.
         11   -1    0    0    0    0 -0.00000000000E+00 -0.00000000000E+00 -0.45593999997E+02  0.45594000000E+02  0.51100000000E-03 0. -1.
    9900012    2    1    2    0    0  0.45180307946E+01 -0.18105775836E+02 -0.15644978944E+01  0.72461564820E+02  0.69999992869E+02 0.  0.
         12    1    1    2    0    0 -0.45180307946E+01  0.18105775836E+02  0.15644978944E+01  0.18726435180E+02  0.00000000000E+00 0. -1.
         11    1    3    3    0    0 -0.61198877155E+01 -0.23575165974E+01  0.14706642254E+01  0.67211430339E+01  0.51100000000E-03 0. -1.
        -11    1    3    3    0    0  0.13419761138E+02 -0.28823250021E+02  0.21094364411E+02  0.38155496864E+02  0.51100000000E-03 0.  1.
         12    1    3    3    0    0 -0.27818426278E+01  0.13074990783E+02 -0.24129526530E+02  0.27584924922E+02  0.00000000000E+00 0. -1.
</event>
<event>
 7    1  0.3348003E-013  0.7246159E+02  0.7816164E-02  0.1226708E+00
        -11   -1    0    0    0    0  0.00000000000E+00  0.00000000000E+00  0.45593999997E+02  0.45594000000E+02  0.51100000000E-03 0.  1.
         11   -1    0    0    0    0 -0.00000000000E+00 -0.00000000000E+00 -0.45593999997E+02  0.45594000000E+02  0.51100000000E-03 0. -1.
    9900012    2    1    2    0    0 -0.14639214972E+01  0.18602644506E+02 -0.15737846360E+01  0.72461594930E+02  0.70000032092E+02 0.  0.
         12    1    1    2    0    0  0.14639214972E+01 -0.18602644506E+02  0.15737846360E+01  0.18726405070E+02  0.00000000000E+00 0. -1.
         11    1    3    3    0    0 -0.29295576554E+02  0.11906079528E+02 -0.16035469834E+02  0.35455913871E+02  0.51100000000E-03 0. -1.
        -11    1    3    3    0    0  0.44042510496E+01 -0.54904010872E+01  0.60765092977E+01  0.92987040448E+01  0.51100000000E-03 0.  1.
        -12    1    3    3    0    0  0.23427404007E+02  0.12186966066E+02  0.83851759003E+01  0.27706977014E+02  0.00000000000E+00 0.  1.
</event>
<event>
 7    1  0.3348003E-013  0.7246150E+02  0.7816164E-02  0.1226708E+00
        -11   -1    0    0    0    0  0.00000000000E+00  0.00000000000E+00  0.45593999997E+02  0.45594000000E+02  0.51100000000E-03 0.  1.
         11   -1    0    0    0    0 -0.00000000000E+00 -0.00000000000E+00 -0.45593999997E+02  0.45594000000E+02  0.51100000000E-03 0. -1.
    9900012    2    1    2    0    0  0.62088355147E+01 -0.85713305989E+01  0.15448766547E+02  0.72461501808E+02  0.69999910784E+02 0.  0.
         12    1    1    2    0    0 -0.62088355147E+01  0.85713305989E+01 -0.15448766547E+02  0.18726498192E+02  0.00000000000E+00 0. -1.
         11    1    3    3    0    0 -0.10813737961E+01  0.20655186147E+02  0.12837193734E+02  0.24343369267E+02  0.51100000000E-03 0. -1.
        -11    1    3    3    0    0 -0.10241352472E+02  0.34723067122E+01  0.20799015271E+01  0.11012184387E+02  0.51100000000E-03 0.  1.
        -12    1    3    3    0    0  0.17531561782E+02 -0.32698823458E+02  0.53167128654E+00  0.37105948154E+02  0.00000000000E+00 0.  1.
</event>
<event>
 7    1  0.3348003E-013  0.7246140E+02  0.7816164E-02  0.1226708E+00
        -11   -1    0    0    0    0  0.00000000000E+00  0.00000000000E+00  0.45593999997E+02  0.45594000000E+02  0.51100000000E-03 0.  1.
         11   -1    0    0    0    0 -0.00000000000E+00 -0.00000000000E+00 -0.45593999997E+02  0.45594000000E+02  0.51100000000E-03 0. -1.
    9900012    2    1    2    0    0  0.56535720399E+01  0.10627645396E+02  0.14344887687E+02  0.72461400570E+02  0.69999778902E+02 0.  0.
         12    1    1    2    0    0 -0.56535720399E+01 -0.10627645396E+02 -0.14344887687E+02  0.18726599430E+02  0.00000000000E+00 0. -1.
         11    1    3    3    0    0  0.14946366767E+02 -0.16334637450E+01 -0.11547290566E+02  0.18957900807E+02  0.51100000000E-03 0. -1.
        -11    1    3    3    0    0  0.99536951694E+01  0.22782302241E+02  0.12885707689E+02  0.28002692832E+02  0.51100000000E-03 0.  1.
        -12    1    3    3    0    0 -0.19246489896E+02 -0.10521193101E+02  0.13006470564E+02  0.25500806931E+02  0.00000000000E+00 0.  1.
</event>
<event>
 7    1  0.3348003E-013  0.7246162E+02  0.7816164E-02  0.1226708E+00
        -11   -1    0    0    0    0  0.00000000000E+00  0.00000000000E+00  0.45593999997E+02  0.45594000000E+02  0.51100000000E-03 0.  1.
         11   -1    0    0    0    0 -0.00000000000E+00 -0.00000000000E+00 -0.45593999997E+02  0.45594000000E+02  0.51100000000E-03 0. -1.
    9900012    2    1    2    0    0  0.32156226846E+01  0.21391188707E+01  0.18323784649E+02  0.72461624413E+02  0.70000070499E+02 0.  0.
         12    1    1    2    0    0 -0.32156226846E+01 -0.21391188707E+01 -0.18323784649E+02  0.18726375587E+02  0.00000000000E+00 0. -1.
         11    1    3    3    0    0 -0.39922159670E+01  0.53566386896E+01 -0.12494661046E+02  0.14168553959E+02  0.51100000000E-03 0. -1.
        -11    1    3    3    0    0 -0.10894459344E+02  0.71612099243E+01 -0.72230496818E+01  0.14904516730E+02  0.51100000000E-03 0.  1.
        -12    1    3    3    0    0  0.18102297996E+02 -0.10378729743E+02  0.38041495376E+02  0.43388553724E+02  0.00000000000E+00 0.  1.
</event>
<event>
 7    1  0.3348003E-013  0.7246157E+02  0.7816164E-02  0.1226708E+00
        -11   -1    0    0    0    0  0.00000000000E+00  0.00000000000E+00  0.45593999997E+02  0.45594000000E+02  0.51100000000E-03 0. -1.
         11   -1    0    0    0    0 -0.00000000000E+00 -0.00000000000E+00 -0.45593999997E+02  0.45594000000E+02  0.51100000000E-03 0.  1.
    9900012    2    1    2    0    0 -0.87410221212E+01  0.11196392566E+02 -0.12203053112E+02  0.72461570029E+02  0.69999999654E+02 0.  0.
         12    1    1    2    0    0  0.87410221212E+01 -0.11196392566E+02  0.12203053112E+02  0.18726429971E+02  0.00000000000E+00 0. -1.
         11    1    3    3    0    0 -0.14284165693E+01  0.16421119598E+02  0.10532156416E+02  0.19560671302E+02  0.51100000000E-03 0. -1.
        -11    1    3    3    0    0  0.70923158108E+01  0.13229393656E+02  0.57108357576E+01  0.16060244251E+02  0.51100000000E-03 0.  1.
        -12    1    3    3    0    0 -0.14404921363E+02 -0.18454120689E+02 -0.28446045285E+02  0.36840654476E+02  0.00000000000E+00 0.  1.
</event>
<event>
 7    1  0.3348003E-013  0.7246158E+02  0.7816164E-02  0.1226708E+00
        -11   -1    0    0    0    0  0.00000000000E+00  0.00000000000E+00  0.45593999997E+02  0.45594000000E+02  0.51100000000E-03 0. -1.
         11   -1    0    0    0    0 -0.00000000000E+00 -0.00000000000E+00 -0.45593999997E+02  0.45594000000E+02  0.51100000000E-03 0.  1.
    9900012    2    1    2    0    0 -0.10814863578E+02 -0.11975627313E+02 -0.95027377856E+01  0.72461576177E+02  0.70000007664E+02 0.  0.
         12    1    1    2    0    0  0.10814863578E+02  0.11975627313E+02  0.95027377856E+01  0.18726423823E+02  0.00000000000E+00 0. -1.
         11    1    3    3    0    0 -0.18788931774E+01  0.10887710507E+01 -0.39630095868E+01  0.45189719206E+01  0.51100000000E-03 0. -1.
        -11    1    3    3    0    0 -0.11746556593E+02  0.23565672195E+02 -0.14594869293E+02  0.30105360116E+02  0.51100000000E-03 0.  1.
         12    1    3    3    0    0  0.28105861920E+01 -0.36630070559E+02  0.90551410941E+01  0.37837244140E+02  0.00000000000E+00 0. -1.
</event>
<event>
 7    1  0.3348003E-013  0.7246160E+02  0.7816164E-02  0.1226708E+00
        -11   -1    0    0    0    0  0.00000000000E+00  0.00000000000E+00  0.45593999997E+02  0.45594000000E+02  0.51100000000E-03 0.  1.
         11   -1    0    0    0    0 -0.00000000000E+00 -0.00000000000E+00 -0.45593999997E+02  0.45594000000E+02  0.51100000000E-03 0. -1.
    9900012    2    1    2    0    0  0.53239926676E+01 -0.12234230344E+02  0.13139886771E+02  0.72461603806E+02  0.70000043655E+02 0.  0.
         12    1    1    2    0    0 -0.53239926676E+01  0.12234230344E+02 -0.13139886771E+02  0.18726396194E+02  0.00000000000E+00 0. -1.
         11    1    3    3    0    0 -0.27279435870E+01 -0.11157682937E+02 -0.10817670553E+02  0.15778389056E+02  0.51100000000E-03 0. -1.
        -11    1    3    3    0    0 -0.10602488027E+01 -0.25373211207E+02  0.10932961171E+02  0.27648754307E+02  0.51100000000E-03 0.  1.
         12    1    3    3    0    0  0.91121850573E+01  0.24296663800E+02  0.13024596153E+02  0.29034460444E+02  0.00000000000E+00 0. -1.
</event>
<event>
 7    1  0.3348003E-013  0.7246157E+02  0.7816164E-02  0.1226708E+00
        -11   -1    0    0    0    0  0.00000000000E+00  0.00000000000E+00  0.45593999997E+02  0.45594000000E+02  0.51100000000E-03 0. -1.
         11   -1    0    0    0    0 -0.00000000000E+00 -0.00000000000E+00 -0.45593999997E+02  0.45594000000E+02  0.51100000000E-03 0.  1.
    9900012    2    1    2    0    0 -0.74564848264E+01 -0.74019280076E+01 -0.15501338168E+02  0.72461569769E+02  0.69999999316E+02 0.  0.
         12    1    1    2    0    0  0.74564848264E+01  0.74019280076E+01  0.15501338168E+02  0.18726430231E+02  0.00000000000E+00 0. -1.
         11    1    3    3    0    0 -0.12971171575E+02 -0.23535845129E+01  0.15266307337E+02  0.20170542681E+02  0.51100000000E-03 0. -1.
        -11    1    3    3    0    0 -0.21524429009E+01  0.18990777593E+01  0.99104173657E+01  0.10317745849E+02  0.51100000000E-03 0.  1.
        -12    1    3    3    0    0  0.76671296493E+01 -0.69474212540E+01 -0.40678062870E+02  0.41973281239E+02  0.00000000000E+00 0.  1.
</event>
<event>
 7    1  0.3348003E-013  0.7246147E+02  0.7816164E-02  0.1226708E+00
        -11   -1    0    0    0    0  0.00000000000E+00  0.00000000000E+00  0.45593999997E+02  0.45594000000E+02  0.51100000000E-03 0.  1.
         11   -1    0    0    0    0 -0.00000000000E+00 -0.00000000000E+00 -0.45593999997E+02  0.45594000000E+02  0.51100000000E-03 0. -1.
    9900012    2    1    2    0    0  0.12648514636E+02  0.39067290283E+01  0.13245199402E+02  0.72461474390E+02  0.69999875067E+02 0.  0.
         12    1    1    2    0    0 -0.12648514636E+02 -0.39067290283E+01 -0.13245199402E+02  0.18726525610E+02  0.00000000000E+00 0. -1.
         11    1    3    3    0    0  0.47391555976E+01 -0.25083849227E+02  0.27922454932E+01  0.25679869996E+02  0.51100000000E-03 0. -1.
        -11    1    3    3    0    0 -0.85762762199E+01  0.15343546145E+02 -0.72432304478E+01  0.19011609866E+02  0.51100000000E-03 0.  1.
        -12    1    3    3    0    0  0.16485635259E+02  0.13647032111E+02  0.17696184357E+02  0.27769994528E+02  0.00000000000E+00 0.  1.
</event>
<event>
 7    1  0.3348003E-013  0.7246155E+02  0.7816164E-02  0.1226708E+00
        -11   -1    0    0    0    0  0.00000000000E+00  0.00000000000E+00  0.45593999997E+02  0.45594000000E+02  0.51100000000E-03 0. -1.
         11   -1    0    0    0    0 -0.00000000000E+00 -0.00000000000E+00 -0.45593999997E+02  0.45594000000E+02  0.51100000000E-03 0.  1.
    9900012    2    1    2    0    0  0.15531385740E+02  0.72770788047E+01 -0.75166459003E+01  0.72461553873E+02  0.69999978609E+02 0.  0.
         12    1    1    2    0    0 -0.15531385740E+02 -0.72770788047E+01  0.75166459003E+01  0.18726446127E+02  0.00000000000E+00 0. -1.
         11    1    3    3    0    0 -0.48741038451E+01 -0.16885137831E+01 -0.38986348458E+01  0.64658581032E+01  0.51100000000E-03 0. -1.
        -11    1    3    3    0    0 -0.91084873933E+01  0.78317128683E+01  0.23184478611E+02  0.26111689294E+02  0.51100000000E-03 0.  1.
        -12    1    3    3    0    0  0.29513976979E+02  0.11338797195E+01 -0.26802489666E+02  0.39884006476E+02  0.00000000000E+00 0.  1.
</event>
<event>
 7    1  0.3348003E-013  0.7246173E+02  0.7816164E-02  0.1226708E+00
        -11   -1    0    0    0    0  0.00000000000E+00  0.00000000000E+00  0.45593999997E+02  0.45594000000E+02  0.51100000000E-03 0. -1.
         11   -1    0    0    0    0 -0.00000000000E+00 -0.00000000000E+00 -0.45593999997E+02  0.45594000000E+02  0.51100000000E-03 0.  1.
    9900012    2    1    2    0    0 -0.92555645460E+01 -0.10662852960E+02 -0.12300863209E+02  0.72461731177E+02  0.70000209580E+02 0.  0.
         12    1    1    2    0    0  0.92555645460E+01  0.10662852960E+02  0.12300863209E+02  0.18726268823E+02  0.00000000000E+00 0. -1.
         11    1    3    3    0    0  0.14270992876E+02 -0.97654033799E+01 -0.24477671365E+02  0.29969663604E+02  0.51100000000E-03 0. -1.
        -11    1    3    3    0    0 -0.29206458388E+00 -0.12821578853E+02  0.10043263896E+02  0.16289424052E+02  0.51100000000E-03 0.  1.
        -12    1    3    3    0    0 -0.23234492839E+02  0.11924129273E+02  0.21335442597E+01  0.26202643521E+02  0.00000000000E+00 0.  1.
</event>
<event>
 7    1  0.3348003E-013  0.7246157E+02  0.7816164E-02  0.1226708E+00
        -11   -1    0    0    0    0  0.00000000000E+00  0.00000000000E+00  0.45593999997E+02  0.45594000000E+02  0.51100000000E-03 0. -1.
         11   -1    0    0    0    0 -0.00000000000E+00 -0.00000000000E+00 -0.45593999997E+02  0.45594000000E+02  0.51100000000E-03 0.  1.
    9900012    2    1    2    0    0 -0.12961850091E+02  0.11715006380E+02  0.67400447486E+01  0.72461571203E+02  0.70000001184E+02 0.  0.
         12    1    1    2    0    0  0.12961850091E+02 -0.11715006380E+02 -0.67400447486E+01  0.18726428797E+02  0.00000000000E+00 0. -1.
         11    1    3    3    0    0 -0.25570458366E+02  0.20604178044E+02  0.15714799079E+02  0.36405156287E+02  0.51100000000E-03 0.  1.
        -11    1    3    3    0    0  0.16390733639E+02  0.42292055854E+01  0.38113314541E+01  0.17351327812E+02  0.51100000000E-03 0. -1.
        -12    1    3    3    0    0 -0.37821253636E+01 -0.13118377249E+02 -0.12786085784E+02  0.18705087105E+02  0.00000000000E+00 0.  1.
</event>
<event>
 7    1  0.3348003E-013  0.7246152E+02  0.7816164E-02  0.1226708E+00
        -11   -1    0    0    0    0  0.00000000000E+00  0.00000000000E+00  0.45593999997E+02  0.45594000000E+02  0.51100000000E-03 0. -1.
         11   -1    0    0    0    0 -0.00000000000E+00 -0.00000000000E+00 -0.45593999997E+02  0.45594000000E+02  0.51100000000E-03 0.  1.
    9900012    2    1    2    0    0  0.39651482971E+00 -0.15464444959E+02 -0.10553425567E+02  0.72461519468E+02  0.69999933789E+02 0.  0.
         12    1    1    2    0    0 -0.39651482971E+00  0.15464444959E+02  0.10553425567E+02  0.18726480532E+02  0.00000000000E+00 0. -1.
         11    1    3    3    0    0 -0.96102651543E+01 -0.69478157897E+01 -0.77367788738E+01  0.14159346319E+02  0.51100000000E-03 0. -1.
        -11    1    3    3    0    0  0.12560117693E+02 -0.74839070742E+01 -0.28733483525E+02  0.32239393563E+02  0.51100000000E-03 0.  1.
         12    1    3    3    0    0 -0.25533377094E+01 -0.10327220954E+01  0.25916836832E+02  0.26062779586E+02  0.00000000000E+00 0. -1.
</event>
<event>
 7    1  0.3348003E-013  0.7246159E+02  0.7816164E-02  0.1226708E+00
        -11   -1    0    0    0    0  0.00000000000E+00  0.00000000000E+00  0.45593999997E+02  0.45594000000E+02  0.51100000000E-03 0.  1.
         11   -1    0    0    0    0 -0.00000000000E+00 -0.00000000000E+00 -0.45593999997E+02  0.45594000000E+02  0.51100000000E-03 0. -1.
    9900012    2    1    2    0    0 -0.56805440515E+01 -0.26203795881E+01  0.17650590467E+02  0.72461593144E+02  0.70000029766E+02 0.  0.
         12    1    1    2    0    0  0.56805440515E+01  0.26203795881E+01 -0.17650590467E+02  0.18726406856E+02  0.00000000000E+00 0. -1.
         11    1    3    3    0    0  0.16287437069E+02  0.13366541273E+01  0.32081228438E+02  0.36003784091E+02  0.51100000000E-03 0. -1.
        -11    1    3    3    0    0 -0.78780101657E+01  0.10488460413E+02 -0.38387472743E+01  0.13667729398E+02  0.51100000000E-03 0.  1.
        -12    1    3    3    0    0 -0.14089970954E+02 -0.14445494128E+02 -0.10591890697E+02  0.22790079654E+02  0.00000000000E+00 0.  1.
</event>
<event>
 7    1  0.3348003E-013  0.7246158E+02  0.7816164E-02  0.1226708E+00
        -11   -1    0    0    0    0  0.00000000000E+00  0.00000000000E+00  0.45593999997E+02  0.45594000000E+02  0.51100000000E-03 0. -1.
         11   -1    0    0    0    0 -0.00000000000E+00 -0.00000000000E+00 -0.45593999997E+02  0.45594000000E+02  0.51100000000E-03 0.  1.
    9900012    2    1    2    0    0  0.65798018225E+01 -0.15481653838E+02 -0.82282127575E+01  0.72461577951E+02  0.70000009974E+02 0.  0.
         12    1    1    2    0    0 -0.65798018225E+01  0.15481653838E+02  0.82282127575E+01  0.18726422049E+02  0.00000000000E+00 0. -1.
         11    1    3    3    0    0  0.20062432642E+02 -0.11185803024E+02 -0.57600151765E+01  0.23681240844E+02  0.51100000000E-03 0. -1.
        -11    1    3    3    0    0  0.61041877484E+01 -0.10377770016E+02 -0.18962066947E+02  0.22461504886E+02  0.51100000000E-03 0.  1.
         12    1    3    3    0    0 -0.19586818568E+02  0.60819192015E+01  0.16493869366E+02  0.26318832221E+02  0.00000000000E+00 0. -1.
</event>
<event>
 7    1  0.3348003E-013  0.7246158E+02  0.7816164E-02  0.1226708E+00
        -11   -1    0    0    0    0  0.00000000000E+00  0.00000000000E+00  0.45593999997E+02  0.45594000000E+02  0.51100000000E-03 0.  1.
         11   -1    0    0    0    0 -0.00000000000E+00 -0.00000000000E+00 -0.45593999997E+02  0.45594000000E+02  0.51100000000E-03 0. -1.
    9900012    2    1    2    0    0  0.14398663097E+02 -0.11664797913E+02  0.26999704629E+01  0.72461578830E+02  0.70000011119E+02 0.  0.
         12    1    1    2    0    0 -0.14398663097E+02  0.11664797913E+02 -0.26999704629E+01  0.18726421170E+02  0.00000000000E+00 0. -1.
         11    1    3    3    0    0  0.13848311301E+02  0.63500094215E+00  0.13379203200E+02  0.19266084984E+02  0.51100000000E-03 0. -1.
        -11    1    3    3    0    0 -0.22511204849E+02 -0.40988247847E+01  0.59035750133E+01  0.23630634916E+02  0.51100000000E-03 0.  1.
         12    1    3    3    0    0  0.23061556645E+02 -0.82009740707E+01 -0.16582807751E+02  0.29564858929E+02  0.00000000000E+00 0. -1.
</event>
<event>
 7    1  0.3348003E-013  0.7246162E+02  0.7816164E-02  0.1226708E+00
        -11   -1    0    0    0    0  0.00000000000E+00  0.00000000000E+00  0.45593999997E+02  0.45594000000E+02  0.51100000000E-03 0.  1.
         11   -1    0    0    0    0 -0.00000000000E+00 -0.00000000000E+00 -0.45593999997E+02  0.45594000000E+02  0.51100000000E-03 0. -1.
    9900012    2    1    2    0    0  0.12079364558E+02 -0.30455509920E+01  0.13981800967E+02  0.72461623221E+02  0.70000068947E+02 0.  0.
         12    1    1    2    0    0 -0.12079364558E+02  0.30455509920E+01 -0.13981800967E+02  0.18726376779E+02  0.00000000000E+00 0. -1.
         11    1    3    3    0    0 -0.14223058701E+02  0.79068110822E+01 -0.13477969583E+01  0.16328797175E+02  0.51100000000E-03 0. -1.
        -11    1    3    3    0    0 -0.44562619171E+01  0.13754051036E+02  0.55470545284E+01  0.15485541785E+02  0.51100000000E-03 0.  1.
        -12    1    3    3    0    0  0.30758685176E+02 -0.24706413110E+02  0.97825433966E+01  0.40647284261E+02  0.00000000000E+00 0.  1.
</event>
<event>
 7    1  0.3348003E-013  0.7246157E+02  0.7816164E-02  0.1226708E+00
        -11   -1    0    0    0    0  0.00000000000E+00  0.00000000000E+00  0.45593999997E+02  0.45594000000E+02  0.51100000000E-03 0. -1.
         11   -1    0    0    0    0 -0.00000000000E+00 -0.00000000000E+00 -0.45593999997E+02  0.45594000000E+02  0.51100000000E-03 0.  1.
    9900012    2    1    2    0    0 -0.13104430581E+02 -0.13307058230E+02 -0.13694377587E+01  0.72461567896E+02  0.69999996876E+02 0.  0.
         12    1    1    2    0    0  0.13104430581E+02  0.13307058230E+02  0.13694377587E+01  0.18726432104E+02  0.00000000000E+00 0. -1.
         11    1    3    3    0    0 -0.85441858832E+01  0.68569266489E+01  0.11783989097E+01  0.11018583381E+02  0.51100000000E-03 0. -1.
        -11    1    3    3    0    0 -0.23201271298E+02  0.95541832184E+01 -0.70787546228E+01  0.26070868303E+02  0.51100000000E-03 0.  1.
        -12    1    3    3    0    0  0.18641026600E+02 -0.29718168097E+02  0.45309179544E+01  0.35372116212E+02  0.00000000000E+00 0.  1.
</event>
<event>
 7    1  0.3348003E-013  0.7246126E+02  0.7816164E-02  0.1226709E+00
        -11   -1    0    0    0    0  0.00000000000E+00  0.00000000000E+00  0.45593999997E+02  0.45594000000E+02  0.51100000000E-03 0.  1.
         11   -1    0    0    0    0 -0.00000000000E+00 -0.00000000000E+00 -0.45593999997E+02  0.45594000000E+02  0.51100000000E-03 0. -1.
    9900012    2    1    2    0    0 -0.17888454470E+02  0.36252716655E+01  0.41894520812E+01  0.72461256912E+02  0.69999591760E+02 0.  0.
         12    1    1    2    0    0  0.17888454470E+02 -0.36252716655E+01 -0.41894520812E+01  0.18726743088E+02  0.00000000000E+00 0. -1.
         11    1    3    3    0    0  0.16302941411E+02 -0.12294112097E+02 -0.10679617011E+02  0.23043118510E+02  0.51100000000E-03 0. -1.
        -11    1    3    3    0    0 -0.95570970730E+01  0.44029088203E+01 -0.85282731822E+01  0.13544561797E+02  0.51100000000E-03 0.  1.
        -12    1    3    3    0    0 -0.24634298808E+02  0.11516474942E+02  0.23397342274E+02  0.35873576604E+02  0.00000000000E+00 0.  1.
</event>
<event>
 7    1  0.3348003E-013  0.7246159E+02  0.7816164E-02  0.1226708E+00
        -11   -1    0    0    0    0  0.00000000000E+00  0.00000000000E+00  0.45593999997E+02  0.45594000000E+02  0.51100000000E-03 0.  1.
         11   -1    0    0    0    0 -0.00000000000E+00 -0.00000000000E+00 -0.45593999997E+02  0.45594000000E+02  0.51100000000E-03 0. -1.
    9900012    2    1    2    0    0  0.10069653658E+01  0.18303677783E+02 -0.38262199693E+01  0.72461586599E+02  0.70000021240E+02 0.  0.
         12    1    1    2    0    0 -0.10069653658E+01 -0.18303677783E+02  0.38262199693E+01  0.18726413401E+02  0.00000000000E+00 0. -1.
         11    1    3    3    0    0 -0.25026981134E+02  0.15848758867E+02  0.99453977367E+01  0.31248102002E+02  0.51100000000E-03 0. -1.
        -11    1    3    3    0    0  0.20742159787E+01 -0.40700061290E+01  0.73229384258E+01  0.86309182169E+01  0.51100000000E-03 0.  1.
        -12    1    3    3    0    0  0.23959730521E+02  0.65249250441E+01 -0.21094556132E+02  0.32582566380E+02  0.00000000000E+00 0.  1.
</event>
<event>
 7    1  0.3348003E-013  0.7246147E+02  0.7816164E-02  0.1226708E+00
        -11   -1    0    0    0    0  0.00000000000E+00  0.00000000000E+00  0.45593999997E+02  0.45594000000E+02  0.51100000000E-03 0. -1.
         11   -1    0    0    0    0 -0.00000000000E+00 -0.00000000000E+00 -0.45593999997E+02  0.45594000000E+02  0.51100000000E-03 0.  1.
    9900012    2    1    2    0    0 -0.14011033834E+01 -0.18185984378E+02  0.42414404892E+01  0.72461469731E+02  0.69999868997E+02 0.  0.
         12    1    1    2    0    0  0.14011033834E+01  0.18185984378E+02 -0.42414404892E+01  0.18726530269E+02  0.00000000000E+00 0. -1.
         11    1    3    3    0    0 -0.19184568694E+02 -0.15081639840E+02  0.15726959309E+02  0.29031720335E+02  0.51100000000E-03 0. -1.
        -11    1    3    3    0    0  0.36882266801E+01 -0.15402376248E+02 -0.17668912885E+02  0.23728183515E+02  0.51100000000E-03 0.  1.
        -12    1    3    3    0    0  0.14095238630E+02  0.12298031710E+02  0.61833940652E+01  0.19701565881E+02  0.00000000000E+00 0.  1.
</event>
<event>
 7    1  0.3348003E-013  0.7246155E+02  0.7816164E-02  0.1226708E+00
        -11   -1    0    0    0    0  0.00000000000E+00  0.00000000000E+00  0.45593999997E+02  0.45594000000E+02  0.51100000000E-03 0. -1.
         11   -1    0    0    0    0 -0.00000000000E+00 -0.00000000000E+00 -0.45593999997E+02  0.45594000000E+02  0.51100000000E-03 0.  1.
    9900012    2    1    2    0    0 -0.18715104097E+02 -0.44758380875E+00 -0.47370065029E+00  0.72461552261E+02  0.69999976508E+02 0.  0.
         12    1    1    2    0    0  0.18715104097E+02  0.44758380875E+00  0.47370065029E+00  0.18726447739E+02  0.00000000000E+00 0. -1.
         11    1    3    3    0    0 -0.28674693977E+02  0.27089646265E+02  0.22542561942E+01  0.39511627158E+02  0.51100000000E-03 0. -1.
        -11    1    3    3    0    0  0.33282680896E+01 -0.37784708874E+01 -0.62575005815E+01  0.80318444028E+01  0.51100000000E-03 0.  1.
        -12    1    3    3    0    0  0.66313217903E+01 -0.23758759187E+02  0.35295437370E+01  0.24918080700E+02  0.00000000000E+00 0.  1.
</event>
<event>
 7    1  0.3348003E-013  0.7246143E+02  0.7816164E-02  0.1226708E+00
        -11   -1    0    0    0    0  0.00000000000E+00  0.00000000000E+00  0.45593999997E+02  0.45594000000E+02  0.51100000000E-03 0. -1.
         11   -1    0    0    0    0 -0.00000000000E+00 -0.00000000000E+00 -0.45593999997E+02  0.45594000000E+02  0.51100000000E-03 0.  1.
    9900012    2    1    2    0    0 -0.16967161066E+02  0.70060718562E+01  0.37033539201E+01  0.72461429899E+02  0.69999817109E+02 0.  0.
         12    1    1    2    0    0  0.16967161066E+02 -0.70060718562E+01 -0.37033539201E+01  0.18726570101E+02  0.00000000000E+00 0. -1.
         11    1    3    3    0    0 -0.15190255059E+02  0.17736514459E+02  0.93541063735E+01  0.25156054941E+02  0.51100000000E-03 0. -1.
        -11    1    3    3    0    0 -0.12503861462E+02  0.14328537223E+02  0.16429771014E+01  0.19088030397E+02  0.51100000000E-03 0.  1.
        -12    1    3    3    0    0  0.10726955456E+02 -0.25058979825E+02 -0.72937295548E+01  0.28217344561E+02  0.00000000000E+00 0.  1.
</event>
<event>
 7    1  0.3348003E-013  0.7246158E+02  0.7816164E-02  0.1226708E+00
        -11   -1    0    0    0    0  0.00000000000E+00  0.00000000000E+00  0.45593999997E+02  0.45594000000E+02  0.51100000000E-03 0. -1.
         11   -1    0    0    0    0 -0.00000000000E+00 -0.00000000000E+00 -0.45593999997E+02  0.45594000000E+02  0.51100000000E-03 0.  1.
    9900012    2    1    2    0    0  0.12951639221E+02 -0.10376475558E+02  0.86753930729E+01  0.72461584206E+02  0.70000018122E+02 0.  0.
         12    1    1    2    0    0 -0.12951639221E+02  0.10376475558E+02 -0.86753930729E+01  0.18726415794E+02  0.00000000000E+00 0. -1.
         11    1    3    3    0    0  0.26344439757E+02 -0.16419501405E+01  0.18962036804E+02  0.32500528402E+02  0.51100000000E-03 0. -1.
        -11    1    3    3    0    0 -0.23610757610E+02 -0.93921840225E+01  0.51883107749E-01  0.25410306723E+02  0.51100000000E-03 0.  1.
        -12    1    3    3    0    0  0.10217957075E+02  0.65765860468E+00 -0.10338526838E+02  0.14550749081E+02  0.00000000000E+00 0.  1.
</event>
<event>
 7    1  0.3348003E-013  0.7246154E+02  0.7816164E-02  0.1226708E+00
        -11   -1    0    0    0    0  0.00000000000E+00  0.00000000000E+00  0.45593999997E+02  0.45594000000E+02  0.51100000000E-03 0.  1.
         11   -1    0    0    0    0 -0.00000000000E+00 -0.00000000000E+00 -0.45593999997E+02  0.45594000000E+02  0.51100000000E-03 0. -1.
    9900012    2    1    2    0    0 -0.58208760542E+01  0.16939402596E+02 -0.54639019942E+01  0.72461543225E+02  0.69999964738E+02 0.  0.
         12    1    1    2    0    0  0.58208760542E+01 -0.16939402596E+02  0.54639019942E+01  0.18726456775E+02  0.00000000000E+00 0. -1.
         11    1    3    3    0    0 -0.25368951586E+02  0.56759402995E+01 -0.15727768093E+02  0.30383592485E+02  0.51100000000E-03 0. -1.
        -11    1    3    3    0    0  0.62205267815E+01  0.21765426662E+02  0.80421554426E+00  0.22651170260E+02  0.51100000000E-03 0.  1.
        -12    1    3    3    0    0  0.13327548750E+02 -0.10501964366E+02  0.94596505544E+01  0.19426780481E+02  0.00000000000E+00 0.  1.
</event>
<event>
 7    1  0.3348003E-013  0.7246171E+02  0.7816164E-02  0.1226708E+00
        -11   -1    0    0    0    0  0.00000000000E+00  0.00000000000E+00  0.45593999997E+02  0.45594000000E+02  0.51100000000E-03 0.  1.
         11   -1    0    0    0    0 -0.00000000000E+00 -0.00000000000E+00 -0.45593999997E+02  0.45594000000E+02  0.51100000000E-03 0. -1.
    9900012    2    1    2    0    0 -0.11235325293E+02  0.53927046209E+01  0.13977127433E+02  0.72461711290E+02  0.70000183673E+02 0.  0.
         12    1    1    2    0    0  0.11235325293E+02 -0.53927046209E+01 -0.13977127433E+02  0.18726288710E+02  0.00000000000E+00 0. -1.
         11    1    3    3    0    0 -0.45990384493E+01  0.12579535640E+01  0.25942290022E+01  0.54280407335E+01  0.51100000000E-03 0. -1.
        -11    1    3    3    0    0  0.10950653711E+02 -0.10302347287E+02  0.32614197171E+02  0.35912964702E+02  0.51100000000E-03 0.  1.
         12    1    3    3    0    0 -0.17586940554E+02  0.14437098344E+02 -0.21231298740E+02  0.31120705854E+02  0.00000000000E+00 0. -1.
</event>
<event>
 7    1  0.3348003E-013  0.7246156E+02  0.7816164E-02  0.1226708E+00
        -11   -1    0    0    0    0  0.00000000000E+00  0.00000000000E+00  0.45593999997E+02  0.45594000000E+02  0.51100000000E-03 0.  1.
         11   -1    0    0    0    0 -0.00000000000E+00 -0.00000000000E+00 -0.45593999997E+02  0.45594000000E+02  0.51100000000E-03 0. -1.
    9900012    2    1    2    0    0 -0.46066444736E+01 -0.71931855615E+00  0.18136732637E+02  0.72461557112E+02  0.69999982827E+02 0.  0.
         12    1    1    2    0    0  0.46066444736E+01  0.71931855615E+00 -0.18136732637E+02  0.18726442888E+02  0.00000000000E+00 0. -1.
         11    1    3    3    0    0 -0.28166390741E+01 -0.57836945493E+01  0.96244822912E+01  0.11576495063E+02  0.51100000000E-03 0. -1.
        -11    1    3    3    0    0 -0.21208000919E+02 -0.18449705011E+02 -0.30421209997E+01  0.28274112159E+02  0.51100000000E-03 0.  1.
         12    1    3    3    0    0  0.19417995519E+02  0.23514081004E+02  0.11554371346E+02  0.32610949889E+02  0.00000000000E+00 0. -1.
</event>
<event>
 7    1  0.3348003E-013  0.7246148E+02  0.7816164E-02  0.1226708E+00
        -11   -1    0    0    0    0  0.00000000000E+00  0.00000000000E+00  0.45593999997E+02  0.45594000000E+02  0.51100000000E-03 0. -1.
         11   -1    0    0    0    0 -0.00000000000E+00 -0.00000000000E+00 -0.45593999997E+02  0.45594000000E+02  0.51100000000E-03 0.  1.
    9900012    2    1    2    0    0  0.10010931164E+02 -0.11185621653E+02 -0.11195792697E+02  0.72461477401E+02  0.69999878989E+02 0.  0.
         12    1    1    2    0    0 -0.10010931164E+02  0.11185621653E+02  0.11195792697E+02  0.18726522599E+02  0.00000000000E+00 0. -1.
         11    1    3    3    0    0  0.11773212234E+02 -0.12543478304E+02 -0.10081567336E+02  0.19939542986E+02  0.51100000000E-03 0. -1.
        -11    1    3    3    0    0 -0.22709030930E+02 -0.10217065921E+02 -0.10218431063E+02  0.26916627862E+02  0.51100000000E-03 0.  1.
         12    1    3    3    0    0  0.20946749860E+02  0.11574922572E+02  0.91042057021E+01  0.25605306554E+02  0.00000000000E+00 0. -1.
</event>
<event>
 7    1  0.3348003E-013  0.7246152E+02  0.7816164E-02  0.1226708E+00
        -11   -1    0    0    0    0  0.00000000000E+00  0.00000000000E+00  0.45593999997E+02  0.45594000000E+02  0.51100000000E-03 0.  1.
         11   -1    0    0    0    0 -0.00000000000E+00 -0.00000000000E+00 -0.45593999997E+02  0.45594000000E+02  0.51100000000E-03 0. -1.
    9900012    2    1    2    0    0  0.85275302153E+01  0.75020544496E+01  0.14888972292E+02  0.72461519059E+02  0.69999933256E+02 0.  0.
         12    1    1    2    0    0 -0.85275302153E+01 -0.75020544496E+01 -0.14888972292E+02  0.18726480941E+02  0.00000000000E+00 0. -1.
         11    1    3    3    0    0 -0.16728897661E+01 -0.14730689781E+02 -0.72963833640E+01  0.16523588958E+02  0.51100000000E-03 0. -1.
        -11    1    3    3    0    0 -0.58941085748E+01 -0.11075618765E+02 -0.47665144988E+00  0.12555359166E+02  0.51100000000E-03 0.  1.
         12    1    3    3    0    0  0.16094528556E+02  0.33308362996E+02  0.22662007106E+02  0.43382570935E+02  0.00000000000E+00 0. -1.
</event>
<event>
 7    1  0.3348003E-013  0.7246151E+02  0.7816164E-02  0.1226708E+00
        -11   -1    0    0    0    0  0.00000000000E+00  0.00000000000E+00  0.45593999997E+02  0.45594000000E+02  0.51100000000E-03 0. -1.
         11   -1    0    0    0    0 -0.00000000000E+00 -0.00000000000E+00 -0.45593999997E+02  0.45594000000E+02  0.51100000000E-03 0.  1.
    9900012    2    1    2    0    0  0.13864843393E+02 -0.82866244352E+01 -0.94751959745E+01  0.72461511659E+02  0.69999923616E+02 0.  0.
         12    1    1    2    0    0 -0.13864843393E+02  0.82866244352E+01  0.94751959745E+01  0.18726488341E+02  0.00000000000E+00 0. -1.
         11    1    3    3    0    0  0.81066172327E+01  0.24312685029E+01  0.23534283207E+01  0.87844712198E+01  0.51100000000E-03 0. -1.
        -11    1    3    3    0    0  0.24899511666E+02  0.15822668944E+02 -0.22806386612E+01  0.29589590175E+02  0.51100000000E-03 0.  1.
        -12    1    3    3    0    0 -0.19141285506E+02 -0.26540561882E+02 -0.95479856340E+01  0.34087450264E+02  0.00000000000E+00 0.  1.
</event>
<event>
 7    1  0.3348003E-013  0.7246157E+02  0.7816164E-02  0.1226708E+00
        -11   -1    0    0    0    0  0.00000000000E+00  0.00000000000E+00  0.45593999997E+02  0.45594000000E+02  0.51100000000E-03 0. -1.
         11   -1    0    0    0    0 -0.00000000000E+00 -0.00000000000E+00 -0.45593999997E+02  0.45594000000E+02  0.51100000000E-03 0.  1.
    9900012    2    1    2    0    0 -0.84737087073E+01  0.54710420090E+01 -0.15777934506E+02  0.72461567954E+02  0.69999996951E+02 0.  0.
         12    1    1    2    0    0  0.84737087073E+01 -0.54710420090E+01  0.15777934506E+02  0.18726432046E+02  0.00000000000E+00 0. -1.
         11    1    3    3    0    0  0.20350444192E+01  0.42426771390E+01  0.18152641803E+01  0.50435007088E+01  0.51100000000E-03 0. -1.
        -11    1    3    3    0    0  0.22389775152E+02 -0.14123175382E+00 -0.25111242837E+02  0.33643669461E+02  0.51100000000E-03 0.  1.
         12    1    3    3    0    0 -0.32898528278E+02  0.13695966238E+01  0.75180441505E+01  0.33774397784E+02  0.00000000000E+00 0. -1.
</event>
<event>
 7    1  0.3348003E-013  0.7246157E+02  0.7816164E-02  0.1226708E+00
        -11   -1    0    0    0    0  0.00000000000E+00  0.00000000000E+00  0.45593999997E+02  0.45594000000E+02  0.51100000000E-03 0. -1.
         11   -1    0    0    0    0 -0.00000000000E+00 -0.00000000000E+00 -0.45593999997E+02  0.45594000000E+02  0.51100000000E-03 0.  1.
    9900012    2    1    2    0    0 -0.13457173033E+01  0.68733316289E+01 -0.17367368332E+02  0.72461571470E+02  0.70000001531E+02 0.  0.
         12    1    1    2    0    0  0.13457173033E+01 -0.68733316289E+01  0.17367368332E+02  0.18726428530E+02  0.00000000000E+00 0. -1.
         11    1    3    3    0    0 -0.55975533090E+01 -0.36477327496E+01 -0.31319296567E+02  0.32024004980E+02  0.51100000000E-03 0. -1.
        -11    1    3    3    0    0 -0.11553512521E+01  0.18154297242E+01 -0.12179644265E+02  0.12368280248E+02  0.51100000000E-03 0.  1.
         12    1    3    3    0    0  0.54071872579E+01  0.87056346543E+01  0.26131572500E+02  0.28069286242E+02  0.00000000000E+00 0. -1.
</event>
<event>
 7    1  0.3348003E-013  0.7246112E+02  0.7816164E-02  0.1226709E+00
        -11   -1    0    0    0    0  0.00000000000E+00  0.00000000000E+00  0.45593999997E+02  0.45594000000E+02  0.51100000000E-03 0. -1.
         11   -1    0    0    0    0 -0.00000000000E+00 -0.00000000000E+00 -0.45593999997E+02  0.45594000000E+02  0.51100000000E-03 0.  1.
    9900012    2    1    2    0    0  0.16005653715E+01  0.14118324474E+02 -0.12198647796E+02  0.72461123498E+02  0.69999417963E+02 0.  0.
         12    1    1    2    0    0 -0.16005653715E+01 -0.14118324474E+02  0.12198647796E+02  0.18726876502E+02  0.00000000000E+00 0. -1.
         11    1    3    3    0    0  0.32170206434E+01  0.75368251556E+01  0.19304812433E+02  0.20972094282E+02  0.51100000000E-03 0. -1.
        -11    1    3    3    0    0 -0.18541512324E+02  0.72323623695E+00 -0.45127032092E+01  0.19096471937E+02  0.51100000000E-03 0.  1.
         12    1    3    3    0    0  0.16925057052E+02  0.58582630817E+01 -0.26990757020E+02  0.32392557279E+02  0.00000000000E+00 0. -1.
</event>
<event>
 7    1  0.3348003E-013  0.7246158E+02  0.7816164E-02  0.1226708E+00
        -11   -1    0    0    0    0  0.00000000000E+00  0.00000000000E+00  0.45593999997E+02  0.45594000000E+02  0.51100000000E-03 0.  1.
         11   -1    0    0    0    0 -0.00000000000E+00 -0.00000000000E+00 -0.45593999997E+02  0.45594000000E+02  0.51100000000E-03 0. -1.
    9900012    2    1    2    0    0  0.91721660605E+01 -0.81114969187E+01 -0.14168767199E+02  0.72461575450E+02  0.70000006716E+02 0.  0.
         12    1    1    2    0    0 -0.91721660605E+01  0.81114969187E+01  0.14168767199E+02  0.18726424550E+02  0.00000000000E+00 0. -1.
         11    1    3    3    0    0  0.93355634557E+01 -0.87250865745E+01 -0.11754718475E+02  0.17362410186E+02  0.51100000000E-03 0. -1.
        -11    1    3    3    0    0  0.12461185151E+01  0.20727699747E+02  0.17204533211E+02  0.26966392258E+02  0.51100000000E-03 0.  1.
         12    1    3    3    0    0 -0.14095159103E+01 -0.20114110092E+02 -0.19618581935E+02  0.28132773006E+02  0.00000000000E+00 0. -1.
</event>
<event>
 7    1  0.3348003E-013  0.7246159E+02  0.7816164E-02  0.1226708E+00
        -11   -1    0    0    0    0  0.00000000000E+00  0.00000000000E+00  0.45593999997E+02  0.45594000000E+02  0.51100000000E-03 0.  1.
         11   -1    0    0    0    0 -0.00000000000E+00 -0.00000000000E+00 -0.45593999997E+02  0.45594000000E+02  0.51100000000E-03 0. -1.
    9900012    2    1    2    0    0  0.14858793054E+02 -0.11068870483E+02  0.27156264626E+01  0.72461594796E+02  0.70000031918E+02 0.  0.
         12    1    1    2    0    0 -0.14858793054E+02  0.11068870483E+02 -0.27156264626E+01  0.18726405204E+02  0.00000000000E+00 0. -1.
         11    1    3    3    0    0 -0.15655564955E+02 -0.10728642126E+02 -0.18642341613E+02  0.26603333946E+02  0.51100000000E-03 0. -1.
        -11    1    3    3    0    0  0.13650709832E+02  0.29762019400E+01 -0.46149560411E+01  0.14713853215E+02  0.51100000000E-03 0.  1.
        -12    1    3    3    0    0  0.16863648177E+02 -0.33164302973E+01  0.25972924117E+02  0.31144407635E+02  0.00000000000E+00 0.  1.
</event>
<event>
 7    1  0.3348003E-013  0.7246143E+02  0.7816164E-02  0.1226708E+00
        -11   -1    0    0    0    0  0.00000000000E+00  0.00000000000E+00  0.45593999997E+02  0.45594000000E+02  0.51100000000E-03 0.  1.
         11   -1    0    0    0    0 -0.00000000000E+00 -0.00000000000E+00 -0.45593999997E+02  0.45594000000E+02  0.51100000000E-03 0. -1.
    9900012    2    1    2    0    0 -0.12388095882E+02 -0.12649196678E+02  0.61006112952E+01  0.72461426518E+02  0.69999812705E+02 0.  0.
         12    1    1    2    0    0  0.12388095882E+02  0.12649196678E+02 -0.61006112952E+01  0.18726573482E+02  0.00000000000E+00 0. -1.
         11    1    3    3    0    0  0.13029026213E+02 -0.19237808160E+02 -0.20581786332E+02  0.31039631372E+02  0.51100000000E-03 0. -1.
        -11    1    3    3    0    0 -0.84526623373E+01  0.27465524711E+01 -0.77188838563E+00  0.89211469558E+01  0.51100000000E-03 0.  1.
        -12    1    3    3    0    0 -0.16964459758E+02  0.38420590106E+01  0.27454286013E+02  0.32500648190E+02  0.00000000000E+00 0.  1.
</event>
<event>
 7    1  0.3348003E-013  0.7246157E+02  0.7816164E-02  0.1226708E+00
        -11   -1    0    0    0    0  0.00000000000E+00  0.00000000000E+00  0.45593999997E+02  0.45594000000E+02  0.51100000000E-03 0.  1.
         11   -1    0    0    0    0 -0.00000000000E+00 -0.00000000000E+00 -0.45593999997E+02  0.45594000000E+02  0.51100000000E-03 0. -1.
    9900012    2    1    2    0    0 -0.59156141468E+00  0.60560003120E+01  0.17710278388E+02  0.72461573612E+02  0.70000004321E+02 0.  0.
         12    1    1    2    0    0  0.59156141468E+00 -0.60560003120E+01 -0.17710278388E+02  0.18726426388E+02  0.00000000000E+00 0. -1.
         11    1    3    3    0    0  0.46733612399E+01 -0.82546875396E+01 -0.18025486509E+02  0.20369053385E+02  0.51100000000E-03 0. -1.
        -11    1    3    3    0    0 -0.15544781880E+01 -0.35013893123E+01 -0.56830198872E+01  0.68536738216E+01  0.51100000000E-03 0.  1.
        -12    1    3    3    0    0 -0.37104444667E+01  0.17812077164E+02  0.41418784785E+02  0.45238846405E+02  0.00000000000E+00 0.  1.
</event>
<event>
 7    1  0.3348003E-013  0.7246156E+02  0.7816164E-02  0.1226708E+00
        -11   -1    0    0    0    0  0.00000000000E+00  0.00000000000E+00  0.45593999997E+02  0.45594000000E+02  0.51100000000E-03 0.  1.
         11   -1    0    0    0    0 -0.00000000000E+00 -0.00000000000E+00 -0.45593999997E+02  0.45594000000E+02  0.51100000000E-03 0. -1.
    9900012    2    1    2    0    0  0.53449850246E+01  0.15104193737E+02 -0.96940129400E+01  0.72461563600E+02  0.69999991280E+02 0.  0.
         12    1    1    2    0    0 -0.53449850246E+01 -0.15104193737E+02  0.96940129400E+01  0.18726436400E+02  0.00000000000E+00 0. -1.
         11    1    3    3    0    0 -0.20763441954E+01 -0.11328156455E+02  0.30492164255E+01  0.11913691912E+02  0.51100000000E-03 0. -1.
        -11    1    3    3    0    0  0.89179489351E+01 -0.13925265561E+02  0.36971897932E+01  0.16944380980E+02  0.51100000000E-03 0.  1.
         12    1    3    3    0    0 -0.14966197152E+01  0.40357615753E+02 -0.16440419159E+02  0.43603490709E+02  0.00000000000E+00 0. -1.
</event>
<event>
 7    1  0.3348003E-013  0.7246157E+02  0.7816164E-02  0.1226708E+00
        -11   -1    0    0    0    0  0.00000000000E+00  0.00000000000E+00  0.45593999997E+02  0.45594000000E+02  0.51100000000E-03 0. -1.
         11   -1    0    0    0    0 -0.00000000000E+00 -0.00000000000E+00 -0.45593999997E+02  0.45594000000E+02  0.51100000000E-03 0.  1.
    9900012    2    1    2    0    0 -0.16632080939E+02  0.81985980679E+01 -0.26145552950E+01  0.72461574125E+02  0.70000004991E+02 0.  0.
         12    1    1    2    0    0  0.16632080939E+02 -0.81985980679E+01  0.26145552950E+01  0.18726425875E+02  0.00000000000E+00 0. -1.
         11    1    3    3    0    0  0.14338491750E+02  0.10901582511E+02 -0.70037445034E+01  0.19325870853E+02  0.51100000000E-03 0. -1.
        -11    1    3    3    0    0 -0.18835984032E+02  0.19372166920E+02  0.67037778111E+01  0.27839105281E+02  0.51100000000E-03 0.  1.
        -12    1    3    3    0    0 -0.12134588657E+02 -0.22075151362E+02 -0.23145886027E+01  0.25296597991E+02  0.00000000000E+00 0.  1.
</event>
<event>
 7    1  0.3348003E-013  0.7246156E+02  0.7816164E-02  0.1226708E+00
        -11   -1    0    0    0    0  0.00000000000E+00  0.00000000000E+00  0.45593999997E+02  0.45594000000E+02  0.51100000000E-03 0. -1.
         11   -1    0    0    0    0 -0.00000000000E+00 -0.00000000000E+00 -0.45593999997E+02  0.45594000000E+02  0.51100000000E-03 0.  1.
    9900012    2    1    2    0    0 -0.12624006189E+02  0.86293552137E+00 -0.13804679826E+02  0.72461564806E+02  0.69999992850E+02 0.  0.
         12    1    1    2    0    0  0.12624006189E+02 -0.86293552137E+00  0.13804679826E+02  0.18726435194E+02  0.00000000000E+00 0. -1.
         11    1    3    3    0    0  0.12475838939E+02  0.99773283646E+01  0.28604626925E+01  0.16228859652E+02  0.51100000000E-03 0. -1.
        -11    1    3    3    0    0 -0.14050822813E+01  0.75816818189E+01  0.12772511289E+02  0.14919557644E+02  0.51100000000E-03 0.  1.
        -12    1    3    3    0    0 -0.23694762847E+02 -0.16696074662E+02 -0.29437653807E+02  0.41313147510E+02  0.00000000000E+00 0.  1.
</event>
<event>
 7    1  0.3348003E-013  0.7246156E+02  0.7816164E-02  0.1226708E+00
        -11   -1    0    0    0    0  0.00000000000E+00  0.00000000000E+00  0.45593999997E+02  0.45594000000E+02  0.51100000000E-03 0.  1.
         11   -1    0    0    0    0 -0.00000000000E+00 -0.00000000000E+00 -0.45593999997E+02  0.45594000000E+02  0.51100000000E-03 0. -1.
    9900012    2    1    2    0    0 -0.13947974579E+02  0.10330961899E+01  0.12452566322E+02  0.72461556381E+02  0.69999981876E+02 0.  0.
         12    1    1    2    0    0  0.13947974579E+02 -0.10330961899E+01 -0.12452566322E+02  0.18726443619E+02  0.00000000000E+00 0. -1.
         11    1    3    3    0    0 -0.73126694822E+01  0.17232507299E+02  0.34955208211E+01  0.19043453175E+02  0.51100000000E-03 0. -1.
        -11    1    3    3    0    0 -0.85408695344E+00  0.38045479989E+01  0.26135043440E+02  0.26424317321E+02  0.51100000000E-03 0.  1.
         12    1    3    3    0    0 -0.57812181434E+01 -0.20003959108E+02 -0.17177997939E+02  0.26993785885E+02  0.00000000000E+00 0. -1.
</event>
<event>
 7    1  0.3348003E-013  0.7246155E+02  0.7816164E-02  0.1226708E+00
        -11   -1    0    0    0    0  0.00000000000E+00  0.00000000000E+00  0.45593999997E+02  0.45594000000E+02  0.51100000000E-03 0.  1.
         11   -1    0    0    0    0 -0.00000000000E+00 -0.00000000000E+00 -0.45593999997E+02  0.45594000000E+02  0.51100000000E-03 0. -1.
    9900012    2    1    2    0    0 -0.15324641762E+02  0.10694223659E+02  0.12120104018E+01  0.72461547212E+02  0.69999969931E+02 0.  0.
         12    1    1    2    0    0  0.15324641762E+02 -0.10694223659E+02 -0.12120104018E+01  0.18726452788E+02  0.00000000000E+00 0. -1.
         11    1    3    3    0    0 -0.17412581565E+02  0.42402903665E+01 -0.59247864663E+01  0.18875411362E+02  0.51100000000E-03 0. -1.
        -11    1    3    3    0    0 -0.32525546784E+01 -0.56827315193E+01  0.28060752009E+02  0.28814551064E+02  0.51100000000E-03 0.  1.
         12    1    3    3    0    0  0.53404944814E+01  0.12136664812E+02 -0.20923955141E+02  0.24771584786E+02  0.00000000000E+00 0. -1.
</event>
<event>
 7    1  0.3348003E-013  0.7246158E+02  0.7816164E-02  0.1226708E+00
        -11   -1    0    0    0    0  0.00000000000E+00  0.00000000000E+00  0.45593999997E+02  0.45594000000E+02  0.51100000000E-03 0.  1.
         11   -1    0    0    0    0 -0.00000000000E+00 -0.00000000000E+00 -0.45593999997E+02  0.45594000000E+02  0.51100000000E-03 0. -1.
    9900012    2    1    2    0    0  0.34193958253E+01  0.13290491094E+02  0.12741644710E+02  0.72461576656E+02  0.70000008288E+02 0.  0.
         12    1    1    2    0    0 -0.34193958253E+01 -0.13290491094E+02 -0.12741644710E+02  0.18726423344E+02  0.00000000000E+00 0. -1.
         11    1    3    3    0    0 -0.20280644452E+02  0.23611698675E+02  0.62052304844E+01  0.31738332334E+02  0.51100000000E-03 0. -1.
        -11    1    3    3    0    0  0.15451903464E+02  0.98975113335E+01  0.25589124140E+01  0.18527549332E+02  0.51100000000E-03 0.  1.
         12    1    3    3    0    0  0.82481368138E+01 -0.20218718915E+02  0.39775018118E+01  0.22195694990E+02  0.00000000000E+00 0. -1.
</event>
<event>
 7    1  0.3348003E-013  0.7246165E+02  0.7816164E-02  0.1226708E+00
        -11   -1    0    0    0    0  0.00000000000E+00  0.00000000000E+00  0.45593999997E+02  0.45594000000E+02  0.51100000000E-03 0.  1.
         11   -1    0    0    0    0 -0.00000000000E+00 -0.00000000000E+00 -0.45593999997E+02  0.45594000000E+02  0.51100000000E-03 0. -1.
    9900012    2    1    2    0    0 -0.62400867485E+00 -0.17455179017E+02  0.67530430265E+01  0.72461648207E+02  0.70000101496E+02 0.  0.
         12    1    1    2    0    0  0.62400867485E+00  0.17455179017E+02 -0.67530430265E+01  0.18726351793E+02  0.00000000000E+00 0. -1.
         11    1    3    3    0    0  0.10139298992E+02 -0.25349694927E+02 -0.34794813067E+01  0.27523066823E+02  0.51100000000E-03 0. -1.
        -11    1    3    3    0    0  0.13442286013E+02 -0.71763602461E+01  0.32021771325E+01  0.15570778346E+02  0.51100000000E-03 0.  1.
        -12    1    3    3    0    0 -0.24205593680E+02  0.15070876156E+02  0.70303472008E+01  0.29367803038E+02  0.00000000000E+00 0.  1.
</event>
<event>
 7    1  0.3348003E-013  0.7246155E+02  0.7816164E-02  0.1226708E+00
        -11   -1    0    0    0    0  0.00000000000E+00  0.00000000000E+00  0.45593999997E+02  0.45594000000E+02  0.51100000000E-03 0.  1.
         11   -1    0    0    0    0 -0.00000000000E+00 -0.00000000000E+00 -0.45593999997E+02  0.45594000000E+02  0.51100000000E-03 0. -1.
    9900012    2    1    2    0    0 -0.12279238052E+02  0.62164321079E+01  0.12698665114E+02  0.72461553168E+02  0.69999977690E+02 0.  0.
         12    1    1    2    0    0  0.12279238052E+02 -0.62164321079E+01 -0.12698665114E+02  0.18726446832E+02  0.00000000000E+00 0. -1.
         11    1    3    3    0    0  0.63673748766E+01 -0.33584751330E+00  0.66541013581E+01  0.92159275993E+01  0.51100000000E-03 0. -1.
        -11    1    3    3    0    0  0.19986368398E+02 -0.81904742828E+01  0.24956095470E+01  0.21743202569E+02  0.51100000000E-03 0.  1.
         12    1    3    3    0    0 -0.38632981326E+02  0.14742753904E+02  0.35489542086E+01  0.41502422999E+02  0.00000000000E+00 0. -1.
</event>
<event>
 7    1  0.3610279E-013  0.7246163E+02  0.7816164E-02  0.1226708E+00
        -11   -1    0    0    0    0  0.00000000000E+00  0.00000000000E+00  0.45593999997E+02  0.45594000000E+02  0.51100000000E-03 0.  1.
         11   -1    0    0    0    0 -0.00000000000E+00 -0.00000000000E+00 -0.45593999997E+02  0.45594000000E+02  0.51100000000E-03 0. -1.
    9900012    2    1    2    0    0 -0.11245895507E+02  0.13635740292E+02  0.61865524741E+01  0.72461627939E+02  0.70000075093E+02 0.  0.
         12    1    1    2    0    0  0.11245895507E+02 -0.13635740292E+02 -0.61865524741E+01  0.18726372061E+02  0.00000000000E+00 0. -1.
         11    1    3    3    0    0 -0.20516555244E+01 -0.11178839288E+02 -0.22325553819E+02  0.25052067616E+02  0.51100000000E-03 0. -1.
        -11    1    3    3    0    0  0.12087902453E+01  0.20910147982E+02  0.51942230374E+01  0.21579513797E+02  0.51100000000E-03 0.  1.
        -12    1    3    3    0    0 -0.10403030228E+02  0.39044315975E+01  0.23317883256E+02  0.25830046527E+02  0.00000000000E+00 0.  1.
</event>
<event>
 7    1  0.3683574E-013  0.7246158E+02  0.7816164E-02  0.1226708E+00
        -11   -1    0    0    0    0  0.00000000000E+00  0.00000000000E+00  0.45593999997E+02  0.45594000000E+02  0.51100000000E-03 0. -1.
         11   -1    0    0    0    0 -0.00000000000E+00 -0.00000000000E+00 -0.45593999997E+02  0.45594000000E+02  0.51100000000E-03 0.  1.
    9900012    2    1    2    0    0 -0.15680390290E+01  0.68259612301E+01 -0.17367388473E+02  0.72461583485E+02  0.70000017184E+02 0.  0.
         12    1    1    2    0    0  0.15680390290E+01 -0.68259612301E+01  0.17367388473E+02  0.18726416515E+02  0.00000000000E+00 0. -1.
         11    1    3    3    0    0 -0.72335772453E+01  0.14217424930E+02  0.17870239851E+02  0.23954233112E+02  0.51100000000E-03 0. -1.
        -11    1    3    3    0    0  0.51752898342E+01  0.68387719966E+01  0.18559794037E+01  0.87747984078E+01  0.51100000000E-03 0.  1.
        -12    1    3    3    0    0  0.49024838217E+00 -0.14230235697E+02 -0.37093607727E+02  0.39732551965E+02  0.00000000000E+00 0.  1.
</event>
<event>
 7    1  0.3348003E-013  0.7246161E+02  0.7816164E-02  0.1226708E+00
        -11   -1    0    0    0    0  0.00000000000E+00  0.00000000000E+00  0.45593999997E+02  0.45594000000E+02  0.51100000000E-03 0. -1.
         11   -1    0    0    0    0 -0.00000000000E+00 -0.00000000000E+00 -0.45593999997E+02  0.45594000000E+02  0.51100000000E-03 0.  1.
    9900012    2    1    2    0    0  0.92013931586E+01 -0.38940090632E+01 -0.15838206532E+02  0.72461608762E+02  0.70000050111E+02 0.  0.
         12    1    1    2    0    0 -0.92013931586E+01  0.38940090632E+01  0.15838206532E+02  0.18726391238E+02  0.00000000000E+00 0. -1.
         11    1    3    3    0    0  0.40259443203E+01 -0.11139672746E+02  0.20717743111E+02  0.23864731644E+02  0.51100000000E-03 0. -1.
        -11    1    3    3    0    0 -0.28271216614E+01 -0.18289739889E+01  0.45992165179E+01  0.57000487348E+01  0.51100000000E-03 0.  1.
        -12    1    3    3    0    0  0.80025704997E+01  0.90746376722E+01 -0.41155166162E+02  0.42896828383E+02  0.00000000000E+00 0.  1.
</event>
<event>
 7    1  0.3348003E-013  0.7246159E+02  0.7816164E-02  0.1226708E+00
        -11   -1    0    0    0    0  0.00000000000E+00  0.00000000000E+00  0.45593999997E+02  0.45594000000E+02  0.51100000000E-03 0.  1.
         11   -1    0    0    0    0 -0.00000000000E+00 -0.00000000000E+00 -0.45593999997E+02  0.45594000000E+02  0.51100000000E-03 0. -1.
    9900012    2    1    2    0    0 -0.11114976668E+02  0.11356684785E+02  0.99076533469E+01  0.72461585755E+02  0.70000020140E+02 0.  0.
         12    1    1    2    0    0  0.11114976668E+02 -0.11356684785E+02 -0.99076533469E+01  0.18726414245E+02  0.00000000000E+00 0. -1.
         11    1    3    3    0    0  0.23016984137E+02  0.49083638288E+01 -0.47627208379E+01  0.24011603534E+02  0.51100000000E-03 0. -1.
        -11    1    3    3    0    0 -0.10561318244E+02 -0.55073032009E+01 -0.73954604351E+01  0.14020152172E+02  0.51100000000E-03 0.  1.
         12    1    3    3    0    0 -0.23570642561E+02  0.11955624157E+02  0.22065834620E+02  0.34429830049E+02  0.00000000000E+00 0. -1.
</event>
<event>
 7    1  0.3348003E-013  0.7246159E+02  0.7816164E-02  0.1226708E+00
        -11   -1    0    0    0    0  0.00000000000E+00  0.00000000000E+00  0.45593999997E+02  0.45594000000E+02  0.51100000000E-03 0. -1.
         11   -1    0    0    0    0 -0.00000000000E+00 -0.00000000000E+00 -0.45593999997E+02  0.45594000000E+02  0.51100000000E-03 0.  1.
    9900012    2    1    2    0    0 -0.34770951261E+00  0.29098855330E+01 -0.18495678160E+02  0.72461589604E+02  0.70000025154E+02 0.  0.
         12    1    1    2    0    0  0.34770951261E+00 -0.29098855330E+01  0.18495678160E+02  0.18726410396E+02  0.00000000000E+00 0. -1.
         11    1    3    3    0    0 -0.25494162561E+01 -0.96504991610E+01 -0.89384826441E+00  0.10021507985E+02  0.51100000000E-03 0. -1.
        -11    1    3    3    0    0 -0.15012611646E+02 -0.14244962210E+02  0.73634929169E+01  0.21966303399E+02  0.51100000000E-03 0.  1.
        -12    1    3    3    0    0  0.17214318390E+02  0.26805346904E+02 -0.24965322813E+02  0.40473778220E+02  0.00000000000E+00 0.  1.
</event>
<event>
 7    1  0.3348003E-013  0.7246151E+02  0.7816164E-02  0.1226708E+00
        -11   -1    0    0    0    0  0.00000000000E+00  0.00000000000E+00  0.45593999997E+02  0.45594000000E+02  0.51100000000E-03 0. -1.
         11   -1    0    0    0    0 -0.00000000000E+00 -0.00000000000E+00 -0.45593999997E+02  0.45594000000E+02  0.51100000000E-03 0.  1.
    9900012    2    1    2    0    0  0.99406372787E+01  0.15825864842E+02  0.11862976287E+01  0.72461506213E+02  0.69999916522E+02 0.  0.
         12    1    1    2    0    0 -0.99406372787E+01 -0.15825864842E+02 -0.11862976287E+01  0.18726493787E+02  0.00000000000E+00 0. -1.
         11    1    3    3    0    0  0.35077110145E+02  0.14099277633E+02 -0.39457959124E+01  0.38010032774E+02  0.51100000000E-03 0. -1.
        -11    1    3    3    0    0 -0.43132745767E+01  0.76388292931E+01 -0.54804544166E+01  0.10343666246E+02  0.51100000000E-03 0.  1.
        -12    1    3    3    0    0 -0.20823198289E+02 -0.59122420843E+01  0.10612547958E+02  0.24107807192E+02  0.00000000000E+00 0.  1.
</event>
<event>
 7    1  0.3348003E-013  0.7246156E+02  0.7816164E-02  0.1226708E+00
        -11   -1    0    0    0    0  0.00000000000E+00  0.00000000000E+00  0.45593999997E+02  0.45594000000E+02  0.51100000000E-03 0. -1.
         11   -1    0    0    0    0 -0.00000000000E+00 -0.00000000000E+00 -0.45593999997E+02  0.45594000000E+02  0.51100000000E-03 0.  1.
    9900012    2    1    2    0    0  0.82268861098E+01 -0.13101812154E+02 -0.10551795959E+02  0.72461560543E+02  0.69999987297E+02 0.  0.
         12    1    1    2    0    0 -0.82268861098E+01  0.13101812154E+02  0.10551795959E+02  0.18726439457E+02  0.00000000000E+00 0. -1.
         11    1    3    3    0    0  0.28734174396E+02 -0.15335909908E+02 -0.60392437530E+01  0.33125750955E+02  0.51100000000E-03 0. -1.
        -11    1    3    3    0    0  0.55467437085E+01 -0.90948040810E+01 -0.16801666475E+01  0.10784469726E+02  0.51100000000E-03 0.  1.
        -12    1    3    3    0    0 -0.26054031995E+02  0.11328901835E+02 -0.28323855584E+01  0.28551339862E+02  0.00000000000E+00 0.  1.
</event>
<event>
 7    1  0.3348003E-013  0.7246158E+02  0.7816164E-02  0.1226708E+00
        -11   -1    0    0    0    0  0.00000000000E+00  0.00000000000E+00  0.45593999997E+02  0.45594000000E+02  0.51100000000E-03 0.  1.
         11   -1    0    0    0    0 -0.00000000000E+00 -0.00000000000E+00 -0.45593999997E+02  0.45594000000E+02  0.51100000000E-03 0. -1.
    9900012    2    1    2    0    0 -0.88718806260E+01  0.16442200562E+02 -0.12738109819E+01  0.72461579638E+02  0.70000012172E+02 0.  0.
         12    1    1    2    0    0  0.88718806260E+01 -0.16442200562E+02  0.12738109819E+01  0.18726420362E+02  0.00000000000E+00 0. -1.
         11    1    3    3    0    0  0.15287903815E+01 -0.36323976393E+01  0.25939527913E+01  0.47180614647E+01  0.51100000000E-03 0. -1.
        -11    1    3    3    0    0  0.23293466250E+02 -0.24139287845E+01  0.92264239642E+01  0.25170210996E+02  0.51100000000E-03 0.  1.
        -12    1    3    3    0    0 -0.33694137258E+02  0.22488526986E+02 -0.13094187737E+02  0.42573307178E+02  0.00000000000E+00 0.  1.
</event>
<event>
 7    1  0.3348003E-013  0.7246157E+02  0.7816164E-02  0.1226708E+00
        -11   -1    0    0    0    0  0.00000000000E+00  0.00000000000E+00  0.45593999997E+02  0.45594000000E+02  0.51100000000E-03 0. -1.
         11   -1    0    0    0    0 -0.00000000000E+00 -0.00000000000E+00 -0.45593999997E+02  0.45594000000E+02  0.51100000000E-03 0.  1.
    9900012    2    1    2    0    0 -0.47452826426E+01  0.17716547921E+02 -0.37796004005E+01  0.72461570635E+02  0.70000000443E+02 0.  0.
         12    1    1    2    0    0  0.47452826426E+01 -0.17716547921E+02  0.37796004005E+01  0.18726429365E+02  0.00000000000E+00 0. -1.
         11    1    3    3    0    0 -0.17980513530E+02  0.22237340286E+01 -0.64924166304E+01  0.19245657531E+02  0.51100000000E-03 0. -1.
        -11    1    3    3    0    0  0.53763357386E+01  0.33253193149E+02  0.72282551161E+00  0.33692763579E+02  0.51100000000E-03 0.  1.
         12    1    3    3    0    0  0.78588951486E+01 -0.17760379257E+02  0.19899907183E+01  0.19523149525E+02  0.00000000000E+00 0. -1.
</event>
<event>
 7    1  0.3348003E-013  0.7246158E+02  0.7816164E-02  0.1226708E+00
        -11   -1    0    0    0    0  0.00000000000E+00  0.00000000000E+00  0.45593999997E+02  0.45594000000E+02  0.51100000000E-03 0. -1.
         11   -1    0    0    0    0 -0.00000000000E+00 -0.00000000000E+00 -0.45593999997E+02  0.45594000000E+02  0.51100000000E-03 0.  1.
    9900012    2    1    2    0    0 -0.15331525182E+02  0.29616618035E+01 -0.10336904042E+02  0.72461583092E+02  0.70000016671E+02 0.  0.
         12    1    1    2    0    0  0.15331525182E+02 -0.29616618035E+01  0.10336904042E+02  0.18726416908E+02  0.00000000000E+00 0. -1.
         11    1    3    3    0    0 -0.10789620383E+02 -0.10669335511E+02 -0.13537054652E+02  0.20334760317E+02  0.51100000000E-03 0. -1.
        -11    1    3    3    0    0 -0.92563870949E+01 -0.32648515279E+01 -0.20448823686E+02  0.22682467854E+02  0.51100000000E-03 0.  1.
        -12    1    3    3    0    0  0.47144822960E+01  0.16895848843E+02  0.23648974296E+02  0.29444354920E+02  0.00000000000E+00 0.  1.
</event>
<event>
 7    1  0.3348003E-013  0.7246156E+02  0.7816164E-02  0.1226708E+00
        -11   -1    0    0    0    0  0.00000000000E+00  0.00000000000E+00  0.45593999997E+02  0.45594000000E+02  0.51100000000E-03 0.  1.
         11   -1    0    0    0    0 -0.00000000000E+00 -0.00000000000E+00 -0.45593999997E+02  0.45594000000E+02  0.51100000000E-03 0. -1.
    9900012    2    1    2    0    0  0.15874257548E+02  0.74779111788E+01  0.65397443892E+01  0.72461562406E+02  0.69999989723E+02 0.  0.
         12    1    1    2    0    0 -0.15874257548E+02 -0.74779111788E+01 -0.65397443892E+01  0.18726437594E+02  0.00000000000E+00 0. -1.
         11    1    3    3    0    0  0.33923479192E+01 -0.91395745459E+00 -0.27087339633E+01  0.44362802638E+01  0.51100000000E-03 0. -1.
        -11    1    3    3    0    0  0.39183344488E+02  0.32904037492E+01  0.32800758634E-01  0.39321270558E+02  0.51100000000E-03 0.  1.
         12    1    3    3    0    0 -0.26701434859E+02  0.51014648842E+01  0.92156775940E+01  0.28704011584E+02  0.00000000000E+00 0. -1.
</event>
<event>
 7    1  0.3348003E-013  0.7246163E+02  0.7816164E-02  0.1226708E+00
        -11   -1    0    0    0    0  0.00000000000E+00  0.00000000000E+00  0.45593999997E+02  0.45594000000E+02  0.51100000000E-03 0. -1.
         11   -1    0    0    0    0 -0.00000000000E+00 -0.00000000000E+00 -0.45593999997E+02  0.45594000000E+02  0.51100000000E-03 0.  1.
    9900012    2    1    2    0    0 -0.16774186737E+02  0.82447504235E+01 -0.11522024689E+01  0.72461633007E+02  0.70000081694E+02 0.  0.
         12    1    1    2    0    0  0.16774186737E+02 -0.82447504235E+01  0.11522024689E+01  0.18726366993E+02  0.00000000000E+00 0. -1.
         11    1    3    3    0    0 -0.26163179012E+02  0.23345587224E+02  0.20638650442E+01  0.35125317337E+02  0.51100000000E-03 0. -1.
        -11    1    3    3    0    0 -0.13299077022E+01  0.70689857997E+01  0.75790223910E+01  0.10448961451E+02  0.51100000000E-03 0.  1.
        -12    1    3    3    0    0  0.10718899977E+02 -0.22169822600E+02 -0.10795089904E+02  0.26887354219E+02  0.00000000000E+00 0.  1.
</event>
<event>
 7    1  0.3348003E-013  0.7246157E+02  0.7816164E-02  0.1226708E+00
        -11   -1    0    0    0    0  0.00000000000E+00  0.00000000000E+00  0.45593999997E+02  0.45594000000E+02  0.51100000000E-03 0. -1.
         11   -1    0    0    0    0 -0.00000000000E+00 -0.00000000000E+00 -0.45593999997E+02  0.45594000000E+02  0.51100000000E-03 0.  1.
    9900012    2    1    2    0    0 -0.87809110295E+01 -0.21345740121E+01 -0.16401781295E+02  0.72461568563E+02  0.69999997744E+02 0.  0.
         12    1    1    2    0    0  0.87809110295E+01  0.21345740121E+01  0.16401781295E+02  0.18726431437E+02  0.00000000000E+00 0. -1.
         11    1    3    3    0    0 -0.15502441909E+02  0.15547477355E+01 -0.16222646438E+02  0.22492603304E+02  0.51100000000E-03 0. -1.
        -11    1    3    3    0    0 -0.77986281281E+01 -0.20751403128E+02 -0.11382310602E+02  0.24919797900E+02  0.51100000000E-03 0.  1.
         12    1    3    3    0    0  0.14520159007E+02  0.17062081380E+02  0.11203175745E+02  0.25049167359E+02  0.00000000000E+00 0. -1.
</event>
<event>
 7    1  0.3348003E-013  0.7246159E+02  0.7816164E-02  0.1226708E+00
        -11   -1    0    0    0    0  0.00000000000E+00  0.00000000000E+00  0.45593999997E+02  0.45594000000E+02  0.51100000000E-03 0.  1.
         11   -1    0    0    0    0 -0.00000000000E+00 -0.00000000000E+00 -0.45593999997E+02  0.45594000000E+02  0.51100000000E-03 0. -1.
    9900012    2    1    2    0    0 -0.42901828718E+00  0.15735142659E+02  0.10143952963E+02  0.72461586758E+02  0.70000021447E+02 0.  0.
         12    1    1    2    0    0  0.42901828718E+00 -0.15735142659E+02 -0.10143952963E+02  0.18726413242E+02  0.00000000000E+00 0. -1.
         11    1    3    3    0    0 -0.23310308427E+01 -0.24284525160E+02 -0.36212768621E+01  0.24663444881E+02  0.51100000000E-03 0. -1.
        -11    1    3    3    0    0 -0.82226326825E+01  0.10067536349E+02  0.90323955934E+01  0.15828807497E+02  0.51100000000E-03 0.  1.
        -12    1    3    3    0    0  0.10124645238E+02  0.29952131470E+02  0.47328342319E+01  0.31969334380E+02  0.00000000000E+00 0.  1.
</event>
<event>
 7    1  0.3348003E-013  0.7246156E+02  0.7816164E-02  0.1226708E+00
        -11   -1    0    0    0    0  0.00000000000E+00  0.00000000000E+00  0.45593999997E+02  0.45594000000E+02  0.51100000000E-03 0.  1.
         11   -1    0    0    0    0 -0.00000000000E+00 -0.00000000000E+00 -0.45593999997E+02  0.45594000000E+02  0.51100000000E-03 0. -1.
    9900012    2    1    2    0    0  0.97429578589E+01  0.15570191599E+02  0.36501508818E+01  0.72461556244E+02  0.69999981697E+02 0.  0.
         12    1    1    2    0    0 -0.97429578589E+01 -0.15570191599E+02 -0.36501508818E+01  0.18726443756E+02  0.00000000000E+00 0. -1.
         11    1    3    3    0    0 -0.17676785891E+02  0.48179538519E+01 -0.14869083869E+02  0.23595997417E+02  0.51100000000E-03 0. -1.
        -11    1    3    3    0    0  0.22446675635E+02  0.98636872062E+01 -0.48185362555E+01  0.24987274046E+02  0.51100000000E-03 0.  1.
         12    1    3    3    0    0  0.49730681150E+01  0.88855054126E+00  0.23337771006E+02  0.23878284781E+02  0.00000000000E+00 0. -1.
</event>
<event>
 7    1  0.3348003E-013  0.7246150E+02  0.7816164E-02  0.1226708E+00
        -11   -1    0    0    0    0  0.00000000000E+00  0.00000000000E+00  0.45593999997E+02  0.45594000000E+02  0.51100000000E-03 0.  1.
         11   -1    0    0    0    0 -0.00000000000E+00 -0.00000000000E+00 -0.45593999997E+02  0.45594000000E+02  0.51100000000E-03 0. -1.
    9900012    2    1    2    0    0 -0.90142086664E+01  0.11183426193E+02  0.12014864592E+02  0.72461496043E+02  0.69999903274E+02 0.  0.
         12    1    1    2    0    0  0.90142086664E+01 -0.11183426193E+02 -0.12014864592E+02  0.18726503957E+02  0.00000000000E+00 0. -1.
         11    1    3    3    0    0 -0.15000827827E+02  0.13008640282E+02 -0.84862604321E+01  0.21593197398E+02  0.51100000000E-03 0. -1.
        -11    1    3    3    0    0 -0.70769641685E+01 -0.15593043732E+01 -0.13014332329E+02  0.14895895348E+02  0.51100000000E-03 0.  1.
        -12    1    3    3    0    0  0.13063583330E+02 -0.26590971602E+00  0.33515457353E+02  0.35972403297E+02  0.00000000000E+00 0.  1.
</event>
<event>
 7    1  0.3348003E-013  0.7246157E+02  0.7816164E-02  0.1226708E+00
        -11   -1    0    0    0    0  0.00000000000E+00  0.00000000000E+00  0.45593999997E+02  0.45594000000E+02  0.51100000000E-03 0.  1.
         11   -1    0    0    0    0 -0.00000000000E+00 -0.00000000000E+00 -0.45593999997E+02  0.45594000000E+02  0.51100000000E-03 0. -1.
    9900012    2    1    2    0    0  0.14836610022E+02  0.80746102920E+01  0.80842425690E+01  0.72461566644E+02  0.69999995245E+02 0.  0.
         12    1    1    2    0    0 -0.14836610022E+02 -0.80746102920E+01 -0.80842425690E+01  0.18726433356E+02  0.00000000000E+00 0. -1.
         11    1    3    3    0    0 -0.65531576259E+01  0.26523378036E+02 -0.75642273253E+00  0.27331403786E+02  0.51100000000E-03 0. -1.
        -11    1    3    3    0    0 -0.58358639756E+01  0.19293024614E+01 -0.54760714136E+01  0.82320638188E+01  0.51100000000E-03 0.  1.
        -12    1    3    3    0    0  0.27225631623E+02 -0.20378070205E+02  0.14316736715E+02  0.36898099040E+02  0.00000000000E+00 0.  1.
</event>
<event>
 7    1  0.3348003E-013  0.7246148E+02  0.7816164E-02  0.1226708E+00
        -11   -1    0    0    0    0  0.00000000000E+00  0.00000000000E+00  0.45593999997E+02  0.45594000000E+02  0.51100000000E-03 0.  1.
         11   -1    0    0    0    0 -0.00000000000E+00 -0.00000000000E+00 -0.45593999997E+02  0.45594000000E+02  0.51100000000E-03 0. -1.
    9900012    2    1    2    0    0  0.41396685833E+01 -0.65580622501E+01  0.17045160526E+02  0.72461480468E+02  0.69999882984E+02 0.  0.
         12    1    1    2    0    0 -0.41396685833E+01  0.65580622501E+01 -0.17045160526E+02  0.18726519532E+02  0.00000000000E+00 0. -1.
         11    1    3    3    0    0 -0.21976962357E+02 -0.10455740991E+02  0.64496546677E+01  0.25177518538E+02  0.51100000000E-03 0. -1.
        -11    1    3    3    0    0  0.24278065031E+02 -0.13999669242E+02  0.76723961835E+01  0.29056511215E+02  0.51100000000E-03 0.  1.
        -12    1    3    3    0    0  0.18385659097E+01  0.17897347983E+02  0.29231096744E+01  0.18227450715E+02  0.00000000000E+00 0.  1.
</event>
<event>
 7    1  0.3348003E-013  0.7246159E+02  0.7816164E-02  0.1226708E+00
        -11   -1    0    0    0    0  0.00000000000E+00  0.00000000000E+00  0.45593999997E+02  0.45594000000E+02  0.51100000000E-03 0.  1.
         11   -1    0    0    0    0 -0.00000000000E+00 -0.00000000000E+00 -0.45593999997E+02  0.45594000000E+02  0.51100000000E-03 0. -1.
    9900012    2    1    2    0    0 -0.15078139405E+02 -0.58368114479E+00  0.11089975494E+02  0.72461587422E+02  0.70000022312E+02 0.  0.
         12    1    1    2    0    0  0.15078139405E+02  0.58368114479E+00 -0.11089975494E+02  0.18726412578E+02  0.00000000000E+00 0. -1.
         11    1    3    3    0    0 -0.47236423232E+01  0.14121297352E+02 -0.38533888308E+01  0.15380911593E+02  0.51100000000E-03 0. -1.
        -11    1    3    3    0    0 -0.21292702302E+02  0.12277276428E+02  0.50896377171E+00  0.24583932399E+02  0.51100000000E-03 0.  1.
         12    1    3    3    0    0  0.10938205220E+02 -0.26982254924E+02  0.14434400553E+02  0.32496743430E+02  0.00000000000E+00 0. -1.
</event>
<event>
 7    1  0.3348003E-013  0.7246157E+02  0.7816164E-02  0.1226708E+00
        -11   -1    0    0    0    0  0.00000000000E+00  0.00000000000E+00  0.45593999997E+02  0.45594000000E+02  0.51100000000E-03 0. -1.
         11   -1    0    0    0    0 -0.00000000000E+00 -0.00000000000E+00 -0.45593999997E+02  0.45594000000E+02  0.51100000000E-03 0.  1.
    9900012    2    1    2    0    0  0.15040884315E+02 -0.81309463497E+01 -0.76379731447E+01  0.72461571529E+02  0.70000001608E+02 0.  0.
         12    1    1    2    0    0 -0.15040884315E+02  0.81309463497E+01  0.76379731447E+01  0.18726428471E+02  0.00000000000E+00 0. -1.
         11    1    3    3    0    0 -0.78379073887E+01 -0.13486466205E+02 -0.27288295410E+02  0.31431968274E+02  0.51100000000E-03 0. -1.
        -11    1    3    3    0    0  0.40325647579E+01  0.14227146839E+02  0.51879683932E+01  0.15671257194E+02  0.51100000000E-03 0.  1.
        -12    1    3    3    0    0  0.18846226946E+02 -0.88716269844E+01  0.14462353872E+02  0.25358346061E+02  0.00000000000E+00 0.  1.
</event>
<event>
 7    1  0.3348003E-013  0.7246157E+02  0.7816164E-02  0.1226708E+00
        -11   -1    0    0    0    0  0.00000000000E+00  0.00000000000E+00  0.45593999997E+02  0.45594000000E+02  0.51100000000E-03 0.  1.
         11   -1    0    0    0    0 -0.00000000000E+00 -0.00000000000E+00 -0.45593999997E+02  0.45594000000E+02  0.51100000000E-03 0. -1.
    9900012    2    1    2    0    0 -0.14441171347E+02 -0.59171383354E+01  0.10349835637E+02  0.72461573388E+02  0.70000004030E+02 0.  0.
         12    1    1    2    0    0  0.14441171347E+02  0.59171383354E+01 -0.10349835637E+02  0.18726426612E+02  0.00000000000E+00 0. -1.
         11    1    3    3    0    0 -0.10909821440E+02  0.46799947767E+01 -0.49321413770E+01  0.12855060241E+02  0.51100000000E-03 0.  1.
        -11    1    3    3    0    0 -0.35721919307E+01 -0.90255247608E+00 -0.21374490150E+02  0.21689720736E+02  0.51100000000E-03 0. -1.
        -12    1    3    3    0    0  0.40842023979E-01 -0.96945806361E+01  0.36656467164E+02  0.37916792411E+02  0.00000000000E+00 0.  1.
</event>
<event>
 7    1  0.3348003E-013  0.7246162E+02  0.7816164E-02  0.1226708E+00
        -11   -1    0    0    0    0  0.00000000000E+00  0.00000000000E+00  0.45593999997E+02  0.45594000000E+02  0.51100000000E-03 0. -1.
         11   -1    0    0    0    0 -0.00000000000E+00 -0.00000000000E+00 -0.45593999997E+02  0.45594000000E+02  0.51100000000E-03 0.  1.
    9900012    2    1    2    0    0 -0.82457982797E+01  0.13808259997E+00 -0.16812647739E+02  0.72461618073E+02  0.70000062240E+02 0.  0.
         12    1    1    2    0    0  0.82457982797E+01 -0.13808259997E+00  0.16812647739E+02  0.18726381927E+02  0.00000000000E+00 0. -1.
         11    1    3    3    0    0  0.48818208038E+01  0.88585513709E+01  0.87200278236E+01  0.13354586937E+02  0.51100000000E-03 0. -1.
        -11    1    3    3    0    0  0.18544812394E+02  0.13570995416E+01 -0.15998284912E+02  0.24529510926E+02  0.51100000000E-03 0.  1.
         12    1    3    3    0    0 -0.31672431477E+02 -0.10077568313E+02 -0.95343906514E+01  0.34577520210E+02  0.00000000000E+00 0. -1.
</event>
<event>
 7    1  0.3348003E-013  0.7246175E+02  0.7816164E-02  0.1226708E+00
        -11   -1    0    0    0    0  0.00000000000E+00  0.00000000000E+00  0.45593999997E+02  0.45594000000E+02  0.51100000000E-03 0. -1.
         11   -1    0    0    0    0 -0.00000000000E+00 -0.00000000000E+00 -0.45593999997E+02  0.45594000000E+02  0.51100000000E-03 0.  1.
    9900012    2    1    2    0    0  0.16140806693E+02 -0.77345406897E+01 -0.55067069152E+01  0.72461746199E+02  0.70000229148E+02 0.  0.
         12    1    1    2    0    0 -0.16140806693E+02  0.77345406897E+01  0.55067069152E+01  0.18726253801E+02  0.00000000000E+00 0. -1.
         11    1    3    3    0    0  0.14715113752E+01  0.47126332811E+01  0.53549926894E+01  0.72835571759E+01  0.51100000000E-03 0. -1.
        -11    1    3    3    0    0 -0.23606493714E+02 -0.11272104504E+01 -0.87722191194E+01  0.25208906708E+02  0.51100000000E-03 0.  1.
         12    1    3    3    0    0  0.38275789032E+02 -0.11319963520E+02 -0.20894804852E+01  0.39969282315E+02  0.00000000000E+00 0. -1.
</event>
<event>
 7    1  0.3348003E-013  0.7246146E+02  0.7816164E-02  0.1226708E+00
        -11   -1    0    0    0    0  0.00000000000E+00  0.00000000000E+00  0.45593999997E+02  0.45594000000E+02  0.51100000000E-03 0.  1.
         11   -1    0    0    0    0 -0.00000000000E+00 -0.00000000000E+00 -0.45593999997E+02  0.45594000000E+02  0.51100000000E-03 0. -1.
    9900012    2    1    2    0    0 -0.30000288694E+01 -0.71947141397E+01 -0.17027015387E+02  0.72461459002E+02  0.69999855021E+02 0.  0.
         12    1    1    2    0    0  0.30000288694E+01  0.71947141397E+01  0.17027015387E+02  0.18726540998E+02  0.00000000000E+00 0. -1.
         11    1    3    3    0    0  0.17186937144E+02  0.15343796680E+02  0.58442698357E+00  0.23047005448E+02  0.51100000000E-03 0. -1.
        -11    1    3    3    0    0 -0.56396033166E+01  0.24355240845E-01  0.96350499497E+01  0.11164224404E+02  0.51100000000E-03 0.  1.
        -12    1    3    3    0    0 -0.14547362697E+02 -0.22562866061E+02 -0.27246492320E+02  0.38250229150E+02  0.00000000000E+00 0.  1.
</event>
<event>
 7    1  0.3348003E-013  0.7246160E+02  0.7816164E-02  0.1226708E+00
        -11   -1    0    0    0    0  0.00000000000E+00  0.00000000000E+00  0.45593999997E+02  0.45594000000E+02  0.51100000000E-03 0.  1.
         11   -1    0    0    0    0 -0.00000000000E+00 -0.00000000000E+00 -0.45593999997E+02  0.45594000000E+02  0.51100000000E-03 0. -1.
    9900012    2    1    2    0    0  0.16907576023E+02 -0.13047008774E+01  0.79441684483E+01  0.72461596616E+02  0.70000034289E+02 0.  0.
         12    1    1    2    0    0 -0.16907576023E+02  0.13047008774E+01 -0.79441684483E+01  0.18726403384E+02  0.00000000000E+00 0. -1.
         11    1    3    3    0    0 -0.15133751684E+02  0.21966024133E+01 -0.94556994388E+01  0.17979592718E+02  0.51100000000E-03 0. -1.
        -11    1    3    3    0    0  0.13678204952E+02 -0.21310595311E+02  0.41065982968E+01  0.25653438621E+02  0.51100000000E-03 0.  1.
        -12    1    3    3    0    0  0.18363122754E+02  0.17809292020E+02  0.13293269590E+02  0.28828565277E+02  0.00000000000E+00 0.  1.
</event>
<event>
 7    1  0.3348003E-013  0.7246236E+02  0.7816164E-02  0.1226706E+00
        -11   -1    0    0    0    0  0.00000000000E+00  0.00000000000E+00  0.45593999997E+02  0.45594000000E+02  0.51100000000E-03 0.  1.
         11   -1    0    0    0    0 -0.00000000000E+00 -0.00000000000E+00 -0.45593999997E+02  0.45594000000E+02  0.51100000000E-03 0. -1.
    9900012    2    1    2    0    0 -0.12211250846E+02  0.11659692708E+02  0.80985481820E+01  0.72462360788E+02  0.70001029757E+02 0.  0.
         12    1    1    2    0    0  0.12211250846E+02 -0.11659692708E+02 -0.80985481820E+01  0.18725639212E+02  0.00000000000E+00 0. -1.
         11    1    3    3    0    0 -0.73332233999E+01 -0.28403853624E+01  0.15969290871E+02  0.17800623742E+02  0.51100000000E-03 0. -1.
        -11    1    3    3    0    0 -0.22049686145E+02  0.46079613899E+01  0.12896363731E+02  0.25956466728E+02  0.51100000000E-03 0.  1.
         12    1    3    3    0    0  0.17171658699E+02  0.98921166804E+01 -0.20767106420E+02  0.28705270317E+02  0.00000000000E+00 0. -1.
</event>
<event>
 7    1  0.3348003E-013  0.7246158E+02  0.7816164E-02  0.1226708E+00
        -11   -1    0    0    0    0  0.00000000000E+00  0.00000000000E+00  0.45593999997E+02  0.45594000000E+02  0.51100000000E-03 0. -1.
         11   -1    0    0    0    0 -0.00000000000E+00 -0.00000000000E+00 -0.45593999997E+02  0.45594000000E+02  0.51100000000E-03 0.  1.
    9900012    2    1    2    0    0  0.71095757281E+01  0.16374460932E+02 -0.56577275818E+01  0.72461576977E+02  0.70000008705E+02 0.  0.
         12    1    1    2    0    0 -0.71095757281E+01 -0.16374460932E+02  0.56577275818E+01  0.18726423023E+02  0.00000000000E+00 0. -1.
         11    1    3    3    0    0 -0.13026439595E+01 -0.68827251316E+01 -0.47829202067E+00  0.70212214066E+01  0.51100000000E-03 0. -1.
        -11    1    3    3    0    0  0.29492212519E+02  0.27330431418E+01 -0.16514114725E+02  0.33911297668E+02  0.51100000000E-03 0.  1.
         12    1    3    3    0    0 -0.21079992832E+02  0.20524142922E+02  0.11334679164E+02  0.31529057902E+02  0.00000000000E+00 0. -1.
</event>
<event>
 7    1  0.3348003E-013  0.7246158E+02  0.7816164E-02  0.1226708E+00
        -11   -1    0    0    0    0  0.00000000000E+00  0.00000000000E+00  0.45593999997E+02  0.45594000000E+02  0.51100000000E-03 0.  1.
         11   -1    0    0    0    0 -0.00000000000E+00 -0.00000000000E+00 -0.45593999997E+02  0.45594000000E+02  0.51100000000E-03 0. -1.
    9900012    2    1    2    0    0 -0.16377398730E+02  0.95678422875E+00  0.90301784609E+01  0.72461581542E+02  0.70000014652E+02 0.  0.
         12    1    1    2    0    0  0.16377398730E+02 -0.95678422875E+00 -0.90301784609E+01  0.18726418458E+02  0.00000000000E+00 0. -1.
         11    1    3    3    0    0 -0.21923696128E+02 -0.12658924834E+02  0.51959797067E+01  0.25843665283E+02  0.51100000000E-03 0. -1.
        -11    1    3    3    0    0 -0.13101170262E+02  0.11006284342E+02  0.16623342714E+02  0.23856120400E+02  0.51100000000E-03 0.  1.
         12    1    3    3    0    0  0.18647467661E+02  0.26094247204E+01 -0.12789143960E+02  0.22761795860E+02  0.00000000000E+00 0. -1.
</event>
<event>
 7    1  0.3348003E-013  0.7246152E+02  0.7816164E-02  0.1226708E+00
        -11   -1    0    0    0    0  0.00000000000E+00  0.00000000000E+00  0.45593999997E+02  0.45594000000E+02  0.51100000000E-03 0. -1.
         11   -1    0    0    0    0 -0.00000000000E+00 -0.00000000000E+00 -0.45593999997E+02  0.45594000000E+02  0.51100000000E-03 0.  1.
    9900012    2    1    2    0    0  0.15665431163E+02  0.73629725452E+01 -0.71457545801E+01  0.72461523910E+02  0.69999939576E+02 0.  0.
         12    1    1    2    0    0 -0.15665431163E+02 -0.73629725452E+01  0.71457545801E+01  0.18726476090E+02  0.00000000000E+00 0. -1.
         11    1    3    3    0    0  0.15291739052E+02 -0.11050926094E+02 -0.24853917188E+01  0.19029908645E+02  0.51100000000E-03 0. -1.
        -11    1    3    3    0    0 -0.14054966756E+02 -0.12612179439E+02 -0.34259295533E+01  0.19192346242E+02  0.51100000000E-03 0.  1.
         12    1    3    3    0    0  0.14428658867E+02  0.31026078078E+02 -0.12344333080E+01  0.34239269023E+02  0.00000000000E+00 0. -1.
</event>
<event>
 7    1  0.3348003E-013  0.7246156E+02  0.7816164E-02  0.1226708E+00
        -11   -1    0    0    0    0  0.00000000000E+00  0.00000000000E+00  0.45593999997E+02  0.45594000000E+02  0.51100000000E-03 0.  1.
         11   -1    0    0    0    0 -0.00000000000E+00 -0.00000000000E+00 -0.45593999997E+02  0.45594000000E+02  0.51100000000E-03 0. -1.
    9900012    2    1    2    0    0  0.14691364706E+02 -0.92835228206E+01  0.69756383743E+01  0.72461560840E+02  0.69999987684E+02 0.  0.
         12    1    1    2    0    0 -0.14691364706E+02  0.92835228206E+01 -0.69756383743E+01  0.18726439160E+02  0.00000000000E+00 0. -1.
         11    1    3    3    0    0  0.14391588552E+02 -0.53556390085E+01 -0.86731465253E+01  0.17635877102E+02  0.51100000000E-03 0. -1.
        -11    1    3    3    0    0  0.25935455944E+02  0.26315409906E+01  0.84157074475E+01  0.27393375387E+02  0.51100000000E-03 0.  1.
         12    1    3    3    0    0 -0.25635679790E+02 -0.65594248027E+01  0.72330774521E+01  0.27432308351E+02  0.00000000000E+00 0. -1.
</event>
<event>
 7    1  0.3348003E-013  0.7246155E+02  0.7816164E-02  0.1226708E+00
        -11   -1    0    0    0    0  0.00000000000E+00  0.00000000000E+00  0.45593999997E+02  0.45594000000E+02  0.51100000000E-03 0.  1.
         11   -1    0    0    0    0 -0.00000000000E+00 -0.00000000000E+00 -0.45593999997E+02  0.45594000000E+02  0.51100000000E-03 0. -1.
    9900012    2    1    2    0    0 -0.11753606800E+02  0.44807592792E+01 -0.13872833312E+02  0.72461548637E+02  0.69999971788E+02 0.  0.
         12    1    1    2    0    0  0.11753606800E+02 -0.44807592792E+01  0.13872833312E+02  0.18726451363E+02  0.00000000000E+00 0. -1.
         11    1    3    3    0    0 -0.36287128521E+02 -0.45308848405E+00 -0.16298152496E+02  0.39781789307E+02  0.51100000000E-03 0. -1.
        -11    1    3    3    0    0 -0.77181481345E+00  0.58525556654E+01 -0.32368734707E+01  0.67324182913E+01  0.51100000000E-03 0.  1.
        -12    1    3    3    0    0  0.25305336534E+02 -0.91870790215E+00  0.56621926547E+01  0.25947341039E+02  0.00000000000E+00 0.  1.
</event>
<event>
 7    1  0.3348003E-013  0.7246161E+02  0.7816164E-02  0.1226708E+00
        -11   -1    0    0    0    0  0.00000000000E+00  0.00000000000E+00  0.45593999997E+02  0.45594000000E+02  0.51100000000E-03 0. -1.
         11   -1    0    0    0    0 -0.00000000000E+00 -0.00000000000E+00 -0.45593999997E+02  0.45594000000E+02  0.51100000000E-03 0.  1.
    9900012    2    1    2    0    0 -0.11295232669E+02 -0.12071821175E+02  0.87958321806E+01  0.72461606560E+02  0.70000047243E+02 0.  0.
         12    1    1    2    0    0  0.11295232669E+02  0.12071821175E+02 -0.87958321806E+01  0.18726393440E+02  0.00000000000E+00 0. -1.
         11    1    3    3    0    0  0.56663126893E+00 -0.16304037100E+02  0.80944200731E+01  0.18211598868E+02  0.51100000000E-03 0. -1.
        -11    1    3    3    0    0 -0.93346950339E+00 -0.15288358110E+02 -0.19024387133E+02  0.24424016154E+02  0.51100000000E-03 0.  1.
         12    1    3    3    0    0 -0.10928394434E+02  0.19520574035E+02  0.19725799241E+02  0.29825991539E+02  0.00000000000E+00 0. -1.
</event>
<event>
 7    1  0.3348003E-013  0.7246157E+02  0.7816164E-02  0.1226708E+00
        -11   -1    0    0    0    0  0.00000000000E+00  0.00000000000E+00  0.45593999997E+02  0.45594000000E+02  0.51100000000E-03 0.  1.
         11   -1    0    0    0    0 -0.00000000000E+00 -0.00000000000E+00 -0.45593999997E+02  0.45594000000E+02  0.51100000000E-03 0. -1.
    9900012    2    1    2    0    0 -0.44416048827E+01  0.15203473371E+02  0.99902808015E+01  0.72461570362E+02  0.70000000089E+02 0.  0.
         12    1    1    2    0    0  0.44416048827E+01 -0.15203473371E+02 -0.99902808015E+01  0.18726429638E+02  0.00000000000E+00 0. -1.
         11    1    3    3    0    0 -0.48339495688E+00 -0.85038695086E+01 -0.87976496648E+00  0.85629115353E+01  0.51100000000E-03 0. -1.
        -11    1    3    3    0    0  0.22954571149E+02  0.27384335082E+02  0.46611186334E+01  0.36035262892E+02  0.51100000000E-03 0.  1.
        -12    1    3    3    0    0 -0.26912781075E+02 -0.36769922023E+01  0.62089271346E+01  0.27863395935E+02  0.00000000000E+00 0.  1.
</event>
<event>
 7    1  0.3348003E-013  0.7246138E+02  0.7816164E-02  0.1226709E+00
        -11   -1    0    0    0    0  0.00000000000E+00  0.00000000000E+00  0.45593999997E+02  0.45594000000E+02  0.51100000000E-03 0. -1.
         11   -1    0    0    0    0 -0.00000000000E+00 -0.00000000000E+00 -0.45593999997E+02  0.45594000000E+02  0.51100000000E-03 0.  1.
    9900012    2    1    2    0    0 -0.12846115297E+02  0.13296578212E+02 -0.29773381421E+01  0.72461382238E+02  0.69999755021E+02 0.  0.
         12    1    1    2    0    0  0.12846115297E+02 -0.13296578212E+02  0.29773381421E+01  0.18726617762E+02  0.00000000000E+00 0. -1.
         11    1    3    3    0    0  0.26292655173E+01  0.35449229966E+01 -0.92129280889E+01  0.10215554828E+02  0.51100000000E-03 0. -1.
        -11    1    3    3    0    0  0.17538020125E+02  0.19518798204E+02  0.89155338923E+01  0.27713757920E+02  0.51100000000E-03 0.  1.
         12    1    3    3    0    0 -0.33013400939E+02 -0.97671429879E+01 -0.26799439456E+01  0.34532069490E+02  0.00000000000E+00 0. -1.
</event>
<event>
 7    1  0.3348003E-013  0.7246200E+02  0.7816164E-02  0.1226707E+00
        -11   -1    0    0    0    0  0.00000000000E+00  0.00000000000E+00  0.45593999997E+02  0.45594000000E+02  0.51100000000E-03 0.  1.
         11   -1    0    0    0    0 -0.00000000000E+00 -0.00000000000E+00 -0.45593999997E+02  0.45594000000E+02  0.51100000000E-03 0. -1.
    9900012    2    1    2    0    0 -0.95070037499E+01 -0.17195686096E+01  0.16041293708E+02  0.72461998282E+02  0.70000557531E+02 0.  0.
         12    1    1    2    0    0  0.95070037499E+01  0.17195686096E+01 -0.16041293708E+02  0.18726001718E+02  0.00000000000E+00 0. -1.
         11    1    3    3    0    0  0.54633306229E+01  0.56606103848E+01  0.10433008546E+02  0.13066681255E+02  0.51100000000E-03 0. -1.
        -11    1    3    3    0    0 -0.12489614598E+02 -0.13928131017E+02  0.29259712234E+02  0.34729152980E+02  0.51100000000E-03 0.  1.
         12    1    3    3    0    0 -0.24807197749E+01  0.65479520227E+01 -0.23651427072E+02  0.24666164048E+02  0.00000000000E+00 0. -1.
</event>
<event>
 7    1  0.3348003E-013  0.7246157E+02  0.7816164E-02  0.1226708E+00
        -11   -1    0    0    0    0  0.00000000000E+00  0.00000000000E+00  0.45593999997E+02  0.45594000000E+02  0.51100000000E-03 0. -1.
         11   -1    0    0    0    0 -0.00000000000E+00 -0.00000000000E+00 -0.45593999997E+02  0.45594000000E+02  0.51100000000E-03 0.  1.
    9900012    2    1    2    0    0  0.17767303428E+02  0.21658618948E+00 -0.59122872000E+01  0.72461571601E+02  0.70000001702E+02 0.  0.
         12    1    1    2    0    0 -0.17767303428E+02 -0.21658618948E+00  0.59122872000E+01  0.18726428399E+02  0.00000000000E+00 0. -1.
         11    1    3    3    0    0  0.99783467335E+01 -0.16109306923E+01  0.23231861855E+02  0.25335388427E+02  0.51100000000E-03 0. -1.
        -11    1    3    3    0    0  0.53963738991E+01 -0.14550239512E+02 -0.24411459343E+01  0.15709535793E+02  0.51100000000E-03 0.  1.
         12    1    3    3    0    0  0.23925827948E+01  0.16377756394E+02 -0.26703003121E+02  0.31416647380E+02  0.00000000000E+00 0. -1.
</event>
<event>
 7    1  0.3348003E-013  0.7246151E+02  0.7816164E-02  0.1226708E+00
        -11   -1    0    0    0    0  0.00000000000E+00  0.00000000000E+00  0.45593999997E+02  0.45594000000E+02  0.51100000000E-03 0. -1.
         11   -1    0    0    0    0 -0.00000000000E+00 -0.00000000000E+00 -0.45593999997E+02  0.45594000000E+02  0.51100000000E-03 0.  1.
    9900012    2    1    2    0    0 -0.11503111057E+01  0.64806834182E+00 -0.18679891692E+02  0.72461506419E+02  0.69999916790E+02 0.  0.
         12    1    1    2    0    0  0.11503111057E+01 -0.64806834182E+00  0.18679891692E+02  0.18726493581E+02  0.00000000000E+00 0. -1.
         11    1    3    3    0    0  0.21098371010E+02 -0.23272330451E+01  0.51861511006E+01  0.21850707915E+02  0.51100000000E-03 0. -1.
        -11    1    3    3    0    0  0.10302799197E+02 -0.22275893059E+01 -0.12074664460E+01  0.10609797401E+02  0.51100000000E-03 0.  1.
        -12    1    3    3    0    0 -0.32551481312E+02  0.52028906927E+01 -0.22658576347E+02  0.40001001103E+02  0.00000000000E+00 0.  1.
</event>
<event>
 7    1  0.3348003E-013  0.7246159E+02  0.7816164E-02  0.1226708E+00
        -11   -1    0    0    0    0  0.00000000000E+00  0.00000000000E+00  0.45593999997E+02  0.45594000000E+02  0.51100000000E-03 0.  1.
         11   -1    0    0    0    0 -0.00000000000E+00 -0.00000000000E+00 -0.45593999997E+02  0.45594000000E+02  0.51100000000E-03 0. -1.
    9900012    2    1    2    0    0 -0.86692273485E+01  0.42880589521E+01  0.16035440722E+02  0.72461593202E+02  0.70000029842E+02 0.  0.
         12    1    1    2    0    0  0.86692273485E+01 -0.42880589521E+01 -0.16035440722E+02  0.18726406798E+02  0.00000000000E+00 0. -1.
         11    1    3    3    0    0  0.46507675159E+01 -0.79128448363E+01  0.45957196419E+01  0.10264667125E+02  0.51100000000E-03 0. -1.
        -11    1    3    3    0    0  0.24995817907E+01 -0.17490079322E+02  0.20786170837E+02  0.27280316754E+02  0.51100000000E-03 0.  1.
         12    1    3    3    0    0 -0.15819576655E+02  0.29690983111E+02 -0.93464497570E+01  0.34916609324E+02  0.00000000000E+00 0. -1.
</event>
<event>
 7    1  0.3348003E-013  0.7246162E+02  0.7816164E-02  0.1226708E+00
        -11   -1    0    0    0    0  0.00000000000E+00  0.00000000000E+00  0.45593999997E+02  0.45594000000E+02  0.51100000000E-03 0.  1.
         11   -1    0    0    0    0 -0.00000000000E+00 -0.00000000000E+00 -0.45593999997E+02  0.45594000000E+02  0.51100000000E-03 0. -1.
    9900012    2    1    2    0    0  0.15196095958E+02 -0.10040078386E+02 -0.43534643742E+01  0.72461623992E+02  0.70000069951E+02 0.  0.
         12    1    1    2    0    0 -0.15196095958E+02  0.10040078386E+02  0.43534643742E+01  0.18726376008E+02  0.00000000000E+00 0. -1.
         11    1    3    3    0    0  0.15893404282E+02 -0.37822378636E+00 -0.26168998687E+02  0.30619599041E+02  0.51100000000E-03 0. -1.
        -11    1    3    3    0    0  0.52767742656E+01  0.12153253726E+00 -0.81775460360E+01  0.97330044817E+01  0.51100000000E-03 0.  1.
        -12    1    3    3    0    0 -0.59740825900E+01 -0.97833871364E+01  0.29993080349E+02  0.32109020469E+02  0.00000000000E+00 0.  1.
</event>
<event>
 7    1  0.3348003E-013  0.7246163E+02  0.7816164E-02  0.1226708E+00
        -11   -1    0    0    0    0  0.00000000000E+00  0.00000000000E+00  0.45593999997E+02  0.45594000000E+02  0.51100000000E-03 0.  1.
         11   -1    0    0    0    0 -0.00000000000E+00 -0.00000000000E+00 -0.45593999997E+02  0.45594000000E+02  0.51100000000E-03 0. -1.
    9900012    2    1    2    0    0  0.97301844915E-02 -0.18082742667E+02  0.48673528291E+01  0.72461633545E+02  0.70000082396E+02 0.  0.
         12    1    1    2    0    0 -0.97301844915E-02  0.18082742667E+02 -0.48673528291E+01  0.18726366455E+02  0.00000000000E+00 0. -1.
         11    1    3    3    0    0 -0.24870372753E+02 -0.50335057720E+00  0.27803921533E+01  0.25030369224E+02  0.51100000000E-03 0. -1.
        -11    1    3    3    0    0  0.41137039911E+01 -0.13803580882E+02 -0.14611859356E+02  0.20517500818E+02  0.51100000000E-03 0.  1.
        -12    1    3    3    0    0  0.20766398946E+02 -0.37758112078E+01  0.16698820032E+02  0.26913763504E+02  0.00000000000E+00 0.  1.
</event>
<event>
 7    1  0.3348003E-013  0.7246151E+02  0.7816164E-02  0.1226708E+00
        -11   -1    0    0    0    0  0.00000000000E+00  0.00000000000E+00  0.45593999997E+02  0.45594000000E+02  0.51100000000E-03 0. -1.
         11   -1    0    0    0    0 -0.00000000000E+00 -0.00000000000E+00 -0.45593999997E+02  0.45594000000E+02  0.51100000000E-03 0.  1.
    9900012    2    1    2    0    0  0.16745729223E+02 -0.82243181913E+01  0.16193842197E+01  0.72461514420E+02  0.69999927214E+02 0.  0.
         12    1    1    2    0    0 -0.16745729223E+02  0.82243181913E+01 -0.16193842197E+01  0.18726485580E+02  0.00000000000E+00 0. -1.
         11    1    3    3    0    0  0.73483406738E+01  0.65383346049E+01  0.25054582516E+02  0.26916166803E+02  0.51100000000E-03 0. -1.
        -11    1    3    3    0    0 -0.23800721984E+01  0.90268934244E+01 -0.15044479625E+02  0.17705533486E+02  0.51100000000E-03 0.  1.
        -12    1    3    3    0    0  0.11777460747E+02 -0.23789546221E+02 -0.83907186712E+01  0.27839814131E+02  0.00000000000E+00 0.  1.
</event>
<event>
 7    1  0.3348003E-013  0.7246158E+02  0.7816164E-02  0.1226708E+00
        -11   -1    0    0    0    0  0.00000000000E+00  0.00000000000E+00  0.45593999997E+02  0.45594000000E+02  0.51100000000E-03 0.  1.
         11   -1    0    0    0    0 -0.00000000000E+00 -0.00000000000E+00 -0.45593999997E+02  0.45594000000E+02  0.51100000000E-03 0. -1.
    9900012    2    1    2    0    0  0.36983034418E+01 -0.21764567575E+01  0.18228119549E+02  0.72461581371E+02  0.70000014430E+02 0.  0.
         12    1    1    2    0    0 -0.36983034418E+01  0.21764567575E+01 -0.18228119549E+02  0.18726418629E+02  0.00000000000E+00 0. -1.
         11    1    3    3    0    0  0.27732861172E+02  0.21292405746E+02  0.53658539260E+01  0.35373302361E+02  0.51100000000E-03 0. -1.
        -11    1    3    3    0    0 -0.60003809633E+01 -0.14028017710E+01  0.35268227885E+01  0.71000636445E+01  0.51100000000E-03 0.  1.
        -12    1    3    3    0    0 -0.18034176767E+02 -0.22066060733E+02  0.93354428345E+01  0.29988215366E+02  0.00000000000E+00 0.  1.
</event>
<event>
 7    1  0.3348003E-013  0.7246155E+02  0.7816164E-02  0.1226708E+00
        -11   -1    0    0    0    0  0.00000000000E+00  0.00000000000E+00  0.45593999997E+02  0.45594000000E+02  0.51100000000E-03 0. -1.
         11   -1    0    0    0    0 -0.00000000000E+00 -0.00000000000E+00 -0.45593999997E+02  0.45594000000E+02  0.51100000000E-03 0.  1.
    9900012    2    1    2    0    0  0.11509717536E+02 -0.97878678754E+01 -0.11063633315E+02  0.72461549791E+02  0.69999973291E+02 0.  0.
         12    1    1    2    0    0 -0.11509717536E+02  0.97878678754E+01  0.11063633315E+02  0.18726450209E+02  0.00000000000E+00 0. -1.
         11    1    3    3    0    0 -0.25847052025E+01 -0.19224779618E+02 -0.24112985844E+02  0.30946872845E+02  0.51100000000E-03 0. -1.
        -11    1    3    3    0    0  0.11055084807E+02 -0.10225602080E+02 -0.37001111192E+01  0.15507051961E+02  0.51100000000E-03 0.  1.
         12    1    3    3    0    0  0.30393379315E+01  0.19662513822E+02  0.16749463648E+02  0.26007624985E+02  0.00000000000E+00 0. -1.
</event>
<event>
 7    1  0.3348003E-013  0.7246154E+02  0.7816164E-02  0.1226708E+00
        -11   -1    0    0    0    0  0.00000000000E+00  0.00000000000E+00  0.45593999997E+02  0.45594000000E+02  0.51100000000E-03 0.  1.
         11   -1    0    0    0    0 -0.00000000000E+00 -0.00000000000E+00 -0.45593999997E+02  0.45594000000E+02  0.51100000000E-03 0. -1.
    9900012    2    1    2    0    0  0.16243709430E+02 -0.78457738248E+00 -0.92847489808E+01  0.72461542210E+02  0.69999963415E+02 0.  0.
         12    1    1    2    0    0 -0.16243709430E+02  0.78457738248E+00  0.92847489808E+01  0.18726457790E+02  0.00000000000E+00 0. -1.
         11    1    3    3    0    0  0.16439572103E+02  0.57943243435E+01  0.82207489215E+01  0.19272115572E+02  0.51100000000E-03 0.  1.
        -11    1    3    3    0    0 -0.16173372660E+02  0.15224863163E+02 -0.13141040752E+02  0.25808165255E+02  0.51100000000E-03 0. -1.
         12    1    3    3    0    0  0.15977509988E+02 -0.21803764889E+02 -0.43644571502E+01  0.27381261383E+02  0.00000000000E+00 0. -1.
</event>
<event>
 7    1  0.3348003E-013  0.7246160E+02  0.7816164E-02  0.1226708E+00
        -11   -1    0    0    0    0  0.00000000000E+00  0.00000000000E+00  0.45593999997E+02  0.45594000000E+02  0.51100000000E-03 0. -1.
         11   -1    0    0    0    0 -0.00000000000E+00 -0.00000000000E+00 -0.45593999997E+02  0.45594000000E+02  0.51100000000E-03 0.  1.
    9900012    2    1    2    0    0 -0.70928806168E+01  0.53821604758E+01 -0.16474265056E+02  0.72461601095E+02  0.70000040123E+02 0.  0.
         12    1    1    2    0    0  0.70928806168E+01 -0.53821604758E+01  0.16474265056E+02  0.18726398905E+02  0.00000000000E+00 0. -1.
         11    1    3    3    0    0 -0.61644590090E+01  0.14367086022E+02  0.18999194664E+01  0.15748758995E+02  0.51100000000E-03 0. -1.
        -11    1    3    3    0    0 -0.17026312232E+02  0.39233197959E+01 -0.28729990809E+02  0.33625884652E+02  0.51100000000E-03 0.  1.
         12    1    3    3    0    0  0.16097890625E+02 -0.12908245342E+02  0.10355806287E+02  0.23086957448E+02  0.00000000000E+00 0. -1.
</event>
<event>
 7    1  0.3348003E-013  0.7246151E+02  0.7816164E-02  0.1226708E+00
        -11   -1    0    0    0    0  0.00000000000E+00  0.00000000000E+00  0.45593999997E+02  0.45594000000E+02  0.51100000000E-03 0. -1.
         11   -1    0    0    0    0 -0.00000000000E+00 -0.00000000000E+00 -0.45593999997E+02  0.45594000000E+02  0.51100000000E-03 0.  1.
    9900012    2    1    2    0    0 -0.52492969446E+01  0.13879341814E+02 -0.11423231613E+02  0.72461508923E+02  0.69999920052E+02 0.  0.
         12    1    1    2    0    0  0.52492969446E+01 -0.13879341814E+02  0.11423231613E+02  0.18726491077E+02  0.00000000000E+00 0. -1.
         11    1    3    3    0    0 -0.62972501004E+01 -0.61273621945E+01 -0.11999745982E+02  0.14872586533E+02  0.51100000000E-03 0. -1.
        -11    1    3    3    0    0  0.15393531790E+02 -0.13139478645E+02 -0.54793697513E+01  0.20967360663E+02  0.51100000000E-03 0.  1.
         12    1    3    3    0    0 -0.14345578635E+02  0.33146182653E+02  0.60558841210E+01  0.36621561727E+02  0.00000000000E+00 0. -1.
</event>
<event>
 7    1  0.3348003E-013  0.7246157E+02  0.7816164E-02  0.1226708E+00
        -11   -1    0    0    0    0  0.00000000000E+00  0.00000000000E+00  0.45593999997E+02  0.45594000000E+02  0.51100000000E-03 0. -1.
         11   -1    0    0    0    0 -0.00000000000E+00 -0.00000000000E+00 -0.45593999997E+02  0.45594000000E+02  0.51100000000E-03 0.  1.
    9900012    2    1    2    0    0  0.11649374341E+02 -0.13848700296E+02 -0.48150518990E+01  0.72461570890E+02  0.70000000776E+02 0.  0.
         12    1    1    2    0    0 -0.11649374341E+02  0.13848700296E+02  0.48150518990E+01  0.18726429110E+02  0.00000000000E+00 0. -1.
         11    1    3    3    0    0  0.75621106818E+01  0.37472268403E+01 -0.13813966745E+02  0.16188048198E+02  0.51100000000E-03 0. -1.
        -11    1    3    3    0    0  0.13603667840E+02 -0.28966590633E+02 -0.87204144650E+01  0.33168792265E+02  0.51100000000E-03 0.  1.
         12    1    3    3    0    0 -0.95164041810E+01  0.11370663497E+02  0.17719329311E+02  0.23104730428E+02  0.00000000000E+00 0. -1.
</event>
<event>
 7    1  0.3348003E-013  0.7246154E+02  0.7816164E-02  0.1226708E+00
        -11   -1    0    0    0    0  0.00000000000E+00  0.00000000000E+00  0.45593999997E+02  0.45594000000E+02  0.51100000000E-03 0. -1.
         11   -1    0    0    0    0 -0.00000000000E+00 -0.00000000000E+00 -0.45593999997E+02  0.45594000000E+02  0.51100000000E-03 0.  1.
    9900012    2    1    2    0    0  0.89901771242E+01 -0.69226111382E+01 -0.14897470521E+02  0.72461535902E+02  0.69999955198E+02 0.  0.
         12    1    1    2    0    0 -0.89901771242E+01  0.69226111382E+01  0.14897470521E+02  0.18726464098E+02  0.00000000000E+00 0. -1.
         11    1    3    3    0    0 -0.12215224007E+02  0.79454392263E+01  0.17339685136E+02  0.22649644211E+02  0.51100000000E-03 0. -1.
        -11    1    3    3    0    0  0.86647417754E+01  0.17598251628E+01  0.26069565595E+01  0.92179692668E+01  0.51100000000E-03 0.  1.
        -12    1    3    3    0    0  0.12540659355E+02 -0.16627875527E+02 -0.34844112216E+02  0.40593922424E+02  0.00000000000E+00 0.  1.
</event>
<event>
 7    1  0.3348003E-013  0.7246149E+02  0.7816164E-02  0.1226708E+00
        -11   -1    0    0    0    0  0.00000000000E+00  0.00000000000E+00  0.45593999997E+02  0.45594000000E+02  0.51100000000E-03 0. -1.
         11   -1    0    0    0    0 -0.00000000000E+00 -0.00000000000E+00 -0.45593999997E+02  0.45594000000E+02  0.51100000000E-03 0.  1.
    9900012    2    1    2    0    0  0.65342006201E+01 -0.12979262119E+01 -0.17501480193E+02  0.72461489403E+02  0.69999894624E+02 0.  0.
         12    1    1    2    0    0 -0.65342006201E+01  0.12979262119E+01  0.17501480193E+02  0.18726510597E+02  0.00000000000E+00 0. -1.
         11    1    3    3    0    0  0.10055986967E+02 -0.36743324853E+01  0.12546077576E+02  0.16493260924E+02  0.51100000000E-03 0. -1.
        -11    1    3    3    0    0  0.95320024557E+01  0.20765724113E+02 -0.74243920518E+01  0.24024903046E+02  0.51100000000E-03 0.  1.
         12    1    3    3    0    0 -0.13053788802E+02 -0.18389317840E+02 -0.22623165717E+02  0.31943325434E+02  0.00000000000E+00 0. -1.
</event>
<event>
 7    1  0.3348003E-013  0.7246153E+02  0.7816164E-02  0.1226708E+00
        -11   -1    0    0    0    0  0.00000000000E+00  0.00000000000E+00  0.45593999997E+02  0.45594000000E+02  0.51100000000E-03 0.  1.
         11   -1    0    0    0    0 -0.00000000000E+00 -0.00000000000E+00 -0.45593999997E+02  0.45594000000E+02  0.51100000000E-03 0. -1.
    9900012    2    1    2    0    0 -0.11865323329E+02  0.52811918524E+01  0.13490878960E+02  0.72461529425E+02  0.69999946760E+02 0.  0.
         12    1    1    2    0    0  0.11865323329E+02 -0.52811918524E+01 -0.13490878960E+02  0.18726470575E+02  0.00000000000E+00 0. -1.
         11    1    3    3    0    0 -0.10224258786E+02 -0.20135301597E+02  0.55023708313E+01  0.23243104851E+02  0.51100000000E-03 0. -1.
        -11    1    3    3    0    0 -0.12079584538E+02 -0.32714738496E+01  0.13266087499E+02  0.18237543188E+02  0.51100000000E-03 0.  1.
         12    1    3    3    0    0  0.10438519994E+02  0.28687967299E+02 -0.52775793696E+01  0.30980881385E+02  0.00000000000E+00 0. -1.
</event>
<event>
 7    1  0.3348003E-013  0.7246159E+02  0.7816164E-02  0.1226708E+00
        -11   -1    0    0    0    0  0.00000000000E+00  0.00000000000E+00  0.45593999997E+02  0.45594000000E+02  0.51100000000E-03 0.  1.
         11   -1    0    0    0    0 -0.00000000000E+00 -0.00000000000E+00 -0.45593999997E+02  0.45594000000E+02  0.51100000000E-03 0. -1.
    9900012    2    1    2    0    0  0.12541522833E+02 -0.58298451431E+01 -0.12625435682E+02  0.72461587757E+02  0.70000022748E+02 0.  0.
         12    1    1    2    0    0 -0.12541522833E+02  0.58298451431E+01  0.12625435682E+02  0.18726412243E+02  0.00000000000E+00 0. -1.
         11    1    3    3    0    0  0.21947420560E+01  0.98847090241E+01 -0.14626083815E+02  0.17788948626E+02  0.51100000000E-03 0. -1.
        -11    1    3    3    0    0  0.21350543117E+02  0.56146532929E+01 -0.13710203655E+02  0.25987298965E+02  0.51100000000E-03 0.  1.
         12    1    3    3    0    0 -0.11003762341E+02 -0.21329207460E+02  0.15710851788E+02  0.28685340166E+02  0.00000000000E+00 0. -1.
</event>
<event>
 7    1  0.3348003E-013  0.7246156E+02  0.7816164E-02  0.1226708E+00
        -11   -1    0    0    0    0  0.00000000000E+00  0.00000000000E+00  0.45593999997E+02  0.45594000000E+02  0.51100000000E-03 0. -1.
         11   -1    0    0    0    0 -0.00000000000E+00 -0.00000000000E+00 -0.45593999997E+02  0.45594000000E+02  0.51100000000E-03 0.  1.
    9900012    2    1    2    0    0 -0.77693288879E+01  0.13594650017E+02 -0.10271440566E+02  0.72461562225E+02  0.69999989488E+02 0.  0.
         12    1    1    2    0    0  0.77693288879E+01 -0.13594650017E+02  0.10271440566E+02  0.18726437775E+02  0.00000000000E+00 0. -1.
         11    1    3    3    0    0  0.10341448235E+02  0.16184410910E+02 -0.94573818245E+01  0.21408474475E+02  0.51100000000E-03 0. -1.
        -11    1    3    3    0    0 -0.20405858662E+02 -0.79518695192E+01 -0.20817963033E+02  0.30216202304E+02  0.51100000000E-03 0.  1.
         12    1    3    3    0    0  0.22950815391E+01  0.53621086258E+01  0.20003904291E+02  0.20836885445E+02  0.00000000000E+00 0. -1.
</event>
<event>
 7    1  0.3348003E-013  0.7246150E+02  0.7816164E-02  0.1226708E+00
        -11   -1    0    0    0    0  0.00000000000E+00  0.00000000000E+00  0.45593999997E+02  0.45594000000E+02  0.51100000000E-03 0.  1.
         11   -1    0    0    0    0 -0.00000000000E+00 -0.00000000000E+00 -0.45593999997E+02  0.45594000000E+02  0.51100000000E-03 0. -1.
    9900012    2    1    2    0    0 -0.90214535169E+00 -0.15765216802E+02 -0.10066069748E+02  0.72461503072E+02  0.69999912430E+02 0.  0.
         12    1    1    2    0    0  0.90214535169E+00  0.15765216802E+02  0.10066069748E+02  0.18726496928E+02  0.00000000000E+00 0. -1.
         11    1    3    3    0    0 -0.53968708726E+01 -0.20309100665E+02  0.71569978516E+01  0.22199288357E+02  0.51100000000E-03 0.  1.
        -11    1    3    3    0    0  0.14820440083E+02  0.18711254080E+02  0.23512110909E+01  0.23985092607E+02  0.51100000000E-03 0. -1.
         12    1    3    3    0    0 -0.10325714562E+02 -0.14167370216E+02 -0.19574278690E+02  0.26277122108E+02  0.00000000000E+00 0. -1.
</event>
<event>
 7    1  0.3348003E-013  0.7246159E+02  0.7816164E-02  0.1226708E+00
        -11   -1    0    0    0    0  0.00000000000E+00  0.00000000000E+00  0.45593999997E+02  0.45594000000E+02  0.51100000000E-03 0.  1.
         11   -1    0    0    0    0 -0.00000000000E+00 -0.00000000000E+00 -0.45593999997E+02  0.45594000000E+02  0.51100000000E-03 0. -1.
    9900012    2    1    2    0    0 -0.34940046043E+01 -0.78304195665E+01  0.16647964022E+02  0.72461594983E+02  0.70000032162E+02 0.  0.
         12    1    1    2    0    0  0.34940046043E+01  0.78304195665E+01 -0.16647964022E+02  0.18726405017E+02  0.00000000000E+00 0. -1.
         11    1    3    3    0    0  0.29026335572E+01  0.54807791269E+01  0.16646096642E+02  0.17763917223E+02  0.51100000000E-03 0.  1.
        -11    1    3    3    0    0  0.20389704689E+02 -0.22536953782E+01  0.11504199589E+02  0.23519477218E+02  0.51100000000E-03 0. -1.
        -12    1    3    3    0    0 -0.26786342850E+02 -0.11057503315E+02 -0.11502332209E+02  0.31178200543E+02  0.00000000000E+00 0.  1.
</event>
<event>
 7    1  0.3348003E-013  0.7246157E+02  0.7816164E-02  0.1226708E+00
        -11   -1    0    0    0    0  0.00000000000E+00  0.00000000000E+00  0.45593999997E+02  0.45594000000E+02  0.51100000000E-03 0.  1.
         11   -1    0    0    0    0 -0.00000000000E+00 -0.00000000000E+00 -0.45593999997E+02  0.45594000000E+02  0.51100000000E-03 0. -1.
    9900012    2    1    2    0    0 -0.70031702286E+01  0.41989825555E+01  0.16852403688E+02  0.72461565267E+02  0.69999993451E+02 0.  0.
         12    1    1    2    0    0  0.70031702286E+01 -0.41989825555E+01 -0.16852403688E+02  0.18726434733E+02  0.00000000000E+00 0. -1.
         11    1    3    3    0    0  0.17453819069E+01  0.94955487582E+01 -0.49308491009E+01  0.10840898364E+02  0.51100000000E-03 0. -1.
        -11    1    3    3    0    0  0.17989373842E+02 -0.19571899628E+02  0.15135246160E+02  0.30590071966E+02  0.51100000000E-03 0.  1.
         12    1    3    3    0    0 -0.26737925978E+02  0.14275333426E+02  0.66480066288E+01  0.31030594937E+02  0.00000000000E+00 0. -1.
</event>
<event>
 7    1  0.3348003E-013  0.7246149E+02  0.7816164E-02  0.1226708E+00
        -11   -1    0    0    0    0  0.00000000000E+00  0.00000000000E+00  0.45593999997E+02  0.45594000000E+02  0.51100000000E-03 0.  1.
         11   -1    0    0    0    0 -0.00000000000E+00 -0.00000000000E+00 -0.45593999997E+02  0.45594000000E+02  0.51100000000E-03 0. -1.
    9900012    2    1    2    0    0 -0.69765359069E+01  0.81081009007E+01  0.15371039315E+02  0.72461489297E+02  0.69999894486E+02 0.  0.
         12    1    1    2    0    0  0.69765359069E+01 -0.81081009007E+01 -0.15371039315E+02  0.18726510703E+02  0.00000000000E+00 0. -1.
         11    1    3    3    0    0 -0.12724629525E+02  0.16104561864E+00 -0.67815271093E+01  0.14419821165E+02  0.51100000000E-03 0. -1.
        -11    1    3    3    0    0 -0.20725200688E+01  0.29388422649E+02  0.18863094086E+02  0.34982724937E+02  0.51100000000E-03 0.  1.
         12    1    3    3    0    0  0.78206136871E+01 -0.21441367367E+02  0.32894723377E+01  0.23058943195E+02  0.00000000000E+00 0. -1.
</event>
<event>
 7    1  0.3348003E-013  0.7246160E+02  0.7816164E-02  0.1226708E+00
        -11   -1    0    0    0    0  0.00000000000E+00  0.00000000000E+00  0.45593999997E+02  0.45594000000E+02  0.51100000000E-03 0.  1.
         11   -1    0    0    0    0 -0.00000000000E+00 -0.00000000000E+00 -0.45593999997E+02  0.45594000000E+02  0.51100000000E-03 0. -1.
    9900012    2    1    2    0    0  0.26238810975E+01 -0.16915242892E+01  0.18464347679E+02  0.72461597739E+02  0.70000035752E+02 0.  0.
         12    1    1    2    0    0 -0.26238810975E+01  0.16915242892E+01 -0.18464347679E+02  0.18726402261E+02  0.00000000000E+00 0. -1.
         11    1    3    3    0    0  0.57107149365E+01 -0.21641144593E+01  0.17102201977E+01  0.63419641961E+01  0.51100000000E-03 0. -1.
        -11    1    3    3    0    0 -0.15274079028E+02 -0.91200722800E+01  0.36740825978E+02  0.40821091391E+02  0.51100000000E-03 0.  1.
         12    1    3    3    0    0  0.12187245189E+02  0.95926624501E+01 -0.19986698497E+02  0.25298542151E+02  0.00000000000E+00 0. -1.
</event>
<event>
 7    1  0.3348003E-013  0.7246153E+02  0.7816164E-02  0.1226708E+00
        -11   -1    0    0    0    0  0.00000000000E+00  0.00000000000E+00  0.45593999997E+02  0.45594000000E+02  0.51100000000E-03 0. -1.
         11   -1    0    0    0    0 -0.00000000000E+00 -0.00000000000E+00 -0.45593999997E+02  0.45594000000E+02  0.51100000000E-03 0.  1.
    9900012    2    1    2    0    0 -0.90436859126E+01 -0.14557539954E+02 -0.75478746383E+01  0.72461531140E+02  0.69999948994E+02 0.  0.
         12    1    1    2    0    0  0.90436859126E+01  0.14557539954E+02  0.75478746383E+01  0.18726468860E+02  0.00000000000E+00 0. -1.
         11    1    3    3    0    0  0.74515984672E+00 -0.16180474226E+02  0.10009369281E+02  0.19040758468E+02  0.51100000000E-03 0. -1.
        -11    1    3    3    0    0  0.24628181907E+01 -0.20512992783E+02  0.29283234765E+01  0.20866801983E+02  0.51100000000E-03 0.  1.
         12    1    3    3    0    0 -0.12251663950E+02  0.22135927055E+02 -0.20485567395E+02  0.32553970689E+02  0.00000000000E+00 0. -1.
</event>
<event>
 7    1  0.3348003E-013  0.7246160E+02  0.7816164E-02  0.1226708E+00
        -11   -1    0    0    0    0  0.00000000000E+00  0.00000000000E+00  0.45593999997E+02  0.45594000000E+02  0.51100000000E-03 0.  1.
         11   -1    0    0    0    0 -0.00000000000E+00 -0.00000000000E+00 -0.45593999997E+02  0.45594000000E+02  0.51100000000E-03 0. -1.
    9900012    2    1    2    0    0  0.13140972961E+02 -0.10690180047E+02  0.79820466744E+01  0.72461596477E+02  0.70000034108E+02 0.  0.
         12    1    1    2    0    0 -0.13140972961E+02  0.10690180047E+02 -0.79820466744E+01  0.18726403523E+02  0.00000000000E+00 0. -1.
         11    1    3    3    0    0 -0.11197779956E+01 -0.15542392359E+02 -0.61132324985E+01  0.16738920958E+02  0.51100000000E-03 0. -1.
        -11    1    3    3    0    0 -0.15035590241E+02  0.16434328243E+02  0.39157837852E+01  0.22616133215E+02  0.51100000000E-03 0.  1.
         12    1    3    3    0    0  0.29296341197E+02 -0.11582115931E+02  0.10179495388E+02  0.33106542304E+02  0.00000000000E+00 0. -1.
</event>
<event>
 7    1  0.3348003E-013  0.7246150E+02  0.7816164E-02  0.1226708E+00
        -11   -1    0    0    0    0  0.00000000000E+00  0.00000000000E+00  0.45593999997E+02  0.45594000000E+02  0.51100000000E-03 0.  1.
         11   -1    0    0    0    0 -0.00000000000E+00 -0.00000000000E+00 -0.45593999997E+02  0.45594000000E+02  0.51100000000E-03 0. -1.
    9900012    2    1    2    0    0 -0.26127275795E+01  0.10231553395E+01  0.18515086706E+02  0.72461504653E+02  0.69999914490E+02 0.  0.
         12    1    1    2    0    0  0.26127275795E+01 -0.10231553395E+01 -0.18515086706E+02  0.18726495347E+02  0.00000000000E+00 0. -1.
         11    1    3    3    0    0 -0.18023705455E+02  0.19046077183E+02 -0.61098337470E+01  0.26924655672E+02  0.51100000000E-03 0. -1.
        -11    1    3    3    0    0  0.10675650470E+02  0.29629221454E+01 -0.20503807984E+01  0.11267319214E+02  0.51100000000E-03 0.  1.
        -12    1    3    3    0    0  0.47353274062E+01 -0.20985843989E+02  0.26675301251E+02  0.34269529766E+02  0.00000000000E+00 0.  1.
</event>
<event>
 7    1  0.3348003E-013  0.7246160E+02  0.7816164E-02  0.1226708E+00
        -11   -1    0    0    0    0  0.00000000000E+00  0.00000000000E+00  0.45593999997E+02  0.45594000000E+02  0.51100000000E-03 0. -1.
         11   -1    0    0    0    0 -0.00000000000E+00 -0.00000000000E+00 -0.45593999997E+02  0.45594000000E+02  0.51100000000E-03 0.  1.
    9900012    2    1    2    0    0  0.13848489012E+02 -0.93038360291E+01 -0.85050688299E+01  0.72461595952E+02  0.70000033424E+02 0.  0.
         12    1    1    2    0    0 -0.13848489012E+02  0.93038360291E+01  0.85050688299E+01  0.18726404048E+02  0.00000000000E+00 0. -1.
         11    1    3    3    0    0 -0.98968323018E+01 -0.30216257933E+00  0.14934456655E+02  0.17918610093E+02  0.51100000000E-03 0. -1.
        -11    1    3    3    0    0  0.60694897501E+01 -0.24342878832E+02 -0.16873399849E+02  0.30234517995E+02  0.51100000000E-03 0.  1.
         12    1    3    3    0    0  0.17675831564E+02  0.15341205382E+02 -0.65661256359E+01  0.24308467864E+02  0.00000000000E+00 0. -1.
</event>
<event>
 7    1  0.3348003E-013  0.7246160E+02  0.7816164E-02  0.1226708E+00
        -11   -1    0    0    0    0  0.00000000000E+00  0.00000000000E+00  0.45593999997E+02  0.45594000000E+02  0.51100000000E-03 0.  1.
         11   -1    0    0    0    0 -0.00000000000E+00 -0.00000000000E+00 -0.45593999997E+02  0.45594000000E+02  0.51100000000E-03 0. -1.
    9900012    2    1    2    0    0 -0.14198607401E+02  0.95223861422E+01 -0.76420938268E+01  0.72461604511E+02  0.70000044573E+02 0.  0.
         12    1    1    2    0    0  0.14198607401E+02 -0.95223861422E+01  0.76420938268E+01  0.18726395489E+02  0.00000000000E+00 0. -1.
         11    1    3    3    0    0 -0.46571065052E+01  0.15138196573E+01  0.11407021198E+02  0.12413719178E+02  0.51100000000E-03 0. -1.
        -11    1    3    3    0    0 -0.11002754780E+02  0.12885694774E+02  0.16787103930E+02  0.23851804988E+02  0.51100000000E-03 0.  1.
         12    1    3    3    0    0  0.14612538844E+01 -0.48771282894E+01 -0.35836218955E+02  0.36196080344E+02  0.00000000000E+00 0. -1.
</event>
<event>
 7    1  0.3348003E-013  0.7246155E+02  0.7816164E-02  0.1226708E+00
        -11   -1    0    0    0    0  0.00000000000E+00  0.00000000000E+00  0.45593999997E+02  0.45594000000E+02  0.51100000000E-03 0.  1.
         11   -1    0    0    0    0 -0.00000000000E+00 -0.00000000000E+00 -0.45593999997E+02  0.45594000000E+02  0.51100000000E-03 0. -1.
    9900012    2    1    2    0    0  0.16162326342E+02 -0.61966567972E+01  0.71456609177E+01  0.72461552975E+02  0.69999977438E+02 0.  0.
         12    1    1    2    0    0 -0.16162326342E+02  0.61966567972E+01 -0.71456609177E+01  0.18726447025E+02  0.00000000000E+00 0. -1.
         11    1    3    3    0    0  0.16813177232E+02  0.39655314516E+01 -0.25510990168E+02  0.30809397721E+02  0.51100000000E-03 0. -1.
        -11    1    3    3    0    0 -0.89088100911E+00  0.66531639406E+01  0.25762598022E+01  0.71899495285E+01  0.51100000000E-03 0.  1.
        -12    1    3    3    0    0  0.24003011953E+00 -0.16815352189E+02  0.30080391283E+02  0.34462205725E+02  0.00000000000E+00 0.  1.
</event>
<event>
 7    1  0.3348003E-013  0.7246090E+02  0.7816164E-02  0.1226710E+00
        -11   -1    0    0    0    0  0.00000000000E+00  0.00000000000E+00  0.45593999997E+02  0.45594000000E+02  0.51100000000E-03 0.  1.
         11   -1    0    0    0    0 -0.00000000000E+00 -0.00000000000E+00 -0.45593999997E+02  0.45594000000E+02  0.51100000000E-03 0. -1.
    9900012    2    1    2    0    0 -0.32883317052E+01 -0.14518696870E+02  0.11362148182E+02  0.72460904776E+02  0.69999133034E+02 0.  0.
         12    1    1    2    0    0  0.32883317052E+01  0.14518696870E+02 -0.11362148182E+02  0.18727095224E+02  0.00000000000E+00 0. -1.
         11    1    3    3    0    0  0.60092984650E+01 -0.21819257239E+02  0.60507108169E+01  0.23426539568E+02  0.51100000000E-03 0. -1.
        -11    1    3    3    0    0  0.10541986174E+02  0.20131104654E+01  0.20739428280E+02  0.23351872984E+02  0.51100000000E-03 0.  1.
         12    1    3    3    0    0 -0.19839616345E+02  0.52874499038E+01 -0.15427990914E+02  0.25682492224E+02  0.00000000000E+00 0. -1.
</event>
<event>
 7    1  0.3348003E-013  0.7246164E+02  0.7816164E-02  0.1226708E+00
        -11   -1    0    0    0    0  0.00000000000E+00  0.00000000000E+00  0.45593999997E+02  0.45594000000E+02  0.51100000000E-03 0. -1.
         11   -1    0    0    0    0 -0.00000000000E+00 -0.00000000000E+00 -0.45593999997E+02  0.45594000000E+02  0.51100000000E-03 0.  1.
    9900012    2    1    2    0    0 -0.63329778487E+01 -0.11979729753E+02 -0.12925017254E+02  0.72461638784E+02  0.70000089221E+02 0.  0.
         12    1    1    2    0    0  0.63329778487E+01  0.11979729753E+02  0.12925017254E+02  0.18726361216E+02  0.00000000000E+00 0. -1.
         11    1    3    3    0    0 -0.82157100206E+01 -0.51998646216E+01 -0.10125732894E+02  0.14038053644E+02  0.51100000000E-03 0. -1.
        -11    1    3    3    0    0 -0.25334446181E+01 -0.22789315014E+02 -0.22861589985E+02  0.32379368699E+02  0.51100000000E-03 0.  1.
         12    1    3    3    0    0  0.44161767900E+01  0.16009449883E+02  0.20062305626E+02  0.26044216441E+02  0.00000000000E+00 0. -1.
</event>
<event>
 7    1  0.3348003E-013  0.7246159E+02  0.7816164E-02  0.1226708E+00
        -11   -1    0    0    0    0  0.00000000000E+00  0.00000000000E+00  0.45593999997E+02  0.45594000000E+02  0.51100000000E-03 0.  1.
         11   -1    0    0    0    0 -0.00000000000E+00 -0.00000000000E+00 -0.45593999997E+02  0.45594000000E+02  0.51100000000E-03 0. -1.
    9900012    2    1    2    0    0 -0.14807866718E+02 -0.91077606452E+01  0.69609112636E+01  0.72461588002E+02  0.70000023067E+02 0.  0.
         12    1    1    2    0    0  0.14807866718E+02  0.91077606452E+01 -0.69609112636E+01  0.18726411998E+02  0.00000000000E+00 0. -1.
         11    1    3    3    0    0 -0.20989686013E+02 -0.36244009902E+01  0.43923073818E+01  0.21748461230E+02  0.51100000000E-03 0. -1.
        -11    1    3    3    0    0  0.57644579881E+01 -0.69461528273E+00  0.26078406658E+02  0.26716937706E+02  0.51100000000E-03 0.  1.
         12    1    3    3    0    0  0.41736130733E+00 -0.47887443723E+01 -0.23509802776E+02  0.23996189066E+02  0.00000000000E+00 0. -1.
</event>
<event>
 7    1  0.3348003E-013  0.7246156E+02  0.7816164E-02  0.1226708E+00
        -11   -1    0    0    0    0  0.00000000000E+00  0.00000000000E+00  0.45593999997E+02  0.45594000000E+02  0.51100000000E-03 0.  1.
         11   -1    0    0    0    0 -0.00000000000E+00 -0.00000000000E+00 -0.45593999997E+02  0.45594000000E+02  0.51100000000E-03 0. -1.
    9900012    2    1    2    0    0 -0.14912904758E+02 -0.11304641576E+02 -0.69992813531E+00  0.72461560165E+02  0.69999986805E+02 0.  0.
         12    1    1    2    0    0  0.14912904758E+02  0.11304641576E+02  0.69992813531E+00  0.18726439835E+02  0.00000000000E+00 0. -1.
         11    1    3    3    0    0  0.12787654293E+02 -0.17692350338E+02  0.57992565681E+01  0.22587048054E+02  0.51100000000E-03 0. -1.
        -11    1    3    3    0    0 -0.16516824361E+02 -0.15614370898E+02  0.39546086667E+01  0.23070608910E+02  0.51100000000E-03 0.  1.
         12    1    3    3    0    0 -0.11183734690E+02  0.22002079660E+02 -0.10453793370E+02  0.26803903200E+02  0.00000000000E+00 0. -1.
</event>
<event>
 7    1  0.3348003E-013  0.7246157E+02  0.7816164E-02  0.1226708E+00
        -11   -1    0    0    0    0  0.00000000000E+00  0.00000000000E+00  0.45593999997E+02  0.45594000000E+02  0.51100000000E-03 0. -1.
         11   -1    0    0    0    0 -0.00000000000E+00 -0.00000000000E+00 -0.45593999997E+02  0.45594000000E+02  0.51100000000E-03 0.  1.
    9900012    2    1    2    0    0 -0.10429717055E+02  0.11401295546E+02 -0.10578776592E+02  0.72461573428E+02  0.70000004082E+02 0.  0.
         12    1    1    2    0    0  0.10429717055E+02 -0.11401295546E+02  0.10578776592E+02  0.18726426572E+02  0.00000000000E+00 0. -1.
         11    1    3    3    0    0  0.89104168432E+00 -0.17658788471E+02 -0.84500928872E+01  0.19596704713E+02  0.51100000000E-03 0. -1.
        -11    1    3    3    0    0  0.14453598956E+02  0.70037801288E+01  0.73194319610E+01  0.17650312841E+02  0.51100000000E-03 0.  1.
         12    1    3    3    0    0 -0.25774357695E+02  0.22056303888E+02 -0.94481156654E+01  0.35214555875E+02  0.00000000000E+00 0. -1.
</event>
<event>
 7    1  0.3348003E-013  0.7246162E+02  0.7816164E-02  0.1226708E+00
        -11   -1    0    0    0    0  0.00000000000E+00  0.00000000000E+00  0.45593999997E+02  0.45594000000E+02  0.51100000000E-03 0.  1.
         11   -1    0    0    0    0 -0.00000000000E+00 -0.00000000000E+00 -0.45593999997E+02  0.45594000000E+02  0.51100000000E-03 0. -1.
    9900012    2    1    2    0    0  0.10507129392E+02 -0.87741560237E+01 -0.12778561238E+02  0.72461622633E+02  0.70000068180E+02 0.  0.
         12    1    1    2    0    0 -0.10507129392E+02  0.87741560237E+01  0.12778561238E+02  0.18726377367E+02  0.00000000000E+00 0. -1.
         11    1    3    3    0    0 -0.22722318317E+01 -0.10039673155E+02  0.61697330226E+01  0.12000986642E+02  0.51100000000E-03 0. -1.
        -11    1    3    3    0    0  0.18529642058E+02 -0.24292441476E+02 -0.56096766228E+01  0.31063464387E+02  0.51100000000E-03 0.  1.
         12    1    3    3    0    0 -0.57502808335E+01  0.25557958607E+02 -0.13338617638E+02  0.29397171604E+02  0.00000000000E+00 0. -1.
</event>
<event>
 7    1  0.3348003E-013  0.7246162E+02  0.7816164E-02  0.1226708E+00
        -11   -1    0    0    0    0  0.00000000000E+00  0.00000000000E+00  0.45593999997E+02  0.45594000000E+02  0.51100000000E-03 0. -1.
         11   -1    0    0    0    0 -0.00000000000E+00 -0.00000000000E+00 -0.45593999997E+02  0.45594000000E+02  0.51100000000E-03 0.  1.
    9900012    2    1    2    0    0  0.13293296922E+02 -0.48674462595E+01 -0.12258604471E+02  0.72461623956E+02  0.70000069904E+02 0.  0.
         12    1    1    2    0    0 -0.13293296922E+02  0.48674462595E+01  0.12258604471E+02  0.18726376044E+02  0.00000000000E+00 0. -1.
         11    1    3    3    0    0  0.29057840407E+02 -0.11726026459E+02  0.95303159231E+01  0.32751865710E+02  0.51100000000E-03 0. -1.
        -11    1    3    3    0    0 -0.64775852953E+01 -0.95100187390E+01 -0.82252335593E+00  0.11535862023E+02  0.51100000000E-03 0.  1.
        -12    1    3    3    0    0 -0.92869581893E+01  0.16368598939E+02 -0.20966397038E+02  0.28173896223E+02  0.00000000000E+00 0.  1.
</event>
<event>
 7    1  0.3348003E-013  0.7246162E+02  0.7816164E-02  0.1226708E+00
        -11   -1    0    0    0    0  0.00000000000E+00  0.00000000000E+00  0.45593999997E+02  0.45594000000E+02  0.51100000000E-03 0. -1.
         11   -1    0    0    0    0 -0.00000000000E+00 -0.00000000000E+00 -0.45593999997E+02  0.45594000000E+02  0.51100000000E-03 0.  1.
    9900012    2    1    2    0    0 -0.29790438239E+01 -0.18369113602E+02  0.20924705911E+01  0.72461615677E+02  0.70000059120E+02 0.  0.
         12    1    1    2    0    0  0.29790438239E+01  0.18369113602E+02 -0.20924705911E+01  0.18726384323E+02  0.00000000000E+00 0. -1.
         11    1    3    3    0    0  0.10373197027E+02 -0.78879163513E+01  0.20167345322E+02  0.24011336042E+02  0.51100000000E-03 0. -1.
        -11    1    3    3    0    0 -0.16101841432E+02 -0.35553024140E+01  0.10079605769E+02  0.19326353135E+02  0.51100000000E-03 0.  1.
        -12    1    3    3    0    0  0.27496005814E+01 -0.69258948366E+01 -0.28154480500E+02  0.29123926501E+02  0.00000000000E+00 0.  1.
</event>
<event>
 7    1  0.3348003E-013  0.7246146E+02  0.7816164E-02  0.1226708E+00
        -11   -1    0    0    0    0  0.00000000000E+00  0.00000000000E+00  0.45593999997E+02  0.45594000000E+02  0.51100000000E-03 0.  1.
         11   -1    0    0    0    0 -0.00000000000E+00 -0.00000000000E+00 -0.45593999997E+02  0.45594000000E+02  0.51100000000E-03 0. -1.
    9900012    2    1    2    0    0 -0.52293278674E+01 -0.17421149855E+02  0.44543119795E+01  0.72461461947E+02  0.69999858858E+02 0.  0.
         12    1    1    2    0    0  0.52293278674E+01  0.17421149855E+02 -0.44543119795E+01  0.18726538053E+02  0.00000000000E+00 0. -1.
         11    1    3    3    0    0  0.10961671697E+02  0.34866281719E+01 -0.11887273527E+02  0.16541526368E+02  0.51100000000E-03 0. -1.
        -11    1    3    3    0    0 -0.14147409020E+02  0.64734406610E+01 -0.94878467718E+01  0.18222893640E+02  0.51100000000E-03 0.  1.
         12    1    3    3    0    0 -0.20435905443E+01 -0.27381218688E+02  0.25829432278E+02  0.37697041940E+02  0.00000000000E+00 0. -1.
</event>
<event>
 7    1  0.3348003E-013  0.7246156E+02  0.7816164E-02  0.1226708E+00
        -11   -1    0    0    0    0  0.00000000000E+00  0.00000000000E+00  0.45593999997E+02  0.45594000000E+02  0.51100000000E-03 0. -1.
         11   -1    0    0    0    0 -0.00000000000E+00 -0.00000000000E+00 -0.45593999997E+02  0.45594000000E+02  0.51100000000E-03 0.  1.
    9900012    2    1    2    0    0 -0.96046712123E+01  0.72248114061E+01 -0.14360779412E+02  0.72461558954E+02  0.69999985227E+02 0.  0.
         12    1    1    2    0    0  0.96046712123E+01 -0.72248114061E+01  0.14360779412E+02  0.18726441046E+02  0.00000000000E+00 0. -1.
         11    1    3    3    0    0 -0.13499355834E+02  0.98717550698E+01  0.18961315399E+02  0.25282714214E+02  0.51100000000E-03 0. -1.
        -11    1    3    3    0    0 -0.14013539659E+02  0.13930291973E+01 -0.20152364376E+02  0.24585312980E+02  0.51100000000E-03 0.  1.
         12    1    3    3    0    0  0.17908224282E+02 -0.40399728610E+01 -0.13169730435E+02  0.22593531759E+02  0.00000000000E+00 0. -1.
</event>
<event>
 7    1  0.3348003E-013  0.7246183E+02  0.7816164E-02  0.1226707E+00
        -11   -1    0    0    0    0  0.00000000000E+00  0.00000000000E+00  0.45593999997E+02  0.45594000000E+02  0.51100000000E-03 0. -1.
         11   -1    0    0    0    0 -0.00000000000E+00 -0.00000000000E+00 -0.45593999997E+02  0.45594000000E+02  0.51100000000E-03 0.  1.
    9900012    2    1    2    0    0  0.93116041018E+01 -0.12488880656E+02 -0.10391881942E+02  0.72461833246E+02  0.70000342543E+02 0.  0.
         12    1    1    2    0    0 -0.93116041018E+01  0.12488880656E+02  0.10391881942E+02  0.18726166754E+02  0.00000000000E+00 0. -1.
         11    1    3    3    0    0  0.63564384461E+01  0.21741464372E+02 -0.84184066300E+01  0.24165370951E+02  0.51100000000E-03 0. -1.
        -11    1    3    3    0    0 -0.24054279248E+01  0.57950959387E+01  0.40483200638E+01  0.74671357320E+01  0.51100000000E-03 0.  1.
        -12    1    3    3    0    0  0.53605935805E+01 -0.40025440966E+02 -0.60217953760E+01  0.40829326564E+02  0.00000000000E+00 0.  1.
</event>
<event>
 7    1  0.3348003E-013  0.7246159E+02  0.7816164E-02  0.1226708E+00
        -11   -1    0    0    0    0  0.00000000000E+00  0.00000000000E+00  0.45593999997E+02  0.45594000000E+02  0.51100000000E-03 0. -1.
         11   -1    0    0    0    0 -0.00000000000E+00 -0.00000000000E+00 -0.45593999997E+02  0.45594000000E+02  0.51100000000E-03 0.  1.
    9900012    2    1    2    0    0 -0.60143613421E+01  0.91257468203E+01 -0.15206136466E+02  0.72461591279E+02  0.70000027336E+02 0.  0.
         12    1    1    2    0    0  0.60143613421E+01 -0.91257468203E+01  0.15206136466E+02  0.18726408721E+02  0.00000000000E+00 0. -1.
         11    1    3    3    0    0  0.66486105558E+01 -0.13706867910E+02  0.13757931077E+02  0.20527126395E+02  0.51100000000E-03 0. -1.
        -11    1    3    3    0    0 -0.68322587030E+01 -0.62358281761E+01  0.15616800600E+01  0.93810530804E+01  0.51100000000E-03 0.  1.
        -12    1    3    3    0    0 -0.58307131949E+01  0.29068442907E+02 -0.30525747603E+02  0.42553411804E+02  0.00000000000E+00 0.  1.
</event>
<event>
 7    1  0.3348003E-013  0.7246152E+02  0.7816164E-02  0.1226708E+00
        -11   -1    0    0    0    0  0.00000000000E+00  0.00000000000E+00  0.45593999997E+02  0.45594000000E+02  0.51100000000E-03 0. -1.
         11   -1    0    0    0    0 -0.00000000000E+00 -0.00000000000E+00 -0.45593999997E+02  0.45594000000E+02  0.51100000000E-03 0.  1.
    9900012    2    1    2    0    0 -0.11631034589E+01  0.94547308343E+01 -0.16122534956E+02  0.72461524672E+02  0.69999940568E+02 0.  0.
         12    1    1    2    0    0  0.11631034589E+01 -0.94547308343E+01  0.16122534956E+02  0.18726475328E+02  0.00000000000E+00 0. -1.
         11    1    3    3    0    0  0.24245892316E+01 -0.15124200471E+02  0.17142789830E+02  0.22989025996E+02  0.51100000000E-03 0. -1.
        -11    1    3    3    0    0  0.75291289671E+01 -0.19841520969E+01 -0.61861918693E+01  0.99445267686E+01  0.51100000000E-03 0.  1.
        -12    1    3    3    0    0 -0.11116821658E+02  0.26563083403E+02 -0.27079132916E+02  0.39527971907E+02  0.00000000000E+00 0.  1.
</event>
<event>
 7    1  0.3348003E-013  0.7246161E+02  0.7816164E-02  0.1226708E+00
        -11   -1    0    0    0    0  0.00000000000E+00  0.00000000000E+00  0.45593999997E+02  0.45594000000E+02  0.51100000000E-03 0. -1.
         11   -1    0    0    0    0 -0.00000000000E+00 -0.00000000000E+00 -0.45593999997E+02  0.45594000000E+02  0.51100000000E-03 0.  1.
    9900012    2    1    2    0    0 -0.31537914004E+01  0.49690414387E+01 -0.17777513965E+02  0.72461607507E+02  0.70000048477E+02 0.  0.
         12    1    1    2    0    0  0.31537914004E+01 -0.49690414387E+01  0.17777513965E+02  0.18726392493E+02  0.00000000000E+00 0. -1.
         11    1    3    3    0    0  0.19862350838E+02  0.99605982750E+01  0.71041739277E+01  0.23328004335E+02  0.51100000000E-03 0. -1.
        -11    1    3    3    0    0  0.60698606762E+01 -0.51640105679E+01  0.33076554731E+01  0.86284876290E+01  0.51100000000E-03 0.  1.
        -12    1    3    3    0    0 -0.29086002914E+02  0.17245373153E+00 -0.28189343366E+02  0.40505115544E+02  0.00000000000E+00 0.  1.
</event>
<event>
 7    1  0.3348003E-013  0.7246160E+02  0.7816164E-02  0.1226708E+00
        -11   -1    0    0    0    0  0.00000000000E+00  0.00000000000E+00  0.45593999997E+02  0.45594000000E+02  0.51100000000E-03 0.  1.
         11   -1    0    0    0    0 -0.00000000000E+00 -0.00000000000E+00 -0.45593999997E+02  0.45594000000E+02  0.51100000000E-03 0. -1.
    9900012    2    1    2    0    0  0.66849280890E+01  0.87297082047E+01  0.15158565017E+02  0.72461597189E+02  0.70000035035E+02 0.  0.
         12    1    1    2    0    0 -0.66849280890E+01 -0.87297082047E+01 -0.15158565017E+02  0.18726402811E+02  0.00000000000E+00 0. -1.
         11    1    3    3    0    0  0.11463778805E+01 -0.18319264603E+02 -0.82815299553E+01  0.20136866104E+02  0.51100000000E-03 0. -1.
        -11    1    3    3    0    0  0.47685230299E+01 -0.47345309587E+01 -0.59895775794E+01  0.90016462453E+01  0.51100000000E-03 0.  1.
        -12    1    3    3    0    0  0.77002717863E+00  0.31783503766E+02  0.29429672551E+02  0.43323084839E+02  0.00000000000E+00 0.  1.
</event>
<event>
 7    1  0.4515676E-013  0.7246160E+02  0.7816164E-02  0.1226708E+00
        -11   -1    0    0    0    0  0.00000000000E+00  0.00000000000E+00  0.45593999997E+02  0.45594000000E+02  0.51100000000E-03 0. -1.
         11   -1    0    0    0    0 -0.00000000000E+00 -0.00000000000E+00 -0.45593999997E+02  0.45594000000E+02  0.51100000000E-03 0.  1.
    9900012    2    1    2    0    0  0.15673192439E+02 -0.87227766337E+00 -0.10211188096E+02  0.72461596397E+02  0.70000034004E+02 0.  0.
         12    1    1    2    0    0 -0.15673192439E+02  0.87227766337E+00  0.10211188096E+02  0.18726403603E+02  0.00000000000E+00 0. -1.
         11    1    3    3    0    0 -0.22108136088E+01  0.16964708029E+02  0.78365405283E+01  0.18817555182E+02  0.51100000000E-03 0. -1.
        -11    1    3    3    0    0  0.17887538510E+02  0.11314312442E+02 -0.99584012351E+01  0.23391183283E+02  0.51100000000E-03 0.  1.
        -12    1    3    3    0    0 -0.35324612338E-02 -0.29151298135E+02 -0.80893273895E+01  0.30252857932E+02  0.00000000000E+00 0.  1.
</event>
<event>
 7    1  0.3348003E-013  0.7246159E+02  0.7816164E-02  0.1226708E+00
        -11   -1    0    0    0    0  0.00000000000E+00  0.00000000000E+00  0.45593999997E+02  0.45594000000E+02  0.51100000000E-03 0. -1.
         11   -1    0    0    0    0 -0.00000000000E+00 -0.00000000000E+00 -0.45593999997E+02  0.45594000000E+02  0.51100000000E-03 0.  1.
    9900012    2    1    2    0    0 -0.16881160952E+01  0.12240823865E+02 -0.14070922212E+02  0.72461591996E+02  0.70000028270E+02 0.  0.
         12    1    1    2    0    0  0.16881160952E+01 -0.12240823865E+02  0.14070922212E+02  0.18726408004E+02  0.00000000000E+00 0. -1.
         11    1    3    3    0    0 -0.61005798947E+01 -0.11492155799E+02  0.57951833027E+01  0.14243274544E+02  0.51100000000E-03 0. -1.
        -11    1    3    3    0    0  0.67623763207E+01  0.13112920124E+02  0.15391661599E+02  0.21320920588E+02  0.51100000000E-03 0.  1.
        -12    1    3    3    0    0 -0.23499125212E+01  0.10620059540E+02 -0.35257767114E+02  0.36897396864E+02  0.00000000000E+00 0.  1.
</event>
<event>
 7    1  0.3348003E-013  0.7246153E+02  0.7816164E-02  0.1226708E+00
        -11   -1    0    0    0    0  0.00000000000E+00  0.00000000000E+00  0.45593999997E+02  0.45594000000E+02  0.51100000000E-03 0.  1.
         11   -1    0    0    0    0 -0.00000000000E+00 -0.00000000000E+00 -0.45593999997E+02  0.45594000000E+02  0.51100000000E-03 0. -1.
    9900012    2    1    2    0    0 -0.88076049477E+01 -0.13492816770E+02 -0.95420500214E+01  0.72461528685E+02  0.69999945796E+02 0.  0.
         12    1    1    2    0    0  0.88076049477E+01  0.13492816770E+02  0.95420500214E+01  0.18726471315E+02  0.00000000000E+00 0. -1.
         11    1    3    3    0    0  0.71674719758E+00 -0.10933427569E+02 -0.12966112930E+01  0.11033347908E+02  0.51100000000E-03 0. -1.
        -11    1    3    3    0    0  0.81541624451E+01 -0.24099251336E+02  0.10838666921E+02  0.27653950550E+02  0.51100000000E-03 0.  1.
         12    1    3    3    0    0 -0.17678514590E+02  0.21539862136E+02 -0.19084105650E+02  0.33774230226E+02  0.00000000000E+00 0. -1.
</event>
<event>
 7    1  0.3348003E-013  0.7246159E+02  0.7816164E-02  0.1226708E+00
        -11   -1    0    0    0    0  0.00000000000E+00  0.00000000000E+00  0.45593999997E+02  0.45594000000E+02  0.51100000000E-03 0.  1.
         11   -1    0    0    0    0 -0.00000000000E+00 -0.00000000000E+00 -0.45593999997E+02  0.45594000000E+02  0.51100000000E-03 0. -1.
    9900012    2    1    2    0    0  0.66259771789E+01  0.16905792587E+02  0.45791768613E+01  0.72461594651E+02  0.70000031729E+02 0.  0.
         12    1    1    2    0    0 -0.66259771789E+01 -0.16905792587E+02 -0.45791768613E+01  0.18726405349E+02  0.00000000000E+00 0. -1.
         11    1    3    3    0    0  0.39270955046E+01 -0.17107213782E+02 -0.28897374392E+01  0.17788463261E+02  0.51100000000E-03 0. -1.
        -11    1    3    3    0    0 -0.28482429134E+01 -0.70587996759E+01  0.10667970158E+02  0.13105141286E+02  0.51100000000E-03 0.  1.
         12    1    3    3    0    0  0.55471245877E+01  0.41071806044E+02 -0.31990558576E+01  0.41567990104E+02  0.00000000000E+00 0. -1.
</event>
<event>
 7    1  0.3348003E-013  0.7246154E+02  0.7816164E-02  0.1226708E+00
        -11   -1    0    0    0    0  0.00000000000E+00  0.00000000000E+00  0.45593999997E+02  0.45594000000E+02  0.51100000000E-03 0.  1.
         11   -1    0    0    0    0 -0.00000000000E+00 -0.00000000000E+00 -0.45593999997E+02  0.45594000000E+02  0.51100000000E-03 0. -1.
    9900012    2    1    2    0    0 -0.18187616580E+02  0.44542998394E+01  0.22373634363E+00  0.72461541662E+02  0.69999962701E+02 0.  0.
         12    1    1    2    0    0  0.18187616580E+02 -0.44542998394E+01 -0.22373634363E+00  0.18726458338E+02  0.00000000000E+00 0. -1.
         11    1    3    3    0    0 -0.18083966159E+02 -0.64055259937E+01  0.15380338987E+02  0.24588928869E+02  0.51100000000E-03 0. -1.
        -11    1    3    3    0    0 -0.14115075326E+02  0.11227555045E+02  0.88374512645E+01  0.20084668005E+02  0.51100000000E-03 0.  1.
         12    1    3    3    0    0  0.14011424904E+02 -0.36772921186E+00 -0.23994053908E+02  0.27787944789E+02  0.00000000000E+00 0. -1.
</event>
<event>
 7    1  0.3348003E-013  0.7246153E+02  0.7816164E-02  0.1226708E+00
        -11   -1    0    0    0    0  0.00000000000E+00  0.00000000000E+00  0.45593999997E+02  0.45594000000E+02  0.51100000000E-03 0.  1.
         11   -1    0    0    0    0 -0.00000000000E+00 -0.00000000000E+00 -0.45593999997E+02  0.45594000000E+02  0.51100000000E-03 0. -1.
    9900012    2    1    2    0    0 -0.15062816874E+02  0.10424376551E+02  0.38890377759E+01  0.72461529605E+02  0.69999946994E+02 0.  0.
         12    1    1    2    0    0  0.15062816874E+02 -0.10424376551E+02 -0.38890377759E+01  0.18726470395E+02  0.00000000000E+00 0. -1.
         11    1    3    3    0    0 -0.27026594469E+02  0.22041026437E+01  0.14304293398E+02  0.30657913937E+02  0.51100000000E-03 0. -1.
        -11    1    3    3    0    0 -0.56281099370E+01 -0.11266598773E+02  0.20190802007E+01  0.12754942355E+02  0.51100000000E-03 0.  1.
         12    1    3    3    0    0  0.17591887533E+02  0.19486872680E+02 -0.12434335823E+02  0.29048673312E+02  0.00000000000E+00 0. -1.
</event>
<event>
 7    1  0.3348003E-013  0.7246160E+02  0.7816164E-02  0.1226708E+00
        -11   -1    0    0    0    0  0.00000000000E+00  0.00000000000E+00  0.45593999997E+02  0.45594000000E+02  0.51100000000E-03 0. -1.
         11   -1    0    0    0    0 -0.00000000000E+00 -0.00000000000E+00 -0.45593999997E+02  0.45594000000E+02  0.51100000000E-03 0.  1.
    9900012    2    1    2    0    0 -0.10918139554E+02  0.98983211310E+01 -0.11554024829E+02  0.72461600926E+02  0.70000039903E+02 0.  0.
         12    1    1    2    0    0  0.10918139554E+02 -0.98983211310E+01  0.11554024829E+02  0.18726399074E+02  0.00000000000E+00 0. -1.
         11    1    3    3    0    0 -0.16954371975E+00  0.11800132822E+02  0.76717425585E+01  0.14075777557E+02  0.51100000000E-03 0. -1.
        -11    1    3    3    0    0 -0.10094373550E+02  0.25329201890E+02 -0.52371372038E+01  0.27764950065E+02  0.51100000000E-03 0.  1.
        -12    1    3    3    0    0 -0.65422228348E+00 -0.27231013581E+02 -0.13988630184E+02  0.30620873304E+02  0.00000000000E+00 0.  1.
</event>
<event>
 7    1  0.3348003E-013  0.7246155E+02  0.7816164E-02  0.1226708E+00
        -11   -1    0    0    0    0  0.00000000000E+00  0.00000000000E+00  0.45593999997E+02  0.45594000000E+02  0.51100000000E-03 0.  1.
         11   -1    0    0    0    0 -0.00000000000E+00 -0.00000000000E+00 -0.45593999997E+02  0.45594000000E+02  0.51100000000E-03 0. -1.
    9900012    2    1    2    0    0 -0.13228953391E+02  0.11983890650E+02  0.56622595200E+01  0.72461547431E+02  0.69999970216E+02 0.  0.
         12    1    1    2    0    0  0.13228953391E+02 -0.11983890650E+02 -0.56622595200E+01  0.18726452569E+02  0.00000000000E+00 0. -1.
         11    1    3    3    0    0  0.12475705355E+02  0.19404044262E+02  0.16688131561E+02  0.28471984355E+02  0.51100000000E-03 0. -1.
        -11    1    3    3    0    0  0.52993963067E+01  0.62865507857E+01  0.35917563288E+00  0.82300260870E+01  0.51100000000E-03 0.  1.
         12    1    3    3    0    0 -0.31004055053E+02 -0.13706704398E+02 -0.11385047674E+02  0.35759536989E+02  0.00000000000E+00 0. -1.
</event>
<event>
 7    1  0.3348003E-013  0.7246164E+02  0.7816164E-02  0.1226708E+00
        -11   -1    0    0    0    0  0.00000000000E+00  0.00000000000E+00  0.45593999997E+02  0.45594000000E+02  0.51100000000E-03 0. -1.
         11   -1    0    0    0    0 -0.00000000000E+00 -0.00000000000E+00 -0.45593999997E+02  0.45594000000E+02  0.51100000000E-03 0.  1.
    9900012    2    1    2    0    0  0.14573869993E+02 -0.93517408749E+01  0.71290738407E+01  0.72461643233E+02  0.70000095015E+02 0.  0.
         12    1    1    2    0    0 -0.14573869993E+02  0.93517408749E+01 -0.71290738407E+01  0.18726356767E+02  0.00000000000E+00 0. -1.
         11    1    3    3    0    0  0.41616875444E-01 -0.28491001737E+02 -0.46797665285E+01  0.28872809475E+02  0.51100000000E-03 0. -1.
        -11    1    3    3    0    0  0.39840065574E+00 -0.78008177032E+01 -0.45574899764E+01  0.90433508760E+01  0.51100000000E-03 0.  1.
         12    1    3    3    0    0  0.14133852462E+02  0.26940078566E+02  0.16366330346E+02  0.34545482881E+02  0.00000000000E+00 0. -1.
</event>
<event>
 7    1  0.3348003E-013  0.7246137E+02  0.7816164E-02  0.1226709E+00
        -11   -1    0    0    0    0  0.00000000000E+00  0.00000000000E+00  0.45593999997E+02  0.45594000000E+02  0.51100000000E-03 0.  1.
         11   -1    0    0    0    0 -0.00000000000E+00 -0.00000000000E+00 -0.45593999997E+02  0.45594000000E+02  0.51100000000E-03 0. -1.
    9900012    2    1    2    0    0  0.16658267209E+02  0.69718635043E+01 -0.49580315023E+01  0.72461365933E+02  0.69999733780E+02 0.  0.
         12    1    1    2    0    0 -0.16658267209E+02 -0.69718635043E+01  0.49580315023E+01  0.18726634067E+02  0.00000000000E+00 0. -1.
         11    1    3    3    0    0  0.13576669199E+02  0.35317488323E+02 -0.67984441004E+01  0.38443071813E+02  0.51100000000E-03 0. -1.
        -11    1    3    3    0    0 -0.24610632654E+01 -0.10383978275E+02 -0.74849287147E+01  0.13034876116E+02  0.51100000000E-03 0.  1.
        -12    1    3    3    0    0  0.55426612745E+01 -0.17961646543E+02  0.93253413129E+01  0.20983418004E+02  0.00000000000E+00 0.  1.
</event>
<event>
 7    1  0.3348003E-013  0.7246149E+02  0.7816164E-02  0.1226708E+00
        -11   -1    0    0    0    0  0.00000000000E+00  0.00000000000E+00  0.45593999997E+02  0.45594000000E+02  0.51100000000E-03 0. -1.
         11   -1    0    0    0    0 -0.00000000000E+00 -0.00000000000E+00 -0.45593999997E+02  0.45594000000E+02  0.51100000000E-03 0.  1.
    9900012    2    1    2    0    0 -0.12621660088E+02 -0.13688180624E+02  0.20023571909E+01  0.72461494013E+02  0.69999900629E+02 0.  0.
         12    1    1    2    0    0  0.12621660088E+02  0.13688180624E+02 -0.20023571909E+01  0.18726505987E+02  0.00000000000E+00 0. -1.
         11    1    3    3    0    0  0.21101783037E+02 -0.67573807079E+01  0.67809150001E+01  0.23171712278E+02  0.51100000000E-03 0. -1.
        -11    1    3    3    0    0  0.44378880949E+01 -0.34537918712E+01  0.72054618139E+01  0.91401427366E+01  0.51100000000E-03 0.  1.
        -12    1    3    3    0    0 -0.38161331220E+02 -0.34770080446E+01 -0.11984019623E+02  0.40149638999E+02  0.00000000000E+00 0.  1.
</event>
<event>
 7    1  0.3348003E-013  0.7246156E+02  0.7816164E-02  0.1226708E+00
        -11   -1    0    0    0    0  0.00000000000E+00  0.00000000000E+00  0.45593999997E+02  0.45594000000E+02  0.51100000000E-03 0.  1.
         11   -1    0    0    0    0 -0.00000000000E+00 -0.00000000000E+00 -0.45593999997E+02  0.45594000000E+02  0.51100000000E-03 0. -1.
    9900012    2    1    2    0    0 -0.67743656595E+01 -0.43485411601E+01  0.16907922144E+02  0.72461556890E+02  0.69999982539E+02 0.  0.
         12    1    1    2    0    0  0.67743656595E+01  0.43485411601E+01 -0.16907922144E+02  0.18726443110E+02  0.00000000000E+00 0. -1.
         11    1    3    3    0    0  0.16490244941E+02 -0.24923050218E+01 -0.53783212548E+01  0.17523301695E+02  0.51100000000E-03 0. -1.
        -11    1    3    3    0    0 -0.19786216035E+02 -0.13148786744E+02  0.31851761368E+02  0.39735621806E+02  0.51100000000E-03 0.  1.
         12    1    3    3    0    0 -0.34783945649E+01  0.11292550605E+02 -0.95655179696E+01  0.15202633389E+02  0.00000000000E+00 0. -1.
</event>
<event>
 7    1  0.3348003E-013  0.7246156E+02  0.7816164E-02  0.1226708E+00
        -11   -1    0    0    0    0  0.00000000000E+00  0.00000000000E+00  0.45593999997E+02  0.45594000000E+02  0.51100000000E-03 0.  1.
         11   -1    0    0    0    0 -0.00000000000E+00 -0.00000000000E+00 -0.45593999997E+02  0.45594000000E+02  0.51100000000E-03 0. -1.
    9900012    2    1    2    0    0 -0.14603352469E+02  0.10210240117E+02 -0.57595740047E+01  0.72461558820E+02  0.69999985052E+02 0.  0.
         12    1    1    2    0    0  0.14603352469E+02 -0.10210240117E+02  0.57595740047E+01  0.18726441180E+02  0.00000000000E+00 0. -1.
         11    1    3    3    0    0 -0.18837026459E+02 -0.91127266462E+01  0.59683349091E+01  0.21759971843E+02  0.51100000000E-03 0. -1.
        -11    1    3    3    0    0  0.45702695517E+01 -0.96491530113E+01  0.98883766834E+01  0.14552440046E+02  0.51100000000E-03 0.  1.
         12    1    3    3    0    0 -0.33659556097E+00  0.28972119774E+02 -0.21616285597E+02  0.36149146930E+02  0.00000000000E+00 0. -1.
</event>
<event>
 7    1  0.3348003E-013  0.7246157E+02  0.7816164E-02  0.1226708E+00
        -11   -1    0    0    0    0  0.00000000000E+00  0.00000000000E+00  0.45593999997E+02  0.45594000000E+02  0.51100000000E-03 0. -1.
         11   -1    0    0    0    0 -0.00000000000E+00 -0.00000000000E+00 -0.45593999997E+02  0.45594000000E+02  0.51100000000E-03 0.  1.
    9900012    2    1    2    0    0 -0.54333390444E+00 -0.12017615556E+02 -0.14351342750E+02  0.72461565899E+02  0.69999994275E+02 0.  0.
         12    1    1    2    0    0  0.54333390444E+00  0.12017615556E+02  0.14351342750E+02  0.18726434101E+02  0.00000000000E+00 0. -1.
         11    1    3    3    0    0  0.30982001501E+01 -0.62791070912E+01  0.27305542929E+00  0.70071812850E+01  0.51100000000E-03 0. -1.
        -11    1    3    3    0    0 -0.10822037427E+02 -0.11160215269E+02 -0.37650072314E+02  0.40733215493E+02  0.51100000000E-03 0.  1.
         12    1    3    3    0    0  0.71805033724E+01  0.54217068036E+01  0.23025674135E+02  0.24721169121E+02  0.00000000000E+00 0. -1.
</event>
<event>
 7    1  0.3348003E-013  0.7246169E+02  0.7816164E-02  0.1226708E+00
        -11   -1    0    0    0    0  0.00000000000E+00  0.00000000000E+00  0.45593999997E+02  0.45594000000E+02  0.51100000000E-03 0. -1.
         11   -1    0    0    0    0 -0.00000000000E+00 -0.00000000000E+00 -0.45593999997E+02  0.45594000000E+02  0.51100000000E-03 0.  1.
    9900012    2    1    2    0    0  0.15075192608E+01  0.18665126769E+02 -0.12242284512E+00  0.72461693397E+02  0.70000160364E+02 0.  0.
         12    1    1    2    0    0 -0.15075192608E+01 -0.18665126769E+02  0.12242284512E+00  0.18726306603E+02  0.00000000000E+00 0. -1.
         11    1    3    3    0    0 -0.44773544076E+01  0.44661976770E+01 -0.19393436381E+02  0.20398504825E+02  0.51100000000E-03 0. -1.
        -11    1    3    3    0    0 -0.12376048176E+01 -0.37568560513E+01 -0.13465012294E+02  0.14033965562E+02  0.51100000000E-03 0.  1.
         12    1    3    3    0    0  0.72224784860E+01  0.17955785144E+02  0.32736025829E+02  0.38029223009E+02  0.00000000000E+00 0. -1.
</event>
<event>
 7    1  0.3348003E-013  0.7246159E+02  0.7816164E-02  0.1226708E+00
        -11   -1    0    0    0    0  0.00000000000E+00  0.00000000000E+00  0.45593999997E+02  0.45594000000E+02  0.51100000000E-03 0.  1.
         11   -1    0    0    0    0 -0.00000000000E+00 -0.00000000000E+00 -0.45593999997E+02  0.45594000000E+02  0.51100000000E-03 0. -1.
    9900012    2    1    2    0    0  0.76088955102E+01 -0.11633920360E+02  0.12547317792E+02  0.72461586099E+02  0.70000020588E+02 0.  0.
         12    1    1    2    0    0 -0.76088955102E+01  0.11633920360E+02 -0.12547317792E+02  0.18726413901E+02  0.00000000000E+00 0. -1.
         11    1    3    3    0    0  0.11253007550E+02 -0.14619228652E+02  0.27275976338E+02  0.32929180232E+02  0.51100000000E-03 0. -1.
        -11    1    3    3    0    0  0.13801321441E+02  0.59463580392E+01  0.20260054529E+01  0.15163784020E+02  0.51100000000E-03 0.  1.
        -12    1    3    3    0    0 -0.17445433482E+02 -0.29610497475E+01 -0.16754663999E+02  0.24368621846E+02  0.00000000000E+00 0.  1.
</event>
<event>
 7    1  0.3348003E-013  0.7246157E+02  0.7816164E-02  0.1226708E+00
        -11   -1    0    0    0    0  0.00000000000E+00  0.00000000000E+00  0.45593999997E+02  0.45594000000E+02  0.51100000000E-03 0. -1.
         11   -1    0    0    0    0 -0.00000000000E+00 -0.00000000000E+00 -0.45593999997E+02  0.45594000000E+02  0.51100000000E-03 0.  1.
    9900012    2    1    2    0    0  0.13466914969E+02 -0.46062373617E+01 -0.12169796916E+02  0.72461570058E+02  0.69999999692E+02 0.  0.
         12    1    1    2    0    0 -0.13466914969E+02  0.46062373617E+01  0.12169796916E+02  0.18726429942E+02  0.00000000000E+00 0. -1.
         11    1    3    3    0    0  0.10628530351E+02 -0.11302829228E+02 -0.17737517926E+02  0.23565634904E+02  0.51100000000E-03 0.  1.
        -11    1    3    3    0    0 -0.15795805407E+02  0.18559716525E+02  0.10038718992E+02  0.26358042894E+02  0.51100000000E-03 0. -1.
         12    1    3    3    0    0  0.18634190025E+02 -0.11863124659E+02 -0.44709979823E+01  0.22537892260E+02  0.00000000000E+00 0. -1.
</event>
<event>
 7    1  0.3348003E-013  0.7246154E+02  0.7816164E-02  0.1226708E+00
        -11   -1    0    0    0    0  0.00000000000E+00  0.00000000000E+00  0.45593999997E+02  0.45594000000E+02  0.51100000000E-03 0.  1.
         11   -1    0    0    0    0 -0.00000000000E+00 -0.00000000000E+00 -0.45593999997E+02  0.45594000000E+02  0.51100000000E-03 0. -1.
    9900012    2    1    2    0    0  0.69654795614E+01  0.13282116980E+02  0.11213725502E+02  0.72461543404E+02  0.69999964971E+02 0.  0.
         12    1    1    2    0    0 -0.69654795614E+01 -0.13282116980E+02 -0.11213725502E+02  0.18726456596E+02  0.00000000000E+00 0. -1.
         11    1    3    3    0    0  0.50419790693E+01  0.13363526440E+02 -0.14023088273E+02  0.20016303275E+02  0.51100000000E-03 0. -1.
        -11    1    3    3    0    0 -0.15234958545E+01 -0.15000796590E+02 -0.71001673960E+01  0.16666052780E+02  0.51100000000E-03 0.  1.
        -12    1    3    3    0    0  0.34469963466E+01  0.14919387130E+02  0.32336981170E+02  0.35779187349E+02  0.00000000000E+00 0.  1.
</event>
<event>
 7    1  0.3348003E-013  0.7246159E+02  0.7816164E-02  0.1226708E+00
        -11   -1    0    0    0    0  0.00000000000E+00  0.00000000000E+00  0.45593999997E+02  0.45594000000E+02  0.51100000000E-03 0. -1.
         11   -1    0    0    0    0 -0.00000000000E+00 -0.00000000000E+00 -0.45593999997E+02  0.45594000000E+02  0.51100000000E-03 0.  1.
    9900012    2    1    2    0    0 -0.67662612586E+01 -0.61449692823E+01 -0.16344279480E+02  0.72461590557E+02  0.70000026396E+02 0.  0.
         12    1    1    2    0    0  0.67662612586E+01  0.61449692823E+01  0.16344279480E+02  0.18726409443E+02  0.00000000000E+00 0. -1.
         11    1    3    3    0    0  0.16769134573E+01 -0.83082329810E+01 -0.11977795611E+02  0.14673321436E+02  0.51100000000E-03 0. -1.
        -11    1    3    3    0    0  0.91132474744E+01 -0.13340373421E+02 -0.22826945054E+02  0.27965805251E+02  0.51100000000E-03 0.  1.
         12    1    3    3    0    0 -0.17556422190E+02  0.15503637120E+02  0.18460461186E+02  0.29822463870E+02  0.00000000000E+00 0. -1.
</event>
<event>
 7    1  0.3348003E-013  0.7246164E+02  0.7816164E-02  0.1226708E+00
        -11   -1    0    0    0    0  0.00000000000E+00  0.00000000000E+00  0.45593999997E+02  0.45594000000E+02  0.51100000000E-03 0.  1.
         11   -1    0    0    0    0 -0.00000000000E+00 -0.00000000000E+00 -0.45593999997E+02  0.45594000000E+02  0.51100000000E-03 0. -1.
    9900012    2    1    2    0    0 -0.97745761578E+01  0.13910047132E+02  0.78514317367E+01  0.72461635414E+02  0.70000084831E+02 0.  0.
         12    1    1    2    0    0  0.97745761578E+01 -0.13910047132E+02 -0.78514317367E+01  0.18726364586E+02  0.00000000000E+00 0. -1.
         11    1    3    3    0    0  0.11095022580E+02 -0.15005561334E+02  0.10715787426E+02  0.21519630513E+02  0.51100000000E-03 0. -1.
        -11    1    3    3    0    0 -0.12860242716E+01 -0.81095442042E+01 -0.37970235957E+01  0.90463226824E+01  0.51100000000E-03 0.  1.
         12    1    3    3    0    0 -0.19583574466E+02  0.37025152670E+02  0.93266790675E+00  0.41895682219E+02  0.00000000000E+00 0. -1.
</event>
<event>
 7    1  0.3348003E-013  0.7246157E+02  0.7816164E-02  0.1226708E+00
        -11   -1    0    0    0    0  0.00000000000E+00  0.00000000000E+00  0.45593999997E+02  0.45594000000E+02  0.51100000000E-03 0.  1.
         11   -1    0    0    0    0 -0.00000000000E+00 -0.00000000000E+00 -0.45593999997E+02  0.45594000000E+02  0.51100000000E-03 0. -1.
    9900012    2    1    2    0    0  0.93795503301E+01  0.13362227643E+02  0.91735600978E+01  0.72461566895E+02  0.69999995572E+02 0.  0.
         12    1    1    2    0    0 -0.93795503301E+01 -0.13362227643E+02 -0.91735600978E+01  0.18726433105E+02  0.00000000000E+00 0. -1.
         11    1    3    3    0    0 -0.86051799360E+01 -0.18117399723E+02 -0.93973361053E+01  0.22149474499E+02  0.51100000000E-03 0. -1.
        -11    1    3    3    0    0 -0.44880212769E+01  0.13644499330E+01 -0.42662152770E+01  0.63407138125E+01  0.51100000000E-03 0.  1.
        -12    1    3    3    0    0  0.22472751543E+02  0.30115177433E+02  0.22837111480E+02  0.43971378583E+02  0.00000000000E+00 0.  1.
</event>
<event>
 7    1  0.3348003E-013  0.7246158E+02  0.7816164E-02  0.1226708E+00
        -11   -1    0    0    0    0  0.00000000000E+00  0.00000000000E+00  0.45593999997E+02  0.45594000000E+02  0.51100000000E-03 0.  1.
         11   -1    0    0    0    0 -0.00000000000E+00 -0.00000000000E+00 -0.45593999997E+02  0.45594000000E+02  0.51100000000E-03 0. -1.
    9900012    2    1    2    0    0  0.38944365992E+01 -0.18169298080E+02  0.23213754448E+01  0.72461579810E+02  0.70000012396E+02 0.  0.
         12    1    1    2    0    0 -0.38944365992E+01  0.18169298080E+02 -0.23213754448E+01  0.18726420190E+02  0.00000000000E+00 0. -1.
         11    1    3    3    0    0  0.15581862958E+02  0.17529699453E+02 -0.29564611813E+01  0.23639489824E+02  0.51100000000E-03 0. -1.
        -11    1    3    3    0    0 -0.54911098572E+01  0.29129680071E+01  0.73930661361E+01  0.96589387216E+01  0.51100000000E-03 0.  1.
        -12    1    3    3    0    0 -0.61963165014E+01 -0.38611965541E+02 -0.21152295100E+01  0.39163151265E+02  0.00000000000E+00 0.  1.
</event>
<event>
 7    1  0.3348003E-013  0.7246160E+02  0.7816164E-02  0.1226708E+00
        -11   -1    0    0    0    0  0.00000000000E+00  0.00000000000E+00  0.45593999997E+02  0.45594000000E+02  0.51100000000E-03 0.  1.
         11   -1    0    0    0    0 -0.00000000000E+00 -0.00000000000E+00 -0.45593999997E+02  0.45594000000E+02  0.51100000000E-03 0. -1.
    9900012    2    1    2    0    0 -0.50824043738E+01 -0.17806439613E+02 -0.27888698021E+01  0.72461603639E+02  0.70000043438E+02 0.  0.
         12    1    1    2    0    0  0.50824043738E+01  0.17806439613E+02  0.27888698021E+01  0.18726396361E+02  0.00000000000E+00 0. -1.
         11    1    3    3    0    0 -0.25224559489E+02 -0.16678020145E+01 -0.23064545908E+02  0.34220362990E+02  0.51100000000E-03 0. -1.
        -11    1    3    3    0    0  0.94598199134E+01  0.33899692824E+01  0.48407629686E+01  0.11154060736E+02  0.51100000000E-03 0.  1.
        -12    1    3    3    0    0  0.10682335202E+02 -0.19528606880E+02  0.15434913138E+02  0.27087179913E+02  0.00000000000E+00 0.  1.
</event>
<event>
 7    1  0.3348003E-013  0.7246166E+02  0.7816164E-02  0.1226708E+00
        -11   -1    0    0    0    0  0.00000000000E+00  0.00000000000E+00  0.45593999997E+02  0.45594000000E+02  0.51100000000E-03 0. -1.
         11   -1    0    0    0    0 -0.00000000000E+00 -0.00000000000E+00 -0.45593999997E+02  0.45594000000E+02  0.51100000000E-03 0.  1.
    9900012    2    1    2    0    0  0.12156434388E+02  0.67297247378E+01 -0.12554195265E+02  0.72461657302E+02  0.70000113344E+02 0.  0.
         12    1    1    2    0    0 -0.12156434388E+02 -0.67297247378E+01  0.12554195265E+02  0.18726342698E+02  0.00000000000E+00 0. -1.
         11    1    3    3    0    0  0.25894343094E+01  0.18087195267E+02 -0.21607628559E+02  0.28297374699E+02  0.51100000000E-03 0. -1.
        -11    1    3    3    0    0 -0.17373682056E+01 -0.17631119662E+00 -0.15125479432E+02  0.15225953574E+02  0.51100000000E-03 0.  1.
         12    1    3    3    0    0  0.11304368285E+02 -0.11181159333E+02  0.24178912726E+02  0.28938329029E+02  0.00000000000E+00 0. -1.
</event>
<event>
 7    1  0.3348003E-013  0.7246146E+02  0.7816164E-02  0.1226708E+00
        -11   -1    0    0    0    0  0.00000000000E+00  0.00000000000E+00  0.45593999997E+02  0.45594000000E+02  0.51100000000E-03 0.  1.
         11   -1    0    0    0    0 -0.00000000000E+00 -0.00000000000E+00 -0.45593999997E+02  0.45594000000E+02  0.51100000000E-03 0. -1.
    9900012    2    1    2    0    0  0.90961508756E+01 -0.13564981326E+02  0.91615739231E+01  0.72461464926E+02  0.69999862738E+02 0.  0.
         12    1    1    2    0    0 -0.90961508756E+01  0.13564981326E+02 -0.91615739231E+01  0.18726535074E+02  0.00000000000E+00 0. -1.
         11    1    3    3    0    0 -0.15402118205E+02  0.90021414262E+01 -0.31922510654E+01  0.18123307164E+02  0.51100000000E-03 0. -1.
        -11    1    3    3    0    0 -0.61456911670E+01  0.44149440617E+01 -0.59177973472E+01  0.96063300324E+01  0.51100000000E-03 0.  1.
        -12    1    3    3    0    0  0.30643960247E+02 -0.26982066814E+02  0.18271622336E+02  0.44731827729E+02  0.00000000000E+00 0.  1.
</event>
<event>
 7    1  0.3348003E-013  0.7246157E+02  0.7816164E-02  0.1226708E+00
        -11   -1    0    0    0    0  0.00000000000E+00  0.00000000000E+00  0.45593999997E+02  0.45594000000E+02  0.51100000000E-03 0.  1.
         11   -1    0    0    0    0 -0.00000000000E+00 -0.00000000000E+00 -0.45593999997E+02  0.45594000000E+02  0.51100000000E-03 0. -1.
    9900012    2    1    2    0    0  0.17628107511E+01 -0.70848185833E+01  0.17244618117E+02  0.72461574550E+02  0.70000005544E+02 0.  0.
         12    1    1    2    0    0 -0.17628107511E+01  0.70848185833E+01 -0.17244618117E+02  0.18726425450E+02  0.00000000000E+00 0. -1.
         11    1    3    3    0    0 -0.69777256209E+01  0.28219243104E+01 -0.89702635473E+01  0.11709719895E+02  0.51100000000E-03 0. -1.
        -11    1    3    3    0    0 -0.17858685840E+02  0.79217899247E+01  0.26974298663E+00  0.19538684118E+02  0.51100000000E-03 0.  1.
        -12    1    3    3    0    0  0.26599222212E+02 -0.17828532818E+02  0.25945138678E+02  0.41213170537E+02  0.00000000000E+00 0.  1.
</event>
<event>
 7    1  0.3348003E-013  0.7246155E+02  0.7816164E-02  0.1226708E+00
        -11   -1    0    0    0    0  0.00000000000E+00  0.00000000000E+00  0.45593999997E+02  0.45594000000E+02  0.51100000000E-03 0.  1.
         11   -1    0    0    0    0 -0.00000000000E+00 -0.00000000000E+00 -0.45593999997E+02  0.45594000000E+02  0.51100000000E-03 0. -1.
    9900012    2    1    2    0    0  0.16052466387E+02  0.84745177148E+01  0.46022608255E+01  0.72461549928E+02  0.69999973469E+02 0.  0.
         12    1    1    2    0    0 -0.16052466387E+02 -0.84745177148E+01 -0.46022608255E+01  0.18726450072E+02  0.00000000000E+00 0. -1.
         11    1    3    3    0    0 -0.12418149561E+02  0.14480115718E+02  0.64632156637E+01  0.20140937086E+02  0.51100000000E-03 0. -1.
        -11    1    3    3    0    0 -0.51489885944E+01 -0.12170791270E+02  0.95292172112E+01  0.16292520511E+02  0.51100000000E-03 0.  1.
         12    1    3    3    0    0  0.33619604543E+02  0.61651932670E+01 -0.11390172049E+02  0.36028092330E+02  0.00000000000E+00 0. -1.
</event>
<event>
 7    1  0.3348003E-013  0.7246152E+02  0.7816164E-02  0.1226708E+00
        -11   -1    0    0    0    0  0.00000000000E+00  0.00000000000E+00  0.45593999997E+02  0.45594000000E+02  0.51100000000E-03 0.  1.
         11   -1    0    0    0    0 -0.00000000000E+00 -0.00000000000E+00 -0.45593999997E+02  0.45594000000E+02  0.51100000000E-03 0. -1.
    9900012    2    1    2    0    0  0.11127661615E+02 -0.92167493227E+01  0.11912499932E+02  0.72461522068E+02  0.69999937177E+02 0.  0.
         12    1    1    2    0    0 -0.11127661615E+02  0.92167493227E+01 -0.11912499932E+02  0.18726477932E+02  0.00000000000E+00 0. -1.
         11    1    3    3    0    0  0.10131796003E+02  0.12549428431E+02  0.13361985372E+02  0.20944786882E+02  0.51100000000E-03 0. -1.
        -11    1    3    3    0    0  0.71463994398E+01  0.12928510689E+02 -0.60871610817E+01  0.15977200752E+02  0.51100000000E-03 0.  1.
         12    1    3    3    0    0 -0.61505338274E+01 -0.34694688442E+02  0.46376756417E+01  0.35539534435E+02  0.00000000000E+00 0. -1.
</event>
<event>
 7    1  0.3348003E-013  0.7246168E+02  0.7816164E-02  0.1226708E+00
        -11   -1    0    0    0    0  0.00000000000E+00  0.00000000000E+00  0.45593999997E+02  0.45594000000E+02  0.51100000000E-03 0.  1.
         11   -1    0    0    0    0 -0.00000000000E+00 -0.00000000000E+00 -0.45593999997E+02  0.45594000000E+02  0.51100000000E-03 0. -1.
    9900012    2    1    2    0    0  0.14150245675E+02 -0.75334507222E+01 -0.96794928653E+01  0.72461683903E+02  0.70000147996E+02 0.  0.
         12    1    1    2    0    0 -0.14150245675E+02  0.75334507222E+01  0.96794928653E+01  0.18726316097E+02  0.00000000000E+00 0. -1.
         11    1    3    3    0    0 -0.12272686593E+02 -0.80954836997E+00  0.20246489239E+02  0.23689544772E+02  0.51100000000E-03 0. -1.
        -11    1    3    3    0    0 -0.55852356934E+01  0.26181391051E+00 -0.28822099318E+01  0.62905117937E+01  0.51100000000E-03 0.  1.
         12    1    3    3    0    0  0.32008167961E+02 -0.69857162627E+01 -0.27043772172E+02  0.42481627337E+02  0.00000000000E+00 0. -1.
</event>
<event>
 7    1  0.3348003E-013  0.7246155E+02  0.7816164E-02  0.1226708E+00
        -11   -1    0    0    0    0  0.00000000000E+00  0.00000000000E+00  0.45593999997E+02  0.45594000000E+02  0.51100000000E-03 0.  1.
         11   -1    0    0    0    0 -0.00000000000E+00 -0.00000000000E+00 -0.45593999997E+02  0.45594000000E+02  0.51100000000E-03 0. -1.
    9900012    2    1    2    0    0 -0.88948622199E+01 -0.34468662558E+01  0.16114608471E+02  0.72461546329E+02  0.69999968781E+02 0.  0.
         12    1    1    2    0    0  0.88948622199E+01  0.34468662558E+01 -0.16114608471E+02  0.18726453671E+02  0.00000000000E+00 0. -1.
         11    1    3    3    0    0 -0.16958767233E+00 -0.55367750149E+01 -0.91195335738E+01  0.10670076401E+02  0.51100000000E-03 0. -1.
        -11    1    3    3    0    0 -0.30136088818E+02 -0.13641231682E+01  0.26379009569E+02  0.40073642552E+02  0.51100000000E-03 0.  1.
         12    1    3    3    0    0  0.21410814271E+02  0.34540319274E+01 -0.11448675240E+01  0.21717827376E+02  0.00000000000E+00 0. -1.
</event>
<event>
 7    1  0.3348003E-013  0.7246156E+02  0.7816164E-02  0.1226708E+00
        -11   -1    0    0    0    0  0.00000000000E+00  0.00000000000E+00  0.45593999997E+02  0.45594000000E+02  0.51100000000E-03 0. -1.
         11   -1    0    0    0    0 -0.00000000000E+00 -0.00000000000E+00 -0.45593999997E+02  0.45594000000E+02  0.51100000000E-03 0.  1.
    9900012    2    1    2    0    0 -0.17703719317E+02  0.58915352885E+01 -0.15960988233E+01  0.72461564216E+02  0.69999992082E+02 0.  0.
         12    1    1    2    0    0  0.17703719317E+02 -0.58915352885E+01  0.15960988233E+01  0.18726435784E+02  0.00000000000E+00 0. -1.
         11    1    3    3    0    0 -0.33628082920E+02 -0.36027797040E+01 -0.25351397799E+01  0.33915408246E+02  0.51100000000E-03 0. -1.
        -11    1    3    3    0    0 -0.34512561640E+00 -0.97193980002E+01 -0.71844410627E+01  0.12091402021E+02  0.51100000000E-03 0.  1.
         12    1    3    3    0    0  0.16269489220E+02  0.19213712993E+02  0.81234820193E+01  0.26454753950E+02  0.00000000000E+00 0. -1.
</event>
<event>
 7    1  0.3348003E-013  0.7246155E+02  0.7816164E-02  0.1226708E+00
        -11   -1    0    0    0    0  0.00000000000E+00  0.00000000000E+00  0.45593999997E+02  0.45594000000E+02  0.51100000000E-03 0. -1.
         11   -1    0    0    0    0 -0.00000000000E+00 -0.00000000000E+00 -0.45593999997E+02  0.45594000000E+02  0.51100000000E-03 0.  1.
    9900012    2    1    2    0    0 -0.92964674865E+00 -0.86999874074E+01 -0.16556747684E+02  0.72461550314E+02  0.69999973972E+02 0.  0.
         12    1    1    2    0    0  0.92964674865E+00  0.86999874074E+01  0.16556747684E+02  0.18726449686E+02  0.00000000000E+00 0. -1.
         11    1    3    3    0    0  0.60093400316E+01 -0.29421436887E+01 -0.27585498646E+02  0.28385350322E+02  0.51100000000E-03 0.  1.
        -11    1    3    3    0    0 -0.35256190730E+01 -0.11714641526E+02 -0.13726284120E+02  0.18386780358E+02  0.51100000000E-03 0. -1.
         12    1    3    3    0    0 -0.34133677073E+01  0.59567978077E+01  0.24755035082E+02  0.25689419634E+02  0.00000000000E+00 0. -1.
</event>
<event>
 7    1  0.3348003E-013  0.7246157E+02  0.7816164E-02  0.1226708E+00
        -11   -1    0    0    0    0  0.00000000000E+00  0.00000000000E+00  0.45593999997E+02  0.45594000000E+02  0.51100000000E-03 0. -1.
         11   -1    0    0    0    0 -0.00000000000E+00 -0.00000000000E+00 -0.45593999997E+02  0.45594000000E+02  0.51100000000E-03 0.  1.
    9900012    2    1    2    0    0  0.13573543178E+02  0.12678839690E+02 -0.23843588544E+01  0.72461569015E+02  0.69999998333E+02 0.  0.
         12    1    1    2    0    0 -0.13573543178E+02 -0.12678839690E+02  0.23843588544E+01  0.18726430985E+02  0.00000000000E+00 0. -1.
         11    1    3    3    0    0  0.10727407331E+02 -0.71906157992E+01  0.13937271610E+02  0.19000783242E+02  0.51100000000E-03 0. -1.
        -11    1    3    3    0    0  0.21989001056E+02  0.13398462198E+02  0.24684164884E+01  0.25867509291E+02  0.51100000000E-03 0.  1.
        -12    1    3    3    0    0 -0.19142865208E+02  0.64709932915E+01 -0.18790046952E+02  0.27593276482E+02  0.00000000000E+00 0.  1.
</event>
<event>
 7    1  0.3348003E-013  0.7246152E+02  0.7816164E-02  0.1226708E+00
        -11   -1    0    0    0    0  0.00000000000E+00  0.00000000000E+00  0.45593999997E+02  0.45594000000E+02  0.51100000000E-03 0.  1.
         11   -1    0    0    0    0 -0.00000000000E+00 -0.00000000000E+00 -0.45593999997E+02  0.45594000000E+02  0.51100000000E-03 0. -1.
    9900012    2    1    2    0    0  0.52404405845E+01 -0.83859799465E+01  0.15902648142E+02  0.72461518881E+02  0.69999933024E+02 0.  0.
         12    1    1    2    0    0 -0.52404405845E+01  0.83859799465E+01 -0.15902648142E+02  0.18726481119E+02  0.00000000000E+00 0. -1.
         11    1    3    3    0    0 -0.55407449814E+01  0.17734497912E+02 -0.59725752998E+01  0.19516247772E+02  0.51100000000E-03 0. -1.
        -11    1    3    3    0    0  0.49776363678E+01  0.99207482875E+00  0.24569192415E+02  0.25087971071E+02  0.51100000000E-03 0.  1.
        -12    1    3    3    0    0  0.58035491982E+01 -0.27112552687E+02 -0.26939689735E+01  0.27857300037E+02  0.00000000000E+00 0.  1.
</event>
<event>
 7    1  0.3348003E-013  0.7246159E+02  0.7816164E-02  0.1226708E+00
        -11   -1    0    0    0    0  0.00000000000E+00  0.00000000000E+00  0.45593999997E+02  0.45594000000E+02  0.51100000000E-03 0.  1.
         11   -1    0    0    0    0 -0.00000000000E+00 -0.00000000000E+00 -0.45593999997E+02  0.45594000000E+02  0.51100000000E-03 0. -1.
    9900012    2    1    2    0    0  0.18072529221E+02 -0.18761373664E+01  0.45323515594E+01  0.72461590453E+02  0.70000026261E+02 0.  0.
         12    1    1    2    0    0 -0.18072529221E+02  0.18761373664E+01 -0.45323515594E+01  0.18726409547E+02  0.00000000000E+00 0. -1.
         11    1    3    3    0    0  0.57372789050E+01 -0.25412882977E+02  0.92703036562E+01  0.27652658472E+02  0.51100000000E-03 0. -1.
        -11    1    3    3    0    0  0.14215017345E+02 -0.47672203182E+01 -0.66001655582E+01  0.16381553447E+02  0.51100000000E-03 0.  1.
        -12    1    3    3    0    0 -0.18797670295E+01  0.28303965928E+02  0.18622134614E+01  0.28427378534E+02  0.00000000000E+00 0.  1.
</event>
<event>
 7    1  0.5085587E-013  0.7246157E+02  0.7816164E-02  0.1226708E+00
        -11   -1    0    0    0    0  0.00000000000E+00  0.00000000000E+00  0.45593999997E+02  0.45594000000E+02  0.51100000000E-03 0. -1.
         11   -1    0    0    0    0 -0.00000000000E+00 -0.00000000000E+00 -0.45593999997E+02  0.45594000000E+02  0.51100000000E-03 0.  1.
    9900012    2    1    2    0    0  0.17813964727E+02  0.48224375200E+01 -0.31758259672E+01  0.72461571790E+02  0.70000001949E+02 0.  0.
         12    1    1    2    0    0 -0.17813964727E+02 -0.48224375200E+01  0.31758259672E+01  0.18726428210E+02  0.00000000000E+00 0. -1.
         11    1    3    3    0    0 -0.19570413859E+02 -0.79440132531E+00  0.51977511397E+01  0.20264471107E+02  0.51100000000E-03 0. -1.
        -11    1    3    3    0    0  0.63629617502E+01  0.16916962779E+02  0.24329253712E+00  0.18075677122E+02  0.51100000000E-03 0.  1.
        -12    1    3    3    0    0  0.31021416835E+02 -0.11300123934E+02 -0.86168696440E+01  0.34121423561E+02  0.00000000000E+00 0.  1.
</event>
<event>
 7    1  0.3348003E-013  0.7246158E+02  0.7816164E-02  0.1226708E+00
        -11   -1    0    0    0    0  0.00000000000E+00  0.00000000000E+00  0.45593999997E+02  0.45594000000E+02  0.51100000000E-03 0. -1.
         11   -1    0    0    0    0 -0.00000000000E+00 -0.00000000000E+00 -0.45593999997E+02  0.45594000000E+02  0.51100000000E-03 0.  1.
    9900012    2    1    2    0    0 -0.46113754311E+00  0.18697796460E+02  0.92662767976E+00  0.72461578047E+02  0.70000010100E+02 0.  0.
         12    1    1    2    0    0  0.46113754311E+00 -0.18697796460E+02 -0.92662767976E+00  0.18726421953E+02  0.00000000000E+00 0. -1.
         11    1    3    3    0    0  0.86895924587E+01  0.15793961223E+02 -0.77249293041E+01  0.19612056527E+02  0.51100000000E-03 0. -1.
        -11    1    3    3    0    0 -0.12629545683E+02  0.23408633090E+02 -0.61777216167E+01  0.27306295464E+02  0.51100000000E-03 0.  1.
         12    1    3    3    0    0  0.34788156812E+01 -0.20504797853E+02  0.14829278601E+02  0.25543226056E+02  0.00000000000E+00 0. -1.
</event>
<event>
 7    1  0.3348003E-013  0.7246168E+02  0.7816164E-02  0.1226708E+00
        -11   -1    0    0    0    0  0.00000000000E+00  0.00000000000E+00  0.45593999997E+02  0.45594000000E+02  0.51100000000E-03 0.  1.
         11   -1    0    0    0    0 -0.00000000000E+00 -0.00000000000E+00 -0.45593999997E+02  0.45594000000E+02  0.51100000000E-03 0. -1.
    9900012    2    1    2    0    0 -0.41338763111E+01 -0.10681893946E+02  0.14814962554E+02  0.72461684102E+02  0.70000148255E+02 0.  0.
         12    1    1    2    0    0  0.41338763111E+01  0.10681893946E+02 -0.14814962554E+02  0.18726315898E+02  0.00000000000E+00 0. -1.
         11    1    3    3    0    0 -0.11990889435E+02 -0.49652293650E+01 -0.59401031275E+01  0.14273043036E+02  0.51100000000E-03 0. -1.
        -11    1    3    3    0    0  0.48845262777E+01 -0.28557597463E+02  0.19882799318E+02  0.35138592442E+02  0.51100000000E-03 0.  1.
        -12    1    3    3    0    0  0.29724868459E+01  0.22840932882E+02  0.87226636338E+00  0.23050048624E+02  0.00000000000E+00 0.  1.
</event>
<event>
 7    1  0.3348003E-013  0.7246206E+02  0.7816164E-02  0.1226707E+00
        -11   -1    0    0    0    0  0.00000000000E+00  0.00000000000E+00  0.45593999997E+02  0.45594000000E+02  0.51100000000E-03 0.  1.
         11   -1    0    0    0    0 -0.00000000000E+00 -0.00000000000E+00 -0.45593999997E+02  0.45594000000E+02  0.51100000000E-03 0. -1.
    9900012    2    1    2    0    0  0.34164084524E+01 -0.14784828612E+02  0.10972589827E+02  0.72462062606E+02  0.70000641324E+02 0.  0.
         12    1    1    2    0    0 -0.34164084524E+01  0.14784828612E+02 -0.10972589827E+02  0.18725937394E+02  0.00000000000E+00 0. -1.
         11    1    3    3    0    0  0.64445931831E+00  0.10777089970E+02 -0.63519446592E+01  0.12526300222E+02  0.51100000000E-03 0. -1.
        -11    1    3    3    0    0 -0.17613084662E+02  0.70060980350E+01  0.56380726053E+01  0.19776097288E+02  0.51100000000E-03 0.  1.
        -12    1    3    3    0    0  0.20385033796E+02 -0.32568016617E+02  0.11686461881E+02  0.40159665095E+02  0.00000000000E+00 0.  1.
</event>
<event>
 7    1  0.3348003E-013  0.7246156E+02  0.7816164E-02  0.1226708E+00
        -11   -1    0    0    0    0  0.00000000000E+00  0.00000000000E+00  0.45593999997E+02  0.45594000000E+02  0.51100000000E-03 0. -1.
         11   -1    0    0    0    0 -0.00000000000E+00 -0.00000000000E+00 -0.45593999997E+02  0.45594000000E+02  0.51100000000E-03 0.  1.
    9900012    2    1    2    0    0  0.11374092431E+02  0.85619341453E+01 -0.12165640812E+02  0.72461561168E+02  0.69999988112E+02 0.  0.
         12    1    1    2    0    0 -0.11374092431E+02 -0.85619341453E+01  0.12165640812E+02  0.18726438832E+02  0.00000000000E+00 0. -1.
         11    1    3    3    0    0  0.14798132302E+02  0.33017685275E+02  0.21795431185E+01  0.36247795368E+02  0.51100000000E-03 0. -1.
        -11    1    3    3    0    0  0.90472261312E+01 -0.94657497068E+01 -0.93348671894E+01  0.16080810424E+02  0.51100000000E-03 0.  1.
        -12    1    3    3    0    0 -0.12471266001E+02 -0.14990001423E+02 -0.50103167412E+01  0.20132955377E+02  0.00000000000E+00 0.  1.
</event>
<event>
 7    1  0.3348003E-013  0.7246158E+02  0.7816164E-02  0.1226708E+00
        -11   -1    0    0    0    0  0.00000000000E+00  0.00000000000E+00  0.45593999997E+02  0.45594000000E+02  0.51100000000E-03 0.  1.
         11   -1    0    0    0    0 -0.00000000000E+00 -0.00000000000E+00 -0.45593999997E+02  0.45594000000E+02  0.51100000000E-03 0. -1.
    9900012    2    1    2    0    0 -0.84161412774E+01  0.14902798928E+02 -0.75996022994E+01  0.72461580027E+02  0.70000012679E+02 0.  0.
         12    1    1    2    0    0  0.84161412774E+01 -0.14902798928E+02  0.75996022994E+01  0.18726419973E+02  0.00000000000E+00 0. -1.
         11    1    3    3    0    0 -0.22917659521E+02  0.13975424619E+02  0.15517498908E+02  0.31005231556E+02  0.51100000000E-03 0. -1.
        -11    1    3    3    0    0 -0.64743901125E+01 -0.88609389224E+00  0.35839784095E+01  0.74530390590E+01  0.51100000000E-03 0.  1.
        -12    1    3    3    0    0  0.20975908356E+02  0.18134682013E+01 -0.26701079616E+02  0.34003309412E+02  0.00000000000E+00 0.  1.
</event>
<event>
 7    1  0.3348003E-013  0.7246155E+02  0.7816164E-02  0.1226708E+00
        -11   -1    0    0    0    0  0.00000000000E+00  0.00000000000E+00  0.45593999997E+02  0.45594000000E+02  0.51100000000E-03 0.  1.
         11   -1    0    0    0    0 -0.00000000000E+00 -0.00000000000E+00 -0.45593999997E+02  0.45594000000E+02  0.51100000000E-03 0. -1.
    9900012    2    1    2    0    0 -0.16849191007E+01  0.18635011015E+02  0.75976080889E+00  0.72461552809E+02  0.69999977223E+02 0.  0.
         12    1    1    2    0    0  0.16849191007E+01 -0.18635011015E+02 -0.75976080889E+00  0.18726447191E+02  0.00000000000E+00 0. -1.
         11    1    3    3    0    0 -0.89328292741E+01  0.43938132698E+00  0.13478849131E+01  0.90446276204E+01  0.51100000000E-03 0. -1.
        -11    1    3    3    0    0 -0.84578931583E+01  0.30472767688E+02  0.17805450296E+02  0.36292693311E+02  0.51100000000E-03 0.  1.
        -12    1    3    3    0    0  0.15705803332E+02 -0.12277138000E+02 -0.18393574401E+02  0.27124231878E+02  0.00000000000E+00 0.  1.
</event>
<event>
 7    1  0.3869823E-013  0.7246151E+02  0.7816164E-02  0.1226708E+00
        -11   -1    0    0    0    0  0.00000000000E+00  0.00000000000E+00  0.45593999997E+02  0.45594000000E+02  0.51100000000E-03 0.  1.
         11   -1    0    0    0    0 -0.00000000000E+00 -0.00000000000E+00 -0.45593999997E+02  0.45594000000E+02  0.51100000000E-03 0. -1.
    9900012    2    1    2    0    0  0.14152973451E+02  0.12151137136E+02 -0.16506097758E+01  0.72461513308E+02  0.69999925765E+02 0.  0.
         12    1    1    2    0    0 -0.14152973451E+02 -0.12151137136E+02  0.16506097758E+01  0.18726486692E+02  0.00000000000E+00 0. -1.
         11    1    3    3    0    0  0.22615905800E+02  0.98203683986E+01 -0.14521882215E+02  0.28614749588E+02  0.51100000000E-03 0. -1.
        -11    1    3    3    0    0  0.85234459897E+01  0.27480280758E+00 -0.11346769934E+02  0.14194147960E+02  0.51100000000E-03 0.  1.
        -12    1    3    3    0    0 -0.16986378339E+02  0.20559659299E+01  0.24218042373E+02  0.29652615760E+02  0.00000000000E+00 0.  1.
</event>
<event>
 7    1  0.3348003E-013  0.7246159E+02  0.7816164E-02  0.1226708E+00
        -11   -1    0    0    0    0  0.00000000000E+00  0.00000000000E+00  0.45593999997E+02  0.45594000000E+02  0.51100000000E-03 0.  1.
         11   -1    0    0    0    0 -0.00000000000E+00 -0.00000000000E+00 -0.45593999997E+02  0.45594000000E+02  0.51100000000E-03 0. -1.
    9900012    2    1    2    0    0 -0.27562295551E+01 -0.39689070373E-01  0.18522423280E+02  0.72461587082E+02  0.70000021870E+02 0.  0.
         12    1    1    2    0    0  0.27562295551E+01  0.39689070373E-01 -0.18522423280E+02  0.18726412918E+02  0.00000000000E+00 0. -1.
         11    1    3    3    0    0  0.35249306843E+01  0.16217883433E+01 -0.31067412850E+01  0.49706312911E+01  0.51100000000E-03 0. -1.
        -11    1    3    3    0    0 -0.30870087009E+02  0.14470683609E+02  0.15495383003E+02  0.37449564092E+02  0.51100000000E-03 0.  1.
         12    1    3    3    0    0  0.24588926769E+02 -0.16132161023E+02  0.61337815628E+01  0.30041391699E+02  0.00000000000E+00 0. -1.
</event>
<event>
 7    1  0.3348003E-013  0.7246160E+02  0.7816164E-02  0.1226708E+00
        -11   -1    0    0    0    0  0.00000000000E+00  0.00000000000E+00  0.45593999997E+02  0.45594000000E+02  0.51100000000E-03 0.  1.
         11   -1    0    0    0    0 -0.00000000000E+00 -0.00000000000E+00 -0.45593999997E+02  0.45594000000E+02  0.51100000000E-03 0. -1.
    9900012    2    1    2    0    0 -0.77505033252E+01 -0.10082654799E+02  0.13745829799E+02  0.72461599747E+02  0.70000038367E+02 0.  0.
         12    1    1    2    0    0  0.77505033252E+01  0.10082654799E+02 -0.13745829799E+02  0.18726400253E+02  0.00000000000E+00 0. -1.
         11    1    3    3    0    0 -0.39645008851E+01 -0.10934061219E+02 -0.90644273883E+00  0.11665873336E+02  0.51100000000E-03 0. -1.
        -11    1    3    3    0    0 -0.30737400774E+02 -0.51108816344E+01  0.50250089062E+01  0.31561996645E+02  0.51100000000E-03 0.  1.
        -12    1    3    3    0    0  0.26951398334E+02  0.59622880543E+01  0.96272636315E+01  0.29233729766E+02  0.00000000000E+00 0.  1.
</event>
<event>
 7    1  0.3348003E-013  0.7246160E+02  0.7816164E-02  0.1226708E+00
        -11   -1    0    0    0    0  0.00000000000E+00  0.00000000000E+00  0.45593999997E+02  0.45594000000E+02  0.51100000000E-03 0.  1.
         11   -1    0    0    0    0 -0.00000000000E+00 -0.00000000000E+00 -0.45593999997E+02  0.45594000000E+02  0.51100000000E-03 0. -1.
    9900012    2    1    2    0    0 -0.10793739850E+02 -0.93798740519E+01  0.12090959429E+02  0.72461597326E+02  0.70000035214E+02 0.  0.
         12    1    1    2    0    0  0.10793739850E+02  0.93798740519E+01 -0.12090959429E+02  0.18726402674E+02  0.00000000000E+00 0. -1.
         11    1    3    3    0    0 -0.11682028908E+02  0.18349415841E+02  0.78745888362E+00  0.21766739601E+02  0.51100000000E-03 0. -1.
        -11    1    3    3    0    0  0.37525522035E+00 -0.18004173492E+02 -0.14496555030E+02  0.23117984073E+02  0.51100000000E-03 0.  1.
        -12    1    3    3    0    0  0.51303383717E+00 -0.97251164015E+01  0.25800055575E+02  0.27576873652E+02  0.00000000000E+00 0.  1.
</event>
<event>
 7    1  0.3348003E-013  0.7246154E+02  0.7816164E-02  0.1226708E+00
        -11   -1    0    0    0    0  0.00000000000E+00  0.00000000000E+00  0.45593999997E+02  0.45594000000E+02  0.51100000000E-03 0. -1.
         11   -1    0    0    0    0 -0.00000000000E+00 -0.00000000000E+00 -0.45593999997E+02  0.45594000000E+02  0.51100000000E-03 0.  1.
    9900012    2    1    2    0    0  0.70658754990E+01  0.59833506009E+01 -0.16277387008E+02  0.72461537205E+02  0.69999956895E+02 0.  0.
         12    1    1    2    0    0 -0.70658754990E+01 -0.59833506009E+01  0.16277387008E+02  0.18726462795E+02  0.00000000000E+00 0. -1.
         11    1    3    3    0    0 -0.37881815099E+01  0.36396685254E+01  0.27916243001E+01  0.59490060195E+01  0.51100000000E-03 0. -1.
        -11    1    3    3    0    0  0.12107661855E+02  0.31508236089E+02 -0.15364870673E+02  0.37086974373E+02  0.51100000000E-03 0.  1.
         12    1    3    3    0    0 -0.12536048458E+01 -0.29164554014E+02 -0.37041406352E+01  0.29425556813E+02  0.00000000000E+00 0. -1.
</event>
<event>
 7    1  0.3348003E-013  0.7246144E+02  0.7816164E-02  0.1226708E+00
        -11   -1    0    0    0    0  0.00000000000E+00  0.00000000000E+00  0.45593999997E+02  0.45594000000E+02  0.51100000000E-03 0. -1.
         11   -1    0    0    0    0 -0.00000000000E+00 -0.00000000000E+00 -0.45593999997E+02  0.45594000000E+02  0.51100000000E-03 0.  1.
    9900012    2    1    2    0    0  0.11689568786E+02  0.13236135916E+02 -0.62324015079E+01  0.72461437556E+02  0.69999827084E+02 0.  0.
         12    1    1    2    0    0 -0.11689568786E+02 -0.13236135916E+02  0.62324015079E+01  0.18726562444E+02  0.00000000000E+00 0. -1.
         11    1    3    3    0    0 -0.13164673680E+02  0.11704329371E+01 -0.66129485943E+01  0.14778688566E+02  0.51100000000E-03 0. -1.
        -11    1    3    3    0    0 -0.13955013415E+02 -0.56040842499E+01  0.23313788051E+00  0.15040030359E+02  0.51100000000E-03 0.  1.
         12    1    3    3    0    0  0.38809255881E+02  0.17669787229E+02  0.14740920593E+00  0.42642718631E+02  0.00000000000E+00 0. -1.
</event>
<event>
 7    1  0.3348003E-013  0.7246154E+02  0.7816164E-02  0.1226708E+00
        -11   -1    0    0    0    0  0.00000000000E+00  0.00000000000E+00  0.45593999997E+02  0.45594000000E+02  0.51100000000E-03 0.  1.
         11   -1    0    0    0    0 -0.00000000000E+00 -0.00000000000E+00 -0.45593999997E+02  0.45594000000E+02  0.51100000000E-03 0. -1.
    9900012    2    1    2    0    0  0.12972856846E+02  0.10944503055E+02  0.79122177600E+01  0.72461538729E+02  0.69999958880E+02 0.  0.
         12    1    1    2    0    0 -0.12972856846E+02 -0.10944503055E+02 -0.79122177600E+01  0.18726461271E+02  0.00000000000E+00 0. -1.
         11    1    3    3    0    0  0.10368754972E+02  0.14462461270E+02  0.12805834536E+02  0.21924033937E+02  0.51100000000E-03 0. -1.
        -11    1    3    3    0    0  0.21782171975E+02  0.12248035093E+02 -0.59507854710E+01  0.25688309162E+02  0.51100000000E-03 0.  1.
         12    1    3    3    0    0 -0.19178070101E+02 -0.15765993308E+02  0.10571686947E+01  0.24849195630E+02  0.00000000000E+00 0. -1.
</event>
<event>
 7    1  0.3348003E-013  0.7246158E+02  0.7816164E-02  0.1226708E+00
        -11   -1    0    0    0    0  0.00000000000E+00  0.00000000000E+00  0.45593999997E+02  0.45594000000E+02  0.51100000000E-03 0. -1.
         11   -1    0    0    0    0 -0.00000000000E+00 -0.00000000000E+00 -0.45593999997E+02  0.45594000000E+02  0.51100000000E-03 0.  1.
    9900012    2    1    2    0    0  0.42815320642E+01  0.44295702278E+00 -0.18225008169E+02  0.72461584153E+02  0.70000018053E+02 0.  0.
         12    1    1    2    0    0 -0.42815320642E+01 -0.44295702278E+00  0.18225008169E+02  0.18726415847E+02  0.00000000000E+00 0. -1.
         11    1    3    3    0    0  0.32629016138E+02 -0.49243760503E+01 -0.15175872623E+02  0.36320920745E+02  0.51100000000E-03 0. -1.
        -11    1    3    3    0    0  0.16676850516E+01 -0.17249922204E+01 -0.46764561006E+01  0.52560454254E+01  0.51100000000E-03 0.  1.
        -12    1    3    3    0    0 -0.30015169126E+02  0.70923252935E+01  0.16273205550E+01  0.30884617982E+02  0.00000000000E+00 0.  1.
</event>
<event>
 7    1  0.3348003E-013  0.7246155E+02  0.7816164E-02  0.1226708E+00
        -11   -1    0    0    0    0  0.00000000000E+00  0.00000000000E+00  0.45593999997E+02  0.45594000000E+02  0.51100000000E-03 0.  1.
         11   -1    0    0    0    0 -0.00000000000E+00 -0.00000000000E+00 -0.45593999997E+02  0.45594000000E+02  0.51100000000E-03 0. -1.
    9900012    2    1    2    0    0  0.10360483928E+01  0.10319367811E+02  0.15592216259E+02  0.72461549291E+02  0.69999972639E+02 0.  0.
         12    1    1    2    0    0 -0.10360483928E+01 -0.10319367811E+02 -0.15592216259E+02  0.18726450709E+02  0.00000000000E+00 0. -1.
         11    1    3    3    0    0 -0.65871695775E+01 -0.10347259376E+02 -0.40852565909E+01  0.12928491842E+02  0.51100000000E-03 0. -1.
        -11    1    3    3    0    0 -0.14296784173E+02 -0.10506568729E+02  0.32627982113E+01  0.18039730501E+02  0.51100000000E-03 0.  1.
        -12    1    3    3    0    0  0.21920002143E+02  0.31173195917E+02  0.16414674639E+02  0.41493326947E+02  0.00000000000E+00 0.  1.
</event>
<event>
 7    1  0.3348003E-013  0.7246153E+02  0.7816164E-02  0.1226708E+00
        -11   -1    0    0    0    0  0.00000000000E+00  0.00000000000E+00  0.45593999997E+02  0.45594000000E+02  0.51100000000E-03 0.  1.
         11   -1    0    0    0    0 -0.00000000000E+00 -0.00000000000E+00 -0.45593999997E+02  0.45594000000E+02  0.51100000000E-03 0. -1.
    9900012    2    1    2    0    0 -0.47820651195E+01 -0.18103642685E+02 -0.26550154776E+00  0.72461534334E+02  0.69999953155E+02 0.  0.
         12    1    1    2    0    0  0.47820651195E+01  0.18103642685E+02  0.26550154776E+00  0.18726465666E+02  0.00000000000E+00 0. -1.
         11    1    3    3    0    0 -0.78598164930E+01 -0.30328039903E+02 -0.53478444098E+00  0.31334529107E+02  0.51100000000E-03 0. -1.
        -11    1    3    3    0    0 -0.40991933710E+01 -0.13030692724E+02  0.48096817380E+01  0.14482243537E+02  0.51100000000E-03 0.  1.
        -12    1    3    3    0    0  0.71769447445E+01  0.25255089942E+02 -0.45403988448E+01  0.26644761690E+02  0.00000000000E+00 0.  1.
</event>
<event>
 7    1  0.3348003E-013  0.7246158E+02  0.7816164E-02  0.1226708E+00
        -11   -1    0    0    0    0  0.00000000000E+00  0.00000000000E+00  0.45593999997E+02  0.45594000000E+02  0.51100000000E-03 0. -1.
         11   -1    0    0    0    0 -0.00000000000E+00 -0.00000000000E+00 -0.45593999997E+02  0.45594000000E+02  0.51100000000E-03 0.  1.
    9900012    2    1    2    0    0  0.28194405171E+01  0.32766015432E+01 -0.18220692066E+02  0.72461575304E+02  0.70000006527E+02 0.  0.
         12    1    1    2    0    0 -0.28194405171E+01 -0.32766015432E+01  0.18220692066E+02  0.18726424696E+02  0.00000000000E+00 0. -1.
         11    1    3    3    0    0 -0.92017730582E+01 -0.12451272456E+02 -0.20867254963E+02  0.25983632216E+02  0.51100000000E-03 0. -1.
        -11    1    3    3    0    0  0.16831844709E+02 -0.65646768036E+01 -0.97406256252E+01  0.20525247031E+02  0.51100000000E-03 0.  1.
         12    1    3    3    0    0 -0.48106311335E+01  0.22292550803E+02  0.12387188522E+02  0.25952696058E+02  0.00000000000E+00 0. -1.
</event>
<event>
 7    1  0.3348003E-013  0.7246153E+02  0.7816164E-02  0.1226708E+00
        -11   -1    0    0    0    0  0.00000000000E+00  0.00000000000E+00  0.45593999997E+02  0.45594000000E+02  0.51100000000E-03 0.  1.
         11   -1    0    0    0    0 -0.00000000000E+00 -0.00000000000E+00 -0.45593999997E+02  0.45594000000E+02  0.51100000000E-03 0. -1.
    9900012    2    1    2    0    0 -0.31099676075E+00  0.17300367967E+02  0.71610788204E+01  0.72461534753E+02  0.69999953700E+02 0.  0.
         12    1    1    2    0    0  0.31099676075E+00 -0.17300367967E+02 -0.71610788204E+01  0.18726465247E+02  0.00000000000E+00 0. -1.
         11    1    3    3    0    0  0.27982955741E+01 -0.33108814986E+01  0.33238841033E+01  0.54626550515E+01  0.51100000000E-03 0. -1.
        -11    1    3    3    0    0  0.77734693544E+01 -0.10949716883E+02  0.24356164794E+02  0.27812692953E+02  0.51100000000E-03 0.  1.
         12    1    3    3    0    0 -0.10882761689E+02  0.31560966348E+02 -0.20518970077E+02  0.39186186748E+02  0.00000000000E+00 0. -1.
</event>
<event>
 7    1  0.3348003E-013  0.7246157E+02  0.7816164E-02  0.1226708E+00
        -11   -1    0    0    0    0  0.00000000000E+00  0.00000000000E+00  0.45593999997E+02  0.45594000000E+02  0.51100000000E-03 0.  1.
         11   -1    0    0    0    0 -0.00000000000E+00 -0.00000000000E+00 -0.45593999997E+02  0.45594000000E+02  0.51100000000E-03 0. -1.
    9900012    2    1    2    0    0  0.43314732561E+01 -0.14529110099E+02  0.10991926297E+02  0.72461570961E+02  0.70000000869E+02 0.  0.
         12    1    1    2    0    0 -0.43314732561E+01  0.14529110099E+02 -0.10991926297E+02  0.18726429039E+02  0.00000000000E+00 0. -1.
         11    1    3    3    0    0 -0.24261628408E+01  0.11585899144E+02  0.10375739903E+02  0.15740880023E+02  0.51100000000E-03 0. -1.
        -11    1    3    3    0    0  0.13368663467E+02  0.96529474144E+01  0.98312580138E+01  0.19197765263E+02  0.51100000000E-03 0.  1.
         12    1    3    3    0    0 -0.66110273702E+01 -0.35767956657E+02 -0.92150716201E+01  0.37522925676E+02  0.00000000000E+00 0. -1.
</event>
<event>
 7    1  0.3348003E-013  0.7246157E+02  0.7816164E-02  0.1226708E+00
        -11   -1    0    0    0    0  0.00000000000E+00  0.00000000000E+00  0.45593999997E+02  0.45594000000E+02  0.51100000000E-03 0. -1.
         11   -1    0    0    0    0 -0.00000000000E+00 -0.00000000000E+00 -0.45593999997E+02  0.45594000000E+02  0.51100000000E-03 0.  1.
    9900012    2    1    2    0    0 -0.17171444116E+02  0.66947766489E+01 -0.33167383852E+01  0.72461567320E+02  0.69999996125E+02 0.  0.
         12    1    1    2    0    0  0.17171444116E+02 -0.66947766489E+01  0.33167383852E+01  0.18726432680E+02  0.00000000000E+00 0. -1.
         11    1    3    3    0    0  0.73013152902E+01 -0.42137595100E+01  0.19287475718E+01  0.86478345053E+01  0.51100000000E-03 0. -1.
        -11    1    3    3    0    0 -0.83808175236E+01  0.90261566094E+01 -0.31016696286E+02  0.33372819094E+02  0.51100000000E-03 0.  1.
         12    1    3    3    0    0 -0.16091941883E+02  0.18823795494E+01  0.25771210329E+02  0.30440913721E+02  0.00000000000E+00 0. -1.
</event>
<event>
 7    1  0.3348003E-013  0.7246159E+02  0.7816164E-02  0.1226708E+00
        -11   -1    0    0    0    0  0.00000000000E+00  0.00000000000E+00  0.45593999997E+02  0.45594000000E+02  0.51100000000E-03 0.  1.
         11   -1    0    0    0    0 -0.00000000000E+00 -0.00000000000E+00 -0.45593999997E+02  0.45594000000E+02  0.51100000000E-03 0. -1.
    9900012    2    1    2    0    0  0.91549613451E+01 -0.14151283496E+02  0.81612700668E+01  0.72461588947E+02  0.70000024299E+02 0.  0.
         12    1    1    2    0    0 -0.91549613451E+01  0.14151283496E+02 -0.81612700668E+01  0.18726411053E+02  0.00000000000E+00 0. -1.
         11    1    3    3    0    0  0.19992742816E+02 -0.10947653641E+02  0.16934883615E+02  0.28396323158E+02  0.51100000000E-03 0. -1.
        -11    1    3    3    0    0  0.12861624873E+02  0.38511603604E+01  0.65878494653E+01  0.14955018935E+02  0.51100000000E-03 0.  1.
        -12    1    3    3    0    0 -0.23699406344E+02 -0.70547902152E+01 -0.15361463013E+02  0.29110246855E+02  0.00000000000E+00 0.  1.
</event>
<event>
 7    1  0.3348003E-013  0.7246157E+02  0.7816164E-02  0.1226708E+00
        -11   -1    0    0    0    0  0.00000000000E+00  0.00000000000E+00  0.45593999997E+02  0.45594000000E+02  0.51100000000E-03 0. -1.
         11   -1    0    0    0    0 -0.00000000000E+00 -0.00000000000E+00 -0.45593999997E+02  0.45594000000E+02  0.51100000000E-03 0.  1.
    9900012    2    1    2    0    0 -0.14855385922E+02 -0.46805547490E+01 -0.10396585398E+02  0.72461572909E+02  0.70000003406E+02 0.  0.
         12    1    1    2    0    0  0.14855385922E+02  0.46805547490E+01  0.10396585398E+02  0.18726427091E+02  0.00000000000E+00 0. -1.
         11    1    3    3    0    0 -0.24614307163E+02  0.32311772108E+01  0.63014039224E+01  0.25612737358E+02  0.51100000000E-03 0. -1.
        -11    1    3    3    0    0 -0.75199772064E+01 -0.18786928382E+02  0.36750785229E+00  0.20239411985E+02  0.51100000000E-03 0.  1.
        -12    1    3    3    0    0  0.17278898447E+02  0.10875196423E+02 -0.17065497172E+02  0.26609423566E+02  0.00000000000E+00 0.  1.
</event>
<event>
 7    1  0.3348003E-013  0.7246157E+02  0.7816164E-02  0.1226708E+00
        -11   -1    0    0    0    0  0.00000000000E+00  0.00000000000E+00  0.45593999997E+02  0.45594000000E+02  0.51100000000E-03 0. -1.
         11   -1    0    0    0    0 -0.00000000000E+00 -0.00000000000E+00 -0.45593999997E+02  0.45594000000E+02  0.51100000000E-03 0.  1.
    9900012    2    1    2    0    0 -0.11791767499E+02 -0.98611072100E+01  0.10695423541E+02  0.72461566787E+02  0.69999995431E+02 0.  0.
         12    1    1    2    0    0  0.11791767499E+02  0.98611072100E+01 -0.10695423541E+02  0.18726433213E+02  0.00000000000E+00 0. -1.
         11    1    3    3    0    0 -0.62524417581E+01  0.37781499281E+00 -0.26330245785E+01  0.67947472947E+01  0.51100000000E-03 0. -1.
        -11    1    3    3    0    0 -0.17585226575E+02 -0.12115601348E+02 -0.20565278139E+02  0.29647236885E+02  0.51100000000E-03 0.  1.
         12    1    3    3    0    0  0.12045900834E+02  0.18766791450E+01  0.33893726259E+02  0.36019582607E+02  0.00000000000E+00 0. -1.
</event>
<event>
 7    1  0.3348003E-013  0.7246154E+02  0.7816164E-02  0.1226708E+00
        -11   -1    0    0    0    0  0.00000000000E+00  0.00000000000E+00  0.45593999997E+02  0.45594000000E+02  0.51100000000E-03 0.  1.
         11   -1    0    0    0    0 -0.00000000000E+00 -0.00000000000E+00 -0.45593999997E+02  0.45594000000E+02  0.51100000000E-03 0. -1.
    9900012    2    1    2    0    0  0.29198526749E+00  0.85399055644E+01  0.16663285862E+02  0.72461539092E+02  0.69999959353E+02 0.  0.
         12    1    1    2    0    0 -0.29198526749E+00 -0.85399055644E+01 -0.16663285862E+02  0.18726460908E+02  0.00000000000E+00 0. -1.
         11    1    3    3    0    0  0.97806944435E+01 -0.90672654579E+01  0.30246564667E+02  0.33056496503E+02  0.51100000000E-03 0.  1.
        -11    1    3    3    0    0  0.83365672583E+01 -0.33956941514E+01 -0.80301453536E+00  0.90373627252E+01  0.51100000000E-03 0. -1.
         12    1    3    3    0    0 -0.17825276434E+02  0.21002865174E+02 -0.12780264270E+02  0.30367679863E+02  0.00000000000E+00 0. -1.
</event>
<event>
 7    1  0.3348003E-013  0.7246156E+02  0.7816164E-02  0.1226708E+00
        -11   -1    0    0    0    0  0.00000000000E+00  0.00000000000E+00  0.45593999997E+02  0.45594000000E+02  0.51100000000E-03 0.  1.
         11   -1    0    0    0    0 -0.00000000000E+00 -0.00000000000E+00 -0.45593999997E+02  0.45594000000E+02  0.51100000000E-03 0. -1.
    9900012    2    1    2    0    0 -0.15627928970E+02 -0.91013180471E+01  0.48593800685E+01  0.72461555363E+02  0.69999980549E+02 0.  0.
         12    1    1    2    0    0  0.15627928970E+02  0.91013180471E+01 -0.48593800685E+01  0.18726444637E+02  0.00000000000E+00 0. -1.
         11    1    3    3    0    0  0.68516554383E+01  0.14819072215E+02 -0.13595267990E+02  0.21245738291E+02  0.51100000000E-03 0. -1.
        -11    1    3    3    0    0  0.91833252690E+01 -0.62015686636E+01  0.15554459456E+01  0.11189831511E+02  0.51100000000E-03 0.  1.
         12    1    3    3    0    0 -0.31662909677E+02 -0.17718821598E+02  0.16899202113E+02  0.40025985561E+02  0.00000000000E+00 0. -1.
</event>
<event>
 7    1  0.3348003E-013  0.7246155E+02  0.7816164E-02  0.1226708E+00
        -11   -1    0    0    0    0  0.00000000000E+00  0.00000000000E+00  0.45593999997E+02  0.45594000000E+02  0.51100000000E-03 0. -1.
         11   -1    0    0    0    0 -0.00000000000E+00 -0.00000000000E+00 -0.45593999997E+02  0.45594000000E+02  0.51100000000E-03 0.  1.
    9900012    2    1    2    0    0 -0.10264652179E+02 -0.14504510495E+02 -0.59106814551E+01  0.72461546403E+02  0.69999968877E+02 0.  0.
         12    1    1    2    0    0  0.10264652179E+02  0.14504510495E+02  0.59106814551E+01  0.18726453597E+02  0.00000000000E+00 0. -1.
         11    1    3    3    0    0  0.81750410911E+01  0.35351237331E+01  0.19580575201E+01  0.91193413229E+01  0.51100000000E-03 0. -1.
        -11    1    3    3    0    0 -0.50837214773E+01 -0.37162388626E+02 -0.12549198732E+02  0.39552114248E+02  0.51100000000E-03 0.  1.
         12    1    3    3    0    0 -0.13355971792E+02  0.19122754397E+02  0.46804597573E+01  0.23790090832E+02  0.00000000000E+00 0. -1.
</event>
<event>
 7    1  0.3348003E-013  0.7246157E+02  0.7816164E-02  0.1226708E+00
        -11   -1    0    0    0    0  0.00000000000E+00  0.00000000000E+00  0.45593999997E+02  0.45594000000E+02  0.51100000000E-03 0.  1.
         11   -1    0    0    0    0 -0.00000000000E+00 -0.00000000000E+00 -0.45593999997E+02  0.45594000000E+02  0.51100000000E-03 0. -1.
    9900012    2    1    2    0    0  0.38866836969E+01  0.12163506008E+02  0.13697524314E+02  0.72461565185E+02  0.69999993344E+02 0.  0.
         12    1    1    2    0    0 -0.38866836969E+01 -0.12163506008E+02 -0.13697524314E+02  0.18726434815E+02  0.00000000000E+00 0. -1.
         11    1    3    3    0    0  0.12374946865E+01 -0.14956302215E+02 -0.89523316197E+01  0.17474742079E+02  0.51100000000E-03 0. -1.
        -11    1    3    3    0    0  0.66199004445E+01  0.44625050275E+01 -0.11386525144E+02  0.13906472886E+02  0.51100000000E-03 0.  1.
        -12    1    3    3    0    0 -0.39707114342E+01  0.22657303195E+02  0.34036381077E+02  0.41080350220E+02  0.00000000000E+00 0.  1.
</event>
<event>
 7    1  0.3348003E-013  0.7246148E+02  0.7816164E-02  0.1226708E+00
        -11   -1    0    0    0    0  0.00000000000E+00  0.00000000000E+00  0.45593999997E+02  0.45594000000E+02  0.51100000000E-03 0.  1.
         11   -1    0    0    0    0 -0.00000000000E+00 -0.00000000000E+00 -0.45593999997E+02  0.45594000000E+02  0.51100000000E-03 0. -1.
    9900012    2    1    2    0    0 -0.95840895873E+01  0.13720051880E+02  0.84016716975E+01  0.72461476454E+02  0.69999877756E+02 0.  0.
         12    1    1    2    0    0  0.95840895873E+01 -0.13720051880E+02 -0.84016716975E+01  0.18726523546E+02  0.00000000000E+00 0. -1.
         11    1    3    3    0    0 -0.17801865219E+02 -0.16895983210E+02  0.51736037797E+01  0.25082799490E+02  0.51100000000E-03 0. -1.
        -11    1    3    3    0    0 -0.11641196045E+02  0.68310260969E+01  0.84956428817E+01  0.15948552007E+02  0.51100000000E-03 0.  1.
         12    1    3    3    0    0  0.19858971677E+02  0.23785008993E+02 -0.52675749639E+01  0.31430124957E+02  0.00000000000E+00 0. -1.
</event>
<event>
 7    1  0.3348003E-013  0.7246156E+02  0.7816164E-02  0.1226708E+00
        -11   -1    0    0    0    0  0.00000000000E+00  0.00000000000E+00  0.45593999997E+02  0.45594000000E+02  0.51100000000E-03 0.  1.
         11   -1    0    0    0    0 -0.00000000000E+00 -0.00000000000E+00 -0.45593999997E+02  0.45594000000E+02  0.51100000000E-03 0. -1.
    9900012    2    1    2    0    0 -0.16105408882E+02  0.75988475114E+01 -0.57924832565E+01  0.72461560375E+02  0.69999987078E+02 0.  0.
         12    1    1    2    0    0  0.16105408882E+02 -0.75988475114E+01  0.57924832565E+01  0.18726439625E+02  0.00000000000E+00 0. -1.
         11    1    3    3    0    0 -0.20480177584E+02 -0.55204885344E+01  0.23597294804E+01  0.21342019376E+02  0.51100000000E-03 0. -1.
        -11    1    3    3    0    0 -0.20961583470E+00  0.16447025456E+02 -0.26902390003E+02  0.31532319504E+02  0.51100000000E-03 0.  1.
         12    1    3    3    0    0  0.45843845371E+01 -0.33276894105E+01  0.18750177266E+02  0.19587221495E+02  0.00000000000E+00 0. -1.
</event>
<event>
 7    1  0.3348003E-013  0.7246158E+02  0.7816164E-02  0.1226708E+00
        -11   -1    0    0    0    0  0.00000000000E+00  0.00000000000E+00  0.45593999997E+02  0.45594000000E+02  0.51100000000E-03 0. -1.
         11   -1    0    0    0    0 -0.00000000000E+00 -0.00000000000E+00 -0.45593999997E+02  0.45594000000E+02  0.51100000000E-03 0.  1.
    9900012    2    1    2    0    0 -0.11031221476E+02 -0.15016034322E+02  0.18734165006E+01  0.72461579536E+02  0.70000012039E+02 0.  0.
         12    1    1    2    0    0  0.11031221476E+02  0.15016034322E+02 -0.18734165006E+01  0.18726420464E+02  0.00000000000E+00 0. -1.
         11    1    3    3    0    0  0.12367281562E+02  0.32654039585E+01 -0.45145800698E-01  0.12791190509E+02  0.51100000000E-03 0. -1.
        -11    1    3    3    0    0  0.15989480550E+02 -0.49458279193E+01  0.62396952157E+01  0.17862208674E+02  0.51100000000E-03 0.  1.
         12    1    3    3    0    0 -0.39387983587E+02 -0.13335610361E+02 -0.43211329145E+01  0.41808180353E+02  0.00000000000E+00 0. -1.
</event>
<event>
 7    1  0.3348003E-013  0.7246174E+02  0.7816164E-02  0.1226708E+00
        -11   -1    0    0    0    0  0.00000000000E+00  0.00000000000E+00  0.45593999997E+02  0.45594000000E+02  0.51100000000E-03 0.  1.
         11   -1    0    0    0    0 -0.00000000000E+00 -0.00000000000E+00 -0.45593999997E+02  0.45594000000E+02  0.51100000000E-03 0. -1.
    9900012    2    1    2    0    0  0.88883738639E+01 -0.11559829727E+02  0.11749045234E+02  0.72461737234E+02  0.70000217470E+02 0.  0.
         12    1    1    2    0    0 -0.88883738639E+01  0.11559829727E+02 -0.11749045234E+02  0.18726262766E+02  0.00000000000E+00 0. -1.
         11    1    3    3    0    0  0.96369459327E+01 -0.43805535157E+01  0.42875070489E+01  0.11421151123E+02  0.51100000000E-03 0. -1.
        -11    1    3    3    0    0  0.28261330025E+02  0.87961077643E+00  0.11767093000E+02  0.30625821913E+02  0.51100000000E-03 0.  1.
         12    1    3    3    0    0 -0.29009902094E+02 -0.80588869878E+01 -0.43055548142E+01  0.30414764198E+02  0.00000000000E+00 0. -1.
</event>
<event>
 7    1  0.3348003E-013  0.7246147E+02  0.7816164E-02  0.1226708E+00
        -11   -1    0    0    0    0  0.00000000000E+00  0.00000000000E+00  0.45593999997E+02  0.45594000000E+02  0.51100000000E-03 0. -1.
         11   -1    0    0    0    0 -0.00000000000E+00 -0.00000000000E+00 -0.45593999997E+02  0.45594000000E+02  0.51100000000E-03 0.  1.
    9900012    2    1    2    0    0 -0.39226000284E+01  0.56853611253E+01 -0.17406111807E+02  0.72461472016E+02  0.69999871974E+02 0.  0.
         12    1    1    2    0    0  0.39226000284E+01 -0.56853611253E+01  0.17406111807E+02  0.18726527984E+02  0.00000000000E+00 0. -1.
         11    1    3    3    0    0  0.60239138510E+01  0.27968542876E+01  0.36327956316E+01  0.75701477100E+01  0.51100000000E-03 0. -1.
        -11    1    3    3    0    0  0.12935090740E+02 -0.13443438178E+02 -0.30050024863E+02  0.35370137080E+02  0.51100000000E-03 0.  1.
         12    1    3    3    0    0 -0.22881604620E+02  0.16331945016E+02  0.90111174252E+01  0.29521187226E+02  0.00000000000E+00 0. -1.
</event>
<event>
 7    1  0.3348003E-013  0.7246157E+02  0.7816164E-02  0.1226708E+00
        -11   -1    0    0    0    0  0.00000000000E+00  0.00000000000E+00  0.45593999997E+02  0.45594000000E+02  0.51100000000E-03 0. -1.
         11   -1    0    0    0    0 -0.00000000000E+00 -0.00000000000E+00 -0.45593999997E+02  0.45594000000E+02  0.51100000000E-03 0.  1.
    9900012    2    1    2    0    0 -0.10593470172E+02 -0.12084244454E+02 -0.96139704230E+01  0.72461574778E+02  0.70000005841E+02 0.  0.
         12    1    1    2    0    0  0.10593470172E+02  0.12084244454E+02  0.96139704230E+01  0.18726425222E+02  0.00000000000E+00 0. -1.
         11    1    3    3    0    0  0.17517945985E+02 -0.18389097087E+02  0.35429758420E+01  0.25643517724E+02  0.51100000000E-03 0. -1.
        -11    1    3    3    0    0 -0.65686324966E+01 -0.79059431680E+01  0.83348432618E+01  0.13233309590E+02  0.51100000000E-03 0.  1.
         12    1    3    3    0    0 -0.21542783660E+02  0.14210795801E+02 -0.21491789527E+02  0.33584747464E+02  0.00000000000E+00 0. -1.
</event>
<event>
 7    1  0.3348003E-013  0.7246183E+02  0.7816164E-02  0.1226707E+00
        -11   -1    0    0    0    0  0.00000000000E+00  0.00000000000E+00  0.45593999997E+02  0.45594000000E+02  0.51100000000E-03 0.  1.
         11   -1    0    0    0    0 -0.00000000000E+00 -0.00000000000E+00 -0.45593999997E+02  0.45594000000E+02  0.51100000000E-03 0. -1.
    9900012    2    1    2    0    0 -0.47504530952E+01 -0.17654911618E+02  0.40505420380E+01  0.72461825814E+02  0.70000332861E+02 0.  0.
         12    1    1    2    0    0  0.47504530952E+01  0.17654911618E+02 -0.40505420380E+01  0.18726174186E+02  0.00000000000E+00 0. -1.
         11    1    3    3    0    0 -0.94823120083E+01 -0.11976472938E+02  0.11482359075E+02  0.19110068426E+02  0.51100000000E-03 0. -1.
        -11    1    3    3    0    0 -0.22388817934E+02 -0.36774537945E+00  0.51660518162E+01  0.22980045622E+02  0.51100000000E-03 0.  1.
         12    1    3    3    0    0  0.27120676847E+02 -0.53106933001E+01 -0.12597868853E+02  0.30371711766E+02  0.00000000000E+00 0. -1.
</event>
<event>
 7    1  0.3348003E-013  0.7246158E+02  0.7816164E-02  0.1226708E+00
        -11   -1    0    0    0    0  0.00000000000E+00  0.00000000000E+00  0.45593999997E+02  0.45594000000E+02  0.51100000000E-03 0.  1.
         11   -1    0    0    0    0 -0.00000000000E+00 -0.00000000000E+00 -0.45593999997E+02  0.45594000000E+02  0.51100000000E-03 0. -1.
    9900012    2    1    2    0    0  0.13355474768E+02  0.28677159315E+01  0.12809617385E+02  0.72461580201E+02  0.70000012905E+02 0.  0.
         12    1    1    2    0    0 -0.13355474768E+02 -0.28677159315E+01 -0.12809617385E+02  0.18726419799E+02  0.00000000000E+00 0. -1.
         11    1    3    3    0    0  0.35854687936E+01  0.52794774874E+01 -0.88458251101E+00  0.64428996182E+01  0.51100000000E-03 0. -1.
        -11    1    3    3    0    0 -0.66447167627E-01 -0.10560667493E+02  0.37523716201E+02  0.38981551931E+02  0.51100000000E-03 0.  1.
         12    1    3    3    0    0  0.98364531422E+01  0.81489059375E+01 -0.23829516305E+02  0.27037128652E+02  0.00000000000E+00 0. -1.
</event>
<event>
 7    1  0.3348003E-013  0.7246153E+02  0.7816164E-02  0.1226708E+00
        -11   -1    0    0    0    0  0.00000000000E+00  0.00000000000E+00  0.45593999997E+02  0.45594000000E+02  0.51100000000E-03 0.  1.
         11   -1    0    0    0    0 -0.00000000000E+00 -0.00000000000E+00 -0.45593999997E+02  0.45594000000E+02  0.51100000000E-03 0. -1.
    9900012    2    1    2    0    0 -0.10830296852E+02 -0.19338894602E+01  0.15154058810E+02  0.72461527914E+02  0.69999944792E+02 0.  0.
         12    1    1    2    0    0  0.10830296852E+02  0.19338894602E+01 -0.15154058810E+02  0.18726472086E+02  0.00000000000E+00 0. -1.
         11    1    3    3    0    0 -0.30386847476E+01 -0.68544950978E+01  0.16745511223E+01  0.76825666130E+01  0.51100000000E-03 0. -1.
        -11    1    3    3    0    0  0.22763453312E+02 -0.95679926537E+01  0.18145004331E+02  0.30642494554E+02  0.51100000000E-03 0.  1.
         12    1    3    3    0    0 -0.30555065416E+02  0.14488598291E+02 -0.46654966425E+01  0.34136466747E+02  0.00000000000E+00 0. -1.
</event>
<event>
 7    1  0.3348003E-013  0.7246150E+02  0.7816164E-02  0.1226708E+00
        -11   -1    0    0    0    0  0.00000000000E+00  0.00000000000E+00  0.45593999997E+02  0.45594000000E+02  0.51100000000E-03 0.  1.
         11   -1    0    0    0    0 -0.00000000000E+00 -0.00000000000E+00 -0.45593999997E+02  0.45594000000E+02  0.51100000000E-03 0. -1.
    9900012    2    1    2    0    0 -0.25805356276E+01  0.17346603289E+02  0.65664298320E+01  0.72461499779E+02  0.69999908140E+02 0.  0.
         12    1    1    2    0    0  0.25805356276E+01 -0.17346603289E+02 -0.65664298320E+01  0.18726500221E+02  0.00000000000E+00 0. -1.
         11    1    3    3    0    0 -0.22764920729E+02 -0.11618266168E+02  0.54052539064E+00  0.25563996020E+02  0.51100000000E-03 0. -1.
        -11    1    3    3    0    0 -0.67821994428E+01  0.70561358987E+01  0.71725625570E+01  0.12133958010E+02  0.51100000000E-03 0.  1.
         12    1    3    3    0    0  0.26966584544E+02  0.21908733559E+02 -0.11466581157E+01  0.34763545748E+02  0.00000000000E+00 0. -1.
</event>
<event>
 7    1  0.3348003E-013  0.7246158E+02  0.7816164E-02  0.1226708E+00
        -11   -1    0    0    0    0  0.00000000000E+00  0.00000000000E+00  0.45593999997E+02  0.45594000000E+02  0.51100000000E-03 0.  1.
         11   -1    0    0    0    0 -0.00000000000E+00 -0.00000000000E+00 -0.45593999997E+02  0.45594000000E+02  0.51100000000E-03 0. -1.
    9900012    2    1    2    0    0 -0.21733560024E+01 -0.33793854191E+01  0.18290295159E+02  0.72461584990E+02  0.70000019144E+02 0.  0.
         12    1    1    2    0    0  0.21733560024E+01  0.33793854191E+01 -0.18290295159E+02  0.18726415010E+02  0.00000000000E+00 0. -1.
         11    1    3    3    0    0  0.26080952499E+01  0.90959205605E+01  0.25617929907E+02  0.27309636846E+02  0.51100000000E-03 0. -1.
        -11    1    3    3    0    0 -0.13083727259E+02 -0.12339131524E+02  0.13658390569E+02  0.22582951954E+02  0.51100000000E-03 0.  1.
         12    1    3    3    0    0  0.83022760068E+01 -0.13617445604E+00 -0.20986025318E+02  0.22568996190E+02  0.00000000000E+00 0. -1.
</event>
<event>
 7    1  0.3348003E-013  0.7246144E+02  0.7816164E-02  0.1226708E+00
        -11   -1    0    0    0    0  0.00000000000E+00  0.00000000000E+00  0.45593999997E+02  0.45594000000E+02  0.51100000000E-03 0. -1.
         11   -1    0    0    0    0 -0.00000000000E+00 -0.00000000000E+00 -0.45593999997E+02  0.45594000000E+02  0.51100000000E-03 0.  1.
    9900012    2    1    2    0    0 -0.38945398637E+01 -0.11289057180E+02  0.14424756841E+02  0.72461444986E+02  0.69999836762E+02 0.  0.
         12    1    1    2    0    0  0.38945398637E+01  0.11289057180E+02 -0.14424756841E+02  0.18726555014E+02  0.00000000000E+00 0. -1.
         11    1    3    3    0    0  0.13426974194E+02 -0.13080789209E+02  0.77740040402E+01  0.20293492095E+02  0.51100000000E-03 0. -1.
        -11    1    3    3    0    0 -0.23327201088E+01 -0.99817891267E+01 -0.18176794537E+02  0.20868003191E+02  0.51100000000E-03 0.  1.
         12    1    3    3    0    0 -0.14988793949E+02  0.11773521156E+02  0.24827547338E+02  0.31299949700E+02  0.00000000000E+00 0. -1.
</event>
<event>
 7    1  0.3348003E-013  0.7246157E+02  0.7816164E-02  0.1226708E+00
        -11   -1    0    0    0    0  0.00000000000E+00  0.00000000000E+00  0.45593999997E+02  0.45594000000E+02  0.51100000000E-03 0. -1.
         11   -1    0    0    0    0 -0.00000000000E+00 -0.00000000000E+00 -0.45593999997E+02  0.45594000000E+02  0.51100000000E-03 0.  1.
    9900012    2    1    2    0    0 -0.14279043606E+02  0.64364761283E+01 -0.10264497256E+02  0.72461569075E+02  0.69999998412E+02 0.  0.
         12    1    1    2    0    0  0.14279043606E+02 -0.64364761283E+01  0.10264497256E+02  0.18726430925E+02  0.00000000000E+00 0. -1.
         11    1    3    3    0    0 -0.24648363963E+02 -0.15630366691E+02  0.12941806881E+02  0.31927113470E+02  0.51100000000E-03 0. -1.
        -11    1    3    3    0    0 -0.82744284171E+00 -0.64141202078E+00  0.35480643292E+01  0.36993015262E+01  0.51100000000E-03 0.  1.
        -12    1    3    3    0    0  0.11196763198E+02  0.22708254840E+02 -0.26754368466E+02  0.36835154079E+02  0.00000000000E+00 0.  1.
</event>
<event>
 7    1  0.3348003E-013  0.7246159E+02  0.7816164E-02  0.1226708E+00
        -11   -1    0    0    0    0  0.00000000000E+00  0.00000000000E+00  0.45593999997E+02  0.45594000000E+02  0.51100000000E-03 0.  1.
         11   -1    0    0    0    0 -0.00000000000E+00 -0.00000000000E+00 -0.45593999997E+02  0.45594000000E+02  0.51100000000E-03 0. -1.
    9900012    2    1    2    0    0 -0.16640575255E+02  0.60588891589E+00  0.85675236604E+01  0.72461593301E+02  0.70000029970E+02 0.  0.
         12    1    1    2    0    0  0.16640575255E+02 -0.60588891589E+00 -0.85675236604E+01  0.18726406699E+02  0.00000000000E+00 0. -1.
         11    1    3    3    0    0 -0.27848257751E+01  0.83277158563E+01  0.77629518178E+01  0.11720474699E+02  0.51100000000E-03 0.  1.
        -11    1    3    3    0    0 -0.24524644770E+02 -0.77365101964E+01 -0.23097546045E+02  0.34566000993E+02  0.51100000000E-03 0. -1.
         12    1    3    3    0    0  0.10668895290E+02  0.14683255964E-01  0.23902117888E+02  0.26175117609E+02  0.00000000000E+00 0. -1.
</event>
<event>
 7    1  0.3348003E-013  0.7246162E+02  0.7816164E-02  0.1226708E+00
        -11   -1    0    0    0    0  0.00000000000E+00  0.00000000000E+00  0.45593999997E+02  0.45594000000E+02  0.51100000000E-03 0.  1.
         11   -1    0    0    0    0 -0.00000000000E+00 -0.00000000000E+00 -0.45593999997E+02  0.45594000000E+02  0.51100000000E-03 0. -1.
    9900012    2    1    2    0    0  0.35743718025E+01 -0.15481694438E+02  0.99105104946E+01  0.72461622488E+02  0.70000067993E+02 0.  0.
         12    1    1    2    0    0 -0.35743718025E+01  0.15481694438E+02 -0.99105104946E+01  0.18726377512E+02  0.00000000000E+00 0. -1.
         11    1    3    3    0    0  0.12626192114E+02 -0.22645776361E+01  0.43172105063E+00  0.12834929782E+02  0.51100000000E-03 0. -1.
        -11    1    3    3    0    0  0.12540979268E+01 -0.31259088475E+02  0.19179801445E+02  0.36695614964E+02  0.51100000000E-03 0.  1.
         12    1    3    3    0    0 -0.10305918238E+02  0.18041971673E+02 -0.97010120012E+01  0.22931077743E+02  0.00000000000E+00 0. -1.
</event>
<event>
 7    1  0.3348003E-013  0.7246158E+02  0.7816164E-02  0.1226708E+00
        -11   -1    0    0    0    0  0.00000000000E+00  0.00000000000E+00  0.45593999997E+02  0.45594000000E+02  0.51100000000E-03 0.  1.
         11   -1    0    0    0    0 -0.00000000000E+00 -0.00000000000E+00 -0.45593999997E+02  0.45594000000E+02  0.51100000000E-03 0. -1.
    9900012    2    1    2    0    0 -0.78888664857E+01  0.57390150151E+01  0.15984624462E+02  0.72461582110E+02  0.70000015393E+02 0.  0.
         12    1    1    2    0    0  0.78888664857E+01 -0.57390150151E+01 -0.15984624462E+02  0.18726417890E+02  0.00000000000E+00 0. -1.
         11    1    3    3    0    0 -0.24438016046E+02  0.27606919611E+01  0.15997078005E+02  0.29338448380E+02  0.51100000000E-03 0.  1.
        -11    1    3    3    0    0  0.60991235315E+01  0.20945567347E+00  0.19709442886E+02  0.20632627527E+02  0.51100000000E-03 0. -1.
         12    1    3    3    0    0  0.10450026029E+02  0.27688673804E+01 -0.19721896428E+02  0.22490506204E+02  0.00000000000E+00 0. -1.
</event>
<event>
 7    1  0.3348003E-013  0.7246160E+02  0.7816164E-02  0.1226708E+00
        -11   -1    0    0    0    0  0.00000000000E+00  0.00000000000E+00  0.45593999997E+02  0.45594000000E+02  0.51100000000E-03 0. -1.
         11   -1    0    0    0    0 -0.00000000000E+00 -0.00000000000E+00 -0.45593999997E+02  0.45594000000E+02  0.51100000000E-03 0.  1.
    9900012    2    1    2    0    0 -0.16373245250E+02 -0.94337875945E+00  0.90390793797E+01  0.72461599397E+02  0.70000037912E+02 0.  0.
         12    1    1    2    0    0  0.16373245250E+02  0.94337875945E+00 -0.90390793797E+01  0.18726400603E+02  0.00000000000E+00 0. -1.
         11    1    3    3    0    0 -0.11907315974E+02 -0.11855119881E+02  0.12609505530E+02  0.21007800244E+02  0.51100000000E-03 0. -1.
        -11    1    3    3    0    0 -0.13473172271E+02 -0.74066075113E+01 -0.20016650744E+02  0.25239859610E+02  0.51100000000E-03 0.  1.
         12    1    3    3    0    0  0.90072429954E+01  0.18318348633E+02  0.16446224594E+02  0.26213939544E+02  0.00000000000E+00 0. -1.
</event>
<event>
 7    1  0.3348003E-013  0.7246135E+02  0.7816164E-02  0.1226709E+00
        -11   -1    0    0    0    0  0.00000000000E+00  0.00000000000E+00  0.45593999997E+02  0.45594000000E+02  0.51100000000E-03 0.  1.
         11   -1    0    0    0    0 -0.00000000000E+00 -0.00000000000E+00 -0.45593999997E+02  0.45594000000E+02  0.51100000000E-03 0. -1.
    9900012    2    1    2    0    0  0.99741221208E+01  0.13772632665E+02 -0.78434019134E+01  0.72461348506E+02  0.69999711079E+02 0.  0.
         12    1    1    2    0    0 -0.99741221208E+01 -0.13772632665E+02  0.78434019134E+01  0.18726651494E+02  0.00000000000E+00 0. -1.
         11    1    3    3    0    0 -0.22129267714E+01  0.96423920954E+01 -0.49262770030E+01  0.11051740840E+02  0.51100000000E-03 0. -1.
        -11    1    3    3    0    0  0.34266882218E+02  0.62950084705E+01 -0.12806698924E+02  0.37119508162E+02  0.51100000000E-03 0.  1.
        -12    1    3    3    0    0 -0.22079833326E+02 -0.21647679014E+01  0.98895740137E+01  0.24290099505E+02  0.00000000000E+00 0.  1.
</event>
<event>
 7    1  0.3348003E-013  0.7246157E+02  0.7816164E-02  0.1226708E+00
        -11   -1    0    0    0    0  0.00000000000E+00  0.00000000000E+00  0.45593999997E+02  0.45594000000E+02  0.51100000000E-03 0. -1.
         11   -1    0    0    0    0 -0.00000000000E+00 -0.00000000000E+00 -0.45593999997E+02  0.45594000000E+02  0.51100000000E-03 0.  1.
    9900012    2    1    2    0    0 -0.87673656593E+01 -0.14715172974E+02  0.75680927435E+01  0.72461573645E+02  0.70000004365E+02 0.  0.
         12    1    1    2    0    0  0.87673656593E+01  0.14715172974E+02 -0.75680927435E+01  0.18726426355E+02  0.00000000000E+00 0. -1.
         11    1    3    3    0    0 -0.11379571953E+02 -0.37422488264E+01  0.21747674383E+01  0.12174920853E+02  0.51100000000E-03 0. -1.
        -11    1    3    3    0    0 -0.12360057985E+02  0.15110572402E+02 -0.14421311387E+02  0.24270860185E+02  0.51100000000E-03 0.  1.
         12    1    3    3    0    0  0.14972264279E+02 -0.26083496550E+02  0.19814636692E+02  0.36015792607E+02  0.00000000000E+00 0. -1.
</event>
<event>
 7    1  0.3348003E-013  0.7246158E+02  0.7816164E-02  0.1226708E+00
        -11   -1    0    0    0    0  0.00000000000E+00  0.00000000000E+00  0.45593999997E+02  0.45594000000E+02  0.51100000000E-03 0.  1.
         11   -1    0    0    0    0 -0.00000000000E+00 -0.00000000000E+00 -0.45593999997E+02  0.45594000000E+02  0.51100000000E-03 0. -1.
    9900012    2    1    2    0    0 -0.11810350442E+02 -0.88899889544E+01  0.11496202335E+02  0.72461576174E+02  0.70000007660E+02 0.  0.
         12    1    1    2    0    0  0.11810350442E+02  0.88899889544E+01 -0.11496202335E+02  0.18726423826E+02  0.00000000000E+00 0. -1.
         11    1    3    3    0    0 -0.72766575517E+01  0.15639608907E+02 -0.18722994020E+02  0.25457761434E+02  0.51100000000E-03 0. -1.
        -11    1    3    3    0    0 -0.28017561526E+01  0.49064774726E+01  0.91839394797E+01  0.10782768817E+02  0.51100000000E-03 0.  1.
        -12    1    3    3    0    0 -0.17319367374E+01 -0.29436075334E+02  0.21035256876E+02  0.36221045923E+02  0.00000000000E+00 0.  1.
</event>
<event>
 7    1  0.3348003E-013  0.7246155E+02  0.7816164E-02  0.1226708E+00
        -11   -1    0    0    0    0  0.00000000000E+00  0.00000000000E+00  0.45593999997E+02  0.45594000000E+02  0.51100000000E-03 0.  1.
         11   -1    0    0    0    0 -0.00000000000E+00 -0.00000000000E+00 -0.45593999997E+02  0.45594000000E+02  0.51100000000E-03 0. -1.
    9900012    2    1    2    0    0 -0.17422844604E+01 -0.11858223924E+02  0.14388427689E+02  0.72461551294E+02  0.69999975249E+02 0.  0.
         12    1    1    2    0    0  0.17422844604E+01  0.11858223924E+02 -0.14388427689E+02  0.18726448706E+02  0.00000000000E+00 0. -1.
         11    1    3    3    0    0 -0.44927990065E+01 -0.54010977711E+01  0.37627390553E+01  0.79696490202E+01  0.51100000000E-03 0. -1.
        -11    1    3    3    0    0 -0.90017476868E+01 -0.30704080397E+02  0.17791691219E+02  0.36610330389E+02  0.51100000000E-03 0.  1.
         12    1    3    3    0    0  0.11752262233E+02  0.24246954245E+02 -0.71660025849E+01  0.27881571885E+02  0.00000000000E+00 0. -1.
</event>
<event>
 7    1  0.3348003E-013  0.7246166E+02  0.7816164E-02  0.1226708E+00
        -11   -1    0    0    0    0  0.00000000000E+00  0.00000000000E+00  0.45593999997E+02  0.45594000000E+02  0.51100000000E-03 0. -1.
         11   -1    0    0    0    0 -0.00000000000E+00 -0.00000000000E+00 -0.45593999997E+02  0.45594000000E+02  0.51100000000E-03 0.  1.
    9900012    2    1    2    0    0  0.16930652716E+02  0.35503753389E+01 -0.71710172137E+01  0.72461664152E+02  0.70000122266E+02 0.  0.
         12    1    1    2    0    0 -0.16930652716E+02 -0.35503753389E+01  0.71710172137E+01  0.18726335848E+02  0.00000000000E+00 0. -1.
         11    1    3    3    0    0 -0.85135947886E+01 -0.11872476132E+02 -0.18798640008E+01  0.14729931251E+02  0.51100000000E-03 0. -1.
        -11    1    3    3    0    0 -0.68920235385E+00 -0.76765070662E+01 -0.18807472033E+02  0.20325470847E+02  0.51100000000E-03 0.  1.
         12    1    3    3    0    0  0.26133449858E+02  0.23099358537E+02  0.13516318821E+02  0.37406262053E+02  0.00000000000E+00 0. -1.
</event>
<event>
 7    1  0.3348003E-013  0.7246173E+02  0.7816164E-02  0.1226708E+00
        -11   -1    0    0    0    0  0.00000000000E+00  0.00000000000E+00  0.45593999997E+02  0.45594000000E+02  0.51100000000E-03 0.  1.
         11   -1    0    0    0    0 -0.00000000000E+00 -0.00000000000E+00 -0.45593999997E+02  0.45594000000E+02  0.51100000000E-03 0. -1.
    9900012    2    1    2    0    0 -0.12548759019E+02  0.19376998783E+01  0.13763985213E+02  0.72461726407E+02  0.70000203366E+02 0.  0.
         12    1    1    2    0    0  0.12548759019E+02 -0.19376998783E+01 -0.13763985213E+02  0.18726273593E+02  0.00000000000E+00 0. -1.
         11    1    3    3    0    0 -0.80434865546E+01  0.97538957184E+00  0.98067175658E+01  0.12720879311E+02  0.51100000000E-03 0. -1.
        -11    1    3    3    0    0  0.18220744985E+02 -0.79435377527E+01  0.21803387164E+02  0.29503949429E+02  0.51100000000E-03 0.  1.
         12    1    3    3    0    0 -0.22726017449E+02  0.89058480592E+01 -0.17846119516E+02  0.30236897667E+02  0.00000000000E+00 0. -1.
</event>
<event>
 7    1  0.3348003E-013  0.7246161E+02  0.7816164E-02  0.1226708E+00
        -11   -1    0    0    0    0  0.00000000000E+00  0.00000000000E+00  0.45593999997E+02  0.45594000000E+02  0.51100000000E-03 0. -1.
         11   -1    0    0    0    0 -0.00000000000E+00 -0.00000000000E+00 -0.45593999997E+02  0.45594000000E+02  0.51100000000E-03 0.  1.
    9900012    2    1    2    0    0 -0.48480027675E+01  0.18079827837E+02 -0.54251434484E+00  0.72461611473E+02  0.70000053643E+02 0.  0.
         12    1    1    2    0    0  0.48480027675E+01 -0.18079827837E+02  0.54251434484E+00  0.18726388527E+02  0.00000000000E+00 0. -1.
         11    1    3    3    0    0  0.19040714709E+02  0.23498702389E+01 -0.25111679477E+01  0.19348815765E+02  0.51100000000E-03 0. -1.
        -11    1    3    3    0    0  0.78999305407E+01 -0.31836871324E+01  0.12066251340E+02  0.14769535807E+02  0.51100000000E-03 0.  1.
        -12    1    3    3    0    0 -0.31788648017E+02  0.18913644731E+02 -0.10097597737E+02  0.38343259901E+02  0.00000000000E+00 0.  1.
</event>
<event>
 7    1  0.3348003E-013  0.7246156E+02  0.7816164E-02  0.1226708E+00
        -11   -1    0    0    0    0  0.00000000000E+00  0.00000000000E+00  0.45593999997E+02  0.45594000000E+02  0.51100000000E-03 0. -1.
         11   -1    0    0    0    0 -0.00000000000E+00 -0.00000000000E+00 -0.45593999997E+02  0.45594000000E+02  0.51100000000E-03 0.  1.
    9900012    2    1    2    0    0 -0.17576657389E+01  0.96406523987E+01 -0.15957692131E+02  0.72461561319E+02  0.69999988309E+02 0.  0.
         12    1    1    2    0    0  0.17576657389E+01 -0.96406523987E+01  0.15957692131E+02  0.18726438681E+02  0.00000000000E+00 0. -1.
         11    1    3    3    0    0  0.51333920325E+01 -0.58625644889E+01 -0.15438166938E+01  0.79438495952E+01  0.51100000000E-03 0. -1.
        -11    1    3    3    0    0  0.85197354418E+01  0.23875545548E+02 -0.31227644068E+02  0.40221801570E+02  0.51100000000E-03 0.  1.
         12    1    3    3    0    0 -0.15410793213E+02 -0.83723286609E+01  0.16813768631E+02  0.24295910155E+02  0.00000000000E+00 0. -1.
</event>
<event>
 7    1  0.3348003E-013  0.7246158E+02  0.7816164E-02  0.1226708E+00
        -11   -1    0    0    0    0  0.00000000000E+00  0.00000000000E+00  0.45593999997E+02  0.45594000000E+02  0.51100000000E-03 0. -1.
         11   -1    0    0    0    0 -0.00000000000E+00 -0.00000000000E+00 -0.45593999997E+02  0.45594000000E+02  0.51100000000E-03 0.  1.
    9900012    2    1    2    0    0  0.16250373674E+02  0.56889246739E+01  0.73647939323E+01  0.72461582880E+02  0.70000016395E+02 0.  0.
         12    1    1    2    0    0 -0.16250373674E+02 -0.56889246739E+01 -0.73647939323E+01  0.18726417120E+02  0.00000000000E+00 0. -1.
         11    1    3    3    0    0 -0.12050383945E+02  0.46162653057E+01 -0.69795843813E+01  0.14670932383E+02  0.51100000000E-03 0. -1.
        -11    1    3    3    0    0 -0.84837067670E+01 -0.66415230850E+01  0.16984289589E+02  0.20113408525E+02  0.51100000000E-03 0.  1.
        -12    1    3    3    0    0  0.36784464386E+02  0.77141824531E+01 -0.26399112753E+01  0.37677241972E+02  0.00000000000E+00 0.  1.
</event>
<event>
 7    1  0.3348003E-013  0.7246156E+02  0.7816164E-02  0.1226708E+00
        -11   -1    0    0    0    0  0.00000000000E+00  0.00000000000E+00  0.45593999997E+02  0.45594000000E+02  0.51100000000E-03 0. -1.
         11   -1    0    0    0    0 -0.00000000000E+00 -0.00000000000E+00 -0.45593999997E+02  0.45594000000E+02  0.51100000000E-03 0.  1.
    9900012    2    1    2    0    0 -0.17619461968E+02 -0.55360141254E+01 -0.30962140556E+01  0.72461563235E+02  0.69999990804E+02 0.  0.
         12    1    1    2    0    0  0.17619461968E+02  0.55360141254E+01  0.30962140556E+01  0.18726436765E+02  0.00000000000E+00 0. -1.
         11    1    3    3    0    0 -0.36531220683E+01 -0.10652151428E+01 -0.73219074506E+01  0.82516854716E+01  0.51100000000E-03 0. -1.
        -11    1    3    3    0    0 -0.33783274499E+02  0.71987844052E+01 -0.11436203404E+02  0.36385696109E+02  0.51100000000E-03 0.  1.
         12    1    3    3    0    0  0.19816934600E+02 -0.11669583388E+02  0.15661896799E+02  0.27824181654E+02  0.00000000000E+00 0. -1.
</event>
<event>
 7    1  0.3348003E-013  0.7246159E+02  0.7816164E-02  0.1226708E+00
        -11   -1    0    0    0    0  0.00000000000E+00  0.00000000000E+00  0.45593999997E+02  0.45594000000E+02  0.51100000000E-03 0.  1.
         11   -1    0    0    0    0 -0.00000000000E+00 -0.00000000000E+00 -0.45593999997E+02  0.45594000000E+02  0.51100000000E-03 0. -1.
    9900012    2    1    2    0    0  0.10594259942E+02  0.20817621706E+00  0.15440102495E+02  0.72461589610E+02  0.70000025162E+02 0.  0.
         12    1    1    2    0    0 -0.10594259942E+02 -0.20817621706E+00 -0.15440102495E+02  0.18726410390E+02  0.00000000000E+00 0. -1.
         11    1    3    3    0    0 -0.12311319427E+02 -0.14757795722E+02  0.24715503963E+02  0.31308421503E+02  0.51100000000E-03 0. -1.
        -11    1    3    3    0    0  0.72557143252E+01  0.20353438510E+02  0.10703074455E+01  0.21634542007E+02  0.51100000000E-03 0.  1.
        -12    1    3    3    0    0  0.15649865043E+02 -0.53874665706E+01 -0.10345708913E+02  0.19518626100E+02  0.00000000000E+00 0.  1.
</event>
<event>
 7    1  0.3348003E-013  0.7246174E+02  0.7816164E-02  0.1226708E+00
        -11   -1    0    0    0    0  0.00000000000E+00  0.00000000000E+00  0.45593999997E+02  0.45594000000E+02  0.51100000000E-03 0. -1.
         11   -1    0    0    0    0 -0.00000000000E+00 -0.00000000000E+00 -0.45593999997E+02  0.45594000000E+02  0.51100000000E-03 0.  1.
    9900012    2    1    2    0    0  0.55834098164E+01 -0.17576614954E+02 -0.32497387960E+01  0.72461744084E+02  0.70000226392E+02 0.  0.
         12    1    1    2    0    0 -0.55834098164E+01  0.17576614954E+02  0.32497387960E+01  0.18726255916E+02  0.00000000000E+00 0. -1.
         11    1    3    3    0    0  0.16276978040E+02 -0.10287541380E+02  0.23789187155E+02  0.30605537857E+02  0.51100000000E-03 0. -1.
        -11    1    3    3    0    0 -0.80702594300E+01 -0.14383902536E+02 -0.31408929171E+01  0.16789608334E+02  0.51100000000E-03 0.  1.
        -12    1    3    3    0    0 -0.26233087935E+01  0.70948289629E+01 -0.23898033034E+02  0.25066597893E+02  0.00000000000E+00 0.  1.
</event>
<event>
 7    1  0.3348003E-013  0.7246158E+02  0.7816164E-02  0.1226708E+00
        -11   -1    0    0    0    0  0.00000000000E+00  0.00000000000E+00  0.45593999997E+02  0.45594000000E+02  0.51100000000E-03 0.  1.
         11   -1    0    0    0    0 -0.00000000000E+00 -0.00000000000E+00 -0.45593999997E+02  0.45594000000E+02  0.51100000000E-03 0. -1.
    9900012    2    1    2    0    0  0.84618427612E+01  0.14204410256E+02 -0.87926469840E+01  0.72461582974E+02  0.70000016518E+02 0.  0.
         12    1    1    2    0    0 -0.84618427612E+01 -0.14204410256E+02  0.87926469840E+01  0.18726417026E+02  0.00000000000E+00 0. -1.
         11    1    3    3    0    0  0.11991127480E+02 -0.14468683356E+02 -0.16709709906E+02  0.25146457837E+02  0.51100000000E-03 0. -1.
        -11    1    3    3    0    0  0.49391140078E+01 -0.14621629559E+01 -0.99991993123E+01  0.11247966698E+02  0.51100000000E-03 0.  1.
        -12    1    3    3    0    0 -0.84683987269E+01  0.30135256568E+02  0.17916262235E+02  0.36067158439E+02  0.00000000000E+00 0.  1.
</event>
<event>
 7    1  0.3348003E-013  0.7246156E+02  0.7816164E-02  0.1226708E+00
        -11   -1    0    0    0    0  0.00000000000E+00  0.00000000000E+00  0.45593999997E+02  0.45594000000E+02  0.51100000000E-03 0.  1.
         11   -1    0    0    0    0 -0.00000000000E+00 -0.00000000000E+00 -0.45593999997E+02  0.45594000000E+02  0.51100000000E-03 0. -1.
    9900012    2    1    2    0    0  0.76652490116E+01 -0.15574610361E+02  0.70253135663E+01  0.72461559841E+02  0.69999986383E+02 0.  0.
         12    1    1    2    0    0 -0.76652490116E+01  0.15574610361E+02 -0.70253135663E+01  0.18726440159E+02  0.00000000000E+00 0. -1.
         11    1    3    3    0    0  0.22107565952E+02 -0.11585733681E+02 -0.16847046845E+02  0.30113065020E+02  0.51100000000E-03 0. -1.
        -11    1    3    3    0    0 -0.35060383152E+01  0.13343225510E+02  0.55925032845E+01  0.14886573310E+02  0.51100000000E-03 0.  1.
        -12    1    3    3    0    0 -0.10936278626E+02 -0.17332102190E+02  0.18279857127E+02  0.27461921511E+02  0.00000000000E+00 0.  1.
</event>
<event>
 7    1  0.3348003E-013  0.7246159E+02  0.7816164E-02  0.1226708E+00
        -11   -1    0    0    0    0  0.00000000000E+00  0.00000000000E+00  0.45593999997E+02  0.45594000000E+02  0.51100000000E-03 0.  1.
         11   -1    0    0    0    0 -0.00000000000E+00 -0.00000000000E+00 -0.45593999997E+02  0.45594000000E+02  0.51100000000E-03 0. -1.
    9900012    2    1    2    0    0  0.84594088770E+01 -0.13887330351E+02  0.92875645010E+01  0.72461590916E+02  0.70000026863E+02 0.  0.
         12    1    1    2    0    0 -0.84594088770E+01  0.13887330351E+02 -0.92875645010E+01  0.18726409084E+02  0.00000000000E+00 0. -1.
         11    1    3    3    0    0  0.22616961289E+02 -0.13744497040E+02 -0.17339323843E+02  0.31640010879E+02  0.51100000000E-03 0. -1.
        -11    1    3    3    0    0 -0.95472711440E+01  0.10026249835E+02  0.22727829197E+01  0.14030025464E+02  0.51100000000E-03 0.  1.
        -12    1    3    3    0    0 -0.46102812676E+01 -0.10169083147E+02  0.24354105425E+02  0.26791554573E+02  0.00000000000E+00 0.  1.
</event>
<event>
 7    1  0.3348003E-013  0.7246154E+02  0.7816164E-02  0.1226708E+00
        -11   -1    0    0    0    0  0.00000000000E+00  0.00000000000E+00  0.45593999997E+02  0.45594000000E+02  0.51100000000E-03 0.  1.
         11   -1    0    0    0    0 -0.00000000000E+00 -0.00000000000E+00 -0.45593999997E+02  0.45594000000E+02  0.51100000000E-03 0. -1.
    9900012    2    1    2    0    0 -0.62232546943E+01 -0.64398921319E+01  0.16446251321E+02  0.72461540319E+02  0.69999960952E+02 0.  0.
         12    1    1    2    0    0  0.62232546943E+01  0.64398921319E+01 -0.16446251321E+02  0.18726459681E+02  0.00000000000E+00 0. -1.
         11    1    3    3    0    0 -0.12775406145E+01  0.22443028437E+00  0.60905129650E+01  0.62271042558E+01  0.51100000000E-03 0. -1.
        -11    1    3    3    0    0  0.26982275804E+02  0.18954688320E+01  0.17762099870E+02  0.32359360342E+02  0.51100000000E-03 0.  1.
         12    1    3    3    0    0 -0.31927989884E+02 -0.85597912483E+01 -0.74063615138E+01  0.33875075721E+02  0.00000000000E+00 0. -1.
</event>
<event>
 7    1  0.3348003E-013  0.7246158E+02  0.7816164E-02  0.1226708E+00
        -11   -1    0    0    0    0  0.00000000000E+00  0.00000000000E+00  0.45593999997E+02  0.45594000000E+02  0.51100000000E-03 0. -1.
         11   -1    0    0    0    0 -0.00000000000E+00 -0.00000000000E+00 -0.45593999997E+02  0.45594000000E+02  0.51100000000E-03 0.  1.
    9900012    2    1    2    0    0  0.14301266525E+02 -0.22683857551E+01 -0.11874639930E+02  0.72461578249E+02  0.70000010362E+02 0.  0.
         12    1    1    2    0    0 -0.14301266525E+02  0.22683857551E+01  0.11874639930E+02  0.18726421751E+02  0.00000000000E+00 0. -1.
         11    1    3    3    0    0  0.20490155217E+02  0.52353691972E+00  0.36137481890E+00  0.20500027896E+02  0.51100000000E-03 0. -1.
        -11    1    3    3    0    0 -0.14236494865E+02  0.34581603172E+01  0.16148251451E+02  0.21803730965E+02  0.51100000000E-03 0.  1.
        -12    1    3    3    0    0  0.80476061729E+01 -0.62500829920E+01 -0.28384266199E+02  0.30157819387E+02  0.00000000000E+00 0.  1.
</event>
<event>
 7    1  0.3348003E-013  0.7246153E+02  0.7816164E-02  0.1226708E+00
        -11   -1    0    0    0    0  0.00000000000E+00  0.00000000000E+00  0.45593999997E+02  0.45594000000E+02  0.51100000000E-03 0.  1.
         11   -1    0    0    0    0 -0.00000000000E+00 -0.00000000000E+00 -0.45593999997E+02  0.45594000000E+02  0.51100000000E-03 0. -1.
    9900012    2    1    2    0    0 -0.23262909813E+01 -0.16807017681E+02  0.79242050957E+01  0.72461534785E+02  0.69999953742E+02 0.  0.
         12    1    1    2    0    0  0.23262909813E+01  0.16807017681E+02 -0.79242050957E+01  0.18726465215E+02  0.00000000000E+00 0. -1.
         11    1    3    3    0    0 -0.26615949188E+01 -0.10556502050E+02 -0.22800108762E+02  0.25265960953E+02  0.51100000000E-03 0. -1.
        -11    1    3    3    0    0 -0.33387418199E+01  0.10729838942E+02 -0.73133978668E+00  0.11261061176E+02  0.51100000000E-03 0.  1.
        -12    1    3    3    0    0  0.36740457573E+01 -0.16980354573E+02  0.31455653644E+02  0.35934512656E+02  0.00000000000E+00 0.  1.
</event>
<event>
 7    1  0.3348003E-013  0.7246160E+02  0.7816164E-02  0.1226708E+00
        -11   -1    0    0    0    0  0.00000000000E+00  0.00000000000E+00  0.45593999997E+02  0.45594000000E+02  0.51100000000E-03 0.  1.
         11   -1    0    0    0    0 -0.00000000000E+00 -0.00000000000E+00 -0.45593999997E+02  0.45594000000E+02  0.51100000000E-03 0. -1.
    9900012    2    1    2    0    0  0.78406245810E+01  0.39067341363E+01  0.16551137960E+02  0.72461597964E+02  0.70000036045E+02 0.  0.
         12    1    1    2    0    0 -0.78406245810E+01 -0.39067341363E+01 -0.16551137960E+02  0.18726402036E+02  0.00000000000E+00 0. -1.
         11    1    3    3    0    0  0.43630141296E+01  0.96383079315E+01  0.80498292636E+01  0.13294082274E+02  0.51100000000E-03 0. -1.
        -11    1    3    3    0    0  0.14925843548E+02 -0.21299981029E+01  0.30547909595E+02  0.34066001797E+02  0.51100000000E-03 0.  1.
         12    1    3    3    0    0 -0.11448233097E+02 -0.36015756922E+01 -0.22046600899E+02  0.25101513893E+02  0.00000000000E+00 0. -1.
</event>
<event>
 7    1  0.3348003E-013  0.7246157E+02  0.7816164E-02  0.1226708E+00
        -11   -1    0    0    0    0  0.00000000000E+00  0.00000000000E+00  0.45593999997E+02  0.45594000000E+02  0.51100000000E-03 0.  1.
         11   -1    0    0    0    0 -0.00000000000E+00 -0.00000000000E+00 -0.45593999997E+02  0.45594000000E+02  0.51100000000E-03 0. -1.
    9900012    2    1    2    0    0  0.16993260876E+02 -0.78281591726E+01  0.79256211293E+00  0.72461570924E+02  0.70000000820E+02 0.  0.
         12    1    1    2    0    0 -0.16993260876E+02  0.78281591726E+01 -0.79256211293E+00  0.18726429076E+02  0.00000000000E+00 0. -1.
         11    1    3    3    0    0  0.38665236980E+01 -0.58135164084E+01  0.17129802975E+02  0.18498030402E+02  0.51100000000E-03 0. -1.
        -11    1    3    3    0    0  0.84138526599E+01 -0.11394984480E+02  0.15169129646E+02  0.20754302743E+02  0.51100000000E-03 0.  1.
         12    1    3    3    0    0  0.47128845187E+01  0.93803417153E+01 -0.31506370508E+02  0.33209237778E+02  0.00000000000E+00 0. -1.
</event>
<event>
 7    1  0.3348003E-013  0.7246152E+02  0.7816164E-02  0.1226708E+00
        -11   -1    0    0    0    0  0.00000000000E+00  0.00000000000E+00  0.45593999997E+02  0.45594000000E+02  0.51100000000E-03 0.  1.
         11   -1    0    0    0    0 -0.00000000000E+00 -0.00000000000E+00 -0.45593999997E+02  0.45594000000E+02  0.51100000000E-03 0. -1.
    9900012    2    1    2    0    0  0.36091667252E+01 -0.91363855287E+01  0.15943068367E+02  0.72461519980E+02  0.69999934456E+02 0.  0.
         12    1    1    2    0    0 -0.36091667252E+01  0.91363855287E+01 -0.15943068367E+02  0.18726480020E+02  0.00000000000E+00 0. -1.
         11    1    3    3    0    0 -0.72355351183E+01 -0.64337209030E+01  0.15633819569E+02  0.18389182899E+02  0.51100000000E-03 0. -1.
        -11    1    3    3    0    0 -0.15152075571E+02 -0.12410201634E+01  0.17261844814E+02  0.23002104508E+02  0.51100000000E-03 0.  1.
         12    1    3    3    0    0  0.25996777414E+02 -0.14616444623E+01 -0.16952596016E+02  0.31070232573E+02  0.00000000000E+00 0. -1.
</event>
<event>
 7    1  0.3348003E-013  0.7246155E+02  0.7816164E-02  0.1226708E+00
        -11   -1    0    0    0    0  0.00000000000E+00  0.00000000000E+00  0.45593999997E+02  0.45594000000E+02  0.51100000000E-03 0.  1.
         11   -1    0    0    0    0 -0.00000000000E+00 -0.00000000000E+00 -0.45593999997E+02  0.45594000000E+02  0.51100000000E-03 0. -1.
    9900012    2    1    2    0    0  0.17677464312E+01  0.10836329618E+02  0.15169996696E+02  0.72461554347E+02  0.69999979226E+02 0.  0.
         12    1    1    2    0    0 -0.17677464312E+01 -0.10836329618E+02 -0.15169996696E+02  0.18726445653E+02  0.00000000000E+00 0. -1.
         11    1    3    3    0    0 -0.17849231954E+01 -0.15068793120E+02 -0.17222193351E+02  0.22953396720E+02  0.51100000000E-03 0. -1.
        -11    1    3    3    0    0 -0.71106644048E+01  0.23420829543E+02  0.14262164567E+02  0.28328539376E+02  0.51100000000E-03 0.  1.
        -12    1    3    3    0    0  0.10663334031E+02  0.24842931951E+01  0.18130025480E+02  0.21179618251E+02  0.00000000000E+00 0.  1.
</event>
<event>
 7    1  0.3348003E-013  0.7246161E+02  0.7816164E-02  0.1226708E+00
        -11   -1    0    0    0    0  0.00000000000E+00  0.00000000000E+00  0.45593999997E+02  0.45594000000E+02  0.51100000000E-03 0. -1.
         11   -1    0    0    0    0 -0.00000000000E+00 -0.00000000000E+00 -0.45593999997E+02  0.45594000000E+02  0.51100000000E-03 0.  1.
    9900012    2    1    2    0    0  0.82435529041E+01  0.16303241099E+02 -0.41140995366E+01  0.72461610871E+02  0.70000052858E+02 0.  0.
         12    1    1    2    0    0 -0.82435529041E+01 -0.16303241099E+02  0.41140995366E+01  0.18726389129E+02  0.00000000000E+00 0. -1.
         11    1    3    3    0    0  0.18009276496E+02  0.21516139140E+02 -0.31921211515E+01  0.28239474518E+02  0.51100000000E-03 0.  1.
        -11    1    3    3    0    0  0.30308277011E+01 -0.20418916336E+02 -0.93169785539E+01  0.22647828826E+02  0.51100000000E-03 0. -1.
         12    1    3    3    0    0 -0.12796551293E+02  0.15206018296E+02  0.83950001688E+01  0.21574307526E+02  0.00000000000E+00 0. -1.
</event>
<event>
 7    1  0.3348003E-013  0.7246161E+02  0.7816164E-02  0.1226708E+00
        -11   -1    0    0    0    0  0.00000000000E+00  0.00000000000E+00  0.45593999997E+02  0.45594000000E+02  0.51100000000E-03 0. -1.
         11   -1    0    0    0    0 -0.00000000000E+00 -0.00000000000E+00 -0.45593999997E+02  0.45594000000E+02  0.51100000000E-03 0.  1.
    9900012    2    1    2    0    0  0.83439094752E+01 -0.40299883941E+01 -0.16273170409E+02  0.72461609346E+02  0.70000050872E+02 0.  0.
         12    1    1    2    0    0 -0.83439094752E+01  0.40299883941E+01  0.16273170409E+02  0.18726390654E+02  0.00000000000E+00 0. -1.
         11    1    3    3    0    0 -0.59563071948E+01  0.88241026127E+01  0.51804471473E+01  0.11839738816E+02  0.51100000000E-03 0. -1.
        -11    1    3    3    0    0 -0.19337234206E+02 -0.79387129077E+01 -0.15702296582E+02  0.26144098905E+02  0.51100000000E-03 0.  1.
         12    1    3    3    0    0  0.33637450876E+02 -0.49153780990E+01 -0.57513209742E+01  0.34477771625E+02  0.00000000000E+00 0. -1.
</event>
<event>
 7    1  0.3348003E-013  0.7246132E+02  0.7816164E-02  0.1226709E+00
        -11   -1    0    0    0    0  0.00000000000E+00  0.00000000000E+00  0.45593999997E+02  0.45594000000E+02  0.51100000000E-03 0.  1.
         11   -1    0    0    0    0 -0.00000000000E+00 -0.00000000000E+00 -0.45593999997E+02  0.45594000000E+02  0.51100000000E-03 0. -1.
    9900012    2    1    2    0    0  0.15785059929E+02  0.53341395809E+01  0.85479464002E+01  0.72461319843E+02  0.69999673740E+02 0.  0.
         12    1    1    2    0    0 -0.15785059929E+02 -0.53341395809E+01 -0.85479464002E+01  0.18726680157E+02  0.00000000000E+00 0. -1.
         11    1    3    3    0    0  0.48926196770E+01 -0.56620099406E+01  0.80314271980E+01  0.10977244963E+02  0.51100000000E-03 0. -1.
        -11    1    3    3    0    0  0.34000938491E+01 -0.18861901552E+02  0.17820170439E+02  0.26170411595E+02  0.51100000000E-03 0.  1.
         12    1    3    3    0    0  0.74923464028E+01  0.29858051073E+02 -0.17303651237E+02  0.35313663285E+02  0.00000000000E+00 0. -1.
</event>
<event>
 7    1  0.3348003E-013  0.7246157E+02  0.7816164E-02  0.1226708E+00
        -11   -1    0    0    0    0  0.00000000000E+00  0.00000000000E+00  0.45593999997E+02  0.45594000000E+02  0.51100000000E-03 0.  1.
         11   -1    0    0    0    0 -0.00000000000E+00 -0.00000000000E+00 -0.45593999997E+02  0.45594000000E+02  0.51100000000E-03 0. -1.
    9900012    2    1    2    0    0  0.48045724806E+00 -0.58737247148E+00  0.18711051550E+02  0.72461566925E+02  0.69999995611E+02 0.  0.
         12    1    1    2    0    0 -0.48045724806E+00  0.58737247148E+00 -0.18711051550E+02  0.18726433075E+02  0.00000000000E+00 0. -1.
         11    1    3    3    0    0  0.19010323455E+02 -0.10235583018E+02 -0.14129120270E+02  0.25802937768E+02  0.51100000000E-03 0. -1.
        -11    1    3    3    0    0 -0.85242057690E+01  0.49470552290E+01 -0.20433014163E+01  0.10065312731E+02  0.51100000000E-03 0.  1.
        -12    1    3    3    0    0 -0.10005660438E+02  0.47011553176E+01  0.34883473236E+02  0.36593316427E+02  0.00000000000E+00 0.  1.
</event>
<event>
 7    1  0.4404757E-013  0.7246156E+02  0.7816164E-02  0.1226708E+00
        -11   -1    0    0    0    0  0.00000000000E+00  0.00000000000E+00  0.45593999997E+02  0.45594000000E+02  0.51100000000E-03 0. -1.
         11   -1    0    0    0    0 -0.00000000000E+00 -0.00000000000E+00 -0.45593999997E+02  0.45594000000E+02  0.51100000000E-03 0.  1.
    9900012    2    1    2    0    0  0.36902738967E+01 -0.47165063406E+01 -0.17743055284E+02  0.72461559754E+02  0.69999986269E+02 0.  0.
         12    1    1    2    0    0 -0.36902738967E+01  0.47165063406E+01  0.17743055284E+02  0.18726440246E+02  0.00000000000E+00 0. -1.
         11    1    3    3    0    0 -0.19955893821E+02  0.15223236679E+02  0.71650158281E+01  0.26102147139E+02  0.51100000000E-03 0. -1.
        -11    1    3    3    0    0  0.42330956064E+01  0.31057632497E+01 -0.12890941561E+02  0.13919096176E+02  0.51100000000E-03 0.  1.
        -12    1    3    3    0    0  0.19413072111E+02 -0.23045506269E+02 -0.12017129551E+02  0.32440316439E+02  0.00000000000E+00 0.  1.
</event>
<event>
 7    1  0.3348003E-013  0.7246150E+02  0.7816164E-02  0.1226708E+00
        -11   -1    0    0    0    0  0.00000000000E+00  0.00000000000E+00  0.45593999997E+02  0.45594000000E+02  0.51100000000E-03 0.  1.
         11   -1    0    0    0    0 -0.00000000000E+00 -0.00000000000E+00 -0.45593999997E+02  0.45594000000E+02  0.51100000000E-03 0. -1.
    9900012    2    1    2    0    0 -0.16065736271E+02  0.40461573708E+01  0.87294094707E+01  0.72461498428E+02  0.69999906381E+02 0.  0.
         12    1    1    2    0    0  0.16065736271E+02 -0.40461573708E+01 -0.87294094707E+01  0.18726501572E+02  0.00000000000E+00 0. -1.
         11    1    3    3    0    0 -0.16674619028E+02 -0.10293355484E+02  0.14092050245E+02  0.24136734808E+02  0.51100000000E-03 0. -1.
        -11    1    3    3    0    0  0.15872897980E+02  0.36986423560E+01  0.13989323423E+02  0.21478594359E+02  0.51100000000E-03 0.  1.
         12    1    3    3    0    0 -0.15264015223E+02  0.10640870499E+02 -0.19351964197E+02  0.26846169261E+02  0.00000000000E+00 0. -1.
</event>
<event>
 7    1  0.3348003E-013  0.7246171E+02  0.7816164E-02  0.1226708E+00
        -11   -1    0    0    0    0  0.00000000000E+00  0.00000000000E+00  0.45593999997E+02  0.45594000000E+02  0.51100000000E-03 0. -1.
         11   -1    0    0    0    0 -0.00000000000E+00 -0.00000000000E+00 -0.45593999997E+02  0.45594000000E+02  0.51100000000E-03 0.  1.
    9900012    2    1    2    0    0 -0.15831531295E+02  0.22153724012E+01 -0.97533965101E+01  0.72461708282E+02  0.70000179755E+02 0.  0.
         12    1    1    2    0    0  0.15831531295E+02 -0.22153724012E+01  0.97533965101E+01  0.18726291718E+02  0.00000000000E+00 0. -1.
         11    1    3    3    0    0  0.15846490184E+02  0.18082987500E+02 -0.64469053865E+01  0.24893137155E+02  0.51100000000E-03 0. -1.
        -11    1    3    3    0    0  0.64263184564E+01 -0.25277578207E+01  0.95931238146E+00  0.69719013912E+01  0.51100000000E-03 0.  1.
        -12    1    3    3    0    0 -0.38104339935E+02 -0.13339857279E+02 -0.42658035050E+01  0.40596669736E+02  0.00000000000E+00 0.  1.
</event>
<event>
 7    1  0.3348003E-013  0.7246164E+02  0.7816164E-02  0.1226708E+00
        -11   -1    0    0    0    0  0.00000000000E+00  0.00000000000E+00  0.45593999997E+02  0.45594000000E+02  0.51100000000E-03 0. -1.
         11   -1    0    0    0    0 -0.00000000000E+00 -0.00000000000E+00 -0.45593999997E+02  0.45594000000E+02  0.51100000000E-03 0.  1.
    9900012    2    1    2    0    0  0.80763888530E+01 -0.10198171531E+02 -0.13470186328E+02  0.72461636787E+02  0.70000086619E+02 0.  0.
         12    1    1    2    0    0 -0.80763888530E+01  0.10198171531E+02  0.13470186328E+02  0.18726363213E+02  0.00000000000E+00 0. -1.
         11    1    3    3    0    0 -0.20564556338E+02 -0.11620968054E+00  0.27447414425E+00  0.20566716276E+02  0.51100000000E-03 0. -1.
        -11    1    3    3    0    0 -0.19670011173E+01 -0.59206280319E+01 -0.19500073746E+02  0.20473783384E+02  0.51100000000E-03 0.  1.
         12    1    3    3    0    0  0.30607946309E+02 -0.41613338184E+01  0.57554132743E+01  0.31421137127E+02  0.00000000000E+00 0. -1.
</event>
<event>
 7    1  0.3348003E-013  0.7246167E+02  0.7816164E-02  0.1226708E+00
        -11   -1    0    0    0    0  0.00000000000E+00  0.00000000000E+00  0.45593999997E+02  0.45594000000E+02  0.51100000000E-03 0. -1.
         11   -1    0    0    0    0 -0.00000000000E+00 -0.00000000000E+00 -0.45593999997E+02  0.45594000000E+02  0.51100000000E-03 0.  1.
    9900012    2    1    2    0    0 -0.16341364638E+02 -0.35558364322E+01  0.84256326664E+01  0.72461669425E+02  0.70000129136E+02 0.  0.
         12    1    1    2    0    0  0.16341364638E+02  0.35558364322E+01 -0.84256326664E+01  0.18726330575E+02  0.00000000000E+00 0. -1.
         11    1    3    3    0    0  0.23752815807E+00 -0.22372673136E+01  0.41770087094E+01  0.47443847523E+01  0.51100000000E-03 0. -1.
        -11    1    3    3    0    0 -0.21043589959E+02  0.13663661484E+02  0.29059112632E+02  0.38392191273E+02  0.51100000000E-03 0.  1.
        -12    1    3    3    0    0  0.44646971627E+01 -0.14982230603E+02 -0.24810488675E+02  0.29325093399E+02  0.00000000000E+00 0.  1.
</event>
<event>
 7    1  0.3348003E-013  0.7246197E+02  0.7816164E-02  0.1226707E+00
        -11   -1    0    0    0    0  0.00000000000E+00  0.00000000000E+00  0.45593999997E+02  0.45594000000E+02  0.51100000000E-03 0. -1.
         11   -1    0    0    0    0 -0.00000000000E+00 -0.00000000000E+00 -0.45593999997E+02  0.45594000000E+02  0.51100000000E-03 0.  1.
    9900012    2    1    2    0    0  0.24299512793E+01  0.13598674485E+02  0.12642605639E+02  0.72461972971E+02  0.70000524559E+02 0.  0.
         12    1    1    2    0    0 -0.24299512793E+01 -0.13598674485E+02 -0.12642605639E+02  0.18726027029E+02  0.00000000000E+00 0. -1.
         11    1    3    3    0    0 -0.18302033684E+02 -0.66186551695E+01  0.26953492218E+02  0.33245477531E+02  0.51100000000E-03 0. -1.
        -11    1    3    3    0    0  0.53839025739E+01 -0.33508873963E+01 -0.83185276209E+01  0.10460055225E+02  0.51100000000E-03 0.  1.
        -12    1    3    3    0    0  0.15348082390E+02  0.23568217050E+02 -0.59923589581E+01  0.28756440215E+02  0.00000000000E+00 0.  1.
</event>
<event>
 7    1  0.3348003E-013  0.7246153E+02  0.7816164E-02  0.1226708E+00
        -11   -1    0    0    0    0  0.00000000000E+00  0.00000000000E+00  0.45593999997E+02  0.45594000000E+02  0.51100000000E-03 0.  1.
         11   -1    0    0    0    0 -0.00000000000E+00 -0.00000000000E+00 -0.45593999997E+02  0.45594000000E+02  0.51100000000E-03 0. -1.
    9900012    2    1    2    0    0  0.51534007906E+01  0.15322814348E+00  0.18002767512E+02  0.72461530587E+02  0.69999948274E+02 0.  0.
         12    1    1    2    0    0 -0.51534007906E+01 -0.15322814348E+00 -0.18002767512E+02  0.18726469413E+02  0.00000000000E+00 0. -1.
         11    1    3    3    0    0  0.89914264405E+01  0.31581432661E+01  0.77527589247E+01  0.12285149146E+02  0.51100000000E-03 0. -1.
        -11    1    3    3    0    0  0.25027240175E+02 -0.69952819491E+01  0.15940745011E+02  0.30486129176E+02  0.51100000000E-03 0.  1.
         12    1    3    3    0    0 -0.28865265825E+02  0.39903668265E+01 -0.56907364238E+01  0.29690252266E+02  0.00000000000E+00 0. -1.
</event>
<event>
 7    1  0.3348003E-013  0.7246161E+02  0.7816164E-02  0.1226708E+00
        -11   -1    0    0    0    0  0.00000000000E+00  0.00000000000E+00  0.45593999997E+02  0.45594000000E+02  0.51100000000E-03 0.  1.
         11   -1    0    0    0    0 -0.00000000000E+00 -0.00000000000E+00 -0.45593999997E+02  0.45594000000E+02  0.51100000000E-03 0. -1.
    9900012    2    1    2    0    0  0.74507118983E+01 -0.16798084198E+02  0.36039942929E+01  0.72461614461E+02  0.70000057535E+02 0.  0.
         12    1    1    2    0    0 -0.74507118983E+01  0.16798084198E+02 -0.36039942929E+01  0.18726385539E+02  0.00000000000E+00 0. -1.
         11    1    3    3    0    0 -0.57844027672E+00 -0.18553182372E+02 -0.40351365134E+01  0.18995723103E+02  0.51100000000E-03 0. -1.
        -11    1    3    3    0    0 -0.80246740898E+01 -0.44530248090E+01  0.26433132603E+02  0.27980981464E+02  0.51100000000E-03 0.  1.
         12    1    3    3    0    0  0.16053826265E+02  0.62081229831E+01 -0.18794001797E+02  0.25484909893E+02  0.00000000000E+00 0. -1.
</event>
<event>
 7    1  0.3348003E-013  0.7246157E+02  0.7816164E-02  0.1226708E+00
        -11   -1    0    0    0    0  0.00000000000E+00  0.00000000000E+00  0.45593999997E+02  0.45594000000E+02  0.51100000000E-03 0.  1.
         11   -1    0    0    0    0 -0.00000000000E+00 -0.00000000000E+00 -0.45593999997E+02  0.45594000000E+02  0.51100000000E-03 0. -1.
    9900012    2    1    2    0    0 -0.16396812989E+02 -0.83398816394E+01 -0.35028785941E+01  0.72461567867E+02  0.69999996839E+02 0.  0.
         12    1    1    2    0    0  0.16396812989E+02  0.83398816394E+01  0.35028785941E+01  0.18726432133E+02  0.00000000000E+00 0. -1.
         11    1    3    3    0    0  0.13613689205E+01 -0.86757321069E+01 -0.31612497660E+02  0.32809627573E+02  0.51100000000E-03 0. -1.
        -11    1    3    3    0    0 -0.65769500158E+01 -0.52163902396E+01 -0.52853267686E+00  0.84110846919E+01  0.51100000000E-03 0.  1.
        -12    1    3    3    0    0 -0.11181231894E+02  0.55522407072E+01  0.28638151743E+02  0.31240855602E+02  0.00000000000E+00 0.  1.
</event>
<event>
 7    1  0.3348003E-013  0.7246139E+02  0.7816164E-02  0.1226708E+00
        -11   -1    0    0    0    0  0.00000000000E+00  0.00000000000E+00  0.45593999997E+02  0.45594000000E+02  0.51100000000E-03 0.  1.
         11   -1    0    0    0    0 -0.00000000000E+00 -0.00000000000E+00 -0.45593999997E+02  0.45594000000E+02  0.51100000000E-03 0. -1.
    9900012    2    1    2    0    0  0.14603092544E+02  0.11568573880E+02  0.18983072602E+01  0.72461393689E+02  0.69999769939E+02 0.  0.
         12    1    1    2    0    0 -0.14603092544E+02 -0.11568573880E+02 -0.18983072602E+01  0.18726606311E+02  0.00000000000E+00 0. -1.
         11    1    3    3    0    0 -0.39079313866E+01  0.10122129697E+01 -0.15935457616E+02  0.16438835497E+02  0.51100000000E-03 0. -1.
        -11    1    3    3    0    0  0.12113458356E+02  0.16452231799E+02 -0.12845647360E+02  0.24133430358E+02  0.51100000000E-03 0.  1.
         12    1    3    3    0    0  0.63975655747E+01 -0.58958708889E+01  0.30679412236E+02  0.31889127833E+02  0.00000000000E+00 0. -1.
</event>
<event>
 7    1  0.3348003E-013  0.7246157E+02  0.7816164E-02  0.1226708E+00
        -11   -1    0    0    0    0  0.00000000000E+00  0.00000000000E+00  0.45593999997E+02  0.45594000000E+02  0.51100000000E-03 0. -1.
         11   -1    0    0    0    0 -0.00000000000E+00 -0.00000000000E+00 -0.45593999997E+02  0.45594000000E+02  0.51100000000E-03 0.  1.
    9900012    2    1    2    0    0  0.16475334930E+02  0.88113251332E+01 -0.12660616127E+01  0.72461574188E+02  0.70000005073E+02 0.  0.
         12    1    1    2    0    0 -0.16475334930E+02 -0.88113251332E+01  0.12660616127E+01  0.18726425812E+02  0.00000000000E+00 0. -1.
         11    1    3    3    0    0 -0.25034054524E+00  0.64357327943E+01 -0.20754714662E+02  0.21731072407E+02  0.51100000000E-03 0. -1.
        -11    1    3    3    0    0  0.29857131550E+02  0.18686416526E+00  0.37119252944E+01  0.30087565742E+02  0.51100000000E-03 0.  1.
         12    1    3    3    0    0 -0.13131456075E+02  0.21887281737E+01  0.15776727755E+02  0.20642936039E+02  0.00000000000E+00 0. -1.
</event>
<event>
 7    1  0.3348003E-013  0.7246152E+02  0.7816164E-02  0.1226708E+00
        -11   -1    0    0    0    0  0.00000000000E+00  0.00000000000E+00  0.45593999997E+02  0.45594000000E+02  0.51100000000E-03 0.  1.
         11   -1    0    0    0    0 -0.00000000000E+00 -0.00000000000E+00 -0.45593999997E+02  0.45594000000E+02  0.51100000000E-03 0. -1.
    9900012    2    1    2    0    0  0.24323763918E+00  0.12730826204E+02  0.13731270002E+02  0.72461524724E+02  0.69999940637E+02 0.  0.
         12    1    1    2    0    0 -0.24323763918E+00 -0.12730826204E+02 -0.13731270002E+02  0.18726475276E+02  0.00000000000E+00 0. -1.
         11    1    3    3    0    0  0.24236534015E+02  0.14860137739E+02 -0.75532988320E+01  0.29415737254E+02  0.51100000000E-03 0. -1.
        -11    1    3    3    0    0 -0.20758019388E+02  0.54515738418E+01  0.13847971739E+01  0.21506573175E+02  0.51100000000E-03 0.  1.
        -12    1    3    3    0    0 -0.32352769880E+01 -0.75808853778E+01  0.19899771660E+02  0.21539214295E+02  0.00000000000E+00 0.  1.
</event>
<event>
 7    1  0.3348003E-013  0.7246159E+02  0.7816164E-02  0.1226708E+00
        -11   -1    0    0    0    0  0.00000000000E+00  0.00000000000E+00  0.45593999997E+02  0.45594000000E+02  0.51100000000E-03 0.  1.
         11   -1    0    0    0    0 -0.00000000000E+00 -0.00000000000E+00 -0.45593999997E+02  0.45594000000E+02  0.51100000000E-03 0. -1.
    9900012    2    1    2    0    0 -0.36249238040E+01 -0.11772874921E+02  0.14104531644E+02  0.72461588988E+02  0.70000024352E+02 0.  0.
         12    1    1    2    0    0  0.36249238040E+01  0.11772874921E+02 -0.14104531644E+02  0.18726411012E+02  0.00000000000E+00 0. -1.
         11    1    3    3    0    0 -0.11111496943E+02 -0.26435492153E+02 -0.15348062453E+01  0.28716828518E+02  0.51100000000E-03 0. -1.
        -11    1    3    3    0    0  0.16809237744E+01 -0.11996624763E+02 -0.35346774569E+00  0.12118970672E+02  0.51100000000E-03 0.  1.
         12    1    3    3    0    0  0.58056493649E+01  0.26659241994E+02  0.15992805635E+02  0.31625789798E+02  0.00000000000E+00 0. -1.
</event>
<event>
 7    1  0.3348003E-013  0.7246156E+02  0.7816164E-02  0.1226708E+00
        -11   -1    0    0    0    0  0.00000000000E+00  0.00000000000E+00  0.45593999997E+02  0.45594000000E+02  0.51100000000E-03 0. -1.
         11   -1    0    0    0    0 -0.00000000000E+00 -0.00000000000E+00 -0.45593999997E+02  0.45594000000E+02  0.51100000000E-03 0.  1.
    9900012    2    1    2    0    0 -0.11226942505E+01 -0.87169475434E+01 -0.16535836888E+02  0.72461560978E+02  0.69999987863E+02 0.  0.
         12    1    1    2    0    0  0.11226942505E+01  0.87169475434E+01  0.16535836888E+02  0.18726439022E+02  0.00000000000E+00 0. -1.
         11    1    3    3    0    0 -0.26071975300E+02 -0.85854233801E+01  0.71836617577E+01  0.28373621326E+02  0.51100000000E-03 0. -1.
        -11    1    3    3    0    0 -0.39620807792E+01 -0.20023441451E+01  0.24294360749E+01  0.50605954273E+01  0.51100000000E-03 0.  1.
        -12    1    3    3    0    0  0.28911361828E+02  0.18708199817E+01 -0.26148934721E+02  0.39027344224E+02  0.00000000000E+00 0.  1.
</event>
<event>
 7    1  0.3348003E-013  0.7246157E+02  0.7816164E-02  0.1226708E+00
        -11   -1    0    0    0    0  0.00000000000E+00  0.00000000000E+00  0.45593999997E+02  0.45594000000E+02  0.51100000000E-03 0. -1.
         11   -1    0    0    0    0 -0.00000000000E+00 -0.00000000000E+00 -0.45593999997E+02  0.45594000000E+02  0.51100000000E-03 0.  1.
    9900012    2    1    2    0    0  0.87590187519E+01 -0.16315120027E+02 -0.27884552454E+01  0.72461573922E+02  0.70000004726E+02 0.  0.
         12    1    1    2    0    0 -0.87590187519E+01  0.16315120027E+02  0.27884552454E+01  0.18726426078E+02  0.00000000000E+00 0. -1.
         11    1    3    3    0    0  0.29655489210E+02 -0.12976067431E+02  0.77767575763E+01  0.33291204918E+02  0.51100000000E-03 0. -1.
        -11    1    3    3    0    0 -0.52169337992E+00 -0.59881397587E+01  0.89843011653E+01  0.10809609125E+02  0.51100000000E-03 0.  1.
        -12    1    3    3    0    0 -0.20374777078E+02  0.26490871622E+01 -0.19549513987E+02  0.28360759879E+02  0.00000000000E+00 0.  1.
</event>
<event>
 7    1  0.3348003E-013  0.7246152E+02  0.7816164E-02  0.1226708E+00
        -11   -1    0    0    0    0  0.00000000000E+00  0.00000000000E+00  0.45593999997E+02  0.45594000000E+02  0.51100000000E-03 0.  1.
         11   -1    0    0    0    0 -0.00000000000E+00 -0.00000000000E+00 -0.45593999997E+02  0.45594000000E+02  0.51100000000E-03 0. -1.
    9900012    2    1    2    0    0 -0.86376623674E+01  0.37459030512E+00  0.16611182901E+02  0.72461523385E+02  0.69999938891E+02 0.  0.
         12    1    1    2    0    0  0.86376623674E+01 -0.37459030512E+00 -0.16611182901E+02  0.18726476615E+02  0.00000000000E+00 0. -1.
         11    1    3    3    0    0  0.13024836151E+02 -0.21104342119E+01  0.50987270682E+01  0.14145575538E+02  0.51100000000E-03 0. -1.
        -11    1    3    3    0    0  0.16202991885E+02  0.35850668435E+01  0.11920099461E+02  0.20432288705E+02  0.51100000000E-03 0.  1.
         12    1    3    3    0    0 -0.37865490404E+02 -0.11000423266E+01 -0.40764362854E+00  0.37883659142E+02  0.00000000000E+00 0. -1.
</event>
<event>
 7    1  0.3348003E-013  0.7246124E+02  0.7816164E-02  0.1226709E+00
        -11   -1    0    0    0    0  0.00000000000E+00  0.00000000000E+00  0.45593999997E+02  0.45594000000E+02  0.51100000000E-03 0. -1.
         11   -1    0    0    0    0 -0.00000000000E+00 -0.00000000000E+00 -0.45593999997E+02  0.45594000000E+02  0.51100000000E-03 0.  1.
    9900012    2    1    2    0    0  0.14242992640E+02  0.12110430278E+02  0.10798133439E+01  0.72461244869E+02  0.69999576072E+02 0.  0.
         12    1    1    2    0    0 -0.14242992640E+02 -0.12110430278E+02 -0.10798133439E+01  0.18726755131E+02  0.00000000000E+00 0. -1.
         11    1    3    3    0    0 -0.21177716292E+01  0.11992179942E+02  0.21347246642E+02  0.24576457757E+02  0.51100000000E-03 0. -1.
        -11    1    3    3    0    0 -0.28991196907E+00  0.43019969831E+01  0.11220600699E+02  0.12020528578E+02  0.51100000000E-03 0.  1.
        -12    1    3    3    0    0  0.16650676239E+02 -0.41837466477E+01 -0.31488033997E+02  0.35864258534E+02  0.00000000000E+00 0.  1.
</event>
<event>
 7    1  0.3348003E-013  0.7246156E+02  0.7816164E-02  0.1226708E+00
        -11   -1    0    0    0    0  0.00000000000E+00  0.00000000000E+00  0.45593999997E+02  0.45594000000E+02  0.51100000000E-03 0. -1.
         11   -1    0    0    0    0 -0.00000000000E+00 -0.00000000000E+00 -0.45593999997E+02  0.45594000000E+02  0.51100000000E-03 0.  1.
    9900012    2    1    2    0    0  0.15445263615E+02  0.55464636690E+01 -0.90199755397E+01  0.72461564511E+02  0.69999992467E+02 0.  0.
         12    1    1    2    0    0 -0.15445263615E+02 -0.55464636690E+01  0.90199755397E+01  0.18726435489E+02  0.00000000000E+00 0. -1.
         11    1    3    3    0    0 -0.21475395927E+01  0.13148220344E+02  0.79449476060E+01  0.15511602665E+02  0.51100000000E-03 0. -1.
        -11    1    3    3    0    0  0.26002556082E+02  0.12336913114E+02  0.10398439176E+01  0.28799542073E+02  0.51100000000E-03 0.  1.
        -12    1    3    3    0    0 -0.84097528741E+01 -0.19938669790E+02 -0.18004767063E+02  0.28150419773E+02  0.00000000000E+00 0.  1.
</event>
<event>
 7    1  0.3348003E-013  0.7246153E+02  0.7816164E-02  0.1226708E+00
        -11   -1    0    0    0    0  0.00000000000E+00  0.00000000000E+00  0.45593999997E+02  0.45594000000E+02  0.51100000000E-03 0. -1.
         11   -1    0    0    0    0 -0.00000000000E+00 -0.00000000000E+00 -0.45593999997E+02  0.45594000000E+02  0.51100000000E-03 0.  1.
    9900012    2    1    2    0    0  0.18138584822E+02 -0.40834470157E+00 -0.46374249754E+01  0.72461529026E+02  0.69999946240E+02 0.  0.
         12    1    1    2    0    0 -0.18138584822E+02  0.40834470157E+00  0.46374249754E+01  0.18726470974E+02  0.00000000000E+00 0. -1.
         11    1    3    3    0    0  0.10448408975E+02 -0.24700359874E+02 -0.88501990947E+01  0.28241867012E+02  0.51100000000E-03 0. -1.
        -11    1    3    3    0    0  0.15416869638E+02 -0.19009197892E+01 -0.33337267177E+01  0.15887325123E+02  0.51100000000E-03 0.  1.
        -12    1    3    3    0    0 -0.77266937903E+01  0.26192934962E+02  0.75465008370E+01  0.28332336891E+02  0.00000000000E+00 0.  1.
</event>
<event>
 7    1  0.3348003E-013  0.7246155E+02  0.7816164E-02  0.1226708E+00
        -11   -1    0    0    0    0  0.00000000000E+00  0.00000000000E+00  0.45593999997E+02  0.45594000000E+02  0.51100000000E-03 0.  1.
         11   -1    0    0    0    0 -0.00000000000E+00 -0.00000000000E+00 -0.45593999997E+02  0.45594000000E+02  0.51100000000E-03 0. -1.
    9900012    2    1    2    0    0  0.51389668043E+01 -0.88698984156E+01  0.15671499292E+02  0.72461548981E+02  0.69999972235E+02 0.  0.
         12    1    1    2    0    0 -0.51389668043E+01  0.88698984156E+01 -0.15671499292E+02  0.18726451019E+02  0.00000000000E+00 0. -1.
         11    1    3    3    0    0 -0.15890228001E+02  0.14699906851E+02 -0.84893371703E+01  0.23251998908E+02  0.51100000000E-03 0. -1.
        -11    1    3    3    0    0  0.88251904577E+01 -0.19278648343E+02 -0.66755627537E+00  0.21213106802E+02  0.51100000000E-03 0.  1.
        -12    1    3    3    0    0  0.12204004348E+02 -0.42911569237E+01  0.24828392738E+02  0.27996443271E+02  0.00000000000E+00 0.  1.
</event>
<event>
 7    1  0.3348003E-013  0.7246153E+02  0.7816164E-02  0.1226708E+00
        -11   -1    0    0    0    0  0.00000000000E+00  0.00000000000E+00  0.45593999997E+02  0.45594000000E+02  0.51100000000E-03 0.  1.
         11   -1    0    0    0    0 -0.00000000000E+00 -0.00000000000E+00 -0.45593999997E+02  0.45594000000E+02  0.51100000000E-03 0. -1.
    9900012    2    1    2    0    0 -0.47214872225E+01  0.73019171844E+01  0.16585238208E+02  0.72461533099E+02  0.69999951547E+02 0.  0.
         12    1    1    2    0    0  0.47214872225E+01 -0.73019171844E+01 -0.16585238208E+02  0.18726466901E+02  0.00000000000E+00 0. -1.
         11    1    3    3    0    0  0.34295252905E+01 -0.63661241956E+00 -0.36176795186E+01  0.50253879901E+01  0.51100000000E-03 0. -1.
        -11    1    3    3    0    0 -0.23378627794E+02  0.95475596982E+01 -0.14771910932E+02  0.29256204241E+02  0.51100000000E-03 0.  1.
         12    1    3    3    0    0  0.15227615281E+02 -0.16090300942E+01  0.34974828659E+02  0.38179940868E+02  0.00000000000E+00 0. -1.
</event>
<event>
 7    1  0.3348003E-013  0.7246156E+02  0.7816164E-02  0.1226708E+00
        -11   -1    0    0    0    0  0.00000000000E+00  0.00000000000E+00  0.45593999997E+02  0.45594000000E+02  0.51100000000E-03 0.  1.
         11   -1    0    0    0    0 -0.00000000000E+00 -0.00000000000E+00 -0.45593999997E+02  0.45594000000E+02  0.51100000000E-03 0. -1.
    9900012    2    1    2    0    0 -0.12190999595E+02  0.12166399521E+02  0.73510448409E+01  0.72461558569E+02  0.69999984725E+02 0.  0.
         12    1    1    2    0    0  0.12190999595E+02 -0.12166399521E+02 -0.73510448409E+01  0.18726441431E+02  0.00000000000E+00 0. -1.
         11    1    3    3    0    0 -0.59547424552E+01 -0.12062656018E+02 -0.14655633182E+02  0.19893572132E+02  0.51100000000E-03 0. -1.
        -11    1    3    3    0    0  0.12116847841E+02 -0.50958565174E+01  0.61675710262E+01  0.14519803300E+02  0.51100000000E-03 0.  1.
        -12    1    3    3    0    0 -0.18353104981E+02  0.29324912057E+02  0.15839106997E+02  0.38048183137E+02  0.00000000000E+00 0.  1.
</event>
<event>
 7    1  0.3348003E-013  0.7246158E+02  0.7816164E-02  0.1226708E+00
        -11   -1    0    0    0    0  0.00000000000E+00  0.00000000000E+00  0.45593999997E+02  0.45594000000E+02  0.51100000000E-03 0. -1.
         11   -1    0    0    0    0 -0.00000000000E+00 -0.00000000000E+00 -0.45593999997E+02  0.45594000000E+02  0.51100000000E-03 0.  1.
    9900012    2    1    2    0    0  0.41543806040E+01  0.18212176595E+02  0.13178213037E+01  0.72461577290E+02  0.70000009113E+02 0.  0.
         12    1    1    2    0    0 -0.41543806040E+01 -0.18212176595E+02 -0.13178213037E+01  0.18726422710E+02  0.00000000000E+00 0. -1.
         11    1    3    3    0    0  0.15085253521E+01  0.19269916479E+02  0.13184071405E+02  0.23397116679E+02  0.51100000000E-03 0. -1.
        -11    1    3    3    0    0 -0.17486633537E+02  0.10528641392E+02 -0.15399116638E+02  0.25568876305E+02  0.51100000000E-03 0.  1.
         12    1    3    3    0    0  0.20132488789E+02 -0.11586381275E+02  0.35328665368E+01  0.23495584306E+02  0.00000000000E+00 0. -1.
</event>
<event>
 7    1  0.3348003E-013  0.7246149E+02  0.7816164E-02  0.1226708E+00
        -11   -1    0    0    0    0  0.00000000000E+00  0.00000000000E+00  0.45593999997E+02  0.45594000000E+02  0.51100000000E-03 0.  1.
         11   -1    0    0    0    0 -0.00000000000E+00 -0.00000000000E+00 -0.45593999997E+02  0.45594000000E+02  0.51100000000E-03 0. -1.
    9900012    2    1    2    0    0  0.12320148062E+02  0.41364795619E+00  0.14096982586E+02  0.72461492827E+02  0.69999899084E+02 0.  0.
         12    1    1    2    0    0 -0.12320148062E+02 -0.41364795619E+00 -0.14096982586E+02  0.18726507173E+02  0.00000000000E+00 0. -1.
         11    1    3    3    0    0 -0.11803971883E+02 -0.12703461834E+02  0.72499649885E+01  0.18795576271E+02  0.51100000000E-03 0. -1.
        -11    1    3    3    0    0 -0.10812791128E+02 -0.59324663149E+01  0.63452738439E+01  0.13869863336E+02  0.51100000000E-03 0.  1.
        -12    1    3    3    0    0  0.34936911072E+02  0.19049576105E+02  0.50174375331E+00  0.39796053219E+02  0.00000000000E+00 0.  1.
</event>
<event>
 7    1  0.3348003E-013  0.7246175E+02  0.7816164E-02  0.1226708E+00
        -11   -1    0    0    0    0  0.00000000000E+00  0.00000000000E+00  0.45593999997E+02  0.45594000000E+02  0.51100000000E-03 0. -1.
         11   -1    0    0    0    0 -0.00000000000E+00 -0.00000000000E+00 -0.45593999997E+02  0.45594000000E+02  0.51100000000E-03 0.  1.
    9900012    2    1    2    0    0 -0.50993958769E+01  0.18002162021E+02 -0.76868695067E+00  0.72461746894E+02  0.70000230054E+02 0.  0.
         12    1    1    2    0    0  0.50993958769E+01 -0.18002162021E+02  0.76868695067E+00  0.18726253106E+02  0.00000000000E+00 0. -1.
         11    1    3    3    0    0 -0.12948796224E+02 -0.92576569283E+01  0.94417533980E+01  0.18507356455E+02  0.51100000000E-03 0. -1.
        -11    1    3    3    0    0  0.10598291335E+01 -0.82427272082E+01 -0.15339764578E+02  0.17446322454E+02  0.51100000000E-03 0.  1.
        -12    1    3    3    0    0  0.67895712139E+01  0.35502546158E+02  0.51293242291E+01  0.36508067985E+02  0.00000000000E+00 0.  1.
</event>
<event>
 7    1  0.3348003E-013  0.7246154E+02  0.7816164E-02  0.1226708E+00
        -11   -1    0    0    0    0  0.00000000000E+00  0.00000000000E+00  0.45593999997E+02  0.45594000000E+02  0.51100000000E-03 0. -1.
         11   -1    0    0    0    0 -0.00000000000E+00 -0.00000000000E+00 -0.45593999997E+02  0.45594000000E+02  0.51100000000E-03 0.  1.
    9900012    2    1    2    0    0 -0.85688919269E+01 -0.10017186030E+02 -0.13300770971E+02  0.72461536553E+02  0.69999956045E+02 0.  0.
         12    1    1    2    0    0  0.85688919269E+01  0.10017186030E+02  0.13300770971E+02  0.18726463447E+02  0.00000000000E+00 0. -1.
         11    1    3    3    0    0  0.19004840356E+02  0.14650801087E+00 -0.18741340374E+02  0.26691632787E+02  0.51100000000E-03 0. -1.
        -11    1    3    3    0    0  0.55710530068E+01  0.55869560923E+01  0.44529086479E+01  0.90597519651E+01  0.51100000000E-03 0.  1.
         12    1    3    3    0    0 -0.33144785289E+02 -0.15750650133E+02  0.98766075482E+00  0.36710151801E+02  0.00000000000E+00 0. -1.
</event>
<event>
 7    1  0.3348003E-013  0.7246128E+02  0.7816164E-02  0.1226709E+00
        -11   -1    0    0    0    0  0.00000000000E+00  0.00000000000E+00  0.45593999997E+02  0.45594000000E+02  0.51100000000E-03 0. -1.
         11   -1    0    0    0    0 -0.00000000000E+00 -0.00000000000E+00 -0.45593999997E+02  0.45594000000E+02  0.51100000000E-03 0.  1.
    9900012    2    1    2    0    0 -0.40806114087E+01 -0.11281916999E+02 -0.14379044198E+02  0.72461282383E+02  0.69999624941E+02 0.  0.
         12    1    1    2    0    0  0.40806114087E+01  0.11281916999E+02  0.14379044198E+02  0.18726717617E+02  0.00000000000E+00 0. -1.
         11    1    3    3    0    0 -0.19062030365E+02 -0.16261580677E+02  0.94055792211E+01  0.26763126284E+02  0.51100000000E-03 0. -1.
        -11    1    3    3    0    0 -0.48219716001E+01 -0.10283049885E+01 -0.24499936781E+02  0.24991112896E+02  0.51100000000E-03 0.  1.
         12    1    3    3    0    0  0.19803390556E+02  0.60079686662E+01  0.71531336141E+00  0.20707043203E+02  0.00000000000E+00 0. -1.
</event>
<event>
 7    1  0.3348003E-013  0.7246154E+02  0.7816164E-02  0.1226708E+00
        -11   -1    0    0    0    0  0.00000000000E+00  0.00000000000E+00  0.45593999997E+02  0.45594000000E+02  0.51100000000E-03 0.  1.
         11   -1    0    0    0    0 -0.00000000000E+00 -0.00000000000E+00 -0.45593999997E+02  0.45594000000E+02  0.51100000000E-03 0. -1.
    9900012    2    1    2    0    0 -0.44421612786E+01  0.71908526970E+00  0.18177741656E+02  0.72461543524E+02  0.69999965126E+02 0.  0.
         12    1    1    2    0    0  0.44421612786E+01 -0.71908526970E+00 -0.18177741656E+02  0.18726456476E+02  0.00000000000E+00 0. -1.
         11    1    3    3    0    0  0.22139934859E+02  0.13751967027E+02 -0.97943150782E+01  0.27842807344E+02  0.51100000000E-03 0. -1.
        -11    1    3    3    0    0 -0.11603964872E+02 -0.79372287352E+00  0.21096522048E+02  0.24090355737E+02  0.51100000000E-03 0.  1.
        -12    1    3    3    0    0 -0.14978131266E+02 -0.12239158883E+02  0.68755346860E+01  0.20528380443E+02  0.00000000000E+00 0.  1.
</event>
<event>
 7    1  0.3348003E-013  0.7246160E+02  0.7816164E-02  0.1226708E+00
        -11   -1    0    0    0    0  0.00000000000E+00  0.00000000000E+00  0.45593999997E+02  0.45594000000E+02  0.51100000000E-03 0.  1.
         11   -1    0    0    0    0 -0.00000000000E+00 -0.00000000000E+00 -0.45593999997E+02  0.45594000000E+02  0.51100000000E-03 0. -1.
    9900012    2    1    2    0    0  0.15042723104E+02 -0.11136847196E+02  0.60427293930E+00  0.72461600730E+02  0.70000039648E+02 0.  0.
         12    1    1    2    0    0 -0.15042723104E+02  0.11136847196E+02 -0.60427293930E+00  0.18726399270E+02  0.00000000000E+00 0. -1.
         11    1    3    3    0    0  0.50351502422E+01 -0.84898070352E+00 -0.10331756453E+02  0.11524699469E+02  0.51100000000E-03 0. -1.
        -11    1    3    3    0    0  0.19515914240E+02  0.19395967564E+02  0.11351565139E+02  0.29764618219E+02  0.51100000000E-03 0.  1.
         12    1    3    3    0    0 -0.95083413783E+01 -0.29683834056E+02 -0.41553574682E+00  0.31172283041E+02  0.00000000000E+00 0. -1.
</event>
<event>
 7    1  0.3348003E-013  0.7246157E+02  0.7816164E-02  0.1226708E+00
        -11   -1    0    0    0    0  0.00000000000E+00  0.00000000000E+00  0.45593999997E+02  0.45594000000E+02  0.51100000000E-03 0.  1.
         11   -1    0    0    0    0 -0.00000000000E+00 -0.00000000000E+00 -0.45593999997E+02  0.45594000000E+02  0.51100000000E-03 0. -1.
    9900012    2    1    2    0    0 -0.18049924267E+01 -0.35106563607E+01  0.18305637561E+02  0.72461572891E+02  0.70000003383E+02 0.  0.
         12    1    1    2    0    0  0.18049924267E+01  0.35106563607E+01 -0.18305637561E+02  0.18726427109E+02  0.00000000000E+00 0. -1.
         11    1    3    3    0    0 -0.13360035991E+02  0.43560930260E+01  0.14408188886E+02  0.20126152523E+02  0.51100000000E-03 0. -1.
        -11    1    3    3    0    0 -0.10202307686E+02 -0.37582955422E+01  0.21471207654E+02  0.24067085945E+02  0.51100000000E-03 0.  1.
         12    1    3    3    0    0  0.21757351250E+02 -0.41084538446E+01 -0.17573758979E+02  0.28268334423E+02  0.00000000000E+00 0. -1.
</event>
<event>
 7    1  0.3348003E-013  0.7246160E+02  0.7816164E-02  0.1226708E+00
        -11   -1    0    0    0    0  0.00000000000E+00  0.00000000000E+00  0.45593999997E+02  0.45594000000E+02  0.51100000000E-03 0. -1.
         11   -1    0    0    0    0 -0.00000000000E+00 -0.00000000000E+00 -0.45593999997E+02  0.45594000000E+02  0.51100000000E-03 0.  1.
    9900012    2    1    2    0    0 -0.18152838671E+02  0.39835541910E+01 -0.22986427847E+01  0.72461601135E+02  0.70000040175E+02 0.  0.
         12    1    1    2    0    0  0.18152838671E+02 -0.39835541910E+01  0.22986427847E+01  0.18726398865E+02  0.00000000000E+00 0. -1.
         11    1    3    3    0    0 -0.40024796776E+00  0.24796703980E+02 -0.23154560206E+02  0.33928901917E+02  0.51100000000E-03 0. -1.
        -11    1    3    3    0    0  0.32015553909E+01 -0.22608967967E+01  0.55543935951E+00  0.39585507941E+01  0.51100000000E-03 0.  1.
        -12    1    3    3    0    0 -0.20954146094E+02 -0.18552252992E+02  0.20300478062E+02  0.34574148423E+02  0.00000000000E+00 0.  1.
</event>
<event>
 7    1  0.3348003E-013  0.7246161E+02  0.7816164E-02  0.1226708E+00
        -11   -1    0    0    0    0  0.00000000000E+00  0.00000000000E+00  0.45593999997E+02  0.45594000000E+02  0.51100000000E-03 0. -1.
         11   -1    0    0    0    0 -0.00000000000E+00 -0.00000000000E+00 -0.45593999997E+02  0.45594000000E+02  0.51100000000E-03 0.  1.
    9900012    2    1    2    0    0 -0.37772635545E+01  0.18000856984E+02 -0.35183708744E+01  0.72461614719E+02  0.70000057871E+02 0.  0.
         12    1    1    2    0    0  0.37772635545E+01 -0.18000856984E+02  0.35183708744E+01  0.18726385281E+02  0.00000000000E+00 0. -1.
         11    1    3    3    0    0 -0.16434747835E+02 -0.84056287315E+01  0.17688338044E+02  0.25566244030E+02  0.51100000000E-03 0. -1.
        -11    1    3    3    0    0  0.59078555402E+01  0.16079824760E+02  0.50712024190E+01  0.17865626651E+02  0.51100000000E-03 0.  1.
        -12    1    3    3    0    0  0.67496287404E+01  0.10326660955E+02 -0.26277911338E+02  0.29029744037E+02  0.00000000000E+00 0.  1.
</event>
<event>
 7    1  0.3348003E-013  0.7246160E+02  0.7816164E-02  0.1226708E+00
        -11   -1    0    0    0    0  0.00000000000E+00  0.00000000000E+00  0.45593999997E+02  0.45594000000E+02  0.51100000000E-03 0. -1.
         11   -1    0    0    0    0 -0.00000000000E+00 -0.00000000000E+00 -0.45593999997E+02  0.45594000000E+02  0.51100000000E-03 0.  1.
    9900012    2    1    2    0    0  0.88743361170E+01 -0.16113528198E+02  0.35040460388E+01  0.72461602291E+02  0.70000041682E+02 0.  0.
         12    1    1    2    0    0 -0.88743361170E+01  0.16113528198E+02 -0.35040460388E+01  0.18726397709E+02  0.00000000000E+00 0. -1.
         11    1    3    3    0    0 -0.62001086600E+01  0.30401060501E+01 -0.15961068140E+02  0.17390781714E+02  0.51100000000E-03 0. -1.
        -11    1    3    3    0    0  0.11459255570E+02 -0.27290735604E+02 -0.40981726735E+01  0.29881328745E+02  0.51100000000E-03 0.  1.
         12    1    3    3    0    0  0.36151892071E+01  0.81371013559E+01  0.23563286852E+02  0.25189491832E+02  0.00000000000E+00 0. -1.
</event>
<event>
 7    1  0.3348003E-013  0.7246155E+02  0.7816164E-02  0.1226708E+00
        -11   -1    0    0    0    0  0.00000000000E+00  0.00000000000E+00  0.45593999997E+02  0.45594000000E+02  0.51100000000E-03 0. -1.
         11   -1    0    0    0    0 -0.00000000000E+00 -0.00000000000E+00 -0.45593999997E+02  0.45594000000E+02  0.51100000000E-03 0.  1.
    9900012    2    1    2    0    0 -0.51250617352E+01 -0.17997460371E+02  0.71071744342E+00  0.72461549271E+02  0.69999972614E+02 0.  0.
         12    1    1    2    0    0  0.51250617352E+01  0.17997460371E+02 -0.71071744342E+00  0.18726450729E+02  0.00000000000E+00 0. -1.
         11    1    3    3    0    0  0.40846743001E+01  0.64017392704E+01  0.34993165138E+01  0.83613423652E+01  0.51100000000E-03 0. -1.
        -11    1    3    3    0    0 -0.25507434742E+02  0.28453086721E+01 -0.15409701157E+02  0.29936330746E+02  0.51100000000E-03 0.  1.
         12    1    3    3    0    0  0.16297698706E+02 -0.27244508314E+02  0.12621102087E+02  0.34163876160E+02  0.00000000000E+00 0. -1.
</event>
<event>
 7    1  0.3348003E-013  0.7246152E+02  0.7816164E-02  0.1226708E+00
        -11   -1    0    0    0    0  0.00000000000E+00  0.00000000000E+00  0.45593999997E+02  0.45594000000E+02  0.51100000000E-03 0. -1.
         11   -1    0    0    0    0 -0.00000000000E+00 -0.00000000000E+00 -0.45593999997E+02  0.45594000000E+02  0.51100000000E-03 0.  1.
    9900012    2    1    2    0    0 -0.12967526777E+02  0.20565533826E+01 -0.13352707128E+02  0.72461522751E+02  0.69999938066E+02 0.  0.
         12    1    1    2    0    0  0.12967526777E+02 -0.20565533826E+01  0.13352707128E+02  0.18726477249E+02  0.00000000000E+00 0. -1.
         11    1    3    3    0    0  0.19687611532E+02  0.12297889484E+02 -0.15671692990E+02  0.28007893441E+02  0.51100000000E-03 0. -1.
        -11    1    3    3    0    0  0.50652342626E+01  0.30169867153E+00 -0.90807548719E+00  0.51548250771E+01  0.51100000000E-03 0.  1.
        -12    1    3    3    0    0 -0.37720372571E+02 -0.10543034773E+02  0.32270613489E+01  0.39298804232E+02  0.00000000000E+00 0.  1.
</event>
<event>
 7    1  0.3348003E-013  0.7246157E+02  0.7816164E-02  0.1226708E+00
        -11   -1    0    0    0    0  0.00000000000E+00  0.00000000000E+00  0.45593999997E+02  0.45594000000E+02  0.51100000000E-03 0. -1.
         11   -1    0    0    0    0 -0.00000000000E+00 -0.00000000000E+00 -0.45593999997E+02  0.45594000000E+02  0.51100000000E-03 0.  1.
    9900012    2    1    2    0    0  0.10924941507E+02  0.14814294975E+02 -0.34440715768E+01  0.72461566502E+02  0.69999995060E+02 0.  0.
         12    1    1    2    0    0 -0.10924941507E+02 -0.14814294975E+02  0.34440715768E+01  0.18726433498E+02  0.00000000000E+00 0. -1.
         11    1    3    3    0    0 -0.89706973130E+01 -0.87957275935E+00 -0.19271414989E+02  0.21275208446E+02  0.51100000000E-03 0. -1.
        -11    1    3    3    0    0  0.98979106763E+01  0.20509547206E+02 -0.86108796612E+01  0.24346609850E+02  0.51100000000E-03 0.  1.
         12    1    3    3    0    0  0.99977281435E+01 -0.48156794725E+01  0.24438223073E+02  0.26839748206E+02  0.00000000000E+00 0. -1.
</event>
<event>
 7    1  0.3348003E-013  0.7246155E+02  0.7816164E-02  0.1226708E+00
        -11   -1    0    0    0    0  0.00000000000E+00  0.00000000000E+00  0.45593999997E+02  0.45594000000E+02  0.51100000000E-03 0. -1.
         11   -1    0    0    0    0 -0.00000000000E+00 -0.00000000000E+00 -0.45593999997E+02  0.45594000000E+02  0.51100000000E-03 0.  1.
    9900012    2    1    2    0    0 -0.18161811867E+02  0.40713383520E+01  0.20622205214E+01  0.72461549195E+02  0.69999972515E+02 0.  0.
         12    1    1    2    0    0  0.18161811867E+02 -0.40713383520E+01 -0.20622205214E+01  0.18726450805E+02  0.00000000000E+00 0. -1.
         11    1    3    3    0    0 -0.14779263072E+02  0.16046047125E+02 -0.26932639091E+02  0.34659331989E+02  0.51100000000E-03 0. -1.
        -11    1    3    3    0    0 -0.78417144721E+01 -0.70914368631E+01  0.30152894741E+01  0.10994222734E+02  0.51100000000E-03 0.  1.
        -12    1    3    3    0    0  0.44591656771E+01 -0.48832719098E+01  0.25979570138E+02  0.26807994472E+02  0.00000000000E+00 0.  1.
</event>
<event>
 7    1  0.3348003E-013  0.7246162E+02  0.7816164E-02  0.1226708E+00
        -11   -1    0    0    0    0  0.00000000000E+00  0.00000000000E+00  0.45593999997E+02  0.45594000000E+02  0.51100000000E-03 0. -1.
         11   -1    0    0    0    0 -0.00000000000E+00 -0.00000000000E+00 -0.45593999997E+02  0.45594000000E+02  0.51100000000E-03 0.  1.
    9900012    2    1    2    0    0  0.94820248086E+01  0.31281261842E+01 -0.15842452302E+02  0.72461621203E+02  0.70000066318E+02 0.  0.
         12    1    1    2    0    0 -0.94820248086E+01 -0.31281261842E+01  0.15842452302E+02  0.18726378797E+02  0.00000000000E+00 0. -1.
         11    1    3    3    0    0 -0.18316581119E+02  0.89713443838E+01 -0.48290925349E+00  0.20401356953E+02  0.51100000000E-03 0. -1.
        -11    1    3    3    0    0  0.74070707887E+01 -0.21979516098E+02 -0.34138648698E+01  0.23443939498E+02  0.51100000000E-03 0.  1.
         12    1    3    3    0    0  0.20391535138E+02  0.16136297898E+02 -0.11945678179E+02  0.28616324752E+02  0.00000000000E+00 0. -1.
</event>
<event>
 7    1  0.3348003E-013  0.7246156E+02  0.7816164E-02  0.1226708E+00
        -11   -1    0    0    0    0  0.00000000000E+00  0.00000000000E+00  0.45593999997E+02  0.45594000000E+02  0.51100000000E-03 0.  1.
         11   -1    0    0    0    0 -0.00000000000E+00 -0.00000000000E+00 -0.45593999997E+02  0.45594000000E+02  0.51100000000E-03 0. -1.
    9900012    2    1    2    0    0 -0.38593556931E+01 -0.18036141916E+02  0.32376801608E+01  0.72461558416E+02  0.69999984527E+02 0.  0.
         12    1    1    2    0    0  0.38593556931E+01  0.18036141916E+02 -0.32376801608E+01  0.18726441584E+02  0.00000000000E+00 0. -1.
         11    1    3    3    0    0  0.14776359876E+02  0.19464066452E+02 -0.56048107178E+01  0.25071988303E+02  0.51100000000E-03 0. -1.
        -11    1    3    3    0    0 -0.30218460667E+00  0.24676189200E+01 -0.21146535485E+00  0.24950303662E+01  0.51100000000E-03 0.  1.
        -12    1    3    3    0    0 -0.18333530962E+02 -0.39967827287E+02  0.90539562335E+01  0.44894539747E+02  0.00000000000E+00 0.  1.
</event>
<event>
 7    1  0.3348003E-013  0.7246155E+02  0.7816164E-02  0.1226708E+00
        -11   -1    0    0    0    0  0.00000000000E+00  0.00000000000E+00  0.45593999997E+02  0.45594000000E+02  0.51100000000E-03 0. -1.
         11   -1    0    0    0    0 -0.00000000000E+00 -0.00000000000E+00 -0.45593999997E+02  0.45594000000E+02  0.51100000000E-03 0.  1.
    9900012    2    1    2    0    0  0.37233053206E+01 -0.18340532196E+02  0.66480155860E+00  0.72461545855E+02  0.69999968163E+02 0.  0.
         12    1    1    2    0    0 -0.37233053206E+01  0.18340532196E+02 -0.66480155860E+00  0.18726454145E+02  0.00000000000E+00 0. -1.
         11    1    3    3    0    0 -0.11620545619E+02  0.10333082107E+02  0.23415037284E+01  0.15725530398E+02  0.51100000000E-03 0. -1.
        -11    1    3    3    0    0  0.72876358318E+01  0.12601140401E+02 -0.19117317763E+01  0.14681726536E+02  0.51100000000E-03 0.  1.
        -12    1    3    3    0    0  0.80562151081E+01 -0.41274754704E+02  0.23502960647E+00  0.42054288921E+02  0.00000000000E+00 0.  1.
</event>
<event>
 7    1  0.3348003E-013  0.7246152E+02  0.7816164E-02  0.1226708E+00
        -11   -1    0    0    0    0  0.00000000000E+00  0.00000000000E+00  0.45593999997E+02  0.45594000000E+02  0.51100000000E-03 0.  1.
         11   -1    0    0    0    0 -0.00000000000E+00 -0.00000000000E+00 -0.45593999997E+02  0.45594000000E+02  0.51100000000E-03 0. -1.
    9900012    2    1    2    0    0  0.60895239817E+01  0.22360186356E+01  0.17566990439E+02  0.72461515153E+02  0.69999928168E+02 0.  0.
         12    1    1    2    0    0 -0.60895239817E+01 -0.22360186356E+01 -0.17566990439E+02  0.18726484847E+02  0.00000000000E+00 0. -1.
         11    1    3    3    0    0 -0.85680849158E+01 -0.13235599546E+02 -0.21781291817E+00  0.15768342246E+02  0.51100000000E-03 0.  1.
        -11    1    3    3    0    0 -0.40921348142E+01  0.27816522708E+02  0.19441997381E+02  0.34183267330E+02  0.51100000000E-03 0. -1.
         12    1    3    3    0    0  0.18749743712E+02 -0.12344904526E+02 -0.16571940242E+01  0.22509905576E+02  0.00000000000E+00 0. -1.
</event>
<event>
 7    1  0.3348003E-013  0.7246169E+02  0.7816164E-02  0.1226708E+00
        -11   -1    0    0    0    0  0.00000000000E+00  0.00000000000E+00  0.45593999997E+02  0.45594000000E+02  0.51100000000E-03 0.  1.
         11   -1    0    0    0    0 -0.00000000000E+00 -0.00000000000E+00 -0.45593999997E+02  0.45594000000E+02  0.51100000000E-03 0. -1.
    9900012    2    1    2    0    0  0.12930361802E+02 -0.66440040427E+01  0.11804137396E+02  0.72461689480E+02  0.70000155261E+02 0.  0.
         12    1    1    2    0    0 -0.12930361802E+02  0.66440040427E+01 -0.11804137396E+02  0.18726310520E+02  0.00000000000E+00 0. -1.
         11    1    3    3    0    0 -0.45107640565E+01 -0.16237628829E+01  0.35536173841E+00  0.48072737076E+01  0.51100000000E-03 0. -1.
        -11    1    3    3    0    0  0.10445996500E+02 -0.29351306935E+02 -0.11768763343E+02  0.33303481087E+02  0.51100000000E-03 0.  1.
         12    1    3    3    0    0  0.69951293585E+01  0.24331065775E+02  0.23217539000E+02  0.34350934685E+02  0.00000000000E+00 0. -1.
</event>
<event>
 7    1  0.3348003E-013  0.7246157E+02  0.7816164E-02  0.1226708E+00
        -11   -1    0    0    0    0  0.00000000000E+00  0.00000000000E+00  0.45593999997E+02  0.45594000000E+02  0.51100000000E-03 0.  1.
         11   -1    0    0    0    0 -0.00000000000E+00 -0.00000000000E+00 -0.45593999997E+02  0.45594000000E+02  0.51100000000E-03 0. -1.
    9900012    2    1    2    0    0 -0.12395732696E+02  0.13348282534E+02  0.43414532855E+01  0.72461573424E+02  0.70000004077E+02 0.  0.
         12    1    1    2    0    0  0.12395732696E+02 -0.13348282534E+02 -0.43414532855E+01  0.18726426576E+02  0.00000000000E+00 0. -1.
         11    1    3    3    0    0 -0.26242821518E+02  0.60798155333E+01 -0.16034968397E+02  0.31349163464E+02  0.51100000000E-03 0. -1.
        -11    1    3    3    0    0  0.30425269379E+01  0.68537326544E+01 -0.78680345652E+01  0.10869065721E+02  0.51100000000E-03 0.  1.
        -12    1    3    3    0    0  0.10804561884E+02  0.41473434603E+00  0.28244456247E+02  0.30243344239E+02  0.00000000000E+00 0.  1.
</event>
<event>
 7    1  0.3348003E-013  0.7246152E+02  0.7816164E-02  0.1226708E+00
        -11   -1    0    0    0    0  0.00000000000E+00  0.00000000000E+00  0.45593999997E+02  0.45594000000E+02  0.51100000000E-03 0. -1.
         11   -1    0    0    0    0 -0.00000000000E+00 -0.00000000000E+00 -0.45593999997E+02  0.45594000000E+02  0.51100000000E-03 0.  1.
    9900012    2    1    2    0    0  0.81708866839E+01  0.63696920682E+01  0.15599505676E+02  0.72461522927E+02  0.69999938295E+02 0.  0.
         12    1    1    2    0    0 -0.81708866839E+01 -0.63696920682E+01 -0.15599505676E+02  0.18726477073E+02  0.00000000000E+00 0. -1.
         11    1    3    3    0    0  0.47422284362E+00  0.12945494672E+02  0.12149264351E+02  0.17759936490E+02  0.51100000000E-03 0. -1.
        -11    1    3    3    0    0  0.32944374623E+00  0.14309614263E+02  0.21706062101E+02  0.26000513951E+02  0.51100000000E-03 0.  1.
        -12    1    3    3    0    0  0.73672200940E+01 -0.20885416867E+02 -0.18255820776E+02  0.28701072486E+02  0.00000000000E+00 0.  1.
</event>
<event>
 7    1  0.3348003E-013  0.7246158E+02  0.7816164E-02  0.1226708E+00
        -11   -1    0    0    0    0  0.00000000000E+00  0.00000000000E+00  0.45593999997E+02  0.45594000000E+02  0.51100000000E-03 0. -1.
         11   -1    0    0    0    0 -0.00000000000E+00 -0.00000000000E+00 -0.45593999997E+02  0.45594000000E+02  0.51100000000E-03 0.  1.
    9900012    2    1    2    0    0  0.12130941474E+02 -0.54932786891E+01 -0.13165981265E+02  0.72461577105E+02  0.70000008872E+02 0.  0.
         12    1    1    2    0    0 -0.12130941474E+02  0.54932786891E+01  0.13165981265E+02  0.18726422895E+02  0.00000000000E+00 0. -1.
         11    1    3    3    0    0  0.15553429699E+02 -0.25403548838E+02 -0.80830429054E+01  0.30863976604E+02  0.51100000000E-03 0. -1.
        -11    1    3    3    0    0  0.99311143227E+01  0.64560845692E+01  0.11427871347E+02  0.16459170801E+02  0.51100000000E-03 0.  1.
         12    1    3    3    0    0 -0.13353602548E+02  0.13454185579E+02 -0.16510809707E+02  0.25138429700E+02  0.00000000000E+00 0. -1.
</event>
<event>
 7    1  0.3348003E-013  0.7246159E+02  0.7816164E-02  0.1226708E+00
        -11   -1    0    0    0    0  0.00000000000E+00  0.00000000000E+00  0.45593999997E+02  0.45594000000E+02  0.51100000000E-03 0. -1.
         11   -1    0    0    0    0 -0.00000000000E+00 -0.00000000000E+00 -0.45593999997E+02  0.45594000000E+02  0.51100000000E-03 0.  1.
    9900012    2    1    2    0    0 -0.16071458372E+02 -0.92165337830E+01  0.27280441675E+01  0.72461588327E+02  0.70000023490E+02 0.  0.
         12    1    1    2    0    0  0.16071458372E+02  0.92165337830E+01 -0.27280441675E+01  0.18726411673E+02  0.00000000000E+00 0. -1.
         11    1    3    3    0    0 -0.94525292478E+01  0.63485453339E+01  0.39627075900E+01  0.12056425206E+02  0.51100000000E-03 0. -1.
        -11    1    3    3    0    0 -0.25039625261E+02  0.26330230190E+01  0.15507506262E+02  0.29570228173E+02  0.51100000000E-03 0.  1.
         12    1    3    3    0    0  0.18420696137E+02 -0.18198102136E+02 -0.16742169685E+02  0.30834934948E+02  0.00000000000E+00 0. -1.
</event>
<event>
 7    1  0.3348003E-013  0.7246155E+02  0.7816164E-02  0.1226708E+00
        -11   -1    0    0    0    0  0.00000000000E+00  0.00000000000E+00  0.45593999997E+02  0.45594000000E+02  0.51100000000E-03 0.  1.
         11   -1    0    0    0    0 -0.00000000000E+00 -0.00000000000E+00 -0.45593999997E+02  0.45594000000E+02  0.51100000000E-03 0. -1.
    9900012    2    1    2    0    0  0.16889173164E+02  0.78060465475E+01 -0.21216237216E+01  0.72461552925E+02  0.69999977373E+02 0.  0.
         12    1    1    2    0    0 -0.16889173164E+02 -0.78060465475E+01  0.21216237216E+01  0.18726447075E+02  0.00000000000E+00 0. -1.
         11    1    3    3    0    0  0.31750780950E+00  0.31704129420E+01 -0.17301253180E+02  0.17592205413E+02  0.51100000000E-03 0. -1.
        -11    1    3    3    0    0 -0.16743970260E+02 -0.19771688070E+01 -0.16906558772E+01  0.16944853323E+02  0.51100000000E-03 0.  1.
        -12    1    3    3    0    0  0.33315635614E+02  0.66128024124E+01  0.16870285336E+02  0.37924494189E+02  0.00000000000E+00 0.  1.
</event>
<event>
 7    1  0.3348003E-013  0.7246156E+02  0.7816164E-02  0.1226708E+00
        -11   -1    0    0    0    0  0.00000000000E+00  0.00000000000E+00  0.45593999997E+02  0.45594000000E+02  0.51100000000E-03 0.  1.
         11   -1    0    0    0    0 -0.00000000000E+00 -0.00000000000E+00 -0.45593999997E+02  0.45594000000E+02  0.51100000000E-03 0. -1.
    9900012    2    1    2    0    0  0.87946428251E+01  0.21051374078E+01  0.16398238798E+02  0.72461559291E+02  0.69999985666E+02 0.  0.
         12    1    1    2    0    0 -0.87946428251E+01 -0.21051374078E+01 -0.16398238798E+02  0.18726440709E+02  0.00000000000E+00 0. -1.
         11    1    3    3    0    0  0.26221377176E+02  0.14400594004E+02  0.99352549439E+01  0.31522167117E+02  0.51100000000E-03 0. -1.
        -11    1    3    3    0    0  0.62544096616E+01 -0.28714721997E+01  0.12927231359E+02  0.14645009515E+02  0.51100000000E-03 0.  1.
        -12    1    3    3    0    0 -0.23681144013E+02 -0.94239843963E+01 -0.64642475045E+01  0.26294382660E+02  0.00000000000E+00 0.  1.
</event>
<event>
 7    1  0.3348003E-013  0.7246160E+02  0.7816164E-02  0.1226708E+00
        -11   -1    0    0    0    0  0.00000000000E+00  0.00000000000E+00  0.45593999997E+02  0.45594000000E+02  0.51100000000E-03 0. -1.
         11   -1    0    0    0    0 -0.00000000000E+00 -0.00000000000E+00 -0.45593999997E+02  0.45594000000E+02  0.51100000000E-03 0.  1.
    9900012    2    1    2    0    0 -0.17735227363E+02  0.58066690553E+01  0.15563456390E+01  0.72461604007E+02  0.70000043917E+02 0.  0.
         12    1    1    2    0    0  0.17735227363E+02 -0.58066690553E+01 -0.15563456390E+01  0.18726395993E+02  0.00000000000E+00 0. -1.
         11    1    3    3    0    0  0.16322153001E+01 -0.15472402766E+02 -0.43679979367E+01  0.16159788995E+02  0.51100000000E-03 0. -1.
        -11    1    3    3    0    0  0.10321125082E+01 -0.81206899298E+01  0.16978946882E+02  0.18849283770E+02  0.51100000000E-03 0.  1.
        -12    1    3    3    0    0 -0.20399555171E+02  0.29399761751E+02 -0.11054603306E+02  0.37452531242E+02  0.00000000000E+00 0.  1.
</event>
<event>
 7    1  0.3348003E-013  0.7246156E+02  0.7816164E-02  0.1226708E+00
        -11   -1    0    0    0    0  0.00000000000E+00  0.00000000000E+00  0.45593999997E+02  0.45594000000E+02  0.51100000000E-03 0. -1.
         11   -1    0    0    0    0 -0.00000000000E+00 -0.00000000000E+00 -0.45593999997E+02  0.45594000000E+02  0.51100000000E-03 0.  1.
    9900012    2    1    2    0    0 -0.11716836892E+02  0.13063608375E+02 -0.65373752630E+01  0.72461563984E+02  0.69999991779E+02 0.  0.
         12    1    1    2    0    0  0.11716836892E+02 -0.13063608375E+02  0.65373752630E+01  0.18726436016E+02  0.00000000000E+00 0. -1.
         11    1    3    3    0    0  0.18722097257E+02 -0.13921027279E+02  0.89767701211E+01  0.24997886476E+02  0.51100000000E-03 0. -1.
        -11    1    3    3    0    0 -0.75545683945E+01  0.12531131006E+01 -0.99907934334E+01  0.12588000229E+02  0.51100000000E-03 0.  1.
        -12    1    3    3    0    0 -0.22884365754E+02  0.25731522554E+02 -0.55233519507E+01  0.34875677279E+02  0.00000000000E+00 0.  1.
</event>
<event>
 7    1  0.3348003E-013  0.7246155E+02  0.7816164E-02  0.1226708E+00
        -11   -1    0    0    0    0  0.00000000000E+00  0.00000000000E+00  0.45593999997E+02  0.45594000000E+02  0.51100000000E-03 0.  1.
         11   -1    0    0    0    0 -0.00000000000E+00 -0.00000000000E+00 -0.45593999997E+02  0.45594000000E+02  0.51100000000E-03 0. -1.
    9900012    2    1    2    0    0 -0.77463629624E+01 -0.16990695937E+02  0.14106369854E+01  0.72461553881E+02  0.69999978618E+02 0.  0.
         12    1    1    2    0    0  0.77463629624E+01  0.16990695937E+02 -0.14106369854E+01  0.18726446119E+02  0.00000000000E+00 0. -1.
         11    1    3    3    0    0 -0.12919311256E+02  0.11080405947E+02  0.35576008709E+01  0.17387941899E+02  0.51100000000E-03 0. -1.
        -11    1    3    3    0    0 -0.13388131640E+02 -0.29054666519E+02 -0.11839112224E+02  0.34111292761E+02  0.51100000000E-03 0.  1.
        -12    1    3    3    0    0  0.18561079933E+02  0.98356463551E+00  0.96921483383E+01  0.20962319220E+02  0.00000000000E+00 0.  1.
</event>
<event>
 7    1  0.3348003E-013  0.7246182E+02  0.7816164E-02  0.1226707E+00
        -11   -1    0    0    0    0  0.00000000000E+00  0.00000000000E+00  0.45593999997E+02  0.45594000000E+02  0.51100000000E-03 0.  1.
         11   -1    0    0    0    0 -0.00000000000E+00 -0.00000000000E+00 -0.45593999997E+02  0.45594000000E+02  0.51100000000E-03 0. -1.
    9900012    2    1    2    0    0  0.16741996886E+02  0.52680682571E+01  0.65286018542E+01  0.72461824601E+02  0.70000331281E+02 0.  0.
         12    1    1    2    0    0 -0.16741996886E+02 -0.52680682571E+01 -0.65286018542E+01  0.18726175399E+02  0.00000000000E+00 0. -1.
         11    1    3    3    0    0  0.17783605348E+02 -0.47604449092E+01 -0.14522734851E+02  0.23448417488E+02  0.51100000000E-03 0. -1.
        -11    1    3    3    0    0 -0.99227051982E+01 -0.65652716926E+01 -0.80434801079E+01  0.14361770203E+02  0.51100000000E-03 0.  1.
        -12    1    3    3    0    0  0.88810967361E+01  0.16593784859E+02  0.29094816813E+02  0.34651636910E+02  0.00000000000E+00 0.  1.
</event>
<event>
 7    1  0.3348003E-013  0.7246144E+02  0.7816164E-02  0.1226708E+00
        -11   -1    0    0    0    0  0.00000000000E+00  0.00000000000E+00  0.45593999997E+02  0.45594000000E+02  0.51100000000E-03 0. -1.
         11   -1    0    0    0    0 -0.00000000000E+00 -0.00000000000E+00 -0.45593999997E+02  0.45594000000E+02  0.51100000000E-03 0.  1.
    9900012    2    1    2    0    0 -0.45193469240E+01  0.12068951667E+02 -0.13586754531E+02  0.72461441596E+02  0.69999832347E+02 0.  0.
         12    1    1    2    0    0  0.45193469240E+01 -0.12068951667E+02  0.13586754531E+02  0.18726558404E+02  0.00000000000E+00 0. -1.
         11    1    3    3    0    0  0.12046253645E+02 -0.49777082518E+01 -0.78139721200E+01  0.15196972293E+02  0.51100000000E-03 0.  1.
        -11    1    3    3    0    0 -0.14034721956E+02  0.24676792924E+02  0.17017092018E+02  0.33098322471E+02  0.51100000000E-03 0. -1.
         12    1    3    3    0    0 -0.25308786135E+01 -0.76301330048E+01 -0.22789874429E+02  0.24166146832E+02  0.00000000000E+00 0. -1.
</event>
<event>
 7    1  0.3348003E-013  0.7246157E+02  0.7816164E-02  0.1226708E+00
        -11   -1    0    0    0    0  0.00000000000E+00  0.00000000000E+00  0.45593999997E+02  0.45594000000E+02  0.51100000000E-03 0.  1.
         11   -1    0    0    0    0 -0.00000000000E+00 -0.00000000000E+00 -0.45593999997E+02  0.45594000000E+02  0.51100000000E-03 0. -1.
    9900012    2    1    2    0    0 -0.17752682897E+02  0.25073908430E+01  0.54068741049E+01  0.72461573580E+02  0.70000004280E+02 0.  0.
         12    1    1    2    0    0  0.17752682897E+02 -0.25073908430E+01 -0.54068741049E+01  0.18726426420E+02  0.00000000000E+00 0. -1.
         11    1    3    3    0    0 -0.15356185915E+02  0.23198468515E+02 -0.21769824959E+02  0.35325722445E+02  0.51100000000E-03 0. -1.
        -11    1    3    3    0    0  0.35081968556E+01 -0.11120918408E+01  0.91964973808E+01  0.99055417709E+01  0.51100000000E-03 0.  1.
        -12    1    3    3    0    0 -0.59046938378E+01 -0.19578985831E+02  0.17980201683E+02  0.27230309364E+02  0.00000000000E+00 0.  1.
</event>
<event>
 7    1  0.3348003E-013  0.7246153E+02  0.7816164E-02  0.1226708E+00
        -11   -1    0    0    0    0  0.00000000000E+00  0.00000000000E+00  0.45593999997E+02  0.45594000000E+02  0.51100000000E-03 0. -1.
         11   -1    0    0    0    0 -0.00000000000E+00 -0.00000000000E+00 -0.45593999997E+02  0.45594000000E+02  0.51100000000E-03 0.  1.
    9900012    2    1    2    0    0 -0.18247895292E+02 -0.31941201850E+01  0.27372928072E+01  0.72461525205E+02  0.69999941263E+02 0.  0.
         12    1    1    2    0    0  0.18247895292E+02  0.31941201850E+01 -0.27372928072E+01  0.18726474795E+02  0.00000000000E+00 0. -1.
         11    1    3    3    0    0  0.18753715207E+00 -0.10548440923E+02  0.11477947269E+02  0.15589998392E+02  0.51100000000E-03 0. -1.
        -11    1    3    3    0    0 -0.35758575771E+02  0.12867222038E+02 -0.64939290331E+01  0.38554017413E+02  0.51100000000E-03 0.  1.
         12    1    3    3    0    0  0.17323143327E+02 -0.55129013006E+01 -0.22467254289E+01  0.18317509400E+02  0.00000000000E+00 0. -1.
</event>
<event>
 7    1  0.3348003E-013  0.7246178E+02  0.7816164E-02  0.1226707E+00
        -11   -1    0    0    0    0  0.00000000000E+00  0.00000000000E+00  0.45593999997E+02  0.45594000000E+02  0.51100000000E-03 0.  1.
         11   -1    0    0    0    0 -0.00000000000E+00 -0.00000000000E+00 -0.45593999997E+02  0.45594000000E+02  0.51100000000E-03 0. -1.
    9900012    2    1    2    0    0  0.26120377375E+01  0.15616876916E+02 -0.99980921405E+01  0.72461776884E+02  0.70000269121E+02 0.  0.
         12    1    1    2    0    0 -0.26120377375E+01 -0.15616876916E+02  0.99980921405E+01  0.18726223116E+02  0.00000000000E+00 0. -1.
         11    1    3    3    0    0  0.28795224756E+01  0.46097462862E+01  0.91638152307E+00  0.55119112717E+01  0.51100000000E-03 0. -1.
        -11    1    3    3    0    0  0.30053378669E+02  0.87993776662E+01  0.64021226403E+01  0.31962818888E+02  0.51100000000E-03 0.  1.
         12    1    3    3    0    0 -0.30320863407E+02  0.22077529635E+01 -0.17316596304E+02  0.34987046724E+02  0.00000000000E+00 0. -1.
</event>
<event>
 7    1  0.3348003E-013  0.7246157E+02  0.7816164E-02  0.1226708E+00
        -11   -1    0    0    0    0  0.00000000000E+00  0.00000000000E+00  0.45593999997E+02  0.45594000000E+02  0.51100000000E-03 0.  1.
         11   -1    0    0    0    0 -0.00000000000E+00 -0.00000000000E+00 -0.45593999997E+02  0.45594000000E+02  0.51100000000E-03 0. -1.
    9900012    2    1    2    0    0 -0.56458589075E+01 -0.46970620886E+01  0.17226172612E+02  0.72461571138E+02  0.70000001099E+02 0.  0.
         12    1    1    2    0    0  0.56458589075E+01  0.46970620886E+01 -0.17226172612E+02  0.18726428862E+02  0.00000000000E+00 0. -1.
         11    1    3    3    0    0 -0.76389192660E+01  0.22511534129E+02 -0.10235644118E+02  0.25882246177E+02  0.51100000000E-03 0. -1.
        -11    1    3    3    0    0 -0.84127402888E+01 -0.41238465988E+00  0.94400505726E+01  0.12651435308E+02  0.51100000000E-03 0.  1.
        -12    1    3    3    0    0  0.10405800647E+02 -0.26796211557E+02  0.18021766157E+02  0.33927889654E+02  0.00000000000E+00 0.  1.
</event>
<event>
 7    1  0.3348003E-013  0.7246194E+02  0.7816164E-02  0.1226707E+00
        -11   -1    0    0    0    0  0.00000000000E+00  0.00000000000E+00  0.45593999997E+02  0.45594000000E+02  0.51100000000E-03 0. -1.
         11   -1    0    0    0    0 -0.00000000000E+00 -0.00000000000E+00 -0.45593999997E+02  0.45594000000E+02  0.51100000000E-03 0.  1.
    9900012    2    1    2    0    0 -0.10256800265E+01  0.75931880198E+01 -0.17086744798E+02  0.72461938705E+02  0.70000479922E+02 0.  0.
         12    1    1    2    0    0  0.10256800265E+01 -0.75931880198E+01  0.17086744798E+02  0.18726061295E+02  0.00000000000E+00 0. -1.
         11    1    3    3    0    0 -0.85604191916E+01  0.25544262259E+01 -0.26007603706E+02  0.27499114911E+02  0.51100000000E-03 0. -1.
        -11    1    3    3    0    0  0.66900233056E+01 -0.25305929401E+01 -0.16735453439E+02  0.18199882267E+02  0.51100000000E-03 0.  1.
         12    1    3    3    0    0  0.84471585948E+00  0.75693547340E+01  0.25656312347E+02  0.26762941528E+02  0.00000000000E+00 0. -1.
</event>
<event>
 7    1  0.3348003E-013  0.7246157E+02  0.7816164E-02  0.1226708E+00
        -11   -1    0    0    0    0  0.00000000000E+00  0.00000000000E+00  0.45593999997E+02  0.45594000000E+02  0.51100000000E-03 0. -1.
         11   -1    0    0    0    0 -0.00000000000E+00 -0.00000000000E+00 -0.45593999997E+02  0.45594000000E+02  0.51100000000E-03 0.  1.
    9900012    2    1    2    0    0  0.91656148427E+01  0.32961811975E+01 -0.15993933652E+02  0.72461568957E+02  0.69999998258E+02 0.  0.
         12    1    1    2    0    0 -0.91656148427E+01 -0.32961811975E+01  0.15993933652E+02  0.18726431043E+02  0.00000000000E+00 0. -1.
         11    1    3    3    0    0  0.17121527364E+01 -0.16969647780E+02 -0.16546578969E+02  0.23763200303E+02  0.51100000000E-03 0. -1.
        -11    1    3    3    0    0  0.25750122976E+02  0.10511894341E+02 -0.15599829783E+01  0.27856817892E+02  0.51100000000E-03 0.  1.
        -12    1    3    3    0    0 -0.18296660869E+02  0.97539346371E+01  0.21126282953E+01  0.20841550763E+02  0.00000000000E+00 0.  1.
</event>
<event>
 7    1  0.3348003E-013  0.7246157E+02  0.7816164E-02  0.1226708E+00
        -11   -1    0    0    0    0  0.00000000000E+00  0.00000000000E+00  0.45593999997E+02  0.45594000000E+02  0.51100000000E-03 0.  1.
         11   -1    0    0    0    0 -0.00000000000E+00 -0.00000000000E+00 -0.45593999997E+02  0.45594000000E+02  0.51100000000E-03 0. -1.
    9900012    2    1    2    0    0  0.68196640688E+01  0.46472037874E+01  0.16809958893E+02  0.72461573778E+02  0.70000004538E+02 0.  0.
         12    1    1    2    0    0 -0.68196640688E+01 -0.46472037874E+01 -0.16809958893E+02  0.18726426222E+02  0.00000000000E+00 0. -1.
         11    1    3    3    0    0 -0.14980039311E+02  0.12365911856E+02 -0.45014243802E+01  0.19939412617E+02  0.51100000000E-03 0. -1.
        -11    1    3    3    0    0  0.38395868181E+01  0.16970051634E+02  0.91556438634E+01  0.19660897594E+02  0.51100000000E-03 0.  1.
        -12    1    3    3    0    0  0.17960116562E+02 -0.24688759703E+02  0.12155739410E+02  0.32861263567E+02  0.00000000000E+00 0.  1.
</event>
<event>
 7    1  0.3348003E-013  0.7246168E+02  0.7816164E-02  0.1226708E+00
        -11   -1    0    0    0    0  0.00000000000E+00  0.00000000000E+00  0.45593999997E+02  0.45594000000E+02  0.51100000000E-03 0. -1.
         11   -1    0    0    0    0 -0.00000000000E+00 -0.00000000000E+00 -0.45593999997E+02  0.45594000000E+02  0.51100000000E-03 0.  1.
    9900012    2    1    2    0    0 -0.20158999132E+01  0.44518181895E+01 -0.18077406743E+02  0.72461677024E+02  0.70000139035E+02 0.  0.
         12    1    1    2    0    0  0.20158999132E+01 -0.44518181895E+01  0.18077406743E+02  0.18726322976E+02  0.00000000000E+00 0. -1.
         11    1    3    3    0    0  0.17196610837E+02 -0.43094773844E+01 -0.13162399304E+02  0.22080393459E+02  0.51100000000E-03 0. -1.
        -11    1    3    3    0    0  0.14637629537E+02  0.47067620961E+00 -0.51663653393E+01  0.15529747764E+02  0.51100000000E-03 0.  1.
         12    1    3    3    0    0 -0.33850140286E+02  0.82906193643E+01  0.25135790043E+00  0.34851535800E+02  0.00000000000E+00 0. -1.
</event>
<event>
 7    1  0.3348003E-013  0.7246154E+02  0.7816164E-02  0.1226708E+00
        -11   -1    0    0    0    0  0.00000000000E+00  0.00000000000E+00  0.45593999997E+02  0.45594000000E+02  0.51100000000E-03 0.  1.
         11   -1    0    0    0    0 -0.00000000000E+00 -0.00000000000E+00 -0.45593999997E+02  0.45594000000E+02  0.51100000000E-03 0. -1.
    9900012    2    1    2    0    0 -0.11033458104E+02 -0.43163510328E+01  0.14502144496E+02  0.72461540672E+02  0.69999961412E+02 0.  0.
         12    1    1    2    0    0  0.11033458104E+02  0.43163510328E+01 -0.14502144496E+02  0.18726459328E+02  0.00000000000E+00 0. -1.
         11    1    3    3    0    0 -0.54682388001E+01  0.52637214802E+01  0.13040272754E+02  0.15088310480E+02  0.51100000000E-03 0. -1.
        -11    1    3    3    0    0  0.46298858931E+01  0.22047510888E+02 -0.60039399376E+01  0.23314713697E+02  0.51100000000E-03 0.  1.
         12    1    3    3    0    0 -0.10195105197E+02 -0.31627583401E+02  0.74658116799E+01  0.34058516495E+02  0.00000000000E+00 0. -1.
</event>
<event>
 7    1  0.3348003E-013  0.7246155E+02  0.7816164E-02  0.1226708E+00
        -11   -1    0    0    0    0  0.00000000000E+00  0.00000000000E+00  0.45593999997E+02  0.45594000000E+02  0.51100000000E-03 0. -1.
         11   -1    0    0    0    0 -0.00000000000E+00 -0.00000000000E+00 -0.45593999997E+02  0.45594000000E+02  0.51100000000E-03 0.  1.
    9900012    2    1    2    0    0  0.93947866307E+01  0.89640107696E+01  0.13493129693E+02  0.72461546684E+02  0.69999969243E+02 0.  0.
         12    1    1    2    0    0 -0.93947866307E+01 -0.89640107696E+01 -0.13493129693E+02  0.18726453316E+02  0.00000000000E+00 0. -1.
         11    1    3    3    0    0 -0.41028177624E+01 -0.17806825568E+02 -0.15701245044E+02  0.24092431314E+02  0.51100000000E-03 0. -1.
        -11    1    3    3    0    0 -0.43646000679E+00 -0.15724276900E+01  0.12574438147E+02  0.12679886480E+02  0.51100000000E-03 0.  1.
        -12    1    3    3    0    0  0.13934064400E+02  0.28343264028E+02  0.16619936590E+02  0.35689228890E+02  0.00000000000E+00 0.  1.
</event>
<event>
 7    1  0.3348003E-013  0.7246155E+02  0.7816164E-02  0.1226708E+00
        -11   -1    0    0    0    0  0.00000000000E+00  0.00000000000E+00  0.45593999997E+02  0.45594000000E+02  0.51100000000E-03 0.  1.
         11   -1    0    0    0    0 -0.00000000000E+00 -0.00000000000E+00 -0.45593999997E+02  0.45594000000E+02  0.51100000000E-03 0. -1.
    9900012    2    1    2    0    0  0.37950496596E+01 -0.41722549765E+01  0.17856931038E+02  0.72461545461E+02  0.69999967649E+02 0.  0.
         12    1    1    2    0    0 -0.37950496596E+01  0.41722549765E+01 -0.17856931038E+02  0.18726454539E+02  0.00000000000E+00 0. -1.
         11    1    3    3    0    0 -0.68931678708E+00  0.30675267587E+01 -0.99641100360E+01  0.10448366720E+02  0.51100000000E-03 0. -1.
        -11    1    3    3    0    0 -0.42091661480E+01 -0.41439085452E+00  0.43016064082E+02  0.43223495564E+02  0.51100000000E-03 0.  1.
         12    1    3    3    0    0  0.86935325947E+01 -0.68253908807E+01 -0.15195023008E+02  0.18789683176E+02  0.00000000000E+00 0. -1.
</event>
<event>
 7    1  0.3348003E-013  0.7246157E+02  0.7816164E-02  0.1226708E+00
        -11   -1    0    0    0    0  0.00000000000E+00  0.00000000000E+00  0.45593999997E+02  0.45594000000E+02  0.51100000000E-03 0. -1.
         11   -1    0    0    0    0 -0.00000000000E+00 -0.00000000000E+00 -0.45593999997E+02  0.45594000000E+02  0.51100000000E-03 0.  1.
    9900012    2    1    2    0    0  0.92138731702E+00  0.16575722998E+02  0.86646148820E+01  0.72461572189E+02  0.70000002468E+02 0.  0.
         12    1    1    2    0    0 -0.92138731702E+00 -0.16575722998E+02 -0.86646148820E+01  0.18726427811E+02  0.00000000000E+00 0. -1.
         11    1    3    3    0    0  0.73327412001E+00 -0.98424175759E+01  0.23867847795E+02  0.25827989339E+02  0.51100000000E-03 0. -1.
        -11    1    3    3    0    0  0.66033991127E+01 -0.55007151806E+01  0.32760828300E+01  0.91975793723E+01  0.51100000000E-03 0.  1.
        -12    1    3    3    0    0 -0.64152859156E+01  0.31918855755E+02 -0.18479315743E+02  0.37436003478E+02  0.00000000000E+00 0.  1.
</event>
<event>
 7    1  0.3348003E-013  0.7246155E+02  0.7816164E-02  0.1226708E+00
        -11   -1    0    0    0    0  0.00000000000E+00  0.00000000000E+00  0.45593999997E+02  0.45594000000E+02  0.51100000000E-03 0. -1.
         11   -1    0    0    0    0 -0.00000000000E+00 -0.00000000000E+00 -0.45593999997E+02  0.45594000000E+02  0.51100000000E-03 0.  1.
    9900012    2    1    2    0    0  0.12028451158E+02  0.13821728484E+02 -0.38673151999E+01  0.72461549658E+02  0.69999973118E+02 0.  0.
         12    1    1    2    0    0 -0.12028451158E+02 -0.13821728484E+02  0.38673151999E+01  0.18726450342E+02  0.00000000000E+00 0. -1.
         11    1    3    3    0    0  0.12325187091E+02  0.13952596427E+02  0.25130310632E+01  0.18785646363E+02  0.51100000000E-03 0. -1.
        -11    1    3    3    0    0  0.25158984989E+02 -0.83977970843E+01 -0.36219382397E+01  0.26769683569E+02  0.51100000000E-03 0.  1.
         12    1    3    3    0    0 -0.25455720923E+02  0.82669291417E+01 -0.27584080234E+01  0.26906219726E+02  0.00000000000E+00 0. -1.
</event>
<event>
 7    1  0.3348003E-013  0.7246158E+02  0.7816164E-02  0.1226708E+00
        -11   -1    0    0    0    0  0.00000000000E+00  0.00000000000E+00  0.45593999997E+02  0.45594000000E+02  0.51100000000E-03 0. -1.
         11   -1    0    0    0    0 -0.00000000000E+00 -0.00000000000E+00 -0.45593999997E+02  0.45594000000E+02  0.51100000000E-03 0.  1.
    9900012    2    1    2    0    0 -0.10125152795E+02  0.14311826779E+02 -0.65826876967E+01  0.72461577966E+02  0.70000009994E+02 0.  0.
         12    1    1    2    0    0  0.10125152795E+02 -0.14311826779E+02  0.65826876967E+01  0.18726422034E+02  0.00000000000E+00 0. -1.
         11    1    3    3    0    0  0.98702829005E+01  0.15635163956E+02 -0.88886572605E+01  0.20515581021E+02  0.51100000000E-03 0. -1.
        -11    1    3    3    0    0  0.74813605978E+01  0.16394935963E+02 -0.44466726032E+01  0.18561723495E+02  0.51100000000E-03 0.  1.
         12    1    3    3    0    0 -0.27476796293E+02 -0.17718273139E+02  0.67526421671E+01  0.33384273451E+02  0.00000000000E+00 0. -1.
</event>
<event>
 7    1  0.3348003E-013  0.7246154E+02  0.7816164E-02  0.1226708E+00
        -11   -1    0    0    0    0  0.00000000000E+00  0.00000000000E+00  0.45593999997E+02  0.45594000000E+02  0.51100000000E-03 0.  1.
         11   -1    0    0    0    0 -0.00000000000E+00 -0.00000000000E+00 -0.45593999997E+02  0.45594000000E+02  0.51100000000E-03 0. -1.
    9900012    2    1    2    0    0  0.88935827424E+01 -0.16447664348E+02 -0.10289493933E+01  0.72461542424E+02  0.69999963694E+02 0.  0.
         12    1    1    2    0    0 -0.88935827424E+01  0.16447664348E+02  0.10289493933E+01  0.18726457576E+02  0.00000000000E+00 0. -1.
         11    1    3    3    0    0  0.11824287624E+02  0.65982927759E+01 -0.78263999782E+01  0.15639814010E+02  0.51100000000E-03 0. -1.
        -11    1    3    3    0    0  0.10103630841E+02 -0.12621882418E+02  0.26473813382E+02  0.31020284770E+02  0.51100000000E-03 0.  1.
         12    1    3    3    0    0 -0.13034335723E+02 -0.10424074706E+02 -0.19676362797E+02  0.25801443644E+02  0.00000000000E+00 0. -1.
</event>
<event>
 7    1  0.3348003E-013  0.7246161E+02  0.7816164E-02  0.1226708E+00
        -11   -1    0    0    0    0  0.00000000000E+00  0.00000000000E+00  0.45593999997E+02  0.45594000000E+02  0.51100000000E-03 0. -1.
         11   -1    0    0    0    0 -0.00000000000E+00 -0.00000000000E+00 -0.45593999997E+02  0.45594000000E+02  0.51100000000E-03 0.  1.
    9900012    2    1    2    0    0 -0.16113598953E+02  0.44531831525E+01 -0.84379374401E+01  0.72461609541E+02  0.70000051125E+02 0.  0.
         12    1    1    2    0    0  0.16113598953E+02 -0.44531831525E+01  0.84379374401E+01  0.18726390459E+02  0.00000000000E+00 0. -1.
         11    1    3    3    0    0 -0.11806027591E+02  0.39901546626E+01  0.72828609400E+01  0.14434115333E+02  0.51100000000E-03 0. -1.
        -11    1    3    3    0    0  0.64660270825E+01 -0.16915969402E+02 -0.28607627635E+02  0.33857877757E+02  0.51100000000E-03 0.  1.
         12    1    3    3    0    0 -0.10773598445E+02  0.17378997892E+02  0.12886829255E+02  0.24169616451E+02  0.00000000000E+00 0. -1.
</event>
<event>
 7    1  0.3348003E-013  0.7246159E+02  0.7816164E-02  0.1226708E+00
        -11   -1    0    0    0    0  0.00000000000E+00  0.00000000000E+00  0.45593999997E+02  0.45594000000E+02  0.51100000000E-03 0.  1.
         11   -1    0    0    0    0 -0.00000000000E+00 -0.00000000000E+00 -0.45593999997E+02  0.45594000000E+02  0.51100000000E-03 0. -1.
    9900012    2    1    2    0    0  0.37571200764E+00  0.18692447674E+02  0.10629403324E+01  0.72461585456E+02  0.70000019750E+02 0.  0.
         12    1    1    2    0    0 -0.37571200764E+00 -0.18692447674E+02 -0.10629403324E+01  0.18726414544E+02  0.00000000000E+00 0. -1.
         11    1    3    3    0    0 -0.28510284022E+02  0.79096983724E+01  0.91209655169E+01  0.30961131045E+02  0.51100000000E-03 0. -1.
        -11    1    3    3    0    0 -0.22468377096E+00 -0.15985950510E-01  0.69923579957E+01  0.69959852021E+01  0.51100000000E-03 0.  1.
         12    1    3    3    0    0  0.29110679801E+02  0.10798735252E+02 -0.15050383180E+02  0.34504469209E+02  0.00000000000E+00 0. -1.
</event>
<event>
 7    1  0.3348003E-013  0.7246159E+02  0.7816164E-02  0.1226708E+00
        -11   -1    0    0    0    0  0.00000000000E+00  0.00000000000E+00  0.45593999997E+02  0.45594000000E+02  0.51100000000E-03 0. -1.
         11   -1    0    0    0    0 -0.00000000000E+00 -0.00000000000E+00 -0.45593999997E+02  0.45594000000E+02  0.51100000000E-03 0.  1.
    9900012    2    1    2    0    0  0.79665119957E+01  0.46563893109E+01 -0.16295131020E+02  0.72461586308E+02  0.70000020861E+02 0.  0.
         12    1    1    2    0    0 -0.79665119957E+01 -0.46563893109E+01  0.16295131020E+02  0.18726413692E+02  0.00000000000E+00 0. -1.
         11    1    3    3    0    0  0.93743576993E+00 -0.80838196585E+01 -0.61127215018E+01  0.10178029795E+02  0.51100000000E-03 0. -1.
        -11    1    3    3    0    0 -0.40817007883E+01 -0.20060737963E+02 -0.17447437820E+02  0.26898077546E+02  0.51100000000E-03 0.  1.
         12    1    3    3    0    0  0.11110777014E+02  0.32800946932E+02  0.72650283022E+01  0.35385478967E+02  0.00000000000E+00 0. -1.
</event>
<event>
 7    1  0.3348003E-013  0.7246162E+02  0.7816164E-02  0.1226708E+00
        -11   -1    0    0    0    0  0.00000000000E+00  0.00000000000E+00  0.45593999997E+02  0.45594000000E+02  0.51100000000E-03 0.  1.
         11   -1    0    0    0    0 -0.00000000000E+00 -0.00000000000E+00 -0.45593999997E+02  0.45594000000E+02  0.51100000000E-03 0. -1.
    9900012    2    1    2    0    0  0.15431794271E+02  0.35527444294E+01  0.99957579692E+01  0.72461616346E+02  0.70000059990E+02 0.  0.
         12    1    1    2    0    0 -0.15431794271E+02 -0.35527444294E+01 -0.99957579692E+01  0.18726383654E+02  0.00000000000E+00 0. -1.
         11    1    3    3    0    0 -0.15358781302E+01  0.11660404772E+02  0.14853346868E+01  0.11854542609E+02  0.51100000000E-03 0. -1.
        -11    1    3    3    0    0 -0.16145595335E+02 -0.81044485722E+01 -0.11970736368E+02  0.21671660408E+02  0.51100000000E-03 0.  1.
         12    1    3    3    0    0  0.33113267736E+02 -0.32117703355E-02  0.20481159651E+02  0.38935413329E+02  0.00000000000E+00 0. -1.
</event>
<event>
 7    1  0.3348003E-013  0.7246159E+02  0.7816164E-02  0.1226708E+00
        -11   -1    0    0    0    0  0.00000000000E+00  0.00000000000E+00  0.45593999997E+02  0.45594000000E+02  0.51100000000E-03 0.  1.
         11   -1    0    0    0    0 -0.00000000000E+00 -0.00000000000E+00 -0.45593999997E+02  0.45594000000E+02  0.51100000000E-03 0. -1.
    9900012    2    1    2    0    0 -0.31651534937E+01 -0.12430869332E+02  0.13643080390E+02  0.72461592135E+02  0.70000028452E+02 0.  0.
         12    1    1    2    0    0  0.31651534937E+01  0.12430869332E+02 -0.13643080390E+02  0.18726407865E+02  0.00000000000E+00 0. -1.
         11    1    3    3    0    0  0.20572622513E+02 -0.40331012889E+01  0.36877299847E+01  0.21286100060E+02  0.51100000000E-03 0. -1.
        -11    1    3    3    0    0  0.56756977380E+01 -0.16474208590E+02  0.11086369790E+02  0.20652377318E+02  0.51100000000E-03 0.  1.
        -12    1    3    3    0    0 -0.29413473745E+02  0.80764405475E+01 -0.11310193839E+01  0.30523114757E+02  0.00000000000E+00 0.  1.
</event>
<event>
 7    1  0.3348003E-013  0.7246155E+02  0.7816164E-02  0.1226708E+00
        -11   -1    0    0    0    0  0.00000000000E+00  0.00000000000E+00  0.45593999997E+02  0.45594000000E+02  0.51100000000E-03 0. -1.
         11   -1    0    0    0    0 -0.00000000000E+00 -0.00000000000E+00 -0.45593999997E+02  0.45594000000E+02  0.51100000000E-03 0.  1.
    9900012    2    1    2    0    0 -0.14890644853E+02 -0.44437319290E+01 -0.10449966140E+02  0.72461552128E+02  0.69999976335E+02 0.  0.
         12    1    1    2    0    0  0.14890644853E+02  0.44437319290E+01  0.10449966140E+02  0.18726447872E+02  0.00000000000E+00 0. -1.
         11    1    3    3    0    0 -0.38525692922E+01 -0.54289748636E+01  0.13164122853E+02  0.14751616486E+02  0.51100000000E-03 0. -1.
        -11    1    3    3    0    0 -0.30732784527E+02 -0.67850334173E+01 -0.13499299784E+02  0.34245756206E+02  0.51100000000E-03 0.  1.
         12    1    3    3    0    0  0.19694708966E+02  0.77702763519E+01 -0.10114789208E+02  0.23464179435E+02  0.00000000000E+00 0. -1.
</event>
<event>
 7    1  0.3348003E-013  0.7246158E+02  0.7816164E-02  0.1226708E+00
        -11   -1    0    0    0    0  0.00000000000E+00  0.00000000000E+00  0.45593999997E+02  0.45594000000E+02  0.51100000000E-03 0.  1.
         11   -1    0    0    0    0 -0.00000000000E+00 -0.00000000000E+00 -0.45593999997E+02  0.45594000000E+02  0.51100000000E-03 0. -1.
    9900012    2    1    2    0    0 -0.19245884210E+01 -0.46021923855E+00  0.18621570248E+02  0.72461582275E+02  0.70000015607E+02 0.  0.
         12    1    1    2    0    0  0.19245884210E+01  0.46021923855E+00 -0.18621570248E+02  0.18726417725E+02  0.00000000000E+00 0. -1.
         11    1    3    3    0    0 -0.16954641579E+02 -0.15512267073E+02  0.26897695560E+01  0.23137094920E+02  0.51100000000E-03 0. -1.
        -11    1    3    3    0    0 -0.20017757805E+01  0.25683896165E+01 -0.13058615784E+02  0.13458498355E+02  0.51100000000E-03 0.  1.
        -12    1    3    3    0    0  0.17031828939E+02  0.12483658217E+02  0.28990416476E+02  0.35865989000E+02  0.00000000000E+00 0.  1.
</event>
<event>
 7    1  0.3348003E-013  0.7246158E+02  0.7816164E-02  0.1226708E+00
        -11   -1    0    0    0    0  0.00000000000E+00  0.00000000000E+00  0.45593999997E+02  0.45594000000E+02  0.51100000000E-03 0. -1.
         11   -1    0    0    0    0 -0.00000000000E+00 -0.00000000000E+00 -0.45593999997E+02  0.45594000000E+02  0.51100000000E-03 0.  1.
    9900012    2    1    2    0    0 -0.11299296449E+02  0.13560784839E+02 -0.62537753728E+01  0.72461583042E+02  0.70000016606E+02 0.  0.
         12    1    1    2    0    0  0.11299296449E+02 -0.13560784839E+02  0.62537753728E+01  0.18726416958E+02  0.00000000000E+00 0. -1.
         11    1    3    3    0    0  0.19430108058E+02 -0.12498429425E+01 -0.15673143812E+01  0.19533245535E+02  0.51100000000E-03 0. -1.
        -11    1    3    3    0    0  0.93107777078E+01  0.63368558379E+01  0.20586732598E+01  0.11449212169E+02  0.51100000000E-03 0.  1.
         12    1    3    3    0    0 -0.40040182214E+02  0.84737719435E+01 -0.67451342514E+01  0.41479125338E+02  0.00000000000E+00 0. -1.
</event>
<event>
 7    1  0.3348003E-013  0.7246153E+02  0.7816164E-02  0.1226708E+00
        -11   -1    0    0    0    0  0.00000000000E+00  0.00000000000E+00  0.45593999997E+02  0.45594000000E+02  0.51100000000E-03 0. -1.
         11   -1    0    0    0    0 -0.00000000000E+00 -0.00000000000E+00 -0.45593999997E+02  0.45594000000E+02  0.51100000000E-03 0.  1.
    9900012    2    1    2    0    0  0.94954755617E+01 -0.94898746792E+01 -0.13055992044E+02  0.72461529275E+02  0.69999946564E+02 0.  0.
         12    1    1    2    0    0 -0.94954755617E+01  0.94898746792E+01  0.13055992044E+02  0.18726470725E+02  0.00000000000E+00 0. -1.
         11    1    3    3    0    0 -0.91368530313E+01 -0.17436466089E+02 -0.12138500913E+02  0.23126946138E+02  0.51100000000E-03 0. -1.
        -11    1    3    3    0    0  0.44959846312E+00 -0.17674966539E+02 -0.26048662022E+01  0.17871539081E+02  0.51100000000E-03 0.  1.
         12    1    3    3    0    0  0.18182730130E+02  0.25621557948E+02  0.16873750712E+01  0.31463044056E+02  0.00000000000E+00 0. -1.
</event>
<event>
 7    1  0.3348003E-013  0.7246165E+02  0.7816164E-02  0.1226708E+00
        -11   -1    0    0    0    0  0.00000000000E+00  0.00000000000E+00  0.45593999997E+02  0.45594000000E+02  0.51100000000E-03 0. -1.
         11   -1    0    0    0    0 -0.00000000000E+00 -0.00000000000E+00 -0.45593999997E+02  0.45594000000E+02  0.51100000000E-03 0.  1.
    9900012    2    1    2    0    0 -0.10429272190E+02 -0.19938712635E+01  0.15425004429E+02  0.72461654851E+02  0.70000110150E+02 0.  0.
         12    1    1    2    0    0  0.10429272190E+02  0.19938712635E+01 -0.15425004429E+02  0.18726345149E+02  0.00000000000E+00 0. -1.
         11    1    3    3    0    0 -0.10679881297E+02  0.19032098889E+02  0.22082854791E+01  0.21935295249E+02  0.51100000000E-03 0. -1.
        -11    1    3    3    0    0  0.14717807499E+02  0.27725386721E+01 -0.65780704924E+01  0.16357623297E+02  0.51100000000E-03 0.  1.
        -12    1    3    3    0    0 -0.14467198392E+02 -0.23798508825E+02  0.19794789442E+02  0.34168736304E+02  0.00000000000E+00 0.  1.
</event>
<event>
 7    1  0.3348003E-013  0.7246153E+02  0.7816164E-02  0.1226708E+00
        -11   -1    0    0    0    0  0.00000000000E+00  0.00000000000E+00  0.45593999997E+02  0.45594000000E+02  0.51100000000E-03 0.  1.
         11   -1    0    0    0    0 -0.00000000000E+00 -0.00000000000E+00 -0.45593999997E+02  0.45594000000E+02  0.51100000000E-03 0. -1.
    9900012    2    1    2    0    0 -0.12838373373E+02 -0.12632357639E+02 -0.51264263990E+01  0.72461533756E+02  0.69999952401E+02 0.  0.
         12    1    1    2    0    0  0.12838373373E+02  0.12632357639E+02  0.51264263990E+01  0.18726466244E+02  0.00000000000E+00 0. -1.
         11    1    3    3    0    0 -0.14731569521E+02 -0.88860281433E+01 -0.10171042409E+02  0.19985763450E+02  0.51100000000E-03 0. -1.
        -11    1    3    3    0    0 -0.15890122119E+01 -0.25206144184E+02  0.14099165740E+02  0.28925095319E+02  0.51100000000E-03 0.  1.
         12    1    3    3    0    0  0.34822083606E+01  0.21459814688E+02 -0.90545497300E+01  0.23550674986E+02  0.00000000000E+00 0. -1.
</event>
<event>
 7    1  0.3348003E-013  0.7246162E+02  0.7816164E-02  0.1226708E+00
        -11   -1    0    0    0    0  0.00000000000E+00  0.00000000000E+00  0.45593999997E+02  0.45594000000E+02  0.51100000000E-03 0.  1.
         11   -1    0    0    0    0 -0.00000000000E+00 -0.00000000000E+00 -0.45593999997E+02  0.45594000000E+02  0.51100000000E-03 0. -1.
    9900012    2    1    2    0    0  0.72740231841E+01  0.16954566511E+02  0.32107069383E+01  0.72461618131E+02  0.70000062316E+02 0.  0.
         12    1    1    2    0    0 -0.72740231841E+01 -0.16954566511E+02 -0.32107069383E+01  0.18726381869E+02  0.00000000000E+00 0. -1.
         11    1    3    3    0    0 -0.12591877783E+01 -0.10879902115E+02  0.18913162483E+01  0.11114625559E+02  0.51100000000E-03 0. -1.
        -11    1    3    3    0    0 -0.11340747182E+02  0.40679782531E+01  0.21307315052E+02  0.24477799507E+02  0.51100000000E-03 0.  1.
        -12    1    3    3    0    0  0.19873958144E+02  0.23766490373E+02 -0.19987924362E+02  0.36869193065E+02  0.00000000000E+00 0.  1.
</event>
<event>
 7    1  0.3348003E-013  0.7246159E+02  0.7816164E-02  0.1226708E+00
        -11   -1    0    0    0    0  0.00000000000E+00  0.00000000000E+00  0.45593999997E+02  0.45594000000E+02  0.51100000000E-03 0. -1.
         11   -1    0    0    0    0 -0.00000000000E+00 -0.00000000000E+00 -0.45593999997E+02  0.45594000000E+02  0.51100000000E-03 0.  1.
    9900012    2    1    2    0    0  0.86154858049E+01 -0.35602364370E+00 -0.16623029493E+02  0.72461589292E+02  0.70000024748E+02 0.  0.
         12    1    1    2    0    0 -0.86154858049E+01  0.35602364370E+00  0.16623029493E+02  0.18726410708E+02  0.00000000000E+00 0. -1.
         11    1    3    3    0    0  0.96843597203E+00 -0.97330834056E+01 -0.79399835723E+01  0.12598179242E+02  0.51100000000E-03 0. -1.
        -11    1    3    3    0    0  0.87532348804E+00 -0.24205893683E+02 -0.82937997270E+01  0.25602316192E+02  0.51100000000E-03 0.  1.
         12    1    3    3    0    0  0.67717263449E+01  0.33582953445E+02 -0.38924619333E+00  0.34261093859E+02  0.00000000000E+00 0. -1.
</event>
<event>
 7    1  0.3348003E-013  0.7246159E+02  0.7816164E-02  0.1226708E+00
        -11   -1    0    0    0    0  0.00000000000E+00  0.00000000000E+00  0.45593999997E+02  0.45594000000E+02  0.51100000000E-03 0.  1.
         11   -1    0    0    0    0 -0.00000000000E+00 -0.00000000000E+00 -0.45593999997E+02  0.45594000000E+02  0.51100000000E-03 0. -1.
    9900012    2    1    2    0    0  0.39971091651E+01 -0.12331580441E+02  0.13514205456E+02  0.72461587985E+02  0.70000023045E+02 0.  0.
         12    1    1    2    0    0 -0.39971091651E+01  0.12331580441E+02 -0.13514205456E+02  0.18726412015E+02  0.00000000000E+00 0. -1.
         11    1    3    3    0    0  0.11106767810E+02  0.17432135367E+02 -0.38921639094E+01  0.21033035320E+02  0.51100000000E-03 0. -1.
        -11    1    3    3    0    0 -0.20103595572E+02 -0.13499174976E+02 -0.11977109121E+00  0.24215627709E+02  0.51100000000E-03 0.  1.
        -12    1    3    3    0    0  0.12993936927E+02 -0.16264540831E+02  0.17526140457E+02  0.27212924955E+02  0.00000000000E+00 0.  1.
</event>
<event>
 7    1  0.3348003E-013  0.7246158E+02  0.7816164E-02  0.1226708E+00
        -11   -1    0    0    0    0  0.00000000000E+00  0.00000000000E+00  0.45593999997E+02  0.45594000000E+02  0.51100000000E-03 0. -1.
         11   -1    0    0    0    0 -0.00000000000E+00 -0.00000000000E+00 -0.45593999997E+02  0.45594000000E+02  0.51100000000E-03 0.  1.
    9900012    2    1    2    0    0 -0.32598952670E+01  0.18039198341E+02 -0.38261207825E+01  0.72461580316E+02  0.70000013056E+02 0.  0.
         12    1    1    2    0    0  0.32598952670E+01 -0.18039198341E+02  0.38261207825E+01  0.18726419684E+02  0.00000000000E+00 0. -1.
         11    1    3    3    0    0  0.45777514134E+01 -0.21592513288E+02 -0.31891423944E+01  0.22301638226E+02  0.51100000000E-03 0. -1.
        -11    1    3    3    0    0  0.10975484414E+02  0.11740967789E+02 -0.33167457076E+01  0.16410739931E+02  0.51100000000E-03 0.  1.
        -12    1    3    3    0    0 -0.18813131094E+02  0.27890743839E+02  0.26797673195E+01  0.33749202159E+02  0.00000000000E+00 0.  1.
</event>
<event>
 7    1  0.3348003E-013  0.7246156E+02  0.7816164E-02  0.1226708E+00
        -11   -1    0    0    0    0  0.00000000000E+00  0.00000000000E+00  0.45593999997E+02  0.45594000000E+02  0.51100000000E-03 0. -1.
         11   -1    0    0    0    0 -0.00000000000E+00 -0.00000000000E+00 -0.45593999997E+02  0.45594000000E+02  0.51100000000E-03 0.  1.
    9900012    2    1    2    0    0  0.43527296245E+01 -0.18213287020E+02 -0.96618739318E-01  0.72461563755E+02  0.69999991482E+02 0.  0.
         12    1    1    2    0    0 -0.43527296245E+01  0.18213287020E+02  0.96618739318E-01  0.18726436245E+02  0.00000000000E+00 0. -1.
         11    1    3    3    0    0 -0.33599512703E+01  0.15310285344E+02  0.21493896441E+02  0.26602287389E+02  0.51100000000E-03 0. -1.
        -11    1    3    3    0    0  0.91771906491E+01 -0.54981084690E+01 -0.42089747026E+00  0.10706408356E+02  0.51100000000E-03 0.  1.
        -12    1    3    3    0    0 -0.14645097543E+01 -0.28025463895E+02 -0.21169617710E+02  0.35152868010E+02  0.00000000000E+00 0.  1.
</event>
<event>
 7    1  0.3348003E-013  0.7246156E+02  0.7816164E-02  0.1226708E+00
        -11   -1    0    0    0    0  0.00000000000E+00  0.00000000000E+00  0.45593999997E+02  0.45594000000E+02  0.51100000000E-03 0.  1.
         11   -1    0    0    0    0 -0.00000000000E+00 -0.00000000000E+00 -0.45593999997E+02  0.45594000000E+02  0.51100000000E-03 0. -1.
    9900012    2    1    2    0    0  0.12684348057E+02  0.10939632908E+02  0.83732398363E+01  0.72461564163E+02  0.69999992013E+02 0.  0.
         12    1    1    2    0    0 -0.12684348057E+02 -0.10939632908E+02 -0.83732398363E+01  0.18726435837E+02  0.00000000000E+00 0. -1.
         11    1    3    3    0    0 -0.18236579843E+02  0.14692285621E+01 -0.61045563930E-01  0.18295770106E+02  0.51100000000E-03 0. -1.
        -11    1    3    3    0    0 -0.96894302187E+01  0.71657939231E+01  0.58819211005E+01  0.13410095324E+02  0.51100000000E-03 0.  1.
         12    1    3    3    0    0  0.40610358119E+02  0.23046104226E+01  0.25523642996E+01  0.40755698733E+02  0.00000000000E+00 0. -1.
</event>
<event>
 7    1  0.3348003E-013  0.7246159E+02  0.7816164E-02  0.1226708E+00
        -11   -1    0    0    0    0  0.00000000000E+00  0.00000000000E+00  0.45593999997E+02  0.45594000000E+02  0.51100000000E-03 0. -1.
         11   -1    0    0    0    0 -0.00000000000E+00 -0.00000000000E+00 -0.45593999997E+02  0.45594000000E+02  0.51100000000E-03 0.  1.
    9900012    2    1    2    0    0 -0.74432341274E+01  0.17152378717E+02  0.10356990771E+01  0.72461588103E+02  0.70000023200E+02 0.  0.
         12    1    1    2    0    0  0.74432341274E+01 -0.17152378717E+02 -0.10356990771E+01  0.18726411897E+02  0.00000000000E+00 0. -1.
         11    1    3    3    0    0  0.15024984404E+02 -0.64887827893E+01  0.42086778515E+01  0.16898740424E+02  0.51100000000E-03 0. -1.
        -11    1    3    3    0    0  0.58527224070E+01  0.87607280239E+01 -0.17564950306E+02  0.20482485069E+02  0.51100000000E-03 0.  1.
        -12    1    3    3    0    0 -0.28320940938E+02  0.14880433483E+02  0.14391971532E+02  0.35080362610E+02  0.00000000000E+00 0.  1.
</event>
<event>
 7    1  0.3348003E-013  0.7246156E+02  0.7816164E-02  0.1226708E+00
        -11   -1    0    0    0    0  0.00000000000E+00  0.00000000000E+00  0.45593999997E+02  0.45594000000E+02  0.51100000000E-03 0. -1.
         11   -1    0    0    0    0 -0.00000000000E+00 -0.00000000000E+00 -0.45593999997E+02  0.45594000000E+02  0.51100000000E-03 0.  1.
    9900012    2    1    2    0    0 -0.13441857264E+02  0.94941104246E+01 -0.89363310119E+01  0.72461556893E+02  0.69999982543E+02 0.  0.
         12    1    1    2    0    0  0.13441857264E+02 -0.94941104246E+01  0.89363310119E+01  0.18726443107E+02  0.00000000000E+00 0. -1.
         11    1    3    3    0    0 -0.26487200131E+02  0.12092066793E+02 -0.43367169487E+01  0.29438019027E+02  0.51100000000E-03 0. -1.
        -11    1    3    3    0    0  0.63325551929E+01  0.19067929355E+02 -0.24154830144E+01  0.20236643585E+02  0.51100000000E-03 0.  1.
        -12    1    3    3    0    0  0.67127876740E+01 -0.21665885723E+02 -0.21841310488E+01  0.22786894281E+02  0.00000000000E+00 0.  1.
</event>
<event>
 7    1  0.3348003E-013  0.7246159E+02  0.7816164E-02  0.1226708E+00
        -11   -1    0    0    0    0  0.00000000000E+00  0.00000000000E+00  0.45593999997E+02  0.45594000000E+02  0.51100000000E-03 0.  1.
         11   -1    0    0    0    0 -0.00000000000E+00 -0.00000000000E+00 -0.45593999997E+02  0.45594000000E+02  0.51100000000E-03 0. -1.
    9900012    2    1    2    0    0 -0.15602634462E+02 -0.10222690584E+02 -0.16530878100E+01  0.72461593397E+02  0.70000030096E+02 0.  0.
         12    1    1    2    0    0  0.15602634462E+02  0.10222690584E+02  0.16530878100E+01  0.18726406603E+02  0.00000000000E+00 0. -1.
         11    1    3    3    0    0 -0.17697248489E+02 -0.22352359319E+01 -0.93002864734E+01  0.20116764464E+02  0.51100000000E-03 0. -1.
        -11    1    3    3    0    0 -0.15451521289E+02 -0.17555752587E+02 -0.10233570853E+02  0.25528022479E+02  0.51100000000E-03 0.  1.
        -12    1    3    3    0    0  0.17546135315E+02  0.95682979347E+01  0.17880769516E+02  0.26816806454E+02  0.00000000000E+00 0.  1.
</event>
<event>
 7    1  0.3348003E-013  0.7246159E+02  0.7816164E-02  0.1226708E+00
        -11   -1    0    0    0    0  0.00000000000E+00  0.00000000000E+00  0.45593999997E+02  0.45594000000E+02  0.51100000000E-03 0.  1.
         11   -1    0    0    0    0 -0.00000000000E+00 -0.00000000000E+00 -0.45593999997E+02  0.45594000000E+02  0.51100000000E-03 0. -1.
    9900012    2    1    2    0    0 -0.50627556030E+01  0.66557942296E+01  0.16755515611E+02  0.72461590987E+02  0.70000026956E+02 0.  0.
         12    1    1    2    0    0  0.50627556030E+01 -0.66557942296E+01 -0.16755515611E+02  0.18726409013E+02  0.00000000000E+00 0. -1.
         11    1    3    3    0    0 -0.11980830657E+02  0.12424117896E+02  0.16858926110E+01  0.17341892713E+02  0.51100000000E-03 0. -1.
        -11    1    3    3    0    0  0.33751675195E+01  0.14952827800E+02 -0.12966579332E+02  0.20077624233E+02  0.51100000000E-03 0.  1.
        -12    1    3    3    0    0  0.35429075341E+01 -0.20721151466E+02  0.28036202332E+02  0.35042074041E+02  0.00000000000E+00 0.  1.
</event>
<event>
 7    1  0.3348003E-013  0.7246157E+02  0.7816164E-02  0.1226708E+00
        -11   -1    0    0    0    0  0.00000000000E+00  0.00000000000E+00  0.45593999997E+02  0.45594000000E+02  0.51100000000E-03 0. -1.
         11   -1    0    0    0    0 -0.00000000000E+00 -0.00000000000E+00 -0.45593999997E+02  0.45594000000E+02  0.51100000000E-03 0.  1.
    9900012    2    1    2    0    0 -0.14175842676E+01  0.12394214622E+02 -0.13966136319E+02  0.72461573087E+02  0.70000003638E+02 0.  0.
         12    1    1    2    0    0  0.14175842676E+01 -0.12394214622E+02  0.13966136319E+02  0.18726426913E+02  0.00000000000E+00 0. -1.
         11    1    3    3    0    0 -0.12854069140E+02 -0.11574755242E+02 -0.31329368534E+01  0.17578889213E+02  0.51100000000E-03 0. -1.
        -11    1    3    3    0    0 -0.94486172144E+01 -0.10093490981E+02 -0.21081947241E+01  0.13985685993E+02  0.51100000000E-03 0.  1.
         12    1    3    3    0    0  0.20885102087E+02  0.34062460845E+02 -0.87250047412E+01  0.40896997881E+02  0.00000000000E+00 0. -1.
</event>
<event>
 7    1  0.3348003E-013  0.7246153E+02  0.7816164E-02  0.1226708E+00
        -11   -1    0    0    0    0  0.00000000000E+00  0.00000000000E+00  0.45593999997E+02  0.45594000000E+02  0.51100000000E-03 0. -1.
         11   -1    0    0    0    0 -0.00000000000E+00 -0.00000000000E+00 -0.45593999997E+02  0.45594000000E+02  0.51100000000E-03 0.  1.
    9900012    2    1    2    0    0 -0.10944824505E+02  0.71539066742E+01 -0.13405718710E+02  0.72461525204E+02  0.69999941261E+02 0.  0.
         12    1    1    2    0    0  0.10944824505E+02 -0.71539066742E+01  0.13405718710E+02  0.18726474796E+02  0.00000000000E+00 0. -1.
         11    1    3    3    0    0  0.20069033205E+02  0.22188132751E+02 -0.58041889950E+01  0.30475694231E+02  0.51100000000E-03 0. -1.
        -11    1    3    3    0    0  0.31084819913E+01 -0.13037889290E+01 -0.36889485381E+01  0.49970858947E+01  0.51100000000E-03 0.  1.
         12    1    3    3    0    0 -0.34122339701E+02 -0.13730437147E+02 -0.39125811773E+01  0.36988745078E+02  0.00000000000E+00 0. -1.
</event>
<event>
 7    1  0.3348003E-013  0.7246206E+02  0.7816164E-02  0.1226707E+00
        -11   -1    0    0    0    0  0.00000000000E+00  0.00000000000E+00  0.45593999997E+02  0.45594000000E+02  0.51100000000E-03 0. -1.
         11   -1    0    0    0    0 -0.00000000000E+00 -0.00000000000E+00 -0.45593999997E+02  0.45594000000E+02  0.51100000000E-03 0.  1.
    9900012    2    1    2    0    0  0.74549925777E+01 -0.59852487579E+00 -0.17167572475E+02  0.72462063680E+02  0.70000642724E+02 0.  0.
         12    1    1    2    0    0 -0.74549925777E+01  0.59852487579E+00  0.17167572475E+02  0.18725936320E+02  0.00000000000E+00 0. -1.
         11    1    3    3    0    0  0.10726920948E+02 -0.22457488890E+02 -0.34158855035E+01  0.25121184572E+02  0.51100000000E-03 0. -1.
        -11    1    3    3    0    0 -0.14179883572E+02 -0.46172553254E+01 -0.11085947882E+02  0.18581883262E+02  0.51100000000E-03 0.  1.
        -12    1    3    3    0    0  0.10907955201E+02  0.26476219340E+02 -0.26657390899E+01  0.28758995846E+02  0.00000000000E+00 0.  1.
</event>
<event>
 7    1  0.3348003E-013  0.7246157E+02  0.7816164E-02  0.1226708E+00
        -11   -1    0    0    0    0  0.00000000000E+00  0.00000000000E+00  0.45593999997E+02  0.45594000000E+02  0.51100000000E-03 0.  1.
         11   -1    0    0    0    0 -0.00000000000E+00 -0.00000000000E+00 -0.45593999997E+02  0.45594000000E+02  0.51100000000E-03 0. -1.
    9900012    2    1    2    0    0 -0.28134360758E+01 -0.14421845703E+00  0.18513315363E+02  0.72461573025E+02  0.70000003558E+02 0.  0.
         12    1    1    2    0    0  0.28134360758E+01  0.14421845703E+00 -0.18513315363E+02  0.18726426975E+02  0.00000000000E+00 0. -1.
         11    1    3    3    0    0 -0.11995030874E+01 -0.89888356753E+01 -0.17571040401E+02  0.19773199930E+02  0.51100000000E-03 0. -1.
        -11    1    3    3    0    0 -0.59005857040E+01  0.22841178778E+02  0.24591118304E+02  0.34077257215E+02  0.51100000000E-03 0.  1.
         12    1    3    3    0    0  0.42866527157E+01 -0.13996561559E+02  0.11493237460E+02  0.18611115880E+02  0.00000000000E+00 0. -1.
</event>
<event>
 7    1  0.3348003E-013  0.7246151E+02  0.7816164E-02  0.1226708E+00
        -11   -1    0    0    0    0  0.00000000000E+00  0.00000000000E+00  0.45593999997E+02  0.45594000000E+02  0.51100000000E-03 0.  1.
         11   -1    0    0    0    0 -0.00000000000E+00 -0.00000000000E+00 -0.45593999997E+02  0.45594000000E+02  0.51100000000E-03 0. -1.
    9900012    2    1    2    0    0 -0.47641758168E+01 -0.12500295960E+02  0.13104447817E+02  0.72461512799E+02  0.69999925102E+02 0.  0.
         12    1    1    2    0    0  0.47641758168E+01  0.12500295960E+02 -0.13104447817E+02  0.18726487201E+02  0.00000000000E+00 0. -1.
         11    1    3    3    0    0 -0.96087365094E+01  0.15478224278E+02 -0.10256225572E+02  0.20906778981E+02  0.51100000000E-03 0. -1.
        -11    1    3    3    0    0  0.83107092767E+01 -0.28929333257E+02  0.22973421218E+01  0.30186950698E+02  0.51100000000E-03 0.  1.
         12    1    3    3    0    0 -0.34661485840E+01  0.95081301831E+00  0.21063331267E+02  0.21367783120E+02  0.00000000000E+00 0. -1.
</event>
<event>
 7    1  0.3348003E-013  0.7246146E+02  0.7816164E-02  0.1226708E+00
        -11   -1    0    0    0    0  0.00000000000E+00  0.00000000000E+00  0.45593999997E+02  0.45594000000E+02  0.51100000000E-03 0.  1.
         11   -1    0    0    0    0 -0.00000000000E+00 -0.00000000000E+00 -0.45593999997E+02  0.45594000000E+02  0.51100000000E-03 0. -1.
    9900012    2    1    2    0    0  0.34890453573E+01  0.17667527357E+02 -0.51350062071E+01  0.72461461367E+02  0.69999858102E+02 0.  0.
         12    1    1    2    0    0 -0.34890453573E+01 -0.17667527357E+02  0.51350062071E+01  0.18726538633E+02  0.00000000000E+00 0. -1.
         11    1    3    3    0    0  0.54555318261E+01  0.55634183152E+01  0.30265120998E+00  0.77978233419E+01  0.51100000000E-03 0. -1.
        -11    1    3    3    0    0  0.25966400957E+02  0.50595881284E+01  0.13981430390E+02  0.29922129047E+02  0.51100000000E-03 0.  1.
         12    1    3    3    0    0 -0.27932887426E+02  0.70445209135E+01 -0.19419087807E+02  0.34741508978E+02  0.00000000000E+00 0. -1.
</event>
<event>
 7    1  0.3348003E-013  0.7246155E+02  0.7816164E-02  0.1226708E+00
        -11   -1    0    0    0    0  0.00000000000E+00  0.00000000000E+00  0.45593999997E+02  0.45594000000E+02  0.51100000000E-03 0. -1.
         11   -1    0    0    0    0 -0.00000000000E+00 -0.00000000000E+00 -0.45593999997E+02  0.45594000000E+02  0.51100000000E-03 0.  1.
    9900012    2    1    2    0    0 -0.18394068545E+02 -0.12023334998E+01 -0.33003956523E+01  0.72461548789E+02  0.69999971986E+02 0.  0.
         12    1    1    2    0    0  0.18394068545E+02  0.12023334998E+01  0.33003956523E+01  0.18726451211E+02  0.00000000000E+00 0. -1.
         11    1    3    3    0    0  0.52336258728E+01  0.45667581291E+01  0.24567388110E+02  0.25530426522E+02  0.51100000000E-03 0. -1.
        -11    1    3    3    0    0 -0.51630858038E+01  0.93242096668E+01 -0.55625757187E+00  0.10672758016E+02  0.51100000000E-03 0.  1.
        -12    1    3    3    0    0 -0.18464608614E+02 -0.15093301296E+02 -0.27311526191E+02  0.36258364251E+02  0.00000000000E+00 0.  1.
</event>
<event>
 7    1  0.3348003E-013  0.7246161E+02  0.7816164E-02  0.1226708E+00
        -11   -1    0    0    0    0  0.00000000000E+00  0.00000000000E+00  0.45593999997E+02  0.45594000000E+02  0.51100000000E-03 0. -1.
         11   -1    0    0    0    0 -0.00000000000E+00 -0.00000000000E+00 -0.45593999997E+02  0.45594000000E+02  0.51100000000E-03 0.  1.
    9900012    2    1    2    0    0  0.15537434973E+02 -0.10430278014E+02 -0.68924564662E+00  0.72461611012E+02  0.70000053042E+02 0.  0.
         12    1    1    2    0    0 -0.15537434973E+02  0.10430278014E+02  0.68924564662E+00  0.18726388988E+02  0.00000000000E+00 0. -1.
         11    1    3    3    0    0  0.12983350194E+01 -0.13184009468E+02  0.10249477031E+02  0.16749792809E+02  0.51100000000E-03 0. -1.
        -11    1    3    3    0    0  0.43989788525E+01 -0.13685755528E+02  0.16729569151E+02  0.22057411533E+02  0.51100000000E-03 0.  1.
        -12    1    3    3    0    0  0.98401211009E+01  0.16439486982E+02 -0.27668291829E+02  0.33654406669E+02  0.00000000000E+00 0.  1.
</event>
<event>
 7    1  0.3348003E-013  0.7246163E+02  0.7816164E-02  0.1226708E+00
        -11   -1    0    0    0    0  0.00000000000E+00  0.00000000000E+00  0.45593999997E+02  0.45594000000E+02  0.51100000000E-03 0.  1.
         11   -1    0    0    0    0 -0.00000000000E+00 -0.00000000000E+00 -0.45593999997E+02  0.45594000000E+02  0.51100000000E-03 0. -1.
    9900012    2    1    2    0    0  0.16442332772E+02 -0.14904426795E+01 -0.88377097386E+01  0.72461632499E+02  0.70000081033E+02 0.  0.
         12    1    1    2    0    0 -0.16442332772E+02  0.14904426795E+01  0.88377097386E+01  0.18726367501E+02  0.00000000000E+00 0. -1.
         11    1    3    3    0    0 -0.13127264138E+02  0.19465730783E+02 -0.10983918646E+02  0.25920767885E+02  0.51100000000E-03 0. -1.
        -11    1    3    3    0    0 -0.52388933373E+01 -0.44608991378E+01 -0.33128597021E+01  0.76367967227E+01  0.51100000000E-03 0.  1.
        -12    1    3    3    0    0  0.34808490247E+02 -0.16495274325E+02  0.54590686093E+01  0.38904067891E+02  0.00000000000E+00 0.  1.
</event>
<event>
 7    1  0.3348003E-013  0.7246172E+02  0.7816164E-02  0.1226708E+00
        -11   -1    0    0    0    0  0.00000000000E+00  0.00000000000E+00  0.45593999997E+02  0.45594000000E+02  0.51100000000E-03 0. -1.
         11   -1    0    0    0    0 -0.00000000000E+00 -0.00000000000E+00 -0.45593999997E+02  0.45594000000E+02  0.51100000000E-03 0.  1.
    9900012    2    1    2    0    0  0.51138007205E+01  0.50547560305E+01 -0.17290805189E+02  0.72461722729E+02  0.70000198574E+02 0.  0.
         12    1    1    2    0    0 -0.51138007205E+01 -0.50547560305E+01  0.17290805189E+02  0.18726277271E+02  0.00000000000E+00 0. -1.
         11    1    3    3    0    0  0.23161765862E+02 -0.11727687414E+01 -0.76597958421E+01  0.24423661826E+02  0.51100000000E-03 0. -1.
        -11    1    3    3    0    0  0.54368687878E+01  0.19257480848E+02 -0.62794306725E+01  0.20972395205E+02  0.51100000000E-03 0.  1.
         12    1    3    3    0    0 -0.23484833930E+02 -0.13029956076E+02 -0.33515786745E+01  0.27065665698E+02  0.00000000000E+00 0. -1.
</event>
<event>
 7    1  0.3348003E-013  0.7246144E+02  0.7816164E-02  0.1226708E+00
        -11   -1    0    0    0    0  0.00000000000E+00  0.00000000000E+00  0.45593999997E+02  0.45594000000E+02  0.51100000000E-03 0. -1.
         11   -1    0    0    0    0 -0.00000000000E+00 -0.00000000000E+00 -0.45593999997E+02  0.45594000000E+02  0.51100000000E-03 0.  1.
    9900012    2    1    2    0    0 -0.15224294537E+02 -0.10792948779E+02 -0.15547522609E+01  0.72461437526E+02  0.69999827044E+02 0.  0.
         12    1    1    2    0    0  0.15224294537E+02  0.10792948779E+02  0.15547522609E+01  0.18726562474E+02  0.00000000000E+00 0. -1.
         11    1    3    3    0    0  0.54532016592E+01 -0.31885621511E+01  0.11099222774E+02  0.12770946847E+02  0.51100000000E-03 0. -1.
        -11    1    3    3    0    0 -0.10501658131E+02 -0.37412988664E+01  0.21296482873E+02  0.24037935097E+02  0.51100000000E-03 0.  1.
        -12    1    3    3    0    0 -0.10175838066E+02 -0.38630877618E+01 -0.33950457907E+02  0.35652555582E+02  0.00000000000E+00 0.  1.
</event>
<event>
 7    1  0.3348003E-013  0.7246131E+02  0.7816164E-02  0.1226709E+00
        -11   -1    0    0    0    0  0.00000000000E+00  0.00000000000E+00  0.45593999997E+02  0.45594000000E+02  0.51100000000E-03 0. -1.
         11   -1    0    0    0    0 -0.00000000000E+00 -0.00000000000E+00 -0.45593999997E+02  0.45594000000E+02  0.51100000000E-03 0.  1.
    9900012    2    1    2    0    0  0.17230147723E+02  0.73101857745E+01 -0.61008866647E+00  0.72461307425E+02  0.69999657563E+02 0.  0.
         12    1    1    2    0    0 -0.17230147723E+02 -0.73101857745E+01  0.61008866647E+00  0.18726692575E+02  0.00000000000E+00 0. -1.
         11    1    3    3    0    0  0.18109456962E+02 -0.21296344332E+02 -0.60023998057E+01  0.28592228263E+02  0.51100000000E-03 0. -1.
        -11    1    3    3    0    0 -0.59101727762E+01 -0.59819224694E+01  0.26157218740E+01  0.88065623178E+01  0.51100000000E-03 0.  1.
        -12    1    3    3    0    0  0.50308635369E+01  0.34588452576E+02  0.27765892652E+01  0.35062516844E+02  0.00000000000E+00 0.  1.
</event>
<event>
 7    1  0.3348003E-013  0.7246154E+02  0.7816164E-02  0.1226708E+00
        -11   -1    0    0    0    0  0.00000000000E+00  0.00000000000E+00  0.45593999997E+02  0.45594000000E+02  0.51100000000E-03 0. -1.
         11   -1    0    0    0    0 -0.00000000000E+00 -0.00000000000E+00 -0.45593999997E+02  0.45594000000E+02  0.51100000000E-03 0.  1.
    9900012    2    1    2    0    0 -0.12744773104E+02  0.13705528656E+02 -0.64003256378E+00  0.72461537470E+02  0.69999957240E+02 0.  0.
         12    1    1    2    0    0  0.12744773104E+02 -0.13705528656E+02  0.64003256378E+00  0.18726462530E+02  0.00000000000E+00 0. -1.
         11    1    3    3    0    0 -0.11183876607E+02 -0.26504928245E+02 -0.18385686381E+01  0.28826561573E+02  0.51100000000E-03 0. -1.
        -11    1    3    3    0    0 -0.14384112098E+01  0.60147278188E+00  0.36305973114E+01  0.39512065770E+01  0.51100000000E-03 0.  1.
        -12    1    3    3    0    0 -0.12248528711E+00  0.39608984119E+02 -0.24320612371E+01  0.39683769320E+02  0.00000000000E+00 0.  1.
</event>
<event>
 7    1  0.3348003E-013  0.7246092E+02  0.7816164E-02  0.1226710E+00
        -11   -1    0    0    0    0  0.00000000000E+00  0.00000000000E+00  0.45593999997E+02  0.45594000000E+02  0.51100000000E-03 0. -1.
         11   -1    0    0    0    0 -0.00000000000E+00 -0.00000000000E+00 -0.45593999997E+02  0.45594000000E+02  0.51100000000E-03 0.  1.
    9900012    2    1    2    0    0  0.60943116376E+01  0.16768562585E+02 -0.56901937808E+01  0.72460917185E+02  0.69999149199E+02 0.  0.
         12    1    1    2    0    0 -0.60943116376E+01 -0.16768562585E+02  0.56901937808E+01  0.18727082815E+02  0.00000000000E+00 0. -1.
         11    1    3    3    0    0 -0.16684983938E+02  0.69240339363E+01  0.13773173150E+02  0.22716320869E+02  0.51100000000E-03 0. -1.
        -11    1    3    3    0    0  0.85980901095E+01  0.24143676282E+02 -0.10356145052E+02  0.27642250244E+02  0.51100000000E-03 0.  1.
        -12    1    3    3    0    0  0.14181205466E+02 -0.14299147634E+02 -0.91072218787E+01  0.22102346072E+02  0.00000000000E+00 0.  1.
</event>
<event>
 7    1  0.3348003E-013  0.7246156E+02  0.7816164E-02  0.1226708E+00
        -11   -1    0    0    0    0  0.00000000000E+00  0.00000000000E+00  0.45593999997E+02  0.45594000000E+02  0.51100000000E-03 0.  1.
         11   -1    0    0    0    0 -0.00000000000E+00 -0.00000000000E+00 -0.45593999997E+02  0.45594000000E+02  0.51100000000E-03 0. -1.
    9900012    2    1    2    0    0 -0.10009702078E+02 -0.11576131881E+02  0.10792527574E+02  0.72461558361E+02  0.69999984454E+02 0.  0.
         12    1    1    2    0    0  0.10009702078E+02  0.11576131881E+02 -0.10792527574E+02  0.18726441639E+02  0.00000000000E+00 0. -1.
         11    1    3    3    0    0 -0.21292843423E+02  0.73123367151E+00 -0.55414519141E+01  0.22014258409E+02  0.51100000000E-03 0. -1.
        -11    1    3    3    0    0  0.80711204863E+01  0.13402548972E+02  0.18756007530E+02  0.24424559844E+02  0.51100000000E-03 0.  1.
         12    1    3    3    0    0  0.32120208581E+01 -0.25709914525E+02 -0.24220280420E+01  0.26022740108E+02  0.00000000000E+00 0. -1.
</event>
<event>
 7    1  0.3348003E-013  0.7246157E+02  0.7816164E-02  0.1226708E+00
        -11   -1    0    0    0    0  0.00000000000E+00  0.00000000000E+00  0.45593999997E+02  0.45594000000E+02  0.51100000000E-03 0. -1.
         11   -1    0    0    0    0 -0.00000000000E+00 -0.00000000000E+00 -0.45593999997E+02  0.45594000000E+02  0.51100000000E-03 0.  1.
    9900012    2    1    2    0    0  0.11548477391E+02  0.11886927640E+02 -0.87185346742E+01  0.72461568796E+02  0.69999998048E+02 0.  0.
         12    1    1    2    0    0 -0.11548477391E+02 -0.11886927640E+02  0.87185346742E+01  0.18726431204E+02  0.00000000000E+00 0. -1.
         11    1    3    3    0    0 -0.44736915646E+01 -0.67079264733E+01  0.12378137866E+02  0.14772558718E+02  0.51100000000E-03 0. -1.
        -11    1    3    3    0    0  0.31649522392E+02  0.37260701124E+01 -0.98096124838E+01  0.33343730497E+02  0.51100000000E-03 0.  1.
         12    1    3    3    0    0 -0.15627353437E+02  0.14868784001E+02 -0.11287060057E+02  0.24345279580E+02  0.00000000000E+00 0. -1.
</event>
<event>
 7    1  0.3348003E-013  0.7246157E+02  0.7816164E-02  0.1226708E+00
        -11   -1    0    0    0    0  0.00000000000E+00  0.00000000000E+00  0.45593999997E+02  0.45594000000E+02  0.51100000000E-03 0. -1.
         11   -1    0    0    0    0 -0.00000000000E+00 -0.00000000000E+00 -0.45593999997E+02  0.45594000000E+02  0.51100000000E-03 0.  1.
    9900012    2    1    2    0    0  0.14425973059E+02  0.76945456798E+01 -0.91304193106E+01  0.72461567112E+02  0.69999995855E+02 0.  0.
         12    1    1    2    0    0 -0.14425973059E+02 -0.76945456798E+01  0.91304193106E+01  0.18726432888E+02  0.00000000000E+00 0. -1.
         11    1    3    3    0    0  0.21078043953E+02 -0.28414007832E+00 -0.37570955901E+00  0.21083306914E+02  0.51100000000E-03 0. -1.
        -11    1    3    3    0    0  0.54678907712E+01  0.11225201590E+02 -0.26703614153E+02  0.29478568305E+02  0.51100000000E-03 0.  1.
         12    1    3    3    0    0 -0.12119961666E+02 -0.32465158318E+01  0.17948904402E+02  0.21899691894E+02  0.00000000000E+00 0. -1.
</event>
<event>
 7    1  0.3348003E-013  0.7246153E+02  0.7816164E-02  0.1226708E+00
        -11   -1    0    0    0    0  0.00000000000E+00  0.00000000000E+00  0.45593999997E+02  0.45594000000E+02  0.51100000000E-03 0.  1.
         11   -1    0    0    0    0 -0.00000000000E+00 -0.00000000000E+00 -0.45593999997E+02  0.45594000000E+02  0.51100000000E-03 0. -1.
    9900012    2    1    2    0    0 -0.12017089469E+02  0.12904251768E+02 -0.63048081310E+01  0.72461527867E+02  0.69999944730E+02 0.  0.
         12    1    1    2    0    0  0.12017089469E+02 -0.12904251768E+02  0.63048081310E+01  0.18726472133E+02  0.00000000000E+00 0. -1.
         11    1    3    3    0    0 -0.92149349069E+01 -0.17039211234E+02  0.95302394608E+00  0.19394793108E+02  0.51100000000E-03 0. -1.
        -11    1    3    3    0    0  0.92153541275E+01 -0.76335151106E+01 -0.64777624247E+01  0.13607156607E+02  0.51100000000E-03 0.  1.
        -12    1    3    3    0    0 -0.12017508689E+02  0.37576978113E+02 -0.78006965235E+00  0.39459578151E+02  0.00000000000E+00 0.  1.
</event>
<event>
 7    1  0.3348003E-013  0.7246156E+02  0.7816164E-02  0.1226708E+00
        -11   -1    0    0    0    0  0.00000000000E+00  0.00000000000E+00  0.45593999997E+02  0.45594000000E+02  0.51100000000E-03 0. -1.
         11   -1    0    0    0    0 -0.00000000000E+00 -0.00000000000E+00 -0.45593999997E+02  0.45594000000E+02  0.51100000000E-03 0.  1.
    9900012    2    1    2    0    0 -0.86351477231E+00  0.14226685215E+02 -0.12146413260E+02  0.72461559200E+02  0.69999985547E+02 0.  0.
         12    1    1    2    0    0  0.86351477231E+00 -0.14226685215E+02  0.12146413260E+02  0.18726440800E+02  0.00000000000E+00 0. -1.
         11    1    3    3    0    0 -0.82142262205E+01  0.27648543513E+02 -0.12226692185E+02  0.31327423655E+02  0.51100000000E-03 0. -1.
        -11    1    3    3    0    0 -0.56120192441E+01 -0.19897635610E+02 -0.10504568457E+02  0.23189580022E+02  0.51100000000E-03 0.  1.
         12    1    3    3    0    0  0.12962730692E+02  0.64757773125E+01  0.10584847382E+02  0.17944555522E+02  0.00000000000E+00 0. -1.
</event>
<event>
 7    1  0.3348003E-013  0.7246153E+02  0.7816164E-02  0.1226708E+00
        -11   -1    0    0    0    0  0.00000000000E+00  0.00000000000E+00  0.45593999997E+02  0.45594000000E+02  0.51100000000E-03 0.  1.
         11   -1    0    0    0    0 -0.00000000000E+00 -0.00000000000E+00 -0.45593999997E+02  0.45594000000E+02  0.51100000000E-03 0. -1.
    9900012    2    1    2    0    0 -0.18169169191E+02  0.15730275296E+01  0.42529594119E+01  0.72461527069E+02  0.69999943691E+02 0.  0.
         12    1    1    2    0    0  0.18169169191E+02 -0.15730275296E+01 -0.42529594119E+01  0.18726472931E+02  0.00000000000E+00 0. -1.
         11    1    3    3    0    0 -0.14128694183E+02  0.19720709899E+02 -0.22107611979E+02  0.32821835810E+02  0.51100000000E-03 0. -1.
        -11    1    3    3    0    0 -0.29190551764E+01  0.52383360677E+01  0.73132038089E+01  0.94574837083E+01  0.51100000000E-03 0.  1.
        -12    1    3    3    0    0 -0.11214198308E+01 -0.23386018437E+02  0.19047367582E+02  0.30182207550E+02  0.00000000000E+00 0.  1.
</event>
<event>
 7    1  0.3348003E-013  0.7246152E+02  0.7816164E-02  0.1226708E+00
        -11   -1    0    0    0    0  0.00000000000E+00  0.00000000000E+00  0.45593999997E+02  0.45594000000E+02  0.51100000000E-03 0. -1.
         11   -1    0    0    0    0 -0.00000000000E+00 -0.00000000000E+00 -0.45593999997E+02  0.45594000000E+02  0.51100000000E-03 0.  1.
    9900012    2    1    2    0    0 -0.12867234791E+02  0.29453009441E+01 -0.13283085185E+02  0.72461524602E+02  0.69999940477E+02 0.  0.
         12    1    1    2    0    0  0.12867234791E+02 -0.29453009441E+01  0.13283085185E+02  0.18726475398E+02  0.00000000000E+00 0. -1.
         11    1    3    3    0    0  0.94269440253E+01 -0.12029184615E+02 -0.87147386015E+01  0.17593044799E+02  0.51100000000E-03 0. -1.
        -11    1    3    3    0    0 -0.16658373976E+02 -0.13474068529E+02 -0.12495716504E+02  0.24803122333E+02  0.51100000000E-03 0.  1.
         12    1    3    3    0    0 -0.56358048398E+01  0.28448554088E+02  0.79273699204E+01  0.30065357470E+02  0.00000000000E+00 0. -1.
</event>
<event>
 7    1  0.3348003E-013  0.7246153E+02  0.7816164E-02  0.1226708E+00
        -11   -1    0    0    0    0  0.00000000000E+00  0.00000000000E+00  0.45593999997E+02  0.45594000000E+02  0.51100000000E-03 0.  1.
         11   -1    0    0    0    0 -0.00000000000E+00 -0.00000000000E+00 -0.45593999997E+02  0.45594000000E+02  0.51100000000E-03 0. -1.
    9900012    2    1    2    0    0  0.13164335088E+02 -0.11139072973E+02  0.73008112628E+01  0.72461534500E+02  0.69999953372E+02 0.  0.
         12    1    1    2    0    0 -0.13164335088E+02  0.11139072973E+02 -0.73008112628E+01  0.18726465500E+02  0.00000000000E+00 0. -1.
         11    1    3    3    0    0 -0.23127104354E+02 -0.43274547077E+01 -0.27024588267E+00  0.23530041504E+02  0.51100000000E-03 0. -1.
        -11    1    3    3    0    0  0.75736408339E+01 -0.60354705797E+01  0.16253436265E+02  0.18919860763E+02  0.51100000000E-03 0.  1.
        -12    1    3    3    0    0  0.28717798609E+02 -0.77614768526E+00 -0.86823791197E+01  0.30011632234E+02  0.00000000000E+00 0.  1.
</event>
<event>
 7    1  0.3348003E-013  0.7246174E+02  0.7816164E-02  0.1226708E+00
        -11   -1    0    0    0    0  0.00000000000E+00  0.00000000000E+00  0.45593999997E+02  0.45594000000E+02  0.51100000000E-03 0.  1.
         11   -1    0    0    0    0 -0.00000000000E+00 -0.00000000000E+00 -0.45593999997E+02  0.45594000000E+02  0.51100000000E-03 0. -1.
    9900012    2    1    2    0    0 -0.94817065080E+01 -0.61159289437E+01  0.14945416620E+02  0.72461739746E+02  0.70000220742E+02 0.  0.
         12    1    1    2    0    0  0.94817065080E+01  0.61159289437E+01 -0.14945416620E+02  0.18726260254E+02  0.00000000000E+00 0. -1.
         11    1    3    3    0    0 -0.64807725594E+00 -0.20900618509E+01  0.11285345281E+01  0.24621033920E+01  0.51100000000E-03 0. -1.
        -11    1    3    3    0    0 -0.34839781063E+01  0.83605347205E+01  0.39748810830E+02  0.40767690724E+02  0.51100000000E-03 0.  1.
         12    1    3    3    0    0 -0.53496511458E+01 -0.12386401813E+02 -0.25931928739E+02  0.29231945631E+02  0.00000000000E+00 0. -1.
</event>
<event>
 7    1  0.3348003E-013  0.7246158E+02  0.7816164E-02  0.1226708E+00
        -11   -1    0    0    0    0  0.00000000000E+00  0.00000000000E+00  0.45593999997E+02  0.45594000000E+02  0.51100000000E-03 0. -1.
         11   -1    0    0    0    0 -0.00000000000E+00 -0.00000000000E+00 -0.45593999997E+02  0.45594000000E+02  0.51100000000E-03 0.  1.
    9900012    2    1    2    0    0  0.16120365909E+02 -0.91529817643E+01  0.26524618045E+01  0.72461579471E+02  0.70000011954E+02 0.  0.
         12    1    1    2    0    0 -0.16120365909E+02  0.91529817643E+01 -0.26524618045E+01  0.18726420529E+02  0.00000000000E+00 0. -1.
         11    1    3    3    0    0 -0.12545220457E+01 -0.93831436983E+01 -0.56895804615E+01  0.11044842114E+02  0.51100000000E-03 0. -1.
        -11    1    3    3    0    0  0.74260202233E+01 -0.24104912556E+02 -0.12232685567E+02  0.28032680609E+02  0.51100000000E-03 0.  1.
         12    1    3    3    0    0  0.99488677314E+01  0.24335074490E+02  0.20574727833E+02  0.33384056748E+02  0.00000000000E+00 0. -1.
</event>
<event>
 7    1  0.3348003E-013  0.7246156E+02  0.7816164E-02  0.1226708E+00
        -11   -1    0    0    0    0  0.00000000000E+00  0.00000000000E+00  0.45593999997E+02  0.45594000000E+02  0.51100000000E-03 0. -1.
         11   -1    0    0    0    0 -0.00000000000E+00 -0.00000000000E+00 -0.45593999997E+02  0.45594000000E+02  0.51100000000E-03 0.  1.
    9900012    2    1    2    0    0  0.95724600901E+01 -0.14800664157E+02 -0.63236048875E+01  0.72461557987E+02  0.69999983968E+02 0.  0.
         12    1    1    2    0    0 -0.95724600901E+01  0.14800664157E+02  0.63236048875E+01  0.18726442013E+02  0.00000000000E+00 0. -1.
         11    1    3    3    0    0 -0.15351302077E-01  0.14981510957E+01 -0.37684365745E+01  0.40553429997E+01  0.51100000000E-03 0. -1.
        -11    1    3    3    0    0  0.19254645628E+02  0.12088394921E+02 -0.22820708311E+02  0.32212658973E+02  0.51100000000E-03 0.  1.
         12    1    3    3    0    0 -0.96668342356E+01 -0.28387210175E+02  0.20265539998E+02  0.36193556015E+02  0.00000000000E+00 0. -1.
</event>
<event>
 7    1  0.3348003E-013  0.7246157E+02  0.7816164E-02  0.1226708E+00
        -11   -1    0    0    0    0  0.00000000000E+00  0.00000000000E+00  0.45593999997E+02  0.45594000000E+02  0.51100000000E-03 0.  1.
         11   -1    0    0    0    0 -0.00000000000E+00 -0.00000000000E+00 -0.45593999997E+02  0.45594000000E+02  0.51100000000E-03 0. -1.
    9900012    2    1    2    0    0 -0.13869214329E+02  0.43718250518E+01  0.11798777350E+02  0.72461571954E+02  0.70000002162E+02 0.  0.
         12    1    1    2    0    0  0.13869214329E+02 -0.43718250518E+01 -0.11798777350E+02  0.18726428046E+02  0.00000000000E+00 0. -1.
         11    1    3    3    0    0 -0.10199075269E+02  0.16894432623E+02  0.83576019829E+01  0.21431110590E+02  0.51100000000E-03 0.  1.
        -11    1    3    3    0    0 -0.73865746218E+01 -0.10904058295E+02 -0.21797980196E+02  0.25467860390E+02  0.51100000000E-03 0. -1.
         12    1    3    3    0    0  0.37164355610E+01 -0.16185492753E+01  0.25239155563E+02  0.25562600974E+02  0.00000000000E+00 0. -1.
</event>
<event>
 7    1  0.3348003E-013  0.7246157E+02  0.7816164E-02  0.1226708E+00
        -11   -1    0    0    0    0  0.00000000000E+00  0.00000000000E+00  0.45593999997E+02  0.45594000000E+02  0.51100000000E-03 0.  1.
         11   -1    0    0    0    0 -0.00000000000E+00 -0.00000000000E+00 -0.45593999997E+02  0.45594000000E+02  0.51100000000E-03 0. -1.
    9900012    2    1    2    0    0 -0.15392706168E+02  0.13072254950E+01  0.10584661573E+02  0.72461566750E+02  0.69999995383E+02 0.  0.
         12    1    1    2    0    0  0.15392706168E+02 -0.13072254950E+01 -0.10584661573E+02  0.18726433250E+02  0.00000000000E+00 0. -1.
         11    1    3    3    0    0 -0.18686979071E+02 -0.19339279588E+02  0.22687712176E+01  0.26988113029E+02  0.51100000000E-03 0. -1.
        -11    1    3    3    0    0 -0.32565330554E+01  0.59578964538E+01  0.22824597584E+02  0.23813101285E+02  0.51100000000E-03 0.  1.
         12    1    3    3    0    0  0.65508059581E+01  0.14688608629E+02 -0.14508707229E+02  0.21660352435E+02  0.00000000000E+00 0. -1.
</event>
<event>
 7    1  0.3348003E-013  0.7246158E+02  0.7816164E-02  0.1226708E+00
        -11   -1    0    0    0    0  0.00000000000E+00  0.00000000000E+00  0.45593999997E+02  0.45594000000E+02  0.51100000000E-03 0. -1.
         11   -1    0    0    0    0 -0.00000000000E+00 -0.00000000000E+00 -0.45593999997E+02  0.45594000000E+02  0.51100000000E-03 0.  1.
    9900012    2    1    2    0    0 -0.16307159212E+02  0.52804783788E+01  0.75413401853E+01  0.72461582690E+02  0.70000016148E+02 0.  0.
         12    1    1    2    0    0  0.16307159212E+02 -0.52804783788E+01 -0.75413401853E+01  0.18726417310E+02  0.00000000000E+00 0. -1.
         11    1    3    3    0    0 -0.19819124600E+02  0.14650277797E+02  0.29422777435E+02  0.38381351874E+02  0.51100000000E-03 0. -1.
        -11    1    3    3    0    0  0.13859220955E+01 -0.28291377668E+00  0.52245891516E+01  0.54126843917E+01  0.51100000000E-03 0.  1.
        -12    1    3    3    0    0  0.21260432928E+01 -0.90868856412E+01 -0.27106026401E+02  0.28667546424E+02  0.00000000000E+00 0.  1.
</event>
<event>
 7    1  0.3348003E-013  0.7246156E+02  0.7816164E-02  0.1226708E+00
        -11   -1    0    0    0    0  0.00000000000E+00  0.00000000000E+00  0.45593999997E+02  0.45594000000E+02  0.51100000000E-03 0.  1.
         11   -1    0    0    0    0 -0.00000000000E+00 -0.00000000000E+00 -0.45593999997E+02  0.45594000000E+02  0.51100000000E-03 0. -1.
    9900012    2    1    2    0    0 -0.14468907270E+02  0.58697845810E+01  0.10338086258E+02  0.72461556768E+02  0.69999982380E+02 0.  0.
         12    1    1    2    0    0  0.14468907270E+02 -0.58697845810E+01 -0.10338086258E+02  0.18726443232E+02  0.00000000000E+00 0. -1.
         11    1    3    3    0    0  0.74917339282E+01  0.18619644140E+00  0.77321943994E+01  0.10767895656E+02  0.51100000000E-03 0.  1.
        -11    1    3    3    0    0 -0.20577496492E+02  0.30094874741E+02 -0.30916761623E+01  0.36588158047E+02  0.51100000000E-03 0. -1.
         12    1    3    3    0    0 -0.13831447060E+01 -0.24411286601E+02  0.56975680212E+01  0.25105503065E+02  0.00000000000E+00 0. -1.
</event>
<event>
 7    1  0.3348003E-013  0.7246148E+02  0.7816164E-02  0.1226708E+00
        -11   -1    0    0    0    0  0.00000000000E+00  0.00000000000E+00  0.45593999997E+02  0.45594000000E+02  0.51100000000E-03 0. -1.
         11   -1    0    0    0    0 -0.00000000000E+00 -0.00000000000E+00 -0.45593999997E+02  0.45594000000E+02  0.51100000000E-03 0.  1.
    9900012    2    1    2    0    0  0.10806699455E+02 -0.11566917656E+02 -0.10005217705E+02  0.72461475536E+02  0.69999876560E+02 0.  0.
         12    1    1    2    0    0 -0.10806699455E+02  0.11566917656E+02  0.10005217705E+02  0.18726524464E+02  0.00000000000E+00 0. -1.
         11    1    3    3    0    0  0.18629930773E+02 -0.22690455295E+02 -0.42938685576E+01  0.29671002503E+02  0.51100000000E-03 0. -1.
        -11    1    3    3    0    0  0.52187687916E+01  0.17179886762E+02 -0.16833103842E+02  0.24611733829E+02  0.51100000000E-03 0.  1.
        -12    1    3    3    0    0 -0.13042000109E+02 -0.60563491236E+01  0.11121754695E+02  0.18178739204E+02  0.00000000000E+00 0.  1.
</event>
<event>
 7    1  0.3348003E-013  0.7246161E+02  0.7816164E-02  0.1226708E+00
        -11   -1    0    0    0    0  0.00000000000E+00  0.00000000000E+00  0.45593999997E+02  0.45594000000E+02  0.51100000000E-03 0.  1.
         11   -1    0    0    0    0 -0.00000000000E+00 -0.00000000000E+00 -0.45593999997E+02  0.45594000000E+02  0.51100000000E-03 0. -1.
    9900012    2    1    2    0    0  0.39877735479E+01  0.24491225430E+01  0.18132209851E+02  0.72461612917E+02  0.70000055524E+02 0.  0.
         12    1    1    2    0    0 -0.39877735479E+01 -0.24491225430E+01 -0.18132209851E+02  0.18726387083E+02  0.00000000000E+00 0. -1.
         11    1    3    3    0    0  0.29152322560E+02  0.65118330698E+01  0.49578110130E+01  0.30279395154E+02  0.51100000000E-03 0. -1.
        -11    1    3    3    0    0  0.70875947020E+01 -0.14199321944E+01 -0.38288590590E-01  0.72285318270E+01  0.51100000000E-03 0.  1.
        -12    1    3    3    0    0 -0.32252143714E+02 -0.26427783324E+01  0.13212687428E+02  0.34953685937E+02  0.00000000000E+00 0.  1.
</event>
<event>
 7    1  0.3348003E-013  0.7246162E+02  0.7816164E-02  0.1226708E+00
        -11   -1    0    0    0    0  0.00000000000E+00  0.00000000000E+00  0.45593999997E+02  0.45594000000E+02  0.51100000000E-03 0. -1.
         11   -1    0    0    0    0 -0.00000000000E+00 -0.00000000000E+00 -0.45593999997E+02  0.45594000000E+02  0.51100000000E-03 0.  1.
    9900012    2    1    2    0    0 -0.16559650801E+02 -0.76011920040E+01  0.43216937021E+01  0.72461623122E+02  0.70000068818E+02 0.  0.
         12    1    1    2    0    0  0.16559650801E+02  0.76011920040E+01 -0.43216937021E+01  0.18726376878E+02  0.00000000000E+00 0. -1.
         11    1    3    3    0    0  0.11661516403E+02 -0.11556054832E+02  0.68353692564E+01  0.17783577852E+02  0.51100000000E-03 0. -1.
        -11    1    3    3    0    0  0.66180468299E+01 -0.81730175587E+01 -0.12621441023E+02  0.16428558477E+02  0.51100000000E-03 0.  1.
         12    1    3    3    0    0 -0.34839214033E+02  0.12127880387E+02  0.10107765469E+02  0.38249486793E+02  0.00000000000E+00 0. -1.
</event>
<event>
 7    1  0.3348003E-013  0.7246158E+02  0.7816164E-02  0.1226708E+00
        -11   -1    0    0    0    0  0.00000000000E+00  0.00000000000E+00  0.45593999997E+02  0.45594000000E+02  0.51100000000E-03 0.  1.
         11   -1    0    0    0    0 -0.00000000000E+00 -0.00000000000E+00 -0.45593999997E+02  0.45594000000E+02  0.51100000000E-03 0. -1.
    9900012    2    1    2    0    0 -0.16312005368E+02 -0.88556194241E+01  0.24850482296E+01  0.72461575376E+02  0.70000006620E+02 0.  0.
         12    1    1    2    0    0  0.16312005368E+02  0.88556194241E+01 -0.24850482296E+01  0.18726424624E+02  0.00000000000E+00 0. -1.
         11    1    3    3    0    0 -0.24575202274E+01 -0.12602512262E+02 -0.14642499223E+02  0.19474740171E+02  0.51100000000E-03 0. -1.
        -11    1    3    3    0    0  0.12475684164E+02  0.16418876461E+02  0.42502452526E+01  0.21054376851E+02  0.51100000000E-03 0.  1.
        -12    1    3    3    0    0 -0.26330169304E+02 -0.12671983624E+02  0.12877302200E+02  0.31932458354E+02  0.00000000000E+00 0.  1.
</event>
<event>
 7    1  0.3348003E-013  0.7246162E+02  0.7816164E-02  0.1226708E+00
        -11   -1    0    0    0    0  0.00000000000E+00  0.00000000000E+00  0.45593999997E+02  0.45594000000E+02  0.51100000000E-03 0. -1.
         11   -1    0    0    0    0 -0.00000000000E+00 -0.00000000000E+00 -0.45593999997E+02  0.45594000000E+02  0.51100000000E-03 0.  1.
    9900012    2    1    2    0    0  0.85144961661E+01 -0.84544699679E+01 -0.14377149371E+02  0.72461624711E+02  0.70000070888E+02 0.  0.
         12    1    1    2    0    0 -0.85144961661E+01  0.84544699679E+01  0.14377149371E+02  0.18726375289E+02  0.00000000000E+00 0. -1.
         11    1    3    3    0    0 -0.48353308297E+01 -0.18258850339E+02  0.20634400629E+02  0.27973997382E+02  0.51100000000E-03 0. -1.
        -11    1    3    3    0    0 -0.42708800182E+01 -0.30633109212E+01 -0.41739064246E+01  0.67116156797E+01  0.51100000000E-03 0.  1.
        -12    1    3    3    0    0  0.17620707014E+02  0.12867691292E+02 -0.30837643576E+02  0.37776011650E+02  0.00000000000E+00 0.  1.
</event>
<event>
 7    1  0.3348003E-013  0.7246153E+02  0.7816164E-02  0.1226708E+00
        -11   -1    0    0    0    0  0.00000000000E+00  0.00000000000E+00  0.45593999997E+02  0.45594000000E+02  0.51100000000E-03 0.  1.
         11   -1    0    0    0    0 -0.00000000000E+00 -0.00000000000E+00 -0.45593999997E+02  0.45594000000E+02  0.51100000000E-03 0. -1.
    9900012    2    1    2    0    0 -0.83898871494E+01 -0.12749145426E+01  0.16693259021E+02  0.72461534497E+02  0.69999953368E+02 0.  0.
         12    1    1    2    0    0  0.83898871494E+01  0.12749145426E+01 -0.16693259021E+02  0.18726465503E+02  0.00000000000E+00 0. -1.
         11    1    3    3    0    0 -0.92912442653E+00 -0.11359548504E+02  0.77731407095E+01  0.13795808464E+02  0.51100000000E-03 0.  1.
        -11    1    3    3    0    0  0.13022835925E+02  0.32555391277E+01  0.27227798521E+02  0.30356972891E+02  0.51100000000E-03 0. -1.
         12    1    3    3    0    0 -0.20483598648E+02  0.68290948341E+01 -0.18307680210E+02  0.28308753142E+02  0.00000000000E+00 0. -1.
</event>
<event>
 7    1  0.3348003E-013  0.7246152E+02  0.7816164E-02  0.1226708E+00
        -11   -1    0    0    0    0  0.00000000000E+00  0.00000000000E+00  0.45593999997E+02  0.45594000000E+02  0.51100000000E-03 0. -1.
         11   -1    0    0    0    0 -0.00000000000E+00 -0.00000000000E+00 -0.45593999997E+02  0.45594000000E+02  0.51100000000E-03 0.  1.
    9900012    2    1    2    0    0 -0.81796419721E+00  0.18319437225E+02  0.37960900246E+01  0.72461517545E+02  0.69999931284E+02 0.  0.
         12    1    1    2    0    0  0.81796419721E+00 -0.18319437225E+02 -0.37960900246E+01  0.18726482455E+02  0.00000000000E+00 0. -1.
         11    1    3    3    0    0  0.53276325064E+01  0.15844332695E+02  0.36582786725E+01  0.17111678754E+02  0.51100000000E-03 0. -1.
        -11    1    3    3    0    0 -0.15437865862E+02  0.86051915599E+01 -0.23392731156E+02  0.29318882914E+02  0.51100000000E-03 0.  1.
         12    1    3    3    0    0  0.92922691587E+01 -0.61300870306E+01  0.23530542508E+02  0.26030955876E+02  0.00000000000E+00 0. -1.
</event>
<event>
 7    1  0.3348003E-013  0.7246157E+02  0.7816164E-02  0.1226708E+00
        -11   -1    0    0    0    0  0.00000000000E+00  0.00000000000E+00  0.45593999997E+02  0.45594000000E+02  0.51100000000E-03 0. -1.
         11   -1    0    0    0    0 -0.00000000000E+00 -0.00000000000E+00 -0.45593999997E+02  0.45594000000E+02  0.51100000000E-03 0.  1.
    9900012    2    1    2    0    0  0.18492322489E+02  0.27470437325E+00  0.29390302997E+01  0.72461565405E+02  0.69999993631E+02 0.  0.
         12    1    1    2    0    0 -0.18492322489E+02 -0.27470437325E+00 -0.29390302997E+01  0.18726434595E+02  0.00000000000E+00 0. -1.
         11    1    3    3    0    0  0.24925238391E+02 -0.10100535289E+02  0.24575292211E+02  0.36431213395E+02  0.51100000000E-03 0. -1.
        -11    1    3    3    0    0  0.74685570414E+01 -0.38919312634E+01 -0.95394386091E+01  0.12725068270E+02  0.51100000000E-03 0.  1.
        -12    1    3    3    0    0 -0.13901472943E+02  0.14267170925E+02 -0.12096823302E+02  0.23305283740E+02  0.00000000000E+00 0.  1.
</event>
<event>
 7    1  0.3348003E-013  0.7246158E+02  0.7816164E-02  0.1226708E+00
        -11   -1    0    0    0    0  0.00000000000E+00  0.00000000000E+00  0.45593999997E+02  0.45594000000E+02  0.51100000000E-03 0.  1.
         11   -1    0    0    0    0 -0.00000000000E+00 -0.00000000000E+00 -0.45593999997E+02  0.45594000000E+02  0.51100000000E-03 0. -1.
    9900012    2    1    2    0    0  0.83975960614E+01 -0.83264584982E+01 -0.14519960771E+02  0.72461580387E+02  0.70000013148E+02 0.  0.
         12    1    1    2    0    0 -0.83975960614E+01  0.83264584982E+01  0.14519960771E+02  0.18726419613E+02  0.00000000000E+00 0. -1.
         11    1    3    3    0    0  0.28779112532E+02  0.17244306635E+02 -0.14747205917E+02  0.36648103799E+02  0.51100000000E-03 0. -1.
        -11    1    3    3    0    0 -0.23102570159E+01  0.18418928014E+01  0.38654309484E+00  0.29798107988E+01  0.51100000000E-03 0.  1.
        -12    1    3    3    0    0 -0.18071259454E+02 -0.27412657935E+02 -0.15929794813E+00  0.32833665789E+02  0.00000000000E+00 0.  1.
</event>
<event>
 7    1  0.3348003E-013  0.7246149E+02  0.7816164E-02  0.1226708E+00
        -11   -1    0    0    0    0  0.00000000000E+00  0.00000000000E+00  0.45593999997E+02  0.45594000000E+02  0.51100000000E-03 0. -1.
         11   -1    0    0    0    0 -0.00000000000E+00 -0.00000000000E+00 -0.45593999997E+02  0.45594000000E+02  0.51100000000E-03 0.  1.
    9900012    2    1    2    0    0 -0.11277873532E+01 -0.30482988467E+01 -0.18442295357E+02  0.72461487024E+02  0.69999891525E+02 0.  0.
         12    1    1    2    0    0  0.11277873532E+01  0.30482988467E+01  0.18442295357E+02  0.18726512976E+02  0.00000000000E+00 0. -1.
         11    1    3    3    0    0 -0.78089824083E+01  0.28725841842E+01  0.43826912912E+01  0.94042506009E+01  0.51100000000E-03 0. -1.
        -11    1    3    3    0    0 -0.13728044097E+01  0.21362392684E+02 -0.26836761860E+02  0.34328533329E+02  0.51100000000E-03 0.  1.
         12    1    3    3    0    0  0.80539994648E+01 -0.27283275715E+02  0.40117752116E+01  0.28728703094E+02  0.00000000000E+00 0. -1.
</event>
<event>
 7    1  0.3348003E-013  0.7246155E+02  0.7816164E-02  0.1226708E+00
        -11   -1    0    0    0    0  0.00000000000E+00  0.00000000000E+00  0.45593999997E+02  0.45594000000E+02  0.51100000000E-03 0.  1.
         11   -1    0    0    0    0 -0.00000000000E+00 -0.00000000000E+00 -0.45593999997E+02  0.45594000000E+02  0.51100000000E-03 0. -1.
    9900012    2    1    2    0    0 -0.16238871776E+02 -0.84111850632E+01  0.40287754349E+01  0.72461547527E+02  0.69999970341E+02 0.  0.
         12    1    1    2    0    0  0.16238871776E+02  0.84111850632E+01 -0.40287754349E+01  0.18726452473E+02  0.00000000000E+00 0. -1.
         11    1    3    3    0    0 -0.39818592418E+02 -0.14420675213E+02 -0.16510133938E+01  0.42381623627E+02  0.51100000000E-03 0. -1.
        -11    1    3    3    0    0 -0.19014707782E+01 -0.20020397343E+01  0.11339693966E+01  0.29849021880E+01  0.51100000000E-03 0.  1.
        -12    1    3    3    0    0  0.25481191420E+02  0.80115298846E+01  0.45458194320E+01  0.27095021712E+02  0.00000000000E+00 0.  1.
</event>
<event>
 7    1  0.3348003E-013  0.7246154E+02  0.7816164E-02  0.1226708E+00
        -11   -1    0    0    0    0  0.00000000000E+00  0.00000000000E+00  0.45593999997E+02  0.45594000000E+02  0.51100000000E-03 0. -1.
         11   -1    0    0    0    0 -0.00000000000E+00 -0.00000000000E+00 -0.45593999997E+02  0.45594000000E+02  0.51100000000E-03 0.  1.
    9900012    2    1    2    0    0  0.13097811343E+02 -0.77855560795E+01 -0.10886350294E+02  0.72461543630E+02  0.69999965264E+02 0.  0.
         12    1    1    2    0    0 -0.13097811343E+02  0.77855560795E+01  0.10886350294E+02  0.18726456370E+02  0.00000000000E+00 0. -1.
         11    1    3    3    0    0  0.14295630737E+02 -0.82381846068E+01 -0.42714730632E+01  0.17043421786E+02  0.51100000000E-03 0. -1.
        -11    1    3    3    0    0  0.21785015547E+02  0.75964728399E+01 -0.17545114361E+02  0.28984898485E+02  0.51100000000E-03 0.  1.
         12    1    3    3    0    0 -0.22982834940E+02 -0.71438443127E+01  0.10930237130E+02  0.26433223359E+02  0.00000000000E+00 0. -1.
</event>
<event>
 7    1  0.3348003E-013  0.7246160E+02  0.7816164E-02  0.1226708E+00
        -11   -1    0    0    0    0  0.00000000000E+00  0.00000000000E+00  0.45593999997E+02  0.45594000000E+02  0.51100000000E-03 0.  1.
         11   -1    0    0    0    0 -0.00000000000E+00 -0.00000000000E+00 -0.45593999997E+02  0.45594000000E+02  0.51100000000E-03 0. -1.
    9900012    2    1    2    0    0 -0.13793168035E+01  0.56559630821E+01  0.17798471954E+02  0.72461600529E+02  0.70000039387E+02 0.  0.
         12    1    1    2    0    0  0.13793168035E+01 -0.56559630821E+01 -0.17798471954E+02  0.18726399471E+02  0.00000000000E+00 0. -1.
         11    1    3    3    0    0  0.41842684782E+01  0.17994679933E+02  0.29178402975E+02  0.34535428316E+02  0.51100000000E-03 0. -1.
        -11    1    3    3    0    0 -0.12487090490E+02  0.67753938234E+01  0.79652771248E+00  0.14229119685E+02  0.51100000000E-03 0.  1.
         12    1    3    3    0    0  0.69235052082E+01 -0.19114110674E+02 -0.12176458733E+02  0.23697052528E+02  0.00000000000E+00 0. -1.
</event>
<event>
 7    1  0.3799405E-013  0.7246168E+02  0.7816164E-02  0.1226708E+00
        -11   -1    0    0    0    0  0.00000000000E+00  0.00000000000E+00  0.45593999997E+02  0.45594000000E+02  0.51100000000E-03 0. -1.
         11   -1    0    0    0    0 -0.00000000000E+00 -0.00000000000E+00 -0.45593999997E+02  0.45594000000E+02  0.51100000000E-03 0.  1.
    9900012    2    1    2    0    0 -0.37649495700E+01 -0.87065225141E+01 -0.16146098744E+02  0.72461684714E+02  0.70000149053E+02 0.  0.
         12    1    1    2    0    0  0.37649495700E+01  0.87065225141E+01  0.16146098744E+02  0.18726315286E+02  0.00000000000E+00 0. -1.
         11    1    3    3    0    0 -0.60756940720E+01  0.18492605165E+01  0.16509525681E+02  0.17688930476E+02  0.51100000000E-03 0. -1.
        -11    1    3    3    0    0 -0.13437488211E+02 -0.96197849482E+01  0.20472508881E+01  0.16652254752E+02  0.51100000000E-03 0.  1.
        -12    1    3    3    0    0  0.15748232713E+02 -0.93599808240E+00 -0.34702875313E+02  0.38120499485E+02  0.00000000000E+00 0.  1.
</event>
<event>
 7    1  0.3348003E-013  0.7246158E+02  0.7816164E-02  0.1226708E+00
        -11   -1    0    0    0    0  0.00000000000E+00  0.00000000000E+00  0.45593999997E+02  0.45594000000E+02  0.51100000000E-03 0. -1.
         11   -1    0    0    0    0 -0.00000000000E+00 -0.00000000000E+00 -0.45593999997E+02  0.45594000000E+02  0.51100000000E-03 0.  1.
    9900012    2    1    2    0    0 -0.40831997770E-01 -0.17918739484E+02 -0.54401956748E+01  0.72461584942E+02  0.70000019081E+02 0.  0.
         12    1    1    2    0    0  0.40831997770E-01  0.17918739484E+02  0.54401956748E+01  0.18726415058E+02  0.00000000000E+00 0. -1.
         11    1    3    3    0    0  0.18561588624E+01  0.78105985306E+01  0.24045885766E+02  0.25350648861E+02  0.51100000000E-03 0. -1.
        -11    1    3    3    0    0  0.39404465548E+01  0.22731338297E+01  0.16416465497E+01  0.48362444226E+01  0.51100000000E-03 0.  1.
        -12    1    3    3    0    0 -0.58374374150E+01 -0.28002471844E+02 -0.31127727991E+02  0.42274691659E+02  0.00000000000E+00 0.  1.
</event>
<event>
 7    1  0.3348003E-013  0.7246158E+02  0.7816164E-02  0.1226708E+00
        -11   -1    0    0    0    0  0.00000000000E+00  0.00000000000E+00  0.45593999997E+02  0.45594000000E+02  0.51100000000E-03 0.  1.
         11   -1    0    0    0    0 -0.00000000000E+00 -0.00000000000E+00 -0.45593999997E+02  0.45594000000E+02  0.51100000000E-03 0. -1.
    9900012    2    1    2    0    0  0.89123594404E+00  0.12694690157E+01  0.18662070270E+02  0.72461582301E+02  0.70000015641E+02 0.  0.
         12    1    1    2    0    0 -0.89123594404E+00 -0.12694690157E+01 -0.18662070270E+02  0.18726417699E+02  0.00000000000E+00 0. -1.
         11    1    3    3    0    0 -0.11328386588E+02 -0.14785557518E+02 -0.99033960477E-01  0.18626724398E+02  0.51100000000E-03 0. -1.
        -11    1    3    3    0    0  0.19223751178E+02 -0.10847347138E+02  0.42583068976E+01  0.22480007278E+02  0.51100000000E-03 0.  1.
        -12    1    3    3    0    0 -0.70041286460E+01  0.26902373672E+02  0.14502797333E+02  0.31354850625E+02  0.00000000000E+00 0.  1.
</event>
<event>
 7    1  0.3348003E-013  0.7246158E+02  0.7816164E-02  0.1226708E+00
        -11   -1    0    0    0    0  0.00000000000E+00  0.00000000000E+00  0.45593999997E+02  0.45594000000E+02  0.51100000000E-03 0.  1.
         11   -1    0    0    0    0 -0.00000000000E+00 -0.00000000000E+00 -0.45593999997E+02  0.45594000000E+02  0.51100000000E-03 0. -1.
    9900012    2    1    2    0    0 -0.13306909692E+02  0.49477613542E+01  0.12211655395E+02  0.72461582418E+02  0.70000015793E+02 0.  0.
         12    1    1    2    0    0  0.13306909692E+02 -0.49477613542E+01 -0.12211655395E+02  0.18726417582E+02  0.00000000000E+00 0. -1.
         11    1    3    3    0    0  0.12085969546E+02  0.36745857447E+01 -0.32010512086E+01  0.13031499122E+02  0.51100000000E-03 0. -1.
        -11    1    3    3    0    0  0.53164364186E+00  0.22102495271E+01 -0.17430176594E+02  0.17577795775E+02  0.51100000000E-03 0.  1.
        -12    1    3    3    0    0 -0.25924522879E+02 -0.93707391761E+00  0.32842883198E+02  0.41852287522E+02  0.00000000000E+00 0.  1.
</event>
<event>
 7    1  0.3348003E-013  0.7246159E+02  0.7816164E-02  0.1226708E+00
        -11   -1    0    0    0    0  0.00000000000E+00  0.00000000000E+00  0.45593999997E+02  0.45594000000E+02  0.51100000000E-03 0.  1.
         11   -1    0    0    0    0 -0.00000000000E+00 -0.00000000000E+00 -0.45593999997E+02  0.45594000000E+02  0.51100000000E-03 0. -1.
    9900012    2    1    2    0    0  0.15343214418E+02 -0.10719521694E+02 -0.59661543213E+00  0.72461592870E+02  0.70000029409E+02 0.  0.
         12    1    1    2    0    0 -0.15343214418E+02  0.10719521694E+02  0.59661543213E+00  0.18726407130E+02  0.00000000000E+00 0. -1.
         11    1    3    3    0    0  0.27878119136E+02 -0.18831145758E+02  0.45770925758E+00  0.33645372270E+02  0.51100000000E-03 0. -1.
        -11    1    3    3    0    0  0.24385695259E+01 -0.13914504517E+01  0.14778273841E+02  0.15042610600E+02  0.51100000000E-03 0.  1.
        -12    1    3    3    0    0 -0.14973474245E+02  0.95030745161E+01 -0.15832598531E+02  0.23773610000E+02  0.00000000000E+00 0.  1.
</event>
<event>
 7    1  0.3348003E-013  0.7246179E+02  0.7816164E-02  0.1226707E+00
        -11   -1    0    0    0    0  0.00000000000E+00  0.00000000000E+00  0.45593999997E+02  0.45594000000E+02  0.51100000000E-03 0. -1.
         11   -1    0    0    0    0 -0.00000000000E+00 -0.00000000000E+00 -0.45593999997E+02  0.45594000000E+02  0.51100000000E-03 0.  1.
    9900012    2    1    2    0    0 -0.15895632548E+02  0.38438393682E+01  0.91227589310E+01  0.72461789339E+02  0.70000285346E+02 0.  0.
         12    1    1    2    0    0  0.15895632548E+02 -0.38438393682E+01 -0.91227589310E+01  0.18726210661E+02  0.00000000000E+00 0. -1.
         11    1    3    3    0    0 -0.24333099546E+02  0.83837967972E+01  0.19012073188E+02  0.31997604745E+02  0.51100000000E-03 0. -1.
        -11    1    3    3    0    0  0.18804728372E+01  0.92449827852E+01  0.11063899733E+02  0.14540143134E+02  0.51100000000E-03 0.  1.
        -12    1    3    3    0    0  0.65569941604E+01 -0.13784940214E+02 -0.20953213990E+02  0.25924041461E+02  0.00000000000E+00 0.  1.
</event>
<event>
 7    1  0.3348003E-013  0.7246155E+02  0.7816164E-02  0.1226708E+00
        -11   -1    0    0    0    0  0.00000000000E+00  0.00000000000E+00  0.45593999997E+02  0.45594000000E+02  0.51100000000E-03 0.  1.
         11   -1    0    0    0    0 -0.00000000000E+00 -0.00000000000E+00 -0.45593999997E+02  0.45594000000E+02  0.51100000000E-03 0. -1.
    9900012    2    1    2    0    0 -0.25492132696E+01  0.10005138581E+01  0.18525131121E+02  0.72461548138E+02  0.69999971138E+02 0.  0.
         12    1    1    2    0    0  0.25492132696E+01 -0.10005138581E+01 -0.18525131121E+02  0.18726451862E+02  0.00000000000E+00 0. -1.
         11    1    3    3    0    0 -0.12464242701E+02  0.12873805421E+01  0.16074856884E+02  0.20381749652E+02  0.51100000000E-03 0. -1.
        -11    1    3    3    0    0 -0.11805659417E+02  0.19327785406E+02 -0.59077428431E+00  0.22655813768E+02  0.51100000000E-03 0.  1.
         12    1    3    3    0    0  0.21720688848E+02 -0.19614652090E+02  0.30410485207E+01  0.29423984719E+02  0.00000000000E+00 0. -1.
</event>
<event>
 7    1  0.3348003E-013  0.7246162E+02  0.7816164E-02  0.1226708E+00
        -11   -1    0    0    0    0  0.00000000000E+00  0.00000000000E+00  0.45593999997E+02  0.45594000000E+02  0.51100000000E-03 0. -1.
         11   -1    0    0    0    0 -0.00000000000E+00 -0.00000000000E+00 -0.45593999997E+02  0.45594000000E+02  0.51100000000E-03 0.  1.
    9900012    2    1    2    0    0  0.48046939012E+01  0.10140171289E+01 -0.18071078794E+02  0.72461622801E+02  0.70000068400E+02 0.  0.
         12    1    1    2    0    0 -0.48046939012E+01 -0.10140171289E+01  0.18071078794E+02  0.18726377199E+02  0.00000000000E+00 0. -1.
         11    1    3    3    0    0 -0.54363559274E+01 -0.18040993192E+02  0.64786207619E+00  0.18853411538E+02  0.51100000000E-03 0. -1.
        -11    1    3    3    0    0 -0.43286698259E+01 -0.12270127297E+02  0.22361883223E+01  0.13202043206E+02  0.51100000000E-03 0.  1.
        -12    1    3    3    0    0  0.14569719655E+02  0.31325137617E+02 -0.20955129192E+02  0.40406168057E+02  0.00000000000E+00 0.  1.
</event>
<event>
 7    1  0.3348003E-013  0.7246156E+02  0.7816164E-02  0.1226708E+00
        -11   -1    0    0    0    0  0.00000000000E+00  0.00000000000E+00  0.45593999997E+02  0.45594000000E+02  0.51100000000E-03 0.  1.
         11   -1    0    0    0    0 -0.00000000000E+00 -0.00000000000E+00 -0.45593999997E+02  0.45594000000E+02  0.51100000000E-03 0. -1.
    9900012    2    1    2    0    0 -0.62531937445E+01  0.63160327423E+01  0.16482861267E+02  0.72461563682E+02  0.69999991387E+02 0.  0.
         12    1    1    2    0    0  0.62531937445E+01 -0.63160327423E+01 -0.16482861267E+02  0.18726436318E+02  0.00000000000E+00 0. -1.
         11    1    3    3    0    0 -0.67962653103E+01 -0.14661807602E+02  0.20934229466E+01  0.16295405617E+02  0.51100000000E-03 0. -1.
        -11    1    3    3    0    0 -0.23304439569E+02  0.13460019793E+02  0.15646626173E+02  0.31130145314E+02  0.51100000000E-03 0.  1.
         12    1    3    3    0    0  0.23847511135E+02  0.75178205514E+01 -0.12571878521E+01  0.25036012751E+02  0.00000000000E+00 0. -1.
</event>
<event>
 7    1  0.3348003E-013  0.7246153E+02  0.7816164E-02  0.1226708E+00
        -11   -1    0    0    0    0  0.00000000000E+00  0.00000000000E+00  0.45593999997E+02  0.45594000000E+02  0.51100000000E-03 0.  1.
         11   -1    0    0    0    0 -0.00000000000E+00 -0.00000000000E+00 -0.45593999997E+02  0.45594000000E+02  0.51100000000E-03 0. -1.
    9900012    2    1    2    0    0 -0.89111743070E+00  0.86230996660E+01  0.16599063536E+02  0.72461525468E+02  0.69999941606E+02 0.  0.
         12    1    1    2    0    0  0.89111743070E+00 -0.86230996660E+01 -0.16599063536E+02  0.18726474532E+02  0.00000000000E+00 0. -1.
         11    1    3    3    0    0 -0.88632626918E+01  0.91244773765E+01  0.86680617814E+01  0.15393141598E+02  0.51100000000E-03 0. -1.
        -11    1    3    3    0    0 -0.15468161887E+02  0.17068912338E+02 -0.71510276180E+01  0.24119473394E+02  0.51100000000E-03 0.  1.
         12    1    3    3    0    0  0.23440307148E+02 -0.17570290049E+02  0.15082029372E+02  0.32948910476E+02  0.00000000000E+00 0. -1.
</event>
<event>
 7    1  0.3348003E-013  0.7246158E+02  0.7816164E-02  0.1226708E+00
        -11   -1    0    0    0    0  0.00000000000E+00  0.00000000000E+00  0.45593999997E+02  0.45594000000E+02  0.51100000000E-03 0.  1.
         11   -1    0    0    0    0 -0.00000000000E+00 -0.00000000000E+00 -0.45593999997E+02  0.45594000000E+02  0.51100000000E-03 0. -1.
    9900012    2    1    2    0    0  0.43819302852E+01  0.17971459225E+02 -0.29161572961E+01  0.72461584618E+02  0.70000018659E+02 0.  0.
         12    1    1    2    0    0 -0.43819302852E+01 -0.17971459225E+02  0.29161572961E+01  0.18726415382E+02  0.00000000000E+00 0. -1.
         11    1    3    3    0    0 -0.12477379335E+02  0.23123238420E+02 -0.88993780912E+01  0.27741090115E+02  0.51100000000E-03 0. -1.
        -11    1    3    3    0    0 -0.10659029999E+02  0.22226540345E+01  0.11352036468E+02  0.15729712131E+02  0.51100000000E-03 0.  1.
        -12    1    3    3    0    0  0.27518339619E+02 -0.73744332293E+01 -0.53688156732E+01  0.28990782372E+02  0.00000000000E+00 0.  1.
</event>
<event>
 7    1  0.3348003E-013  0.7246158E+02  0.7816164E-02  0.1226708E+00
        -11   -1    0    0    0    0  0.00000000000E+00  0.00000000000E+00  0.45593999997E+02  0.45594000000E+02  0.51100000000E-03 0.  1.
         11   -1    0    0    0    0 -0.00000000000E+00 -0.00000000000E+00 -0.45593999997E+02  0.45594000000E+02  0.51100000000E-03 0. -1.
    9900012    2    1    2    0    0  0.16205731763E+02  0.21210034278E+01  0.91408126435E+01  0.72461578737E+02  0.70000010999E+02 0.  0.
         12    1    1    2    0    0 -0.16205731763E+02 -0.21210034278E+01 -0.91408126435E+01  0.18726421263E+02  0.00000000000E+00 0. -1.
         11    1    3    3    0    0 -0.67368032386E+01  0.11934121526E+02 -0.13575074859E+02  0.19289645725E+02  0.51100000000E-03 0. -1.
        -11    1    3    3    0    0  0.13022212252E+02  0.12622238768E+02 -0.21256968919E+01  0.18259723738E+02  0.51100000000E-03 0.  1.
         12    1    3    3    0    0  0.99203227498E+01 -0.22435356867E+02  0.24841584395E+02  0.34912209275E+02  0.00000000000E+00 0. -1.
</event>
<event>
 7    1  0.3348003E-013  0.7246156E+02  0.7816164E-02  0.1226708E+00
        -11   -1    0    0    0    0  0.00000000000E+00  0.00000000000E+00  0.45593999997E+02  0.45594000000E+02  0.51100000000E-03 0.  1.
         11   -1    0    0    0    0 -0.00000000000E+00 -0.00000000000E+00 -0.45593999997E+02  0.45594000000E+02  0.51100000000E-03 0. -1.
    9900012    2    1    2    0    0 -0.51540937787E+01  0.70813485487E+01  0.16552020347E+02  0.72461559935E+02  0.69999986505E+02 0.  0.
         12    1    1    2    0    0  0.51540937787E+01 -0.70813485487E+01 -0.16552020347E+02  0.18726440065E+02  0.00000000000E+00 0. -1.
         11    1    3    3    0    0  0.43110786189E+01  0.18371494802E+02 -0.90897580831E+01  0.20945665958E+02  0.51100000000E-03 0. -1.
        -11    1    3    3    0    0 -0.20850267301E+02 -0.23327130063E+01 -0.11998124752E+01  0.21014631730E+02  0.51100000000E-03 0.  1.
        -12    1    3    3    0    0  0.11385094904E+02 -0.89574332475E+01  0.26841590905E+02  0.30501262247E+02  0.00000000000E+00 0.  1.
</event>
<event>
 7    1  0.3348003E-013  0.7246162E+02  0.7816164E-02  0.1226708E+00
        -11   -1    0    0    0    0  0.00000000000E+00  0.00000000000E+00  0.45593999997E+02  0.45594000000E+02  0.51100000000E-03 0.  1.
         11   -1    0    0    0    0 -0.00000000000E+00 -0.00000000000E+00 -0.45593999997E+02  0.45594000000E+02  0.51100000000E-03 0. -1.
    9900012    2    1    2    0    0 -0.80575493287E+01 -0.68998281589E+01  0.15431960774E+02  0.72461624399E+02  0.70000070482E+02 0.  0.
         12    1    1    2    0    0  0.80575493287E+01  0.68998281589E+01 -0.15431960774E+02  0.18726375601E+02  0.00000000000E+00 0. -1.
         11    1    3    3    0    0  0.29019114639E+01  0.71687098321E+01 -0.12470352833E+02  0.14673826728E+02  0.51100000000E-03 0. -1.
        -11    1    3    3    0    0 -0.28696904483E+01  0.11594073908E+02 -0.69022946915E+01  0.13794902875E+02  0.51100000000E-03 0.  1.
        -12    1    3    3    0    0 -0.80897703443E+01 -0.25662611899E+02  0.34804608299E+02  0.43992894796E+02  0.00000000000E+00 0.  1.
</event>
<event>
 7    1  0.3348003E-013  0.7246156E+02  0.7816164E-02  0.1226708E+00
        -11   -1    0    0    0    0  0.00000000000E+00  0.00000000000E+00  0.45593999997E+02  0.45594000000E+02  0.51100000000E-03 0. -1.
         11   -1    0    0    0    0 -0.00000000000E+00 -0.00000000000E+00 -0.45593999997E+02  0.45594000000E+02  0.51100000000E-03 0.  1.
    9900012    2    1    2    0    0 -0.78082365936E+01 -0.11474736656E+02 -0.12571452334E+02  0.72461560033E+02  0.69999986633E+02 0.  0.
         12    1    1    2    0    0  0.78082365936E+01  0.11474736656E+02  0.12571452334E+02  0.18726439967E+02  0.00000000000E+00 0. -1.
         11    1    3    3    0    0  0.13662296789E+01  0.11028530410E+02  0.99495602582E+01  0.14916059001E+02  0.51100000000E-03 0. -1.
        -11    1    3    3    0    0 -0.18213476376E+02  0.83583821136E+01 -0.39996032218E+01  0.20435021396E+02  0.51100000000E-03 0.  1.
        -12    1    3    3    0    0  0.90390101034E+01 -0.30861649180E+02 -0.18521409371E+02  0.37110479636E+02  0.00000000000E+00 0.  1.
</event>
<event>
 7    1  0.3348003E-013  0.7246159E+02  0.7816164E-02  0.1226708E+00
        -11   -1    0    0    0    0  0.00000000000E+00  0.00000000000E+00  0.45593999997E+02  0.45594000000E+02  0.51100000000E-03 0. -1.
         11   -1    0    0    0    0 -0.00000000000E+00 -0.00000000000E+00 -0.45593999997E+02  0.45594000000E+02  0.51100000000E-03 0.  1.
    9900012    2    1    2    0    0 -0.27695906921E+01  0.10897101136E+02 -0.14975346437E+02  0.72461589595E+02  0.70000025142E+02 0.  0.
         12    1    1    2    0    0  0.27695906921E+01 -0.10897101136E+02  0.14975346437E+02  0.18726410405E+02  0.00000000000E+00 0. -1.
         11    1    3    3    0    0  0.38509601242E+01  0.30180598950E+02  0.10496655049E+02  0.32185061975E+02  0.51100000000E-03 0. -1.
        -11    1    3    3    0    0 -0.40026202637E+01  0.43097107078E+01 -0.11003098592E+02  0.12476488058E+02  0.51100000000E-03 0.  1.
        -12    1    3    3    0    0 -0.26179305526E+01 -0.23593208522E+02 -0.14468902893E+02  0.27800039562E+02  0.00000000000E+00 0.  1.
</event>
<event>
 7    1  0.3348003E-013  0.7246121E+02  0.7816164E-02  0.1226709E+00
        -11   -1    0    0    0    0  0.00000000000E+00  0.00000000000E+00  0.45593999997E+02  0.45594000000E+02  0.51100000000E-03 0.  1.
         11   -1    0    0    0    0 -0.00000000000E+00 -0.00000000000E+00 -0.45593999997E+02  0.45594000000E+02  0.51100000000E-03 0. -1.
    9900012    2    1    2    0    0 -0.46987223368E+01 -0.16758533924E+02  0.69113208439E+01  0.72461206183E+02  0.69999525675E+02 0.  0.
         12    1    1    2    0    0  0.46987223368E+01  0.16758533924E+02 -0.69113208439E+01  0.18726793817E+02  0.00000000000E+00 0. -1.
         11    1    3    3    0    0 -0.31406794542E+01 -0.20371612779E+02 -0.13687316691E+02  0.24742859841E+02  0.51100000000E-03 0. -1.
        -11    1    3    3    0    0 -0.17455518670E+02  0.88016047981E+01 -0.19492940692E+01  0.19645944281E+02  0.51100000000E-03 0.  1.
        -12    1    3    3    0    0  0.15897475787E+02 -0.51885259429E+01  0.22547931604E+02  0.28072402061E+02  0.00000000000E+00 0.  1.
</event>
<event>
 7    1  0.3348003E-013  0.7246152E+02  0.7816164E-02  0.1226708E+00
        -11   -1    0    0    0    0  0.00000000000E+00  0.00000000000E+00  0.45593999997E+02  0.45594000000E+02  0.51100000000E-03 0.  1.
         11   -1    0    0    0    0 -0.00000000000E+00 -0.00000000000E+00 -0.45593999997E+02  0.45594000000E+02  0.51100000000E-03 0. -1.
    9900012    2    1    2    0    0 -0.69842809303E+01 -0.17158109274E+02 -0.27386711817E+01  0.72461515711E+02  0.69999928895E+02 0.  0.
         12    1    1    2    0    0  0.69842809303E+01  0.17158109274E+02  0.27386711817E+01  0.18726484289E+02  0.00000000000E+00 0. -1.
         11    1    3    3    0    0  0.82086775293E+01  0.24595528517E+01  0.47018414018E+01  0.97744104599E+01  0.51100000000E-03 0. -1.
        -11    1    3    3    0    0  0.17056846049E+02  0.87855005722E+01 -0.80328522766E+00  0.19203288387E+02  0.51100000000E-03 0.  1.
        -12    1    3    3    0    0 -0.32249804509E+02 -0.28403162698E+02 -0.66372273558E+01  0.43483816864E+02  0.00000000000E+00 0.  1.
</event>
<event>
 7    1  0.3348003E-013  0.7246149E+02  0.7816164E-02  0.1226708E+00
        -11   -1    0    0    0    0  0.00000000000E+00  0.00000000000E+00  0.45593999997E+02  0.45594000000E+02  0.51100000000E-03 0.  1.
         11   -1    0    0    0    0 -0.00000000000E+00 -0.00000000000E+00 -0.45593999997E+02  0.45594000000E+02  0.51100000000E-03 0. -1.
    9900012    2    1    2    0    0 -0.80615378921E+01 -0.57812728716E+01  0.15883029622E+02  0.72461491004E+02  0.69999896710E+02 0.  0.
         12    1    1    2    0    0  0.80615378921E+01  0.57812728716E+01 -0.15883029622E+02  0.18726508996E+02  0.00000000000E+00 0. -1.
         11    1    3    3    0    0 -0.21214203408E+02 -0.86892231642E+01  0.46178590453E+01  0.23385244234E+02  0.51100000000E-03 0. -1.
        -11    1    3    3    0    0 -0.10528518266E+02 -0.39910925576E+00 -0.11823909220E+02  0.15837102468E+02  0.51100000000E-03 0.  1.
        -12    1    3    3    0    0  0.23681183782E+02  0.33070595483E+01  0.23089079796E+02  0.33239144303E+02  0.00000000000E+00 0.  1.
</event>
<event>
 7    1  0.3348003E-013  0.7246165E+02  0.7816164E-02  0.1226708E+00
        -11   -1    0    0    0    0  0.00000000000E+00  0.00000000000E+00  0.45593999997E+02  0.45594000000E+02  0.51100000000E-03 0. -1.
         11   -1    0    0    0    0 -0.00000000000E+00 -0.00000000000E+00 -0.45593999997E+02  0.45594000000E+02  0.51100000000E-03 0.  1.
    9900012    2    1    2    0    0 -0.15182560120E+02  0.95548160358E+01 -0.53732365967E+01  0.72461646569E+02  0.70000099362E+02 0.  0.
         12    1    1    2    0    0  0.15182560120E+02 -0.95548160358E+01  0.53732365967E+01  0.18726353431E+02  0.00000000000E+00 0. -1.
         11    1    3    3    0    0 -0.97993732733E+01  0.81980419470E+01 -0.10696112288E+02  0.16662605638E+02  0.51100000000E-03 0. -1.
        -11    1    3    3    0    0 -0.23865692625E+02  0.14856412130E+02 -0.81128388667E+01  0.29259227956E+02  0.51100000000E-03 0.  1.
         12    1    3    3    0    0  0.18482505778E+02 -0.13499638041E+02  0.13435714558E+02  0.26539812975E+02  0.00000000000E+00 0. -1.
</event>
<event>
 7    1  0.3348003E-013  0.7246157E+02  0.7816164E-02  0.1226708E+00
        -11   -1    0    0    0    0  0.00000000000E+00  0.00000000000E+00  0.45593999997E+02  0.45594000000E+02  0.51100000000E-03 0.  1.
         11   -1    0    0    0    0 -0.00000000000E+00 -0.00000000000E+00 -0.45593999997E+02  0.45594000000E+02  0.51100000000E-03 0. -1.
    9900012    2    1    2    0    0 -0.17982773367E+02 -0.23029281702E+01 -0.46899307049E+01  0.72461573055E+02  0.70000003596E+02 0.  0.
         12    1    1    2    0    0  0.17982773367E+02  0.23029281702E+01  0.46899307049E+01  0.18726426945E+02  0.00000000000E+00 0. -1.
         11    1    3    3    0    0 -0.64272185212E+01 -0.14224263775E+02 -0.17202508486E+02  0.23228540986E+02  0.51100000000E-03 0. -1.
        -11    1    3    3    0    0 -0.27240344620E+01  0.43319235720E+01  0.28777797839E+02  0.29229224661E+02  0.51100000000E-03 0.  1.
         12    1    3    3    0    0 -0.88315203834E+01  0.75894120324E+01 -0.16265220058E+02  0.20003807408E+02  0.00000000000E+00 0. -1.
</event>
<event>
 7    1  0.3348003E-013  0.7246207E+02  0.7816164E-02  0.1226707E+00
        -11   -1    0    0    0    0  0.00000000000E+00  0.00000000000E+00  0.45593999997E+02  0.45594000000E+02  0.51100000000E-03 0.  1.
         11   -1    0    0    0    0 -0.00000000000E+00 -0.00000000000E+00 -0.45593999997E+02  0.45594000000E+02  0.51100000000E-03 0. -1.
    9900012    2    1    2    0    0 -0.78202859404E+01  0.10692955400E+01  0.16981170022E+02  0.72462071439E+02  0.70000652831E+02 0.  0.
         12    1    1    2    0    0  0.78202859404E+01 -0.10692955400E+01 -0.16981170022E+02  0.18725928561E+02  0.00000000000E+00 0. -1.
         11    1    3    3    0    0  0.28674047831E+01  0.13331479464E+02  0.32623373789E+02  0.35358660503E+02  0.51100000000E-03 0. -1.
        -11    1    3    3    0    0 -0.12170266146E+02 -0.97254789767E+01  0.49161783196E+01  0.16336129557E+02  0.51100000000E-03 0.  1.
        -12    1    3    3    0    0  0.14825754220E+01 -0.25367049473E+01 -0.20558382086E+02  0.20767281379E+02  0.00000000000E+00 0.  1.
</event>
<event>
 7    1  0.3348003E-013  0.7246156E+02  0.7816164E-02  0.1226708E+00
        -11   -1    0    0    0    0  0.00000000000E+00  0.00000000000E+00  0.45593999997E+02  0.45594000000E+02  0.51100000000E-03 0.  1.
         11   -1    0    0    0    0 -0.00000000000E+00 -0.00000000000E+00 -0.45593999997E+02  0.45594000000E+02  0.51100000000E-03 0. -1.
    9900012    2    1    2    0    0  0.68106673279E+01  0.11685244155E+02  0.12951805771E+02  0.72461564323E+02  0.69999992222E+02 0.  0.
         12    1    1    2    0    0 -0.68106673279E+01 -0.11685244155E+02 -0.12951805771E+02  0.18726435677E+02  0.00000000000E+00 0. -1.
         11    1    3    3    0    0  0.26837695822E+02  0.13205243001E+02  0.87147487180E+01  0.31154248590E+02  0.51100000000E-03 0. -1.
        -11    1    3    3    0    0 -0.22858966268E+01  0.15271320279E+02 -0.32068009942E+01  0.15770926394E+02  0.51100000000E-03 0.  1.
        -12    1    3    3    0    0 -0.17741131867E+02 -0.16791319124E+02  0.74438580476E+01  0.25536389340E+02  0.00000000000E+00 0.  1.
</event>
<event>
 7    1  0.3348003E-013  0.7246155E+02  0.7816164E-02  0.1226708E+00
        -11   -1    0    0    0    0  0.00000000000E+00  0.00000000000E+00  0.45593999997E+02  0.45594000000E+02  0.51100000000E-03 0.  1.
         11   -1    0    0    0    0 -0.00000000000E+00 -0.00000000000E+00 -0.45593999997E+02  0.45594000000E+02  0.51100000000E-03 0. -1.
    9900012    2    1    2    0    0 -0.11081219644E+01  0.11602833662E+02  0.14656953232E+02  0.72461549153E+02  0.69999972460E+02 0.  0.
         12    1    1    2    0    0  0.11081219644E+01 -0.11602833662E+02 -0.14656953232E+02  0.18726450847E+02  0.00000000000E+00 0. -1.
         11    1    3    3    0    0  0.84014798112E+01 -0.16509941119E+02 -0.12974366383E+02  0.22616303899E+02  0.51100000000E-03 0. -1.
        -11    1    3    3    0    0 -0.58996426373E+01  0.13294906303E+02 -0.36919467586E+01  0.15006358252E+02  0.51100000000E-03 0.  1.
        -12    1    3    3    0    0 -0.36099591383E+01  0.14817868477E+02  0.31323266374E+02  0.34838887002E+02  0.00000000000E+00 0.  1.
</event>
<event>
 7    1  0.3348003E-013  0.7246165E+02  0.7816164E-02  0.1226708E+00
        -11   -1    0    0    0    0  0.00000000000E+00  0.00000000000E+00  0.45593999997E+02  0.45594000000E+02  0.51100000000E-03 0.  1.
         11   -1    0    0    0    0 -0.00000000000E+00 -0.00000000000E+00 -0.45593999997E+02  0.45594000000E+02  0.51100000000E-03 0. -1.
    9900012    2    1    2    0    0 -0.15590723651E+01 -0.12728340601E+02  0.13646782364E+02  0.72461654120E+02  0.70000109199E+02 0.  0.
         12    1    1    2    0    0  0.15590723651E+01  0.12728340601E+02 -0.13646782364E+02  0.18726345880E+02  0.00000000000E+00 0. -1.
         11    1    3    3    0    0 -0.66476665328E+01 -0.44380212822E+01  0.11475919823E+02  0.13985143520E+02  0.51100000000E-03 0. -1.
        -11    1    3    3    0    0 -0.14997637282E+02 -0.70215098259E+01  0.23759766216E+02  0.28961305481E+02  0.51100000000E-03 0.  1.
         12    1    3    3    0    0  0.20086231450E+02 -0.12688094932E+01 -0.21588903674E+02  0.29515205119E+02  0.00000000000E+00 0. -1.
</event>
<event>
 7    1  0.3348003E-013  0.7246157E+02  0.7816164E-02  0.1226708E+00
        -11   -1    0    0    0    0  0.00000000000E+00  0.00000000000E+00  0.45593999997E+02  0.45594000000E+02  0.51100000000E-03 0.  1.
         11   -1    0    0    0    0 -0.00000000000E+00 -0.00000000000E+00 -0.45593999997E+02  0.45594000000E+02  0.51100000000E-03 0. -1.
    9900012    2    1    2    0    0 -0.35033865375E+01  0.17391498756E+02  0.59950968646E+01  0.72461571279E+02  0.70000001283E+02 0.  0.
         12    1    1    2    0    0  0.35033865375E+01 -0.17391498756E+02 -0.59950968646E+01  0.18726428721E+02  0.00000000000E+00 0. -1.
         11    1    3    3    0    0  0.11256340132E+02 -0.35801043141E+01 -0.56285544341E+01  0.13084455103E+02  0.51100000000E-03 0. -1.
        -11    1    3    3    0    0 -0.27019618539E+02 -0.29988382702E+01 -0.51314672271E+01  0.27665588248E+02  0.51100000000E-03 0.  1.
        -12    1    3    3    0    0  0.12259891870E+02  0.23970441340E+02  0.16755118526E+02  0.31711527928E+02  0.00000000000E+00 0.  1.
</event>
<event>
 7    1  0.3348003E-013  0.7246160E+02  0.7816164E-02  0.1226708E+00
        -11   -1    0    0    0    0  0.00000000000E+00  0.00000000000E+00  0.45593999997E+02  0.45594000000E+02  0.51100000000E-03 0.  1.
         11   -1    0    0    0    0 -0.00000000000E+00 -0.00000000000E+00 -0.45593999997E+02  0.45594000000E+02  0.51100000000E-03 0. -1.
    9900012    2    1    2    0    0  0.73365243935E+01  0.12414424774E+02  0.11947193422E+02  0.72461602500E+02  0.70000041954E+02 0.  0.
         12    1    1    2    0    0 -0.73365243935E+01 -0.12414424774E+02 -0.11947193422E+02  0.18726397500E+02  0.00000000000E+00 0. -1.
         11    1    3    3    0    0  0.20430322700E+01 -0.43095413836E-01 -0.12494787651E+02  0.12660788158E+02  0.51100000000E-03 0. -1.
        -11    1    3    3    0    0 -0.31939696397E+01 -0.38366916769E+01 -0.15259010701E+02  0.16054876298E+02  0.51100000000E-03 0.  1.
        -12    1    3    3    0    0  0.84874617631E+01  0.16294211865E+02  0.39700991775E+02  0.43745938045E+02  0.00000000000E+00 0.  1.
</event>
<event>
 7    1  0.3348003E-013  0.7246155E+02  0.7816164E-02  0.1226708E+00
        -11   -1    0    0    0    0  0.00000000000E+00  0.00000000000E+00  0.45593999997E+02  0.45594000000E+02  0.51100000000E-03 0.  1.
         11   -1    0    0    0    0 -0.00000000000E+00 -0.00000000000E+00 -0.45593999997E+02  0.45594000000E+02  0.51100000000E-03 0. -1.
    9900012    2    1    2    0    0  0.13567093687E+02 -0.25189291600E+01  0.12659730250E+02  0.72461553321E+02  0.69999977889E+02 0.  0.
         12    1    1    2    0    0 -0.13567093687E+02  0.25189291600E+01 -0.12659730250E+02  0.18726446679E+02  0.00000000000E+00 0. -1.
         11    1    3    3    0    0  0.15729168569E+02  0.11321735254E+02 -0.47045401492E+01  0.19942946906E+02  0.51100000000E-03 0. -1.
        -11    1    3    3    0    0 -0.59059290243E+01  0.17057627658E+02  0.95796691353E+01  0.20435574862E+02  0.51100000000E-03 0.  1.
        -12    1    3    3    0    0  0.37438541416E+01 -0.30898292071E+02  0.77846012639E+01  0.32083031552E+02  0.00000000000E+00 0.  1.
</event>
<event>
 7    1  0.3348003E-013  0.7246153E+02  0.7816164E-02  0.1226708E+00
        -11   -1    0    0    0    0  0.00000000000E+00  0.00000000000E+00  0.45593999997E+02  0.45594000000E+02  0.51100000000E-03 0. -1.
         11   -1    0    0    0    0 -0.00000000000E+00 -0.00000000000E+00 -0.45593999997E+02  0.45594000000E+02  0.51100000000E-03 0.  1.
    9900012    2    1    2    0    0  0.11791531110E+02 -0.72779126105E+01 -0.12596525088E+02  0.72461530440E+02  0.69999948083E+02 0.  0.
         12    1    1    2    0    0 -0.11791531110E+02  0.72779126105E+01  0.12596525088E+02  0.18726469560E+02  0.00000000000E+00 0. -1.
         11    1    3    3    0    0  0.79271259910E+01 -0.27956337975E+01  0.29341840605E+01  0.89030517896E+01  0.51100000000E-03 0. -1.
        -11    1    3    3    0    0  0.28778086427E+02 -0.60385173742E+01  0.66703634583E+01  0.30151877212E+02  0.51100000000E-03 0.  1.
         12    1    3    3    0    0 -0.24913681308E+02  0.15562385612E+01 -0.22201072606E+02  0.33406601438E+02  0.00000000000E+00 0. -1.
</event>
<event>
 7    1  0.3348003E-013  0.7246161E+02  0.7816164E-02  0.1226708E+00
        -11   -1    0    0    0    0  0.00000000000E+00  0.00000000000E+00  0.45593999997E+02  0.45594000000E+02  0.51100000000E-03 0.  1.
         11   -1    0    0    0    0 -0.00000000000E+00 -0.00000000000E+00 -0.45593999997E+02  0.45594000000E+02  0.51100000000E-03 0. -1.
    9900012    2    1    2    0    0  0.12601058539E+02  0.13684722489E+02 -0.21492878488E+01  0.72461608352E+02  0.70000049577E+02 0.  0.
         12    1    1    2    0    0 -0.12601058539E+02 -0.13684722489E+02  0.21492878488E+01  0.18726391648E+02  0.00000000000E+00 0. -1.
         11    1    3    3    0    0  0.10615680101E+02  0.29930845663E+01  0.12340556543E+02  0.16551149666E+02  0.51100000000E-03 0. -1.
        -11    1    3    3    0    0  0.95128663846E+01 -0.11419726056E+02  0.13064269711E+02  0.19788378240E+02  0.51100000000E-03 0.  1.
         12    1    3    3    0    0 -0.75274879462E+01  0.22111363978E+02 -0.27554114102E+02  0.36122080446E+02  0.00000000000E+00 0. -1.
</event>
<event>
 7    1  0.3348003E-013  0.7246155E+02  0.7816164E-02  0.1226708E+00
        -11   -1    0    0    0    0  0.00000000000E+00  0.00000000000E+00  0.45593999997E+02  0.45594000000E+02  0.51100000000E-03 0. -1.
         11   -1    0    0    0    0 -0.00000000000E+00 -0.00000000000E+00 -0.45593999997E+02  0.45594000000E+02  0.51100000000E-03 0.  1.
    9900012    2    1    2    0    0 -0.26183959607E+01 -0.17168939834E+02 -0.70036678833E+01  0.72461551959E+02  0.69999976115E+02 0.  0.
         12    1    1    2    0    0  0.26183959607E+01  0.17168939834E+02  0.70036678833E+01  0.18726448041E+02  0.00000000000E+00 0. -1.
         11    1    3    3    0    0 -0.73145913969E+00 -0.11292416733E+02 -0.87597771704E+01  0.14310394980E+02  0.51100000000E-03 0. -1.
        -11    1    3    3    0    0  0.10764436429E+02 -0.22469319639E+02 -0.16945293611E+02  0.30131153189E+02  0.51100000000E-03 0.  1.
         12    1    3    3    0    0 -0.12651373250E+02  0.16592796538E+02  0.18701402898E+02  0.28020003790E+02  0.00000000000E+00 0. -1.
</event>
<event>
 7    1  0.3348003E-013  0.7246159E+02  0.7816164E-02  0.1226708E+00
        -11   -1    0    0    0    0  0.00000000000E+00  0.00000000000E+00  0.45593999997E+02  0.45594000000E+02  0.51100000000E-03 0. -1.
         11   -1    0    0    0    0 -0.00000000000E+00 -0.00000000000E+00 -0.45593999997E+02  0.45594000000E+02  0.51100000000E-03 0.  1.
    9900012    2    1    2    0    0 -0.12529189917E+02 -0.13835777064E+02 -0.15063941158E+01  0.72461586831E+02  0.70000021543E+02 0.  0.
         12    1    1    2    0    0  0.12529189917E+02  0.13835777064E+02  0.15063941158E+01  0.18726413169E+02  0.00000000000E+00 0. -1.
         11    1    3    3    0    0 -0.32641526943E+01  0.16256010664E+02  0.10799695297E+02  0.19787521176E+02  0.51100000000E-03 0. -1.
        -11    1    3    3    0    0 -0.53614381578E+01 -0.55495616494E+00  0.12687656514E+02  0.13785123269E+02  0.51100000000E-03 0.  1.
        -12    1    3    3    0    0 -0.39035990645E+01 -0.29536831563E+02 -0.24993745927E+02  0.38888942386E+02  0.00000000000E+00 0.  1.
</event>
<event>
 7    1  0.3348003E-013  0.7246179E+02  0.7816164E-02  0.1226707E+00
        -11   -1    0    0    0    0  0.00000000000E+00  0.00000000000E+00  0.45593999997E+02  0.45594000000E+02  0.51100000000E-03 0.  1.
         11   -1    0    0    0    0 -0.00000000000E+00 -0.00000000000E+00 -0.45593999997E+02  0.45594000000E+02  0.51100000000E-03 0. -1.
    9900012    2    1    2    0    0 -0.54692318437E+01 -0.72985141660E+01  0.16355122813E+02  0.72461792477E+02  0.70000289433E+02 0.  0.
         12    1    1    2    0    0  0.54692318437E+01  0.72985141660E+01 -0.16355122813E+02  0.18726207523E+02  0.00000000000E+00 0. -1.
         11    1    3    3    0    0  0.10891546300E+02  0.85155040821E+01 -0.33268557293E+01  0.14219970460E+02  0.51100000000E-03 0. -1.
        -11    1    3    3    0    0 -0.32325808115E+02 -0.49413332091E+01  0.21028939033E+02  0.38879183650E+02  0.51100000000E-03 0.  1.
         12    1    3    3    0    0  0.15965029972E+02 -0.10872685039E+02 -0.13469604912E+01  0.19362638367E+02  0.00000000000E+00 0. -1.
</event>
<event>
 7    1  0.3348003E-013  0.7246157E+02  0.7816164E-02  0.1226708E+00
        -11   -1    0    0    0    0  0.00000000000E+00  0.00000000000E+00  0.45593999997E+02  0.45594000000E+02  0.51100000000E-03 0.  1.
         11   -1    0    0    0    0 -0.00000000000E+00 -0.00000000000E+00 -0.45593999997E+02  0.45594000000E+02  0.51100000000E-03 0. -1.
    9900012    2    1    2    0    0 -0.12457941321E+02  0.35721726539E+01  0.13517345593E+02  0.72461565441E+02  0.69999993677E+02 0.  0.
         12    1    1    2    0    0  0.12457941321E+02 -0.35721726539E+01 -0.13517345593E+02  0.18726434559E+02  0.00000000000E+00 0. -1.
         11    1    3    3    0    0  0.12567421075E+02 -0.11702005788E+02  0.87279659901E+01  0.19262772451E+02  0.51100000000E-03 0. -1.
        -11    1    3    3    0    0 -0.15919298067E+02  0.59612096216E+01  0.24351129822E+02  0.29697434148E+02  0.51100000000E-03 0.  1.
        -12    1    3    3    0    0 -0.91060643276E+01  0.93129688202E+01 -0.19561750219E+02  0.23501358842E+02  0.00000000000E+00 0.  1.
</event>
<event>
 7    1  0.3348003E-013  0.7246161E+02  0.7816164E-02  0.1226708E+00
        -11   -1    0    0    0    0  0.00000000000E+00  0.00000000000E+00  0.45593999997E+02  0.45594000000E+02  0.51100000000E-03 0. -1.
         11   -1    0    0    0    0 -0.00000000000E+00 -0.00000000000E+00 -0.45593999997E+02  0.45594000000E+02  0.51100000000E-03 0.  1.
    9900012    2    1    2    0    0  0.15129637200E+02 -0.98337325469E+01  0.50069339414E+01  0.72461612065E+02  0.70000054414E+02 0.  0.
         12    1    1    2    0    0 -0.15129637200E+02  0.98337325469E+01 -0.50069339414E+01  0.18726387935E+02  0.00000000000E+00 0. -1.
         11    1    3    3    0    0  0.31153948331E+02 -0.28815109991E+01  0.85523722032E+01  0.32434775671E+02  0.51100000000E-03 0. -1.
        -11    1    3    3    0    0 -0.10135018830E+01 -0.13695783927E+02 -0.14722931090E+02  0.20133712613E+02  0.51100000000E-03 0.  1.
        -12    1    3    3    0    0 -0.15010809249E+02  0.67435623792E+01  0.11177492828E+02  0.19893123781E+02  0.00000000000E+00 0.  1.
</event>
<event>
 7    1  0.3348003E-013  0.7246158E+02  0.7816164E-02  0.1226708E+00
        -11   -1    0    0    0    0  0.00000000000E+00  0.00000000000E+00  0.45593999997E+02  0.45594000000E+02  0.51100000000E-03 0.  1.
         11   -1    0    0    0    0 -0.00000000000E+00 -0.00000000000E+00 -0.45593999997E+02  0.45594000000E+02  0.51100000000E-03 0. -1.
    9900012    2    1    2    0    0  0.13200810963E+02  0.10457929364E+02 -0.81883521016E+01  0.72461579979E+02  0.70000012616E+02 0.  0.
         12    1    1    2    0    0 -0.13200810963E+02 -0.10457929364E+02  0.81883521016E+01  0.18726420021E+02  0.00000000000E+00 0. -1.
         11    1    3    3    0    0  0.37662133592E+02  0.12197943209E+02 -0.15680024022E+02  0.42580386081E+02  0.51100000000E-03 0. -1.
        -11    1    3    3    0    0 -0.28086894674E+01  0.98471986740E+00 -0.41810346697E+01  0.51321984482E+01  0.51100000000E-03 0.  1.
        -12    1    3    3    0    0 -0.21652633161E+02 -0.27247337121E+01  0.11672706590E+02  0.24748995450E+02  0.00000000000E+00 0.  1.
</event>
<event>
 7    1  0.3348003E-013  0.7246159E+02  0.7816164E-02  0.1226708E+00
        -11   -1    0    0    0    0  0.00000000000E+00  0.00000000000E+00  0.45593999997E+02  0.45594000000E+02  0.51100000000E-03 0.  1.
         11   -1    0    0    0    0 -0.00000000000E+00 -0.00000000000E+00 -0.45593999997E+02  0.45594000000E+02  0.51100000000E-03 0. -1.
    9900012    2    1    2    0    0 -0.98735665560E+01  0.11783493784E+02  0.10693014988E+02  0.72461585185E+02  0.70000019398E+02 0.  0.
         12    1    1    2    0    0  0.98735665560E+01 -0.11783493784E+02 -0.10693014988E+02  0.18726414815E+02  0.00000000000E+00 0. -1.
         11    1    3    3    0    0  0.18611881217E+01 -0.19663998495E+02  0.19053649735E+01  0.19843570091E+02  0.51100000000E-03 0. -1.
        -11    1    3    3    0    0  0.24776969871E+01 -0.81493674517E+01 -0.28258993184E+01  0.89742341981E+01  0.51100000000E-03 0.  1.
        -12    1    3    3    0    0 -0.14212451665E+02  0.39596859730E+02  0.11613549333E+02  0.43643780896E+02  0.00000000000E+00 0.  1.
</event>
<event>
 7    1  0.3348003E-013  0.7246150E+02  0.7816164E-02  0.1226708E+00
        -11   -1    0    0    0    0  0.00000000000E+00  0.00000000000E+00  0.45593999997E+02  0.45594000000E+02  0.51100000000E-03 0.  1.
         11   -1    0    0    0    0 -0.00000000000E+00 -0.00000000000E+00 -0.45593999997E+02  0.45594000000E+02  0.51100000000E-03 0. -1.
    9900012    2    1    2    0    0  0.50841281382E+01 -0.12408264543E+02  0.13071664084E+02  0.72461500333E+02  0.69999908862E+02 0.  0.
         12    1    1    2    0    0 -0.50841281382E+01  0.12408264543E+02 -0.13071664084E+02  0.18726499667E+02  0.00000000000E+00 0. -1.
         11    1    3    3    0    0 -0.96409150897E+01  0.66644690206E+01 -0.23168066025E+02  0.25963853233E+02  0.51100000000E-03 0. -1.
        -11    1    3    3    0    0  0.11588386944E+02 -0.56740987771E+01  0.82691688622E+01  0.15325314444E+02  0.51100000000E-03 0.  1.
        -12    1    3    3    0    0  0.31366562843E+01 -0.13398634786E+02  0.27970561246E+02  0.31172332656E+02  0.00000000000E+00 0.  1.
</event>
<event>
 7    1  0.3348003E-013  0.7246160E+02  0.7816164E-02  0.1226708E+00
        -11   -1    0    0    0    0  0.00000000000E+00  0.00000000000E+00  0.45593999997E+02  0.45594000000E+02  0.51100000000E-03 0.  1.
         11   -1    0    0    0    0 -0.00000000000E+00 -0.00000000000E+00 -0.45593999997E+02  0.45594000000E+02  0.51100000000E-03 0. -1.
    9900012    2    1    2    0    0  0.16980515466E+02 -0.71785507989E+01  0.32876163593E+01  0.72461603700E+02  0.70000043517E+02 0.  0.
         12    1    1    2    0    0 -0.16980515466E+02  0.71785507989E+01 -0.32876163593E+01  0.18726396300E+02  0.00000000000E+00 0. -1.
         11    1    3    3    0    0 -0.22505168170E+02 -0.84499376226E+00  0.33384367681E+01  0.22767120353E+02  0.51100000000E-03 0. -1.
        -11    1    3    3    0    0  0.14290258973E+02 -0.92786896683E+01  0.12749983167E+02  0.21280687360E+02  0.51100000000E-03 0.  1.
         12    1    3    3    0    0  0.25195424664E+02  0.29451326317E+01 -0.12800803576E+02  0.28413795987E+02  0.00000000000E+00 0. -1.
</event>
<event>
 7    1  0.3348003E-013  0.7246160E+02  0.7816164E-02  0.1226708E+00
        -11   -1    0    0    0    0  0.00000000000E+00  0.00000000000E+00  0.45593999997E+02  0.45594000000E+02  0.51100000000E-03 0. -1.
         11   -1    0    0    0    0 -0.00000000000E+00 -0.00000000000E+00 -0.45593999997E+02  0.45594000000E+02  0.51100000000E-03 0.  1.
    9900012    2    1    2    0    0 -0.16586673381E+02  0.73674416797E+00 -0.86612741073E+01  0.72461596315E+02  0.70000033897E+02 0.  0.
         12    1    1    2    0    0  0.16586673381E+02 -0.73674416797E+00  0.86612741073E+01  0.18726403685E+02  0.00000000000E+00 0. -1.
         11    1    3    3    0    0  0.20543649831E+02  0.58838764047E+01 -0.12502036667E+02  0.24758078904E+02  0.51100000000E-03 0. -1.
        -11    1    3    3    0    0 -0.14546610180E+01  0.71133871528E+01 -0.51766828421E+01  0.89170825370E+01  0.51100000000E-03 0.  1.
        -12    1    3    3    0    0 -0.35675662194E+02 -0.12260519389E+02  0.90174454022E+01  0.38786434874E+02  0.00000000000E+00 0.  1.
</event>
<event>
 7    1  0.3348003E-013  0.7246156E+02  0.7816164E-02  0.1226708E+00
        -11   -1    0    0    0    0  0.00000000000E+00  0.00000000000E+00  0.45593999997E+02  0.45594000000E+02  0.51100000000E-03 0. -1.
         11   -1    0    0    0    0 -0.00000000000E+00 -0.00000000000E+00 -0.45593999997E+02  0.45594000000E+02  0.51100000000E-03 0.  1.
    9900012    2    1    2    0    0  0.37752777154E+01  0.11619128947E+02 -0.14192348292E+02  0.72461558016E+02  0.69999984006E+02 0.  0.
         12    1    1    2    0    0 -0.37752777154E+01 -0.11619128947E+02  0.14192348292E+02  0.18726441984E+02  0.00000000000E+00 0. -1.
         11    1    3    3    0    0  0.17341301813E+02  0.32234442898E+02  0.72970223201E+01  0.37323271460E+02  0.51100000000E-03 0. -1.
        -11    1    3    3    0    0 -0.42542847063E+01 -0.41254920099E+01 -0.13194013797E+02  0.14463769323E+02  0.51100000000E-03 0.  1.
        -12    1    3    3    0    0 -0.93117393917E+01 -0.16489821941E+02 -0.82953568156E+01  0.20674517233E+02  0.00000000000E+00 0.  1.
</event>
<event>
 7    1  0.3348003E-013  0.7246163E+02  0.7816164E-02  0.1226708E+00
        -11   -1    0    0    0    0  0.00000000000E+00  0.00000000000E+00  0.45593999997E+02  0.45594000000E+02  0.51100000000E-03 0. -1.
         11   -1    0    0    0    0 -0.00000000000E+00 -0.00000000000E+00 -0.45593999997E+02  0.45594000000E+02  0.51100000000E-03 0.  1.
    9900012    2    1    2    0    0 -0.10398461558E+02 -0.32153973518E+00 -0.15570666999E+02  0.72461626583E+02  0.70000073326E+02 0.  0.
         12    1    1    2    0    0  0.10398461558E+02  0.32153973518E+00  0.15570666999E+02  0.18726373417E+02  0.00000000000E+00 0. -1.
         11    1    3    3    0    0 -0.28482558083E+00 -0.14838997370E+02  0.50846602283E+01  0.15688554378E+02  0.51100000000E-03 0. -1.
        -11    1    3    3    0    0 -0.58319753578E+01 -0.16308622071E+02  0.31326579418E+01  0.17601040778E+02  0.51100000000E-03 0.  1.
        -12    1    3    3    0    0 -0.42816606198E+01  0.30826079706E+02 -0.23787985169E+02  0.39172031427E+02  0.00000000000E+00 0.  1.
</event>
<event>
 7    1  0.3348003E-013  0.7246136E+02  0.7816164E-02  0.1226709E+00
        -11   -1    0    0    0    0  0.00000000000E+00  0.00000000000E+00  0.45593999997E+02  0.45594000000E+02  0.51100000000E-03 0.  1.
         11   -1    0    0    0    0 -0.00000000000E+00 -0.00000000000E+00 -0.45593999997E+02  0.45594000000E+02  0.51100000000E-03 0. -1.
    9900012    2    1    2    0    0  0.59135494050E+01 -0.16549346098E+02  0.64680894710E+01  0.72461358437E+02  0.69999724016E+02 0.  0.
         12    1    1    2    0    0 -0.59135494050E+01  0.16549346098E+02 -0.64680894710E+01  0.18726641563E+02  0.00000000000E+00 0. -1.
         11    1    3    3    0    0 -0.56075875020E+01 -0.19255269103E+02 -0.18409324330E+02  0.27223402587E+02  0.51100000000E-03 0. -1.
        -11    1    3    3    0    0 -0.64723808077E+01 -0.59164851486E+01 -0.43976394572E+01  0.98099817987E+01  0.51100000000E-03 0.  1.
        -12    1    3    3    0    0  0.17993517715E+02  0.86224081541E+01  0.29275053258E+02  0.35427974052E+02  0.00000000000E+00 0.  1.
</event>
<event>
 7    1  0.3348003E-013  0.7246153E+02  0.7816164E-02  0.1226708E+00
        -11   -1    0    0    0    0  0.00000000000E+00  0.00000000000E+00  0.45593999997E+02  0.45594000000E+02  0.51100000000E-03 0. -1.
         11   -1    0    0    0    0 -0.00000000000E+00 -0.00000000000E+00 -0.45593999997E+02  0.45594000000E+02  0.51100000000E-03 0.  1.
    9900012    2    1    2    0    0 -0.94973755469E+01  0.15872881775E+02 -0.29209594824E+01  0.72461534171E+02  0.69999952943E+02 0.  0.
         12    1    1    2    0    0  0.94973755469E+01 -0.15872881775E+02  0.29209594824E+01  0.18726465829E+02  0.00000000000E+00 0. -1.
         11    1    3    3    0    0 -0.11933430523E+02 -0.19804356238E+01  0.93364725243E+01  0.15280661267E+02  0.51100000000E-03 0. -1.
        -11    1    3    3    0    0 -0.14154454729E+02  0.30156338376E+02 -0.29901015774E+00  0.33314302338E+02  0.51100000000E-03 0.  1.
         12    1    3    3    0    0  0.16590509705E+02 -0.12303020977E+02 -0.11958421849E+02  0.23866570566E+02  0.00000000000E+00 0. -1.
</event>
<event>
 7    1  0.3348003E-013  0.7246160E+02  0.7816164E-02  0.1226708E+00
        -11   -1    0    0    0    0  0.00000000000E+00  0.00000000000E+00  0.45593999997E+02  0.45594000000E+02  0.51100000000E-03 0.  1.
         11   -1    0    0    0    0 -0.00000000000E+00 -0.00000000000E+00 -0.45593999997E+02  0.45594000000E+02  0.51100000000E-03 0. -1.
    9900012    2    1    2    0    0 -0.70087075075E+01 -0.55408297287E+01  0.16457683964E+02  0.72461597877E+02  0.70000035932E+02 0.  0.
         12    1    1    2    0    0  0.70087075075E+01  0.55408297287E+01 -0.16457683964E+02  0.18726402123E+02  0.00000000000E+00 0. -1.
         11    1    3    3    0    0  0.12933662992E+02 -0.13224295820E+02  0.99243762276E+01  0.20991781298E+02  0.51100000000E-03 0. -1.
        -11    1    3    3    0    0 -0.65374631420E+01 -0.66973953174E+01  0.23630078040E+02  0.25416020869E+02  0.51100000000E-03 0.  1.
         12    1    3    3    0    0 -0.13404907357E+02  0.14380861408E+02 -0.17096770303E+02  0.26053795710E+02  0.00000000000E+00 0. -1.
</event>
<event>
 7    1  0.3348003E-013  0.7246101E+02  0.7816164E-02  0.1226709E+00
        -11   -1    0    0    0    0  0.00000000000E+00  0.00000000000E+00  0.45593999997E+02  0.45594000000E+02  0.51100000000E-03 0. -1.
         11   -1    0    0    0    0 -0.00000000000E+00 -0.00000000000E+00 -0.45593999997E+02  0.45594000000E+02  0.51100000000E-03 0.  1.
    9900012    2    1    2    0    0  0.37730520164E+01 -0.13006844349E+02 -0.12933915490E+02  0.72461011685E+02  0.69999272304E+02 0.  0.
         12    1    1    2    0    0 -0.37730520164E+01  0.13006844349E+02  0.12933915490E+02  0.18726988315E+02  0.00000000000E+00 0. -1.
         11    1    3    3    0    0 -0.19269215528E+02 -0.46196207980E+00  0.37377901958E+01  0.19633826724E+02  0.51100000000E-03 0. -1.
        -11    1    3    3    0    0 -0.12651851782E+02 -0.40229926323E+01 -0.26231781473E+01  0.13532733910E+02  0.51100000000E-03 0.  1.
         12    1    3    3    0    0  0.35694119326E+02 -0.85218896368E+01 -0.14048527538E+02  0.39294451051E+02  0.00000000000E+00 0. -1.
</event>
<event>
 7    1  0.3348003E-013  0.7246164E+02  0.7816164E-02  0.1226708E+00
        -11   -1    0    0    0    0  0.00000000000E+00  0.00000000000E+00  0.45593999997E+02  0.45594000000E+02  0.51100000000E-03 0.  1.
         11   -1    0    0    0    0 -0.00000000000E+00 -0.00000000000E+00 -0.45593999997E+02  0.45594000000E+02  0.51100000000E-03 0. -1.
    9900012    2    1    2    0    0 -0.30443747785E+00  0.18379498826E+02  0.35746385129E+01  0.72461636238E+02  0.70000085903E+02 0.  0.
         12    1    1    2    0    0  0.30443747785E+00 -0.18379498826E+02 -0.35746385129E+01  0.18726363762E+02  0.00000000000E+00 0. -1.
         11    1    3    3    0    0 -0.12802850968E+02  0.16324031676E+00 -0.18273116129E-01  0.12803904658E+02  0.51100000000E-03 0. -1.
        -11    1    3    3    0    0 -0.19585203209E+02  0.10248020361E+02  0.12535265473E+02  0.25411316117E+02  0.51100000000E-03 0.  1.
         12    1    3    3    0    0  0.32083616700E+02  0.79682381477E+01 -0.89423538441E+01  0.34246415462E+02  0.00000000000E+00 0. -1.
</event>
<event>
 7    1  0.3348003E-013  0.7246165E+02  0.7816164E-02  0.1226708E+00
        -11   -1    0    0    0    0  0.00000000000E+00  0.00000000000E+00  0.45593999997E+02  0.45594000000E+02  0.51100000000E-03 0. -1.
         11   -1    0    0    0    0 -0.00000000000E+00 -0.00000000000E+00 -0.45593999997E+02  0.45594000000E+02  0.51100000000E-03 0.  1.
    9900012    2    1    2    0    0 -0.56107035821E+01  0.70784042913E+01 -0.16404030402E+02  0.72461654510E+02  0.70000109706E+02 0.  0.
         12    1    1    2    0    0  0.56107035821E+01 -0.70784042913E+01  0.16404030402E+02  0.18726345490E+02  0.00000000000E+00 0. -1.
         11    1    3    3    0    0 -0.34640341067E+01  0.32970422938E+01 -0.15617650323E+01  0.50308180703E+01  0.51100000000E-03 0. -1.
        -11    1    3    3    0    0 -0.33077212736E+02  0.89187642081E+01 -0.10126981395E+02  0.35723971081E+02  0.51100000000E-03 0.  1.
        -12    1    3    3    0    0  0.30930543261E+02 -0.51374022107E+01 -0.47152839747E+01  0.31706865358E+02  0.00000000000E+00 0.  1.
</event>
<event>
 7    1  0.3348003E-013  0.7246148E+02  0.7816164E-02  0.1226708E+00
        -11   -1    0    0    0    0  0.00000000000E+00  0.00000000000E+00  0.45593999997E+02  0.45594000000E+02  0.51100000000E-03 0.  1.
         11   -1    0    0    0    0 -0.00000000000E+00 -0.00000000000E+00 -0.45593999997E+02  0.45594000000E+02  0.51100000000E-03 0. -1.
    9900012    2    1    2    0    0  0.29021767420E+01 -0.78143631594E+01  0.16768890544E+02  0.72461478927E+02  0.69999880977E+02 0.  0.
         12    1    1    2    0    0 -0.29021767420E+01  0.78143631594E+01 -0.16768890544E+02  0.18726521073E+02  0.00000000000E+00 0. -1.
         11    1    3    3    0    0 -0.58098705645E+00 -0.39427120836E+01  0.26817901079E+01  0.48035947974E+01  0.51100000000E-03 0. -1.
        -11    1    3    3    0    0  0.29908587347E+01  0.16592627426E+02  0.34717663964E+02  0.38595034813E+02  0.51100000000E-03 0.  1.
         12    1    3    3    0    0  0.49230506366E+00 -0.20464278502E+02 -0.20630563528E+02  0.29062849316E+02  0.00000000000E+00 0. -1.
</event>
<event>
 7    1  0.3348003E-013  0.7246159E+02  0.7816164E-02  0.1226708E+00
        -11   -1    0    0    0    0  0.00000000000E+00  0.00000000000E+00  0.45593999997E+02  0.45594000000E+02  0.51100000000E-03 0. -1.
         11   -1    0    0    0    0 -0.00000000000E+00 -0.00000000000E+00 -0.45593999997E+02  0.45594000000E+02  0.51100000000E-03 0.  1.
    9900012    2    1    2    0    0  0.55541101716E+00  0.15061324546E+02 -0.11114246477E+02  0.72461589419E+02  0.70000024914E+02 0.  0.
         12    1    1    2    0    0 -0.55541101716E+00 -0.15061324546E+02  0.11114246477E+02  0.18726410581E+02  0.00000000000E+00 0. -1.
         11    1    3    3    0    0 -0.25623429907E+02  0.40573547606E+01 -0.14470558958E+02  0.29705544342E+02  0.51100000000E-03 0. -1.
        -11    1    3    3    0    0  0.45868905801E+00  0.13839382875E+02 -0.62002413457E+01  0.15171747000E+02  0.51100000000E-03 0.  1.
        -12    1    3    3    0    0  0.25720151866E+02 -0.28354130897E+01  0.95565538266E+01  0.27584298078E+02  0.00000000000E+00 0.  1.
</event>
<event>
 7    1  0.3348003E-013  0.7246157E+02  0.7816164E-02  0.1226708E+00
        -11   -1    0    0    0    0  0.00000000000E+00  0.00000000000E+00  0.45593999997E+02  0.45594000000E+02  0.51100000000E-03 0.  1.
         11   -1    0    0    0    0 -0.00000000000E+00 -0.00000000000E+00 -0.45593999997E+02  0.45594000000E+02  0.51100000000E-03 0. -1.
    9900012    2    1    2    0    0 -0.46753755666E+01  0.27628126540E+01  0.17921693427E+02  0.72461565055E+02  0.69999993175E+02 0.  0.
         12    1    1    2    0    0  0.46753755666E+01 -0.27628126540E+01 -0.17921693427E+02  0.18726434945E+02  0.00000000000E+00 0. -1.
         11    1    3    3    0    0 -0.71837910686E+01  0.45300367450E-01 -0.55700066501E+01  0.90903179583E+01  0.51100000000E-03 0. -1.
        -11    1    3    3    0    0 -0.22429467531E+02  0.16600115197E+02  0.26494369078E+01  0.28029704859E+02  0.51100000000E-03 0.  1.
         12    1    3    3    0    0  0.24937883033E+02 -0.13882602911E+02  0.20842263169E+02  0.35341542238E+02  0.00000000000E+00 0. -1.
</event>
<event>
 7    1  0.3348003E-013  0.7246126E+02  0.7816164E-02  0.1226709E+00
        -11   -1    0    0    0    0  0.00000000000E+00  0.00000000000E+00  0.45593999997E+02  0.45594000000E+02  0.51100000000E-03 0.  1.
         11   -1    0    0    0    0 -0.00000000000E+00 -0.00000000000E+00 -0.45593999997E+02  0.45594000000E+02  0.51100000000E-03 0. -1.
    9900012    2    1    2    0    0 -0.18439132677E+02  0.15453808277E+01 -0.28811727553E+01  0.72461255162E+02  0.69999589480E+02 0.  0.
         12    1    1    2    0    0  0.18439132677E+02 -0.15453808277E+01  0.28811727553E+01  0.18726744838E+02  0.00000000000E+00 0. -1.
         11    1    3    3    0    0 -0.48810510860E+01 -0.55497752085E+01 -0.20441199650E+02  0.21736313118E+02  0.51100000000E-03 0. -1.
        -11    1    3    3    0    0 -0.14806124088E+02  0.21969211380E+02 -0.14770456233E+01  0.26533925891E+02  0.51100000000E-03 0.  1.
        -12    1    3    3    0    0  0.12480424965E+01 -0.14874055344E+02  0.19037072518E+02  0.24191016153E+02  0.00000000000E+00 0.  1.
</event>
<event>
 7    1  0.3348003E-013  0.7246156E+02  0.7816164E-02  0.1226708E+00
        -11   -1    0    0    0    0  0.00000000000E+00  0.00000000000E+00  0.45593999997E+02  0.45594000000E+02  0.51100000000E-03 0.  1.
         11   -1    0    0    0    0 -0.00000000000E+00 -0.00000000000E+00 -0.45593999997E+02  0.45594000000E+02  0.51100000000E-03 0. -1.
    9900012    2    1    2    0    0  0.32902151327E+01 -0.13833366745E+02  0.12185723837E+02  0.72461563698E+02  0.69999991408E+02 0.  0.
         12    1    1    2    0    0 -0.32902151327E+01  0.13833366745E+02 -0.12185723837E+02  0.18726436302E+02  0.00000000000E+00 0. -1.
         11    1    3    3    0    0 -0.14707503504E+02 -0.11577055459E+02  0.12235420819E+02  0.22361672462E+02  0.51100000000E-03 0. -1.
        -11    1    3    3    0    0  0.10052352300E+02 -0.11916857321E+02  0.20674258410E+02  0.25893748980E+02  0.51100000000E-03 0.  1.
         12    1    3    3    0    0  0.79453663364E+01  0.96605460352E+01 -0.20723955391E+02  0.24206142257E+02  0.00000000000E+00 0. -1.
</event>
<event>
 7    1  0.3348003E-013  0.7246158E+02  0.7816164E-02  0.1226708E+00
        -11   -1    0    0    0    0  0.00000000000E+00  0.00000000000E+00  0.45593999997E+02  0.45594000000E+02  0.51100000000E-03 0. -1.
         11   -1    0    0    0    0 -0.00000000000E+00 -0.00000000000E+00 -0.45593999997E+02  0.45594000000E+02  0.51100000000E-03 0.  1.
    9900012    2    1    2    0    0  0.92134294354E+01 -0.14498523073E+02 -0.74554941280E+01  0.72461578934E+02  0.70000011255E+02 0.  0.
         12    1    1    2    0    0 -0.92134294354E+01  0.14498523073E+02  0.74554941280E+01  0.18726421066E+02  0.00000000000E+00 0. -1.
         11    1    3    3    0    0  0.67540894845E+01 -0.14888459132E+02 -0.20771236268E+02  0.26433467356E+02  0.51100000000E-03 0. -1.
        -11    1    3    3    0    0  0.21588941718E+02  0.85993378662E+01  0.66900548786E+01  0.24182387202E+02  0.51100000000E-03 0.  1.
         12    1    3    3    0    0 -0.19129601767E+02 -0.82094018069E+01  0.66256872619E+01  0.21845724376E+02  0.00000000000E+00 0. -1.
</event>
<event>
 7    1  0.3348003E-013  0.7246157E+02  0.7816164E-02  0.1226708E+00
        -11   -1    0    0    0    0  0.00000000000E+00  0.00000000000E+00  0.45593999997E+02  0.45594000000E+02  0.51100000000E-03 0.  1.
         11   -1    0    0    0    0 -0.00000000000E+00 -0.00000000000E+00 -0.45593999997E+02  0.45594000000E+02  0.51100000000E-03 0. -1.
    9900012    2    1    2    0    0  0.19039465318E-01 -0.37340476177E+01  0.18350358132E+02  0.72461571678E+02  0.70000001803E+02 0.  0.
         12    1    1    2    0    0 -0.19039465318E-01  0.37340476177E+01 -0.18350358132E+02  0.18726428322E+02  0.00000000000E+00 0. -1.
         11    1    3    3    0    0 -0.69683141232E+01  0.10096050260E+02 -0.18432579075E+02  0.22141535723E+02  0.51100000000E-03 0. -1.
        -11    1    3    3    0    0 -0.47164067523E+01  0.80426723057E+01  0.76830740757E+01  0.12081336763E+02  0.51100000000E-03 0.  1.
        -12    1    3    3    0    0  0.11703760341E+02 -0.21872770184E+02  0.29099863131E+02  0.38238699192E+02  0.00000000000E+00 0.  1.
</event>
<event>
 7    1  0.3348003E-013  0.7246134E+02  0.7816164E-02  0.1226709E+00
        -11   -1    0    0    0    0  0.00000000000E+00  0.00000000000E+00  0.45593999997E+02  0.45594000000E+02  0.51100000000E-03 0. -1.
         11   -1    0    0    0    0 -0.00000000000E+00 -0.00000000000E+00 -0.45593999997E+02  0.45594000000E+02  0.51100000000E-03 0.  1.
    9900012    2    1    2    0    0  0.56076739727E+01 -0.17803026323E+02  0.15146045026E+01  0.72461340382E+02  0.69999700496E+02 0.  0.
         12    1    1    2    0    0 -0.56076739727E+01  0.17803026323E+02 -0.15146045026E+01  0.18726659618E+02  0.00000000000E+00 0. -1.
         11    1    3    3    0    0 -0.40153088911E+01  0.17076640728E+02 -0.27142917594E+01  0.17751105432E+02  0.51100000000E-03 0. -1.
        -11    1    3    3    0    0 -0.20807938372E+01  0.83347649859E+01 -0.35009962338E+01  0.92765826279E+01  0.51100000000E-03 0.  1.
        -12    1    3    3    0    0  0.11703776701E+02 -0.43214432037E+02  0.77298924958E+01  0.45433652322E+02  0.00000000000E+00 0.  1.
</event>
<event>
 7    1  0.3348003E-013  0.7246159E+02  0.7816164E-02  0.1226708E+00
        -11   -1    0    0    0    0  0.00000000000E+00  0.00000000000E+00  0.45593999997E+02  0.45594000000E+02  0.51100000000E-03 0. -1.
         11   -1    0    0    0    0 -0.00000000000E+00 -0.00000000000E+00 -0.45593999997E+02  0.45594000000E+02  0.51100000000E-03 0.  1.
    9900012    2    1    2    0    0  0.56548079517E+01 -0.37124652804E+01 -0.17461932607E+02  0.72461592395E+02  0.70000028790E+02 0.  0.
         12    1    1    2    0    0 -0.56548079517E+01  0.37124652804E+01  0.17461932607E+02  0.18726407605E+02  0.00000000000E+00 0. -1.
         11    1    3    3    0    0  0.10027319109E+02  0.29651351151E+02 -0.12066123817E+02  0.33546104063E+02  0.51100000000E-03 0. -1.
        -11    1    3    3    0    0 -0.20217768798E+01  0.10162246790E+01 -0.37945158398E+01  0.44179910672E+01  0.51100000000E-03 0.  1.
         12    1    3    3    0    0 -0.23507342771E+01 -0.34380041110E+02 -0.16012929495E+01  0.34497497264E+02  0.00000000000E+00 0. -1.
</event>
<event>
 7    1  0.3348003E-013  0.7246152E+02  0.7816164E-02  0.1226708E+00
        -11   -1    0    0    0    0  0.00000000000E+00  0.00000000000E+00  0.45593999997E+02  0.45594000000E+02  0.51100000000E-03 0.  1.
         11   -1    0    0    0    0 -0.00000000000E+00 -0.00000000000E+00 -0.45593999997E+02  0.45594000000E+02  0.51100000000E-03 0. -1.
    9900012    2    1    2    0    0 -0.68441334596E+01  0.89598552449E+01 -0.14951914046E+02  0.72461524025E+02  0.69999939725E+02 0.  0.
         12    1    1    2    0    0  0.68441334596E+01 -0.89598552449E+01  0.14951914046E+02  0.18726475975E+02  0.00000000000E+00 0. -1.
         11    1    3    3    0    0 -0.24687167935E+01 -0.10142859423E+02 -0.76073102724E+01  0.12916784806E+02  0.51100000000E-03 0. -1.
        -11    1    3    3    0    0 -0.85971271532E+00 -0.14970172349E+02 -0.18228428414E+02  0.23603405873E+02  0.51100000000E-03 0.  1.
        -12    1    3    3    0    0 -0.35157039507E+01  0.34072887017E+02  0.10883824640E+02  0.35941333346E+02  0.00000000000E+00 0.  1.
</event>
<event>
 7    1  0.3348003E-013  0.7246156E+02  0.7816164E-02  0.1226708E+00
        -11   -1    0    0    0    0  0.00000000000E+00  0.00000000000E+00  0.45593999997E+02  0.45594000000E+02  0.51100000000E-03 0.  1.
         11   -1    0    0    0    0 -0.00000000000E+00 -0.00000000000E+00 -0.45593999997E+02  0.45594000000E+02  0.51100000000E-03 0. -1.
    9900012    2    1    2    0    0  0.86829980227E+01 -0.15333802957E+02 -0.63371522805E+01  0.72461562357E+02  0.69999989660E+02 0.  0.
         12    1    1    2    0    0 -0.86829980227E+01  0.15333802957E+02  0.63371522805E+01  0.18726437643E+02  0.00000000000E+00 0. -1.
         11    1    3    3    0    0 -0.12762266135E+02 -0.27283236835E+01  0.23150892032E+02  0.26575985197E+02  0.51100000000E-03 0. -1.
        -11    1    3    3    0    0 -0.20264749424E+01  0.23850379100E+01  0.21033353273E+01  0.37708124170E+01  0.51100000000E-03 0.  1.
        -12    1    3    3    0    0  0.23471739100E+02 -0.14990517183E+02 -0.31591379640E+02  0.42114764743E+02  0.00000000000E+00 0.  1.
</event>
<event>
 7    1  0.3348003E-013  0.7246156E+02  0.7816164E-02  0.1226708E+00
        -11   -1    0    0    0    0  0.00000000000E+00  0.00000000000E+00  0.45593999997E+02  0.45594000000E+02  0.51100000000E-03 0. -1.
         11   -1    0    0    0    0 -0.00000000000E+00 -0.00000000000E+00 -0.45593999997E+02  0.45594000000E+02  0.51100000000E-03 0.  1.
    9900012    2    1    2    0    0 -0.69576381994E+01 -0.16164401515E+02  0.64017968505E+01  0.72461558572E+02  0.69999984729E+02 0.  0.
         12    1    1    2    0    0  0.69576381994E+01  0.16164401515E+02 -0.64017968505E+01  0.18726441428E+02  0.00000000000E+00 0. -1.
         11    1    3    3    0    0  0.93886673353E+01  0.75862546793E+01  0.23212859831E+02  0.26163623529E+02  0.51100000000E-03 0. -1.
        -11    1    3    3    0    0  0.58182343299E+01  0.40563209855E+01 -0.31866797309E+00  0.70997986022E+01  0.51100000000E-03 0.  1.
        -12    1    3    3    0    0 -0.22164539865E+02 -0.27806977180E+02 -0.16492395007E+02  0.39198136440E+02  0.00000000000E+00 0.  1.
</event>
<event>
 7    1  0.3348003E-013  0.7246160E+02  0.7816164E-02  0.1226708E+00
        -11   -1    0    0    0    0  0.00000000000E+00  0.00000000000E+00  0.45593999997E+02  0.45594000000E+02  0.51100000000E-03 0.  1.
         11   -1    0    0    0    0 -0.00000000000E+00 -0.00000000000E+00 -0.45593999997E+02  0.45594000000E+02  0.51100000000E-03 0. -1.
    9900012    2    1    2    0    0 -0.17185274874E+02 -0.70627956839E+01 -0.23369207918E+01  0.72461602745E+02  0.70000042273E+02 0.  0.
         12    1    1    2    0    0  0.17185274874E+02  0.70627956839E+01  0.23369207918E+01  0.18726397255E+02  0.00000000000E+00 0. -1.
         11    1    3    3    0    0 -0.29208785724E+02  0.42054425267E+01  0.56472960155E+01  0.30045479907E+02  0.51100000000E-03 0. -1.
        -11    1    3    3    0    0 -0.31116399471E+01 -0.19278779828E+02  0.58676737490E+01  0.20390763848E+02  0.51100000000E-03 0.  1.
        -12    1    3    3    0    0  0.15135150797E+02  0.80105416174E+01 -0.13851890556E+02  0.22025358990E+02  0.00000000000E+00 0.  1.
</event>
<event>
 7    1  0.3348003E-013  0.7246159E+02  0.7816164E-02  0.1226708E+00
        -11   -1    0    0    0    0  0.00000000000E+00  0.00000000000E+00  0.45593999997E+02  0.45594000000E+02  0.51100000000E-03 0. -1.
         11   -1    0    0    0    0 -0.00000000000E+00 -0.00000000000E+00 -0.45593999997E+02  0.45594000000E+02  0.51100000000E-03 0.  1.
    9900012    2    1    2    0    0 -0.80882768881E+01 -0.28833723600E+01 -0.16641643414E+02  0.72461592051E+02  0.70000028342E+02 0.  0.
         12    1    1    2    0    0  0.80882768881E+01  0.28833723600E+01  0.16641643414E+02  0.18726407949E+02  0.00000000000E+00 0. -1.
         11    1    3    3    0    0  0.32548457742E+01  0.39783684574E+01  0.41988705041E+01  0.66371643318E+01  0.51100000000E-03 0. -1.
        -11    1    3    3    0    0 -0.20210561133E+02  0.15577245587E+02  0.93510038313E+01  0.27176435276E+02  0.51100000000E-03 0.  1.
         12    1    3    3    0    0  0.88674384711E+01 -0.22438986404E+02 -0.30191517749E+02  0.38647992443E+02  0.00000000000E+00 0. -1.
</event>
<event>
 7    1  0.3348003E-013  0.7246158E+02  0.7816164E-02  0.1226708E+00
        -11   -1    0    0    0    0  0.00000000000E+00  0.00000000000E+00  0.45593999997E+02  0.45594000000E+02  0.51100000000E-03 0.  1.
         11   -1    0    0    0    0 -0.00000000000E+00 -0.00000000000E+00 -0.45593999997E+02  0.45594000000E+02  0.51100000000E-03 0. -1.
    9900012    2    1    2    0    0 -0.14240694508E+02 -0.74044148423E+01  0.96465587538E+01  0.72461579226E+02  0.70000011635E+02 0.  0.
         12    1    1    2    0    0  0.14240694508E+02  0.74044148423E+01 -0.96465587538E+01  0.18726420774E+02  0.00000000000E+00 0. -1.
         11    1    3    3    0    0 -0.33737957518E+01  0.12461546001E+02 -0.53287164512E+01  0.13966669102E+02  0.51100000000E-03 0. -1.
        -11    1    3    3    0    0 -0.85504662401E+01  0.13035984456E+02  0.19756507982E+02  0.25166783099E+02  0.51100000000E-03 0.  1.
        -12    1    3    3    0    0 -0.23164325162E+01 -0.32901945300E+02 -0.47812327766E+01  0.33328127025E+02  0.00000000000E+00 0.  1.
</event>
<event>
 7    1  0.3348003E-013  0.7246158E+02  0.7816164E-02  0.1226708E+00
        -11   -1    0    0    0    0  0.00000000000E+00  0.00000000000E+00  0.45593999997E+02  0.45594000000E+02  0.51100000000E-03 0. -1.
         11   -1    0    0    0    0 -0.00000000000E+00 -0.00000000000E+00 -0.45593999997E+02  0.45594000000E+02  0.51100000000E-03 0.  1.
    9900012    2    1    2    0    0 -0.12095091172E+02  0.13914055727E+02 -0.32842955546E+01  0.72461580841E+02  0.70000013738E+02 0.  0.
         12    1    1    2    0    0  0.12095091172E+02 -0.13914055727E+02  0.32842955546E+01  0.18726419159E+02  0.00000000000E+00 0. -1.
         11    1    3    3    0    0  0.22574104493E+01  0.13522829190E+02 -0.54805866940E+01  0.14764810937E+02  0.51100000000E-03 0. -1.
        -11    1    3    3    0    0 -0.69963095051E+01  0.27709178316E+02 -0.36409893442E+01  0.28809785027E+02  0.51100000000E-03 0.  1.
         12    1    3    3    0    0 -0.73561921164E+01 -0.27317951778E+02  0.58372804835E+01  0.28886984877E+02  0.00000000000E+00 0. -1.
</event>
<event>
 7    1  0.3348003E-013  0.7246149E+02  0.7816164E-02  0.1226708E+00
        -11   -1    0    0    0    0  0.00000000000E+00  0.00000000000E+00  0.45593999997E+02  0.45594000000E+02  0.51100000000E-03 0. -1.
         11   -1    0    0    0    0 -0.00000000000E+00 -0.00000000000E+00 -0.45593999997E+02  0.45594000000E+02  0.51100000000E-03 0.  1.
    9900012    2    1    2    0    0 -0.68477355254E+01  0.31166396634E+01 -0.17148676348E+02  0.72461494050E+02  0.69999900677E+02 0.  0.
         12    1    1    2    0    0  0.68477355254E+01 -0.31166396634E+01  0.17148676348E+02  0.18726505950E+02  0.00000000000E+00 0. -1.
         11    1    3    3    0    0  0.19248718078E+01  0.14264274615E+02  0.17557801754E+02  0.22703547398E+02  0.51100000000E-03 0. -1.
        -11    1    3    3    0    0  0.77332567924E+00  0.49970641014E+01  0.41956446585E+01  0.65705491856E+01  0.51100000000E-03 0.  1.
        -12    1    3    3    0    0 -0.95459330125E+01 -0.16144699053E+02 -0.38902122760E+02  0.43187397466E+02  0.00000000000E+00 0.  1.
</event>
<event>
 7    1  0.3348003E-013  0.7246145E+02  0.7816164E-02  0.1226708E+00
        -11   -1    0    0    0    0  0.00000000000E+00  0.00000000000E+00  0.45593999997E+02  0.45594000000E+02  0.51100000000E-03 0. -1.
         11   -1    0    0    0    0 -0.00000000000E+00 -0.00000000000E+00 -0.45593999997E+02  0.45594000000E+02  0.51100000000E-03 0.  1.
    9900012    2    1    2    0    0  0.12337779830E+01 -0.10658484756E+02 -0.15347904854E+02  0.72461449629E+02  0.69999842810E+02 0.  0.
         12    1    1    2    0    0 -0.12337779830E+01  0.10658484756E+02  0.15347904854E+02  0.18726550371E+02  0.00000000000E+00 0. -1.
         11    1    3    3    0    0 -0.57058647610E+01 -0.19497255781E+02  0.10899849927E+02  0.23054427002E+02  0.51100000000E-03 0. -1.
        -11    1    3    3    0    0 -0.16397576983E+02  0.11442004678E+01 -0.57724908137E+01  0.17421577887E+02  0.51100000000E-03 0.  1.
        -12    1    3    3    0    0  0.23337219727E+02  0.76945705576E+01 -0.20475263968E+02  0.31985444740E+02  0.00000000000E+00 0.  1.
</event>
<event>
 7    1  0.3348003E-013  0.7246165E+02  0.7816164E-02  0.1226708E+00
        -11   -1    0    0    0    0  0.00000000000E+00  0.00000000000E+00  0.45593999997E+02  0.45594000000E+02  0.51100000000E-03 0. -1.
         11   -1    0    0    0    0 -0.00000000000E+00 -0.00000000000E+00 -0.45593999997E+02  0.45594000000E+02  0.51100000000E-03 0.  1.
    9900012    2    1    2    0    0  0.77469950074E+01 -0.32238435747E+01 -0.16741176142E+02  0.72461652848E+02  0.70000107542E+02 0.  0.
         12    1    1    2    0    0 -0.77469950074E+01  0.32238435747E+01  0.16741176142E+02  0.18726347152E+02  0.00000000000E+00 0. -1.
         11    1    3    3    0    0 -0.60049131154E+01 -0.15909302998E+02 -0.25804235659E+02  0.30903454202E+02  0.51100000000E-03 0.  1.
        -11    1    3    3    0    0 -0.18122075844E+01 -0.67010442463E+01 -0.86067917071E+01  0.11057348419E+02  0.51100000000E-03 0. -1.
         12    1    3    3    0    0  0.15564115707E+02  0.19386503670E+02  0.17669851224E+02  0.30500850227E+02  0.00000000000E+00 0. -1.
</event>
<event>
 7    1  0.3698302E-013  0.7246157E+02  0.7816164E-02  0.1226708E+00
        -11   -1    0    0    0    0  0.00000000000E+00  0.00000000000E+00  0.45593999997E+02  0.45594000000E+02  0.51100000000E-03 0. -1.
         11   -1    0    0    0    0 -0.00000000000E+00 -0.00000000000E+00 -0.45593999997E+02  0.45594000000E+02  0.51100000000E-03 0.  1.
    9900012    2    1    2    0    0  0.66341800980E+01 -0.14568169381E+02 -0.97177866622E+01  0.72461567283E+02  0.69999996078E+02 0.  0.
         12    1    1    2    0    0 -0.66341800980E+01  0.14568169381E+02  0.97177866622E+01  0.18726432717E+02  0.00000000000E+00 0. -1.
         11    1    3    3    0    0  0.14705902655E+01  0.16253021641E+02  0.67638106534E+01  0.17665573385E+02  0.51100000000E-03 0. -1.
        -11    1    3    3    0    0 -0.12182540352E+02  0.10583528539E+01 -0.13748777977E+02  0.18400089573E+02  0.51100000000E-03 0.  1.
        -12    1    3    3    0    0  0.17346130184E+02 -0.31879543876E+02 -0.27328193387E+01  0.36395904325E+02  0.00000000000E+00 0.  1.
</event>
<event>
 7    1  0.3348003E-013  0.7246152E+02  0.7816164E-02  0.1226708E+00
        -11   -1    0    0    0    0  0.00000000000E+00  0.00000000000E+00  0.45593999997E+02  0.45594000000E+02  0.51100000000E-03 0. -1.
         11   -1    0    0    0    0 -0.00000000000E+00 -0.00000000000E+00 -0.45593999997E+02  0.45594000000E+02  0.51100000000E-03 0.  1.
    9900012    2    1    2    0    0 -0.57277304440E+01 -0.17218611766E+02  0.46253279625E+01  0.72461517524E+02  0.69999931256E+02 0.  0.
         12    1    1    2    0    0  0.57277304440E+01  0.17218611766E+02 -0.46253279625E+01  0.18726482476E+02  0.00000000000E+00 0. -1.
         11    1    3    3    0    0 -0.68726369458E+01  0.93544282771E+01  0.22654396178E+02  0.25455061057E+02  0.51100000000E-03 0. -1.
        -11    1    3    3    0    0 -0.14017291732E+02 -0.22191257827E+02 -0.54103218740E+01  0.26799402502E+02  0.51100000000E-03 0.  1.
        -12    1    3    3    0    0  0.15162198234E+02 -0.43817822157E+01 -0.12618746342E+02  0.20207053964E+02  0.00000000000E+00 0.  1.
</event>
<event>
 7    1  0.3348003E-013  0.7246157E+02  0.7816164E-02  0.1226708E+00
        -11   -1    0    0    0    0  0.00000000000E+00  0.00000000000E+00  0.45593999997E+02  0.45594000000E+02  0.51100000000E-03 0.  1.
         11   -1    0    0    0    0 -0.00000000000E+00 -0.00000000000E+00 -0.45593999997E+02  0.45594000000E+02  0.51100000000E-03 0. -1.
    9900012    2    1    2    0    0 -0.67847291394E+01  0.12893673531E+01  0.17406445474E+02  0.72461565163E+02  0.69999993316E+02 0.  0.
         12    1    1    2    0    0  0.67847291394E+01 -0.12893673531E+01 -0.17406445474E+02  0.18726434837E+02  0.00000000000E+00 0. -1.
         11    1    3    3    0    0 -0.16980994671E+02  0.55286198050E+01 -0.12846994872E+02  0.21999206678E+02  0.51100000000E-03 0. -1.
        -11    1    3    3    0    0  0.81472775049E+01 -0.20630819509E+02  0.10013043498E+02  0.24336595586E+02  0.51100000000E-03 0.  1.
        -12    1    3    3    0    0  0.20489880267E+01  0.16391567057E+02  0.20240396848E+02  0.26125762899E+02  0.00000000000E+00 0.  1.
</event>
<event>
 7    1  0.3348003E-013  0.7246150E+02  0.7816164E-02  0.1226708E+00
        -11   -1    0    0    0    0  0.00000000000E+00  0.00000000000E+00  0.45593999997E+02  0.45594000000E+02  0.51100000000E-03 0. -1.
         11   -1    0    0    0    0 -0.00000000000E+00 -0.00000000000E+00 -0.45593999997E+02  0.45594000000E+02  0.51100000000E-03 0.  1.
    9900012    2    1    2    0    0  0.10587953332E+02  0.16863385126E+01 -0.15353608913E+02  0.72461500061E+02  0.69999908508E+02 0.  0.
         12    1    1    2    0    0 -0.10587953332E+02 -0.16863385126E+01  0.15353608913E+02  0.18726499939E+02  0.00000000000E+00 0. -1.
         11    1    3    3    0    0  0.20832043265E+01 -0.25496871440E+02  0.85782375947E+01  0.26981778184E+02  0.51100000000E-03 0. -1.
        -11    1    3    3    0    0  0.14874308105E+02  0.58087304584E+01 -0.67991044473E+01  0.17355523982E+02  0.51100000000E-03 0.  1.
        -12    1    3    3    0    0 -0.63695590996E+01  0.21374479494E+02 -0.17132742060E+02  0.28124197895E+02  0.00000000000E+00 0.  1.
</event>
<event>
 7    1  0.3348003E-013  0.7246162E+02  0.7816164E-02  0.1226708E+00
        -11   -1    0    0    0    0  0.00000000000E+00  0.00000000000E+00  0.45593999997E+02  0.45594000000E+02  0.51100000000E-03 0.  1.
         11   -1    0    0    0    0 -0.00000000000E+00 -0.00000000000E+00 -0.45593999997E+02  0.45594000000E+02  0.51100000000E-03 0. -1.
    9900012    2    1    2    0    0  0.92316457352E+01  0.11150366949E+02  0.11879533085E+02  0.72461620948E+02  0.70000065986E+02 0.  0.
         12    1    1    2    0    0 -0.92316457352E+01 -0.11150366949E+02 -0.11879533085E+02  0.18726379052E+02  0.00000000000E+00 0. -1.
         11    1    3    3    0    0 -0.52531052207E+01  0.25612510066E+02 -0.26987366085E+01  0.26284576578E+02  0.51100000000E-03 0. -1.
        -11    1    3    3    0    0 -0.96851540155E+01 -0.12545408833E+01  0.15835947729E+02  0.18605196099E+02  0.51100000000E-03 0.  1.
        -12    1    3    3    0    0  0.24169904971E+02 -0.13207602233E+02 -0.12576780363E+01  0.27571848272E+02  0.00000000000E+00 0.  1.
</event>
<event>
 7    1  0.3348003E-013  0.7246155E+02  0.7816164E-02  0.1226708E+00
        -11   -1    0    0    0    0  0.00000000000E+00  0.00000000000E+00  0.45593999997E+02  0.45594000000E+02  0.51100000000E-03 0. -1.
         11   -1    0    0    0    0 -0.00000000000E+00 -0.00000000000E+00 -0.45593999997E+02  0.45594000000E+02  0.51100000000E-03 0.  1.
    9900012    2    1    2    0    0  0.10006619128E+01 -0.63359272127E+01 -0.17593592940E+02  0.72461553181E+02  0.69999977707E+02 0.  0.
         12    1    1    2    0    0 -0.10006619128E+01  0.63359272127E+01  0.17593592940E+02  0.18726446819E+02  0.00000000000E+00 0. -1.
         11    1    3    3    0    0  0.12699969863E+02 -0.73011249167E+01 -0.16978802416E+02  0.22424883307E+02  0.51100000000E-03 0. -1.
        -11    1    3    3    0    0 -0.19855612480E+02 -0.18770039229E+02 -0.60855811648E+01  0.27992749383E+02  0.51100000000E-03 0.  1.
         12    1    3    3    0    0  0.81563045303E+01  0.19735236933E+02  0.54707906408E+01  0.22043920492E+02  0.00000000000E+00 0. -1.
</event>
<event>
 7    1  0.3348003E-013  0.7246155E+02  0.7816164E-02  0.1226708E+00
        -11   -1    0    0    0    0  0.00000000000E+00  0.00000000000E+00  0.45593999997E+02  0.45594000000E+02  0.51100000000E-03 0. -1.
         11   -1    0    0    0    0 -0.00000000000E+00 -0.00000000000E+00 -0.45593999997E+02  0.45594000000E+02  0.51100000000E-03 0.  1.
    9900012    2    1    2    0    0  0.16210250376E+02  0.35219951768E+01 -0.86892676720E+01  0.72461547053E+02  0.69999969724E+02 0.  0.
         12    1    1    2    0    0 -0.16210250376E+02 -0.35219951768E+01  0.86892676720E+01  0.18726452947E+02  0.00000000000E+00 0. -1.
         11    1    3    3    0    0 -0.12369459856E+02  0.78309554074E+01  0.27205199418E+01  0.14890555018E+02  0.51100000000E-03 0. -1.
        -11    1    3    3    0    0  0.29343401231E+01 -0.16779786143E+02 -0.21402631120E+02  0.27354052609E+02  0.51100000000E-03 0.  1.
         12    1    3    3    0    0  0.25645370109E+02  0.12470825913E+02  0.99928435067E+01  0.30216939427E+02  0.00000000000E+00 0. -1.
</event>
<event>
 7    1  0.3348003E-013  0.7246157E+02  0.7816164E-02  0.1226708E+00
        -11   -1    0    0    0    0  0.00000000000E+00  0.00000000000E+00  0.45593999997E+02  0.45594000000E+02  0.51100000000E-03 0.  1.
         11   -1    0    0    0    0 -0.00000000000E+00 -0.00000000000E+00 -0.45593999997E+02  0.45594000000E+02  0.51100000000E-03 0. -1.
    9900012    2    1    2    0    0 -0.13586468318E+02 -0.14649536221E+01  0.12803937842E+02  0.72461573893E+02  0.70000004689E+02 0.  0.
         12    1    1    2    0    0  0.13586468318E+02  0.14649536221E+01 -0.12803937842E+02  0.18726426107E+02  0.00000000000E+00 0. -1.
         11    1    3    3    0    0 -0.34875445014E+02  0.15166242717E+02 -0.10138491969E+01  0.38043915066E+02  0.51100000000E-03 0. -1.
        -11    1    3    3    0    0 -0.26733710712E+01 -0.26834219257E+01  0.19193398671E+01  0.42463551314E+01  0.51100000000E-03 0.  1.
        -12    1    3    3    0    0  0.23962347768E+02 -0.13947774413E+02  0.11898447172E+02  0.30171303696E+02  0.00000000000E+00 0.  1.
</event>
<event>
 7    1  0.3348003E-013  0.7246158E+02  0.7816164E-02  0.1226708E+00
        -11   -1    0    0    0    0  0.00000000000E+00  0.00000000000E+00  0.45593999997E+02  0.45594000000E+02  0.51100000000E-03 0.  1.
         11   -1    0    0    0    0 -0.00000000000E+00 -0.00000000000E+00 -0.45593999997E+02  0.45594000000E+02  0.51100000000E-03 0. -1.
    9900012    2    1    2    0    0 -0.15630973798E+02  0.14336115290E+01  0.10212557509E+02  0.72461577097E+02  0.70000008861E+02 0.  0.
         12    1    1    2    0    0  0.15630973798E+02 -0.14336115290E+01 -0.10212557509E+02  0.18726422903E+02  0.00000000000E+00 0. -1.
         11    1    3    3    0    0 -0.21793746224E+02 -0.12392835775E+02  0.98652111148E+01  0.26942014469E+02  0.51100000000E-03 0. -1.
        -11    1    3    3    0    0 -0.81302056473E+01  0.20655943133E+02 -0.12183194794E+02  0.25321896971E+02  0.51100000000E-03 0.  1.
        -12    1    3    3    0    0  0.14292978074E+02 -0.68294958290E+01  0.12530541189E+02  0.20197665657E+02  0.00000000000E+00 0.  1.
</event>
<event>
 7    1  0.3348003E-013  0.7246165E+02  0.7816164E-02  0.1226708E+00
        -11   -1    0    0    0    0  0.00000000000E+00  0.00000000000E+00  0.45593999997E+02  0.45594000000E+02  0.51100000000E-03 0.  1.
         11   -1    0    0    0    0 -0.00000000000E+00 -0.00000000000E+00 -0.45593999997E+02  0.45594000000E+02  0.51100000000E-03 0. -1.
    9900012    2    1    2    0    0 -0.76822632140E+01  0.10903388840E+02  0.13144389109E+02  0.72461654352E+02  0.70000109500E+02 0.  0.
         12    1    1    2    0    0  0.76822632140E+01 -0.10903388840E+02 -0.13144389109E+02  0.18726345648E+02  0.00000000000E+00 0. -1.
         11    1    3    3    0    0 -0.22717657647E+01  0.22949318275E+02  0.32070617401E+02  0.39501349720E+02  0.51100000000E-03 0. -1.
        -11    1    3    3    0    0  0.78906360055E+01  0.14743764836E+00 -0.18262795850E+01  0.81005661417E+01  0.51100000000E-03 0.  1.
        -12    1    3    3    0    0 -0.13301133455E+02 -0.12193367083E+02 -0.17099948707E+02  0.24859738490E+02  0.00000000000E+00 0.  1.
</event>
<event>
 7    1  0.3348003E-013  0.7246150E+02  0.7816164E-02  0.1226708E+00
        -11   -1    0    0    0    0  0.00000000000E+00  0.00000000000E+00  0.45593999997E+02  0.45594000000E+02  0.51100000000E-03 0.  1.
         11   -1    0    0    0    0 -0.00000000000E+00 -0.00000000000E+00 -0.45593999997E+02  0.45594000000E+02  0.51100000000E-03 0. -1.
    9900012    2    1    2    0    0 -0.13079562245E+02 -0.22751085221E+01  0.13207227582E+02  0.72461496650E+02  0.69999904065E+02 0.  0.
         12    1    1    2    0    0  0.13079562245E+02  0.22751085221E+01 -0.13207227582E+02  0.18726503350E+02  0.00000000000E+00 0. -1.
         11    1    3    3    0    0  0.31542597582E+01 -0.52506285385E+01  0.21447729012E+01  0.64898771737E+01  0.51100000000E-03 0. -1.
        -11    1    3    3    0    0  0.17042047106E+02 -0.18018391905E+02 -0.99355827531E+00  0.24820978520E+02  0.51100000000E-03 0.  1.
         12    1    3    3    0    0 -0.33275869109E+02  0.20993911921E+02  0.12056012957E+02  0.41150640956E+02  0.00000000000E+00 0. -1.
</event>
<event>
 7    1  0.3779236E-013  0.7246160E+02  0.7816164E-02  0.1226708E+00
        -11   -1    0    0    0    0  0.00000000000E+00  0.00000000000E+00  0.45593999997E+02  0.45594000000E+02  0.51100000000E-03 0. -1.
         11   -1    0    0    0    0 -0.00000000000E+00 -0.00000000000E+00 -0.45593999997E+02  0.45594000000E+02  0.51100000000E-03 0.  1.
    9900012    2    1    2    0    0  0.47504033962E+01 -0.43273818386E+01 -0.17589356303E+02  0.72461600956E+02  0.70000039942E+02 0.  0.
         12    1    1    2    0    0 -0.47504033962E+01  0.43273818386E+01  0.17589356303E+02  0.18726399044E+02  0.00000000000E+00 0. -1.
         11    1    3    3    0    0 -0.48999919070E+01 -0.47102416153E+01 -0.66672872455E+01  0.95209776934E+01  0.51100000000E-03 0. -1.
        -11    1    3    3    0    0 -0.15629777939E+02 -0.20455130772E+01 -0.28142443937E+02  0.32256336325E+02  0.51100000000E-03 0.  1.
         12    1    3    3    0    0  0.25280173242E+02  0.24283728539E+01  0.17220374879E+02  0.30684286937E+02  0.00000000000E+00 0. -1.
</event>
<event>
 7    1  0.3348003E-013  0.7246158E+02  0.7816164E-02  0.1226708E+00
        -11   -1    0    0    0    0  0.00000000000E+00  0.00000000000E+00  0.45593999997E+02  0.45594000000E+02  0.51100000000E-03 0.  1.
         11   -1    0    0    0    0 -0.00000000000E+00 -0.00000000000E+00 -0.45593999997E+02  0.45594000000E+02  0.51100000000E-03 0. -1.
    9900012    2    1    2    0    0 -0.30262876203E+01 -0.11470877814E+02  0.14489289770E+02  0.72461575552E+02  0.70000006849E+02 0.  0.
         12    1    1    2    0    0  0.30262876203E+01  0.11470877814E+02 -0.14489289770E+02  0.18726424448E+02  0.00000000000E+00 0. -1.
         11    1    3    3    0    0  0.19259797628E+02  0.33090543205E+01  0.24304020958E+01  0.19692549347E+02  0.51100000000E-03 0. -1.
        -11    1    3    3    0    0 -0.58921700898E+01  0.15355049308E+02  0.12590764261E+00  0.16447220452E+02  0.51100000000E-03 0.  1.
         12    1    3    3    0    0 -0.16393915158E+02 -0.30134981442E+02  0.11932980032E+02  0.36321805753E+02  0.00000000000E+00 0. -1.
</event>
<event>
 7    1  0.3348003E-013  0.7246159E+02  0.7816164E-02  0.1226708E+00
        -11   -1    0    0    0    0  0.00000000000E+00  0.00000000000E+00  0.45593999997E+02  0.45594000000E+02  0.51100000000E-03 0.  1.
         11   -1    0    0    0    0 -0.00000000000E+00 -0.00000000000E+00 -0.45593999997E+02  0.45594000000E+02  0.51100000000E-03 0. -1.
    9900012    2    1    2    0    0  0.60967030253E+01  0.17543993524E+02  0.23910336531E+01  0.72461587143E+02  0.70000021948E+02 0.  0.
         12    1    1    2    0    0 -0.60967030253E+01 -0.17543993524E+02 -0.23910336531E+01  0.18726412857E+02  0.00000000000E+00 0. -1.
         11    1    3    3    0    0  0.12340472613E+02 -0.18491485412E+01  0.42019863506E+01  0.13166749948E+02  0.51100000000E-03 0. -1.
        -11    1    3    3    0    0 -0.86270863455E+01 -0.11397623981E+02  0.17710429145E+02  0.22759432154E+02  0.51100000000E-03 0.  1.
         12    1    3    3    0    0  0.23833167581E+01  0.30790766047E+02 -0.19521381842E+02  0.36535405041E+02  0.00000000000E+00 0. -1.
</event>
<event>
 7    1  0.3348003E-013  0.7246148E+02  0.7816164E-02  0.1226708E+00
        -11   -1    0    0    0    0  0.00000000000E+00  0.00000000000E+00  0.45593999997E+02  0.45594000000E+02  0.51100000000E-03 0.  1.
         11   -1    0    0    0    0 -0.00000000000E+00 -0.00000000000E+00 -0.45593999997E+02  0.45594000000E+02  0.51100000000E-03 0. -1.
    9900012    2    1    2    0    0  0.17678041618E+02  0.33981538086E+01  0.51596604701E+01  0.72461476006E+02  0.69999877171E+02 0.  0.
         12    1    1    2    0    0 -0.17678041618E+02 -0.33981538086E+01 -0.51596604701E+01  0.18726523994E+02  0.00000000000E+00 0. -1.
         11    1    3    3    0    0 -0.20378960852E+00  0.16395293586E+01 -0.13252362329E+02  0.13354950179E+02  0.51100000000E-03 0. -1.
        -11    1    3    3    0    0 -0.41933840656E+01  0.19293013297E+02 -0.72024857998E+01  0.21016199323E+02  0.51100000000E-03 0.  1.
        -12    1    3    3    0    0  0.22075215292E+02 -0.17534388847E+02  0.25614508599E+02  0.38090326504E+02  0.00000000000E+00 0.  1.
</event>
<event>
 7    1  0.3348003E-013  0.7246156E+02  0.7816164E-02  0.1226708E+00
        -11   -1    0    0    0    0  0.00000000000E+00  0.00000000000E+00  0.45593999997E+02  0.45594000000E+02  0.51100000000E-03 0.  1.
         11   -1    0    0    0    0 -0.00000000000E+00 -0.00000000000E+00 -0.45593999997E+02  0.45594000000E+02  0.51100000000E-03 0. -1.
    9900012    2    1    2    0    0  0.11331379914E+02  0.14635997412E+02  0.28402636027E+01  0.72461556441E+02  0.69999981954E+02 0.  0.
         12    1    1    2    0    0 -0.11331379914E+02 -0.14635997412E+02 -0.28402636027E+01  0.18726443559E+02  0.00000000000E+00 0. -1.
         11    1    3    3    0    0 -0.10488073177E+02 -0.48217293472E+01 -0.33339073659E+01  0.12015144255E+02  0.51100000000E-03 0. -1.
        -11    1    3    3    0    0 -0.89999365789E+01  0.11675575813E+02  0.20769169269E+02  0.25469124865E+02  0.51100000000E-03 0.  1.
         12    1    3    3    0    0  0.30819389671E+02  0.77821509468E+01 -0.14594998300E+02  0.34977287322E+02  0.00000000000E+00 0. -1.
</event>
<event>
 7    1  0.3348003E-013  0.7246162E+02  0.7816164E-02  0.1226708E+00
        -11   -1    0    0    0    0  0.00000000000E+00  0.00000000000E+00  0.45593999997E+02  0.45594000000E+02  0.51100000000E-03 0. -1.
         11   -1    0    0    0    0 -0.00000000000E+00 -0.00000000000E+00 -0.45593999997E+02  0.45594000000E+02  0.51100000000E-03 0.  1.
    9900012    2    1    2    0    0  0.30745228426E+01  0.11142876517E+02 -0.14732993346E+02  0.72461615386E+02  0.70000058740E+02 0.  0.
         12    1    1    2    0    0 -0.30745228426E+01 -0.11142876517E+02  0.14732993346E+02  0.18726384614E+02  0.00000000000E+00 0. -1.
         11    1    3    3    0    0 -0.21483355757E+00 -0.31753787605E+00 -0.14477244243E+01  0.14976281347E+01  0.51100000000E-03 0. -1.
        -11    1    3    3    0    0  0.57872058105E+01  0.32794042971E+02 -0.29153313287E+02  0.44258972891E+02  0.51100000000E-03 0.  1.
         12    1    3    3    0    0 -0.24978494103E+01 -0.21333628578E+02  0.15868044366E+02  0.26705014360E+02  0.00000000000E+00 0. -1.
</event>
<event>
 7    1  0.3348003E-013  0.7246151E+02  0.7816164E-02  0.1226708E+00
        -11   -1    0    0    0    0  0.00000000000E+00  0.00000000000E+00  0.45593999997E+02  0.45594000000E+02  0.51100000000E-03 0.  1.
         11   -1    0    0    0    0 -0.00000000000E+00 -0.00000000000E+00 -0.45593999997E+02  0.45594000000E+02  0.51100000000E-03 0. -1.
    9900012    2    1    2    0    0  0.13466638754E+02  0.11273411694E+02  0.64993280955E+01  0.72461509772E+02  0.69999921159E+02 0.  0.
         12    1    1    2    0    0 -0.13466638754E+02 -0.11273411694E+02 -0.64993280955E+01  0.18726490228E+02  0.00000000000E+00 0. -1.
         11    1    3    3    0    0  0.16721584598E+01  0.24451069303E+01 -0.34588238343E+00  0.29823307495E+01  0.51100000000E-03 0. -1.
        -11    1    3    3    0    0  0.23795323408E+02  0.33524853664E+02 -0.27850005123E+00  0.41112173281E+02  0.51100000000E-03 0.  1.
         12    1    3    3    0    0 -0.12000843114E+02 -0.24696548901E+02  0.71237105301E+01  0.28367005742E+02  0.00000000000E+00 0. -1.
</event>
<event>
 7    1  0.3348003E-013  0.7246152E+02  0.7816164E-02  0.1226708E+00
        -11   -1    0    0    0    0  0.00000000000E+00  0.00000000000E+00  0.45593999997E+02  0.45594000000E+02  0.51100000000E-03 0. -1.
         11   -1    0    0    0    0 -0.00000000000E+00 -0.00000000000E+00 -0.45593999997E+02  0.45594000000E+02  0.51100000000E-03 0.  1.
    9900012    2    1    2    0    0  0.11528963459E+02  0.47594239527E+01 -0.13968244657E+02  0.72461522125E+02  0.69999937251E+02 0.  0.
         12    1    1    2    0    0 -0.11528963459E+02 -0.47594239527E+01  0.13968244657E+02  0.18726477875E+02  0.00000000000E+00 0. -1.
         11    1    3    3    0    0 -0.21980686879E+02  0.81571682670E+01 -0.11860492661E+02  0.26274726949E+02  0.51100000000E-03 0. -1.
        -11    1    3    3    0    0  0.25037391934E+01 -0.13289592016E+02  0.53602225147E+00  0.13534004804E+02  0.51100000000E-03 0.  1.
         12    1    3    3    0    0  0.31005911145E+02  0.98918477019E+01 -0.26437742473E+01  0.32652790373E+02  0.00000000000E+00 0. -1.
</event>
<event>
 7    1  0.3348003E-013  0.7246153E+02  0.7816164E-02  0.1226708E+00
        -11   -1    0    0    0    0  0.00000000000E+00  0.00000000000E+00  0.45593999997E+02  0.45594000000E+02  0.51100000000E-03 0.  1.
         11   -1    0    0    0    0 -0.00000000000E+00 -0.00000000000E+00 -0.45593999997E+02  0.45594000000E+02  0.51100000000E-03 0. -1.
    9900012    2    1    2    0    0  0.17473980492E+02 -0.62275979528E+01 -0.25607965534E+01  0.72461530779E+02  0.69999948525E+02 0.  0.
         12    1    1    2    0    0 -0.17473980492E+02  0.62275979528E+01  0.25607965534E+01  0.18726469221E+02  0.00000000000E+00 0. -1.
         11    1    3    3    0    0  0.10349172041E+02  0.17012815115E+02 -0.88995139248E+01  0.21811524211E+02  0.51100000000E-03 0. -1.
        -11    1    3    3    0    0 -0.40063185128E+01 -0.57135055353E+01  0.22995855634E+02  0.24031315198E+02  0.51100000000E-03 0.  1.
         12    1    3    3    0    0  0.11131126964E+02 -0.17526907533E+02 -0.16657138263E+02  0.26618691370E+02  0.00000000000E+00 0. -1.
</event>
<event>
 7    1  0.3348003E-013  0.7246164E+02  0.7816164E-02  0.1226708E+00
        -11   -1    0    0    0    0  0.00000000000E+00  0.00000000000E+00  0.45593999997E+02  0.45594000000E+02  0.51100000000E-03 0. -1.
         11   -1    0    0    0    0 -0.00000000000E+00 -0.00000000000E+00 -0.45593999997E+02  0.45594000000E+02  0.51100000000E-03 0.  1.
    9900012    2    1    2    0    0 -0.51882499506E+01 -0.15558065079E+02 -0.90390983706E+01  0.72461638210E+02  0.70000088473E+02 0.  0.
         12    1    1    2    0    0  0.51882499506E+01  0.15558065079E+02  0.90390983706E+01  0.18726361790E+02  0.00000000000E+00 0. -1.
         11    1    3    3    0    0  0.25013723286E+02 -0.23779013365E+02 -0.10134848297E+00  0.34512868629E+02  0.51100000000E-03 0. -1.
        -11    1    3    3    0    0  0.21385122346E+01  0.21442963259E+01  0.15624093319E+01  0.34076919597E+01  0.51100000000E-03 0.  1.
        -12    1    3    3    0    0 -0.32340485471E+02  0.60766519608E+01 -0.10500159219E+02  0.34541077621E+02  0.00000000000E+00 0.  1.
</event>
<event>
 7    1  0.3348003E-013  0.7246156E+02  0.7816164E-02  0.1226708E+00
        -11   -1    0    0    0    0  0.00000000000E+00  0.00000000000E+00  0.45593999997E+02  0.45594000000E+02  0.51100000000E-03 0. -1.
         11   -1    0    0    0    0 -0.00000000000E+00 -0.00000000000E+00 -0.45593999997E+02  0.45594000000E+02  0.51100000000E-03 0.  1.
    9900012    2    1    2    0    0  0.10708771849E+02 -0.14746452888E+02 -0.43062822530E+01  0.72461555219E+02  0.69999980361E+02 0.  0.
         12    1    1    2    0    0 -0.10708771849E+02  0.14746452888E+02  0.43062822530E+01  0.18726444781E+02  0.00000000000E+00 0. -1.
         11    1    3    3    0    0 -0.11496474528E+01  0.10755858049E+02  0.21085136894E+01  0.11020707866E+02  0.51100000000E-03 0. -1.
        -11    1    3    3    0    0  0.38451131050E-01  0.16391362847E+02  0.35825624076E+01  0.16778349386E+02  0.51100000000E-03 0.  1.
        -12    1    3    3    0    0  0.11819968170E+02 -0.41893673784E+02 -0.99973583500E+01  0.44662497967E+02  0.00000000000E+00 0.  1.
</event>
<event>
 7    1  0.3348003E-013  0.7246156E+02  0.7816164E-02  0.1226708E+00
        -11   -1    0    0    0    0  0.00000000000E+00  0.00000000000E+00  0.45593999997E+02  0.45594000000E+02  0.51100000000E-03 0.  1.
         11   -1    0    0    0    0 -0.00000000000E+00 -0.00000000000E+00 -0.45593999997E+02  0.45594000000E+02  0.51100000000E-03 0. -1.
    9900012    2    1    2    0    0  0.12830933552E+02  0.12290858177E+02  0.59145262846E+01  0.72461556885E+02  0.69999982532E+02 0.  0.
         12    1    1    2    0    0 -0.12830933552E+02 -0.12290858177E+02 -0.59145262846E+01  0.18726443115E+02  0.00000000000E+00 0. -1.
         11    1    3    3    0    0 -0.12233687030E+02  0.30191327683E+01 -0.16490917131E+02  0.20754002243E+02  0.51100000000E-03 0. -1.
        -11    1    3    3    0    0 -0.67450163212E+01  0.96922858773E+01 -0.15153395301E+01  0.11905120951E+02  0.51100000000E-03 0.  1.
        -12    1    3    3    0    0  0.31809636903E+02 -0.42056046834E+00  0.23920782946E+02  0.39802433691E+02  0.00000000000E+00 0.  1.
</event>
<event>
 7    1  0.3348003E-013  0.7246194E+02  0.7816164E-02  0.1226707E+00
        -11   -1    0    0    0    0  0.00000000000E+00  0.00000000000E+00  0.45593999997E+02  0.45594000000E+02  0.51100000000E-03 0. -1.
         11   -1    0    0    0    0 -0.00000000000E+00 -0.00000000000E+00 -0.45593999997E+02  0.45594000000E+02  0.51100000000E-03 0.  1.
    9900012    2    1    2    0    0 -0.13970697382E+02  0.12445719030E+02 -0.76744755995E+00  0.72461941064E+02  0.70000482994E+02 0.  0.
         12    1    1    2    0    0  0.13970697382E+02 -0.12445719030E+02  0.76744755995E+00  0.18726058936E+02  0.00000000000E+00 0. -1.
         11    1    3    3    0    0 -0.21258983453E+02  0.10030493666E+02  0.16333940129E+02  0.28624338963E+02  0.51100000000E-03 0. -1.
        -11    1    3    3    0    0 -0.10750153191E+02  0.42050826061E+01  0.71363693513E+01  0.13571156219E+02  0.51100000000E-03 0.  1.
        -12    1    3    3    0    0  0.18038439262E+02 -0.17898572420E+01 -0.24237757041E+02  0.30266445882E+02  0.00000000000E+00 0.  1.
</event>
<event>
 7    1  0.3348003E-013  0.7246158E+02  0.7816164E-02  0.1226708E+00
        -11   -1    0    0    0    0  0.00000000000E+00  0.00000000000E+00  0.45593999997E+02  0.45594000000E+02  0.51100000000E-03 0. -1.
         11   -1    0    0    0    0 -0.00000000000E+00 -0.00000000000E+00 -0.45593999997E+02  0.45594000000E+02  0.51100000000E-03 0.  1.
    9900012    2    1    2    0    0 -0.10024741180E+02  0.10219343615E+02 -0.12072631272E+02  0.72461578946E+02  0.70000011271E+02 0.  0.
         12    1    1    2    0    0  0.10024741180E+02 -0.10219343615E+02  0.12072631272E+02  0.18726421054E+02  0.00000000000E+00 0. -1.
         11    1    3    3    0    0  0.47170766909E+01  0.26000251452E+02  0.73880739302E+01  0.27438067074E+02  0.51100000000E-03 0. -1.
        -11    1    3    3    0    0  0.45006629219E+01  0.82847387304E+01 -0.21102540711E+01  0.96615751859E+01  0.51100000000E-03 0.  1.
        -12    1    3    3    0    0 -0.19242480793E+02 -0.24065646567E+02 -0.17350451131E+02  0.35361936687E+02  0.00000000000E+00 0.  1.
</event>
<event>
 7    1  0.3348003E-013  0.7246156E+02  0.7816164E-02  0.1226708E+00
        -11   -1    0    0    0    0  0.00000000000E+00  0.00000000000E+00  0.45593999997E+02  0.45594000000E+02  0.51100000000E-03 0.  1.
         11   -1    0    0    0    0 -0.00000000000E+00 -0.00000000000E+00 -0.45593999997E+02  0.45594000000E+02  0.51100000000E-03 0. -1.
    9900012    2    1    2    0    0  0.17312137923E+02 -0.15537671442E+00  0.71376055584E+01  0.72461556812E+02  0.69999982436E+02 0.  0.
         12    1    1    2    0    0 -0.17312137923E+02  0.15537671442E+00 -0.71376055584E+01  0.18726443188E+02  0.00000000000E+00 0. -1.
         11    1    3    3    0    0 -0.15193743131E+02  0.16337731886E+02 -0.51798844249E+01  0.22904203030E+02  0.51100000000E-03 0. -1.
        -11    1    3    3    0    0  0.60270682736E+01  0.74009184629E+01  0.99885139977E+01  0.13815554937E+02  0.51100000000E-03 0.  1.
         12    1    3    3    0    0  0.26478812781E+02 -0.23894027063E+02  0.23289759856E+01  0.35741798845E+02  0.00000000000E+00 0. -1.
</event>
<event>
 7    1  0.3348003E-013  0.7246155E+02  0.7816164E-02  0.1226708E+00
        -11   -1    0    0    0    0  0.00000000000E+00  0.00000000000E+00  0.45593999997E+02  0.45594000000E+02  0.51100000000E-03 0.  1.
         11   -1    0    0    0    0 -0.00000000000E+00 -0.00000000000E+00 -0.45593999997E+02  0.45594000000E+02  0.51100000000E-03 0. -1.
    9900012    2    1    2    0    0 -0.26762485335E+01 -0.18534014531E+02 -0.89905103695E-01  0.72461545884E+02  0.69999968201E+02 0.  0.
         12    1    1    2    0    0  0.26762485335E+01  0.18534014531E+02  0.89905103695E-01  0.18726454116E+02  0.00000000000E+00 0. -1.
         11    1    3    3    0    0  0.90945554941E+01 -0.39737725188E+01 -0.35165846052E+01  0.10529395767E+02  0.51100000000E-03 0. -1.
        -11    1    3    3    0    0 -0.30291874939E+02 -0.26125489446E+02  0.21546754745E+01  0.40059724322E+02  0.51100000000E-03 0.  1.
         12    1    3    3    0    0  0.18521070911E+02  0.11565247435E+02  0.12720040271E+01  0.21872425795E+02  0.00000000000E+00 0. -1.
</event>
<event>
 7    1  0.3348003E-013  0.7246153E+02  0.7816164E-02  0.1226708E+00
        -11   -1    0    0    0    0  0.00000000000E+00  0.00000000000E+00  0.45593999997E+02  0.45594000000E+02  0.51100000000E-03 0.  1.
         11   -1    0    0    0    0 -0.00000000000E+00 -0.00000000000E+00 -0.45593999997E+02  0.45594000000E+02  0.51100000000E-03 0. -1.
    9900012    2    1    2    0    0  0.74404166253E+01 -0.16656234692E+02  0.42297248674E+01  0.72461534073E+02  0.69999952815E+02 0.  0.
         12    1    1    2    0    0 -0.74404166253E+01  0.16656234692E+02 -0.42297248674E+01  0.18726465927E+02  0.00000000000E+00 0. -1.
         11    1    3    3    0    0 -0.28651487463E+01  0.19391000336E+02 -0.75369493646E+01  0.21000608976E+02  0.51100000000E-03 0. -1.
        -11    1    3    3    0    0 -0.68093738745E+01 -0.12648761974E+01 -0.56738489055E+01  0.89532142843E+01  0.51100000000E-03 0.  1.
         12    1    3    3    0    0  0.17114939246E+02 -0.34782358831E+02  0.17440523137E+02  0.42507710813E+02  0.00000000000E+00 0. -1.
</event>
<event>
 7    1  0.3348003E-013  0.7246154E+02  0.7816164E-02  0.1226708E+00
        -11   -1    0    0    0    0  0.00000000000E+00  0.00000000000E+00  0.45593999997E+02  0.45594000000E+02  0.51100000000E-03 0. -1.
         11   -1    0    0    0    0 -0.00000000000E+00 -0.00000000000E+00 -0.45593999997E+02  0.45594000000E+02  0.51100000000E-03 0.  1.
    9900012    2    1    2    0    0  0.28204825685E+01 -0.80194445275E+01 -0.16685732722E+02  0.72461540406E+02  0.69999961065E+02 0.  0.
         12    1    1    2    0    0 -0.28204825685E+01  0.80194445275E+01  0.16685732722E+02  0.18726459594E+02  0.00000000000E+00 0. -1.
         11    1    3    3    0    0 -0.37403742134E+01 -0.11450993430E+02 -0.79084488682E+01  0.14410385614E+02  0.51100000000E-03 0. -1.
        -11    1    3    3    0    0  0.12396457899E+02 -0.14185143048E+01 -0.31613792761E+02  0.33987001107E+02  0.51100000000E-03 0.  1.
         12    1    3    3    0    0 -0.58356011174E+01  0.48500632074E+01  0.22836508907E+02  0.24064153685E+02  0.00000000000E+00 0. -1.
</event>
<event>
 7    1  0.3348003E-013  0.7246163E+02  0.7816164E-02  0.1226708E+00
        -11   -1    0    0    0    0  0.00000000000E+00  0.00000000000E+00  0.45593999997E+02  0.45594000000E+02  0.51100000000E-03 0.  1.
         11   -1    0    0    0    0 -0.00000000000E+00 -0.00000000000E+00 -0.45593999997E+02  0.45594000000E+02  0.51100000000E-03 0. -1.
    9900012    2    1    2    0    0  0.12647864564E+02 -0.56027315693E+01  0.12622116643E+02  0.72461630688E+02  0.70000078674E+02 0.  0.
         12    1    1    2    0    0 -0.12647864564E+02  0.56027315693E+01 -0.12622116643E+02  0.18726369312E+02  0.00000000000E+00 0. -1.
         11    1    3    3    0    0 -0.50687383213E+01  0.13262379733E+02  0.52727467514E+01  0.15145450898E+02  0.51100000000E-03 0. -1.
        -11    1    3    3    0    0  0.97421804758E+01 -0.32642878438E+02  0.17638644455E+02  0.38361300442E+02  0.51100000000E-03 0.  1.
         12    1    3    3    0    0  0.79744224099E+01  0.13777767136E+02 -0.10289274564E+02  0.18954879347E+02  0.00000000000E+00 0. -1.
</event>
<event>
 7    1  0.3348003E-013  0.7246153E+02  0.7816164E-02  0.1226708E+00
        -11   -1    0    0    0    0  0.00000000000E+00  0.00000000000E+00  0.45593999997E+02  0.45594000000E+02  0.51100000000E-03 0. -1.
         11   -1    0    0    0    0 -0.00000000000E+00 -0.00000000000E+00 -0.45593999997E+02  0.45594000000E+02  0.51100000000E-03 0.  1.
    9900012    2    1    2    0    0 -0.40361641977E+00 -0.15248124973E+02 -0.10863359412E+02  0.72461526784E+02  0.69999943320E+02 0.  0.
         12    1    1    2    0    0  0.40361641977E+00  0.15248124973E+02  0.10863359412E+02  0.18726473216E+02  0.00000000000E+00 0. -1.
         11    1    3    3    0    0 -0.12378918249E+02 -0.16995519432E+02 -0.65474220415E+01  0.22021671904E+02  0.51100000000E-03 0. -1.
        -11    1    3    3    0    0 -0.64650534649E+01  0.15651817490E+02 -0.17080214506E+02  0.24052235549E+02  0.51100000000E-03 0.  1.
         12    1    3    3    0    0  0.18440355294E+02 -0.13904423031E+02  0.12764277136E+02  0.26387619331E+02  0.00000000000E+00 0. -1.
</event>
<event>
 7    1  0.3348003E-013  0.7246158E+02  0.7816164E-02  0.1226708E+00
        -11   -1    0    0    0    0  0.00000000000E+00  0.00000000000E+00  0.45593999997E+02  0.45594000000E+02  0.51100000000E-03 0. -1.
         11   -1    0    0    0    0 -0.00000000000E+00 -0.00000000000E+00 -0.45593999997E+02  0.45594000000E+02  0.51100000000E-03 0.  1.
    9900012    2    1    2    0    0 -0.74040802794E+01  0.16311216077E+02 -0.54591865552E+01  0.72461577689E+02  0.70000009633E+02 0.  0.
         12    1    1    2    0    0  0.74040802794E+01 -0.16311216077E+02  0.54591865552E+01  0.18726422311E+02  0.00000000000E+00 0. -1.
         11    1    3    3    0    0 -0.18246623331E+02  0.17045004015E+02  0.89383053463E+01  0.26521024256E+02  0.51100000000E-03 0. -1.
        -11    1    3    3    0    0  0.21538455013E+02  0.81408156721E+01  0.34897262407E+01  0.23288540393E+02  0.51100000000E-03 0.  1.
        -12    1    3    3    0    0 -0.10695911961E+02 -0.88746036096E+01 -0.17887218142E+02  0.22652013040E+02  0.00000000000E+00 0.  1.
</event>
<event>
 7    1  0.3348003E-013  0.7246147E+02  0.7816164E-02  0.1226708E+00
        -11   -1    0    0    0    0  0.00000000000E+00  0.00000000000E+00  0.45593999997E+02  0.45594000000E+02  0.51100000000E-03 0. -1.
         11   -1    0    0    0    0 -0.00000000000E+00 -0.00000000000E+00 -0.45593999997E+02  0.45594000000E+02  0.51100000000E-03 0.  1.
    9900012    2    1    2    0    0 -0.14170195206E+02 -0.99553220965E+01 -0.71260123255E+01  0.72461470106E+02  0.69999869486E+02 0.  0.
         12    1    1    2    0    0  0.14170195206E+02  0.99553220965E+01  0.71260123255E+01  0.18726529894E+02  0.00000000000E+00 0. -1.
         11    1    3    3    0    0  0.66430495170E+01 -0.45034262950E+01  0.97156486462E+01  0.12601777024E+02  0.51100000000E-03 0. -1.
        -11    1    3    3    0    0  0.11082838196E+02  0.10332581518E+02 -0.18885881200E+02  0.24212972809E+02  0.51100000000E-03 0.  1.
         12    1    3    3    0    0 -0.31896082919E+02 -0.15784477320E+02  0.20442202280E+01  0.35646720273E+02  0.00000000000E+00 0. -1.
</event>
<event>
 7    1  0.3911298E-013  0.7246159E+02  0.7816164E-02  0.1226708E+00
        -11   -1    0    0    0    0  0.00000000000E+00  0.00000000000E+00  0.45593999997E+02  0.45594000000E+02  0.51100000000E-03 0. -1.
         11   -1    0    0    0    0 -0.00000000000E+00 -0.00000000000E+00 -0.45593999997E+02  0.45594000000E+02  0.51100000000E-03 0.  1.
    9900012    2    1    2    0    0 -0.16729332333E+01  0.11271042189E+02 -0.14860803125E+02  0.72461586377E+02  0.70000020951E+02 0.  0.
         12    1    1    2    0    0  0.16729332333E+01 -0.11271042189E+02  0.14860803125E+02  0.18726413623E+02  0.00000000000E+00 0. -1.
         11    1    3    3    0    0  0.83067882793E+01  0.16470537447E+02  0.17369398162E+02  0.25337271520E+02  0.51100000000E-03 0. -1.
        -11    1    3    3    0    0  0.96395875513E+01  0.36528315928E+01 -0.19659864240E+02  0.22198537992E+02  0.51100000000E-03 0.  1.
        -12    1    3    3    0    0 -0.19619309064E+02 -0.88523268511E+01 -0.12570337047E+02  0.24925776865E+02  0.00000000000E+00 0.  1.
</event>
<event>
 7    1  0.3348003E-013  0.7246156E+02  0.7816164E-02  0.1226708E+00
        -11   -1    0    0    0    0  0.00000000000E+00  0.00000000000E+00  0.45593999997E+02  0.45594000000E+02  0.51100000000E-03 0.  1.
         11   -1    0    0    0    0 -0.00000000000E+00 -0.00000000000E+00 -0.45593999997E+02  0.45594000000E+02  0.51100000000E-03 0. -1.
    9900012    2    1    2    0    0 -0.17498629592E+02 -0.30261343346E+01 -0.59430641720E+01  0.72461560446E+02  0.69999987171E+02 0.  0.
         12    1    1    2    0    0  0.17498629592E+02  0.30261343346E+01  0.59430641720E+01  0.18726439554E+02  0.00000000000E+00 0. -1.
         11    1    3    3    0    0 -0.38323499316E+02 -0.10697972853E+02 -0.15028073783E+02  0.42532108164E+02  0.51100000000E-03 0. -1.
        -11    1    3    3    0    0 -0.10995307037E+01 -0.15895417725E+00  0.63982944630E+01  0.64940285259E+01  0.51100000000E-03 0.  1.
        -12    1    3    3    0    0  0.21924400428E+02  0.78307926953E+01  0.26867151481E+01  0.23435423756E+02  0.00000000000E+00 0.  1.
</event>
<event>
 7    1  0.3348003E-013  0.7246158E+02  0.7816164E-02  0.1226708E+00
        -11   -1    0    0    0    0  0.00000000000E+00  0.00000000000E+00  0.45593999997E+02  0.45594000000E+02  0.51100000000E-03 0.  1.
         11   -1    0    0    0    0 -0.00000000000E+00 -0.00000000000E+00 -0.45593999997E+02  0.45594000000E+02  0.51100000000E-03 0. -1.
    9900012    2    1    2    0    0 -0.96803991294E+01 -0.40801177677E+01  0.15502296761E+02  0.72461583013E+02  0.70000016569E+02 0.  0.
         12    1    1    2    0    0  0.96803991294E+01  0.40801177677E+01 -0.15502296761E+02  0.18726416987E+02  0.00000000000E+00 0. -1.
         11    1    3    3    0    0  0.88915332966E-01 -0.48474862916E+01  0.28704381857E+01  0.56343096226E+01  0.51100000000E-03 0. -1.
        -11    1    3    3    0    0 -0.10201671306E+01 -0.23580850025E+02  0.28089047951E+02  0.36689124328E+02  0.51100000000E-03 0.  1.
         12    1    3    3    0    0 -0.87491473318E+01  0.24348218549E+02 -0.15457189376E+02  0.30138149063E+02  0.00000000000E+00 0. -1.
</event>
<event>
 7    1  0.3348003E-013  0.7246160E+02  0.7816164E-02  0.1226708E+00
        -11   -1    0    0    0    0  0.00000000000E+00  0.00000000000E+00  0.45593999997E+02  0.45594000000E+02  0.51100000000E-03 0. -1.
         11   -1    0    0    0    0 -0.00000000000E+00 -0.00000000000E+00 -0.45593999997E+02  0.45594000000E+02  0.51100000000E-03 0.  1.
    9900012    2    1    2    0    0  0.84289222388E+01  0.16509517463E+02  0.26583925872E+01  0.72461602906E+02  0.70000042483E+02 0.  0.
         12    1    1    2    0    0 -0.84289222388E+01 -0.16509517463E+02 -0.26583925872E+01  0.18726397094E+02  0.00000000000E+00 0. -1.
         11    1    3    3    0    0 -0.11996517407E+01  0.10425999839E+02  0.11607997710E+02  0.15648841747E+02  0.51100000000E-03 0. -1.
        -11    1    3    3    0    0  0.29240069476E+02 -0.10009854973E+01 -0.17705104825E+02  0.34197286034E+02  0.51100000000E-03 0.  1.
         12    1    3    3    0    0 -0.19611495497E+02  0.70845031217E+01  0.87554997023E+01  0.22615475125E+02  0.00000000000E+00 0. -1.
</event>
<event>
 7    1  0.3348003E-013  0.7246141E+02  0.7816164E-02  0.1226708E+00
        -11   -1    0    0    0    0  0.00000000000E+00  0.00000000000E+00  0.45593999997E+02  0.45594000000E+02  0.51100000000E-03 0.  1.
         11   -1    0    0    0    0 -0.00000000000E+00 -0.00000000000E+00 -0.45593999997E+02  0.45594000000E+02  0.51100000000E-03 0. -1.
    9900012    2    1    2    0    0 -0.17951153304E+02  0.22366259207E+01 -0.48413450511E+01  0.72461414023E+02  0.69999796427E+02 0.  0.
         12    1    1    2    0    0  0.17951153304E+02 -0.22366259207E+01  0.48413450511E+01  0.18726585977E+02  0.00000000000E+00 0. -1.
         11    1    3    3    0    0 -0.22661377578E+02  0.84862080765E+01  0.17116451494E+02  0.29639950629E+02  0.51100000000E-03 0. -1.
        -11    1    3    3    0    0  0.16124290011E+01  0.66634356647E+01  0.77100384009E+01  0.10317266816E+02  0.51100000000E-03 0.  1.
         12    1    3    3    0    0  0.30977952728E+01 -0.12913017821E+02 -0.29667834946E+02  0.32504196578E+02  0.00000000000E+00 0. -1.
</event>
<event>
 7    1  0.3348003E-013  0.7246142E+02  0.7816164E-02  0.1226708E+00
        -11   -1    0    0    0    0  0.00000000000E+00  0.00000000000E+00  0.45593999997E+02  0.45594000000E+02  0.51100000000E-03 0.  1.
         11   -1    0    0    0    0 -0.00000000000E+00 -0.00000000000E+00 -0.45593999997E+02  0.45594000000E+02  0.51100000000E-03 0. -1.
    9900012    2    1    2    0    0  0.14187054092E+02  0.70910755129E+01  0.99563430241E+01  0.72461424709E+02  0.69999810347E+02 0.  0.
         12    1    1    2    0    0 -0.14187054092E+02 -0.70910755129E+01 -0.99563430241E+01  0.18726575291E+02  0.00000000000E+00 0. -1.
         11    1    3    3    0    0  0.15588483622E+02  0.15413013749E+01  0.73585478894E+01  0.17306780719E+02  0.51100000000E-03 0. -1.
        -11    1    3    3    0    0  0.13541130150E+02  0.17283011420E+01  0.24689230293E+02  0.28211829492E+02  0.51100000000E-03 0.  1.
         12    1    3    3    0    0 -0.14942559680E+02  0.38214729961E+01 -0.22091435158E+02  0.26942814497E+02  0.00000000000E+00 0. -1.
</event>
<event>
 7    1  0.3348003E-013  0.7246159E+02  0.7816164E-02  0.1226708E+00
        -11   -1    0    0    0    0  0.00000000000E+00  0.00000000000E+00  0.45593999997E+02  0.45594000000E+02  0.51100000000E-03 0. -1.
         11   -1    0    0    0    0 -0.00000000000E+00 -0.00000000000E+00 -0.45593999997E+02  0.45594000000E+02  0.51100000000E-03 0.  1.
    9900012    2    1    2    0    0  0.51803002588E+01  0.11594561622E+01 -0.17958241220E+02  0.72461594123E+02  0.70000031041E+02 0.  0.
         12    1    1    2    0    0 -0.51803002588E+01 -0.11594561622E+01  0.17958241220E+02  0.18726405877E+02  0.00000000000E+00 0. -1.
         11    1    3    3    0    0 -0.19990038813E+02 -0.46375120689E+01 -0.25751947410E+01  0.20681871244E+02  0.51100000000E-03 0. -1.
        -11    1    3    3    0    0 -0.85816659060E+01 -0.88725169896E+01 -0.14503866584E+01  0.12428602865E+02  0.51100000000E-03 0.  1.
         12    1    3    3    0    0  0.33752004978E+02  0.14669485221E+02 -0.13932659820E+02  0.39351120014E+02  0.00000000000E+00 0. -1.
</event>
<event>
 7    1  0.3348003E-013  0.7246155E+02  0.7816164E-02  0.1226708E+00
        -11   -1    0    0    0    0  0.00000000000E+00  0.00000000000E+00  0.45593999997E+02  0.45594000000E+02  0.51100000000E-03 0.  1.
         11   -1    0    0    0    0 -0.00000000000E+00 -0.00000000000E+00 -0.45593999997E+02  0.45594000000E+02  0.51100000000E-03 0. -1.
    9900012    2    1    2    0    0 -0.24440538338E+01 -0.64509529826E+01  0.17409531125E+02  0.72461548988E+02  0.69999972245E+02 0.  0.
         12    1    1    2    0    0  0.24440538338E+01  0.64509529826E+01 -0.17409531125E+02  0.18726451012E+02  0.00000000000E+00 0. -1.
         11    1    3    3    0    0  0.13585394043E+01 -0.40831520320E+01  0.35529974177E+01  0.55804615168E+01  0.51100000000E-03 0. -1.
        -11    1    3    3    0    0 -0.14815886275E+02  0.11279810787E+02  0.34858237966E+02  0.39520138814E+02  0.51100000000E-03 0.  1.
         12    1    3    3    0    0  0.11013293037E+02 -0.13647611738E+02 -0.21001704259E+02  0.27360948658E+02  0.00000000000E+00 0. -1.
</event>
<event>
 7    1  0.3348003E-013  0.7246157E+02  0.7816164E-02  0.1226708E+00
        -11   -1    0    0    0    0  0.00000000000E+00  0.00000000000E+00  0.45593999997E+02  0.45594000000E+02  0.51100000000E-03 0.  1.
         11   -1    0    0    0    0 -0.00000000000E+00 -0.00000000000E+00 -0.45593999997E+02  0.45594000000E+02  0.51100000000E-03 0. -1.
    9900012    2    1    2    0    0  0.13552627428E+02 -0.81925638510E+01  0.99943616397E+01  0.72461572758E+02  0.70000003209E+02 0.  0.
         12    1    1    2    0    0 -0.13552627428E+02  0.81925638510E+01 -0.99943616397E+01  0.18726427242E+02  0.00000000000E+00 0. -1.
         11    1    3    3    0    0  0.14575572464E+02 -0.24705463321E+01 -0.33533410936E+00  0.14787270237E+02  0.51100000000E-03 0. -1.
        -11    1    3    3    0    0  0.26778391634E+02 -0.64153675177E+01 -0.12157518690E+01  0.27562968848E+02  0.51100000000E-03 0.  1.
         12    1    3    3    0    0 -0.27801336670E+02  0.69334999886E+00  0.11545447618E+02  0.30111333673E+02  0.00000000000E+00 0. -1.
</event>
<event>
 7    1  0.3348003E-013  0.7246156E+02  0.7816164E-02  0.1226708E+00
        -11   -1    0    0    0    0  0.00000000000E+00  0.00000000000E+00  0.45593999997E+02  0.45594000000E+02  0.51100000000E-03 0.  1.
         11   -1    0    0    0    0 -0.00000000000E+00 -0.00000000000E+00 -0.45593999997E+02  0.45594000000E+02  0.51100000000E-03 0. -1.
    9900012    2    1    2    0    0  0.11220347437E+02  0.14487373867E+02  0.38599882996E+01  0.72461555921E+02  0.69999981277E+02 0.  0.
         12    1    1    2    0    0 -0.11220347437E+02 -0.14487373867E+02 -0.38599882996E+01  0.18726444079E+02  0.00000000000E+00 0. -1.
         11    1    3    3    0    0  0.65150879334E+01  0.10163296893E+02  0.20773100884E+02  0.24026250126E+02  0.51100000000E-03 0.  1.
        -11    1    3    3    0    0  0.23036165311E+02 -0.28797634966E+01 -0.16941382916E+02  0.28739666063E+02  0.51100000000E-03 0. -1.
         12    1    3    3    0    0 -0.18330905808E+02  0.72038404705E+01  0.28270331883E-01  0.19695639733E+02  0.00000000000E+00 0. -1.
</event>
<event>
 7    1  0.3348003E-013  0.7246157E+02  0.7816164E-02  0.1226708E+00
        -11   -1    0    0    0    0  0.00000000000E+00  0.00000000000E+00  0.45593999997E+02  0.45594000000E+02  0.51100000000E-03 0. -1.
         11   -1    0    0    0    0 -0.00000000000E+00 -0.00000000000E+00 -0.45593999997E+02  0.45594000000E+02  0.51100000000E-03 0.  1.
    9900012    2    1    2    0    0 -0.15378675733E+02 -0.90573618084E+01 -0.56691798469E+01  0.72461572942E+02  0.70000003449E+02 0.  0.
         12    1    1    2    0    0  0.15378675733E+02  0.90573618084E+01  0.56691798469E+01  0.18726427058E+02  0.00000000000E+00 0. -1.
         11    1    3    3    0    0 -0.92736862205E+00 -0.83369927797E+01 -0.66634275591E+01  0.10712923423E+02  0.51100000000E-03 0. -1.
        -11    1    3    3    0    0 -0.10201844111E+02  0.23081385965E+01 -0.29246684099E+02  0.31060805818E+02  0.51100000000E-03 0.  1.
        -12    1    3    3    0    0 -0.42494630001E+01 -0.30285076251E+01  0.30240931811E+02  0.30687843701E+02  0.00000000000E+00 0.  1.
</event>
<event>
 7    1  0.3348003E-013  0.7246154E+02  0.7816164E-02  0.1226708E+00
        -11   -1    0    0    0    0  0.00000000000E+00  0.00000000000E+00  0.45593999997E+02  0.45594000000E+02  0.51100000000E-03 0.  1.
         11   -1    0    0    0    0 -0.00000000000E+00 -0.00000000000E+00 -0.45593999997E+02  0.45594000000E+02  0.51100000000E-03 0. -1.
    9900012    2    1    2    0    0  0.13573019915E+01  0.17119347095E+02  0.74676550266E+01  0.72461543174E+02  0.69999964671E+02 0.  0.
         12    1    1    2    0    0 -0.13573019915E+01 -0.17119347095E+02 -0.74676550266E+01  0.18726456826E+02  0.00000000000E+00 0. -1.
         11    1    3    3    0    0 -0.30559655794E+01 -0.42873919909E+01 -0.12914190198E+02  0.13946216851E+02  0.51100000000E-03 0. -1.
        -11    1    3    3    0    0 -0.15899724026E+02  0.21364270981E+02 -0.38361394033E+01  0.26906305291E+02  0.51100000000E-03 0.  1.
        -12    1    3    3    0    0  0.20312991597E+02  0.42468104982E-01  0.24217984628E+02  0.31609021032E+02  0.00000000000E+00 0.  1.
</event>
<event>
 7    1  0.3348003E-013  0.7246156E+02  0.7816164E-02  0.1226708E+00
        -11   -1    0    0    0    0  0.00000000000E+00  0.00000000000E+00  0.45593999997E+02  0.45594000000E+02  0.51100000000E-03 0.  1.
         11   -1    0    0    0    0 -0.00000000000E+00 -0.00000000000E+00 -0.45593999997E+02  0.45594000000E+02  0.51100000000E-03 0. -1.
    9900012    2    1    2    0    0  0.11220066987E+02 -0.13776802624E+02 -0.59151869573E+01  0.72461557987E+02  0.69999983968E+02 0.  0.
         12    1    1    2    0    0 -0.11220066987E+02  0.13776802624E+02  0.59151869573E+01  0.18726442013E+02  0.00000000000E+00 0. -1.
         11    1    3    3    0    0  0.59623910403E+01 -0.18032784389E+01  0.17509045584E+01  0.64705167552E+01  0.51100000000E-03 0. -1.
        -11    1    3    3    0    0  0.23631417249E+02  0.17911805381E+02  0.16338186922E+01  0.29697575944E+02  0.51100000000E-03 0.  1.
         12    1    3    3    0    0 -0.18373741303E+02 -0.29885329565E+02 -0.92999102080E+01  0.36293465288E+02  0.00000000000E+00 0. -1.
</event>
<event>
 7    1  0.3348003E-013  0.7246159E+02  0.7816164E-02  0.1226708E+00
        -11   -1    0    0    0    0  0.00000000000E+00  0.00000000000E+00  0.45593999997E+02  0.45594000000E+02  0.51100000000E-03 0. -1.
         11   -1    0    0    0    0 -0.00000000000E+00 -0.00000000000E+00 -0.45593999997E+02  0.45594000000E+02  0.51100000000E-03 0.  1.
    9900012    2    1    2    0    0 -0.17705695086E+02 -0.78564363285E+00 -0.60472724677E+01  0.72461591410E+02  0.70000027507E+02 0.  0.
         12    1    1    2    0    0  0.17705695086E+02  0.78564363285E+00  0.60472724677E+01  0.18726408590E+02  0.00000000000E+00 0. -1.
         11    1    3    3    0    0 -0.17097716877E+02 -0.17119608246E+02  0.20024775460E+02  0.31407077887E+02  0.51100000000E-03 0. -1.
        -11    1    3    3    0    0  0.99055302860E+00 -0.76034637185E+01 -0.53050452271E+01  0.93240206426E+01  0.51100000000E-03 0.  1.
        -12    1    3    3    0    0 -0.15985312370E+01  0.23937428332E+02 -0.20767002701E+02  0.31730492880E+02  0.00000000000E+00 0.  1.
</event>
<event>
 7    1  0.3348003E-013  0.7246152E+02  0.7816164E-02  0.1226708E+00
        -11   -1    0    0    0    0  0.00000000000E+00  0.00000000000E+00  0.45593999997E+02  0.45594000000E+02  0.51100000000E-03 0. -1.
         11   -1    0    0    0    0 -0.00000000000E+00 -0.00000000000E+00 -0.45593999997E+02  0.45594000000E+02  0.51100000000E-03 0.  1.
    9900012    2    1    2    0    0 -0.13840876806E+02  0.55690488554E+00 -0.12601629597E+02  0.72461519222E+02  0.69999933469E+02 0.  0.
         12    1    1    2    0    0  0.13840876806E+02 -0.55690488554E+00  0.12601629597E+02  0.18726480778E+02  0.00000000000E+00 0. -1.
         11    1    3    3    0    0  0.47719713757E+00  0.52899597568E+01 -0.41373515233E+01  0.67326866276E+01  0.51100000000E-03 0. -1.
        -11    1    3    3    0    0 -0.18775854256E+02  0.23312311119E+02 -0.18983939481E+02  0.35445542897E+02  0.51100000000E-03 0.  1.
         12    1    3    3    0    0  0.44577803127E+01 -0.28045365990E+02  0.10519661407E+02  0.30283289698E+02  0.00000000000E+00 0. -1.
</event>
<event>
 7    1  0.3348003E-013  0.7246158E+02  0.7816164E-02  0.1226708E+00
        -11   -1    0    0    0    0  0.00000000000E+00  0.00000000000E+00  0.45593999997E+02  0.45594000000E+02  0.51100000000E-03 0. -1.
         11   -1    0    0    0    0 -0.00000000000E+00 -0.00000000000E+00 -0.45593999997E+02  0.45594000000E+02  0.51100000000E-03 0.  1.
    9900012    2    1    2    0    0  0.62021109237E+01  0.11165375817E+02 -0.13694779396E+02  0.72461580701E+02  0.70000013557E+02 0.  0.
         12    1    1    2    0    0 -0.62021109237E+01 -0.11165375817E+02  0.13694779396E+02  0.18726419299E+02  0.00000000000E+00 0. -1.
         11    1    3    3    0    0  0.13170056979E+01  0.64157685560E+01  0.15472889055E+00  0.65513763030E+01  0.51100000000E-03 0. -1.
        -11    1    3    3    0    0  0.13946094253E+02  0.25205072058E+02 -0.27398300256E+02  0.39754950126E+02  0.51100000000E-03 0.  1.
         12    1    3    3    0    0 -0.90609890271E+01 -0.20455464796E+02  0.13548791970E+02  0.26155254272E+02  0.00000000000E+00 0. -1.
</event>
<event>
 7    1  0.3348003E-013  0.7246156E+02  0.7816164E-02  0.1226708E+00
        -11   -1    0    0    0    0  0.00000000000E+00  0.00000000000E+00  0.45593999997E+02  0.45594000000E+02  0.51100000000E-03 0.  1.
         11   -1    0    0    0    0 -0.00000000000E+00 -0.00000000000E+00 -0.45593999997E+02  0.45594000000E+02  0.51100000000E-03 0. -1.
    9900012    2    1    2    0    0 -0.17188732096E+02 -0.10461416179E+01  0.73575008114E+01  0.72461555021E+02  0.69999980104E+02 0.  0.
         12    1    1    2    0    0  0.17188732096E+02  0.10461416179E+01 -0.73575008114E+01  0.18726444979E+02  0.00000000000E+00 0. -1.
         11    1    3    3    0    0 -0.82016496038E+01  0.13373908034E+02 -0.24171809159E+02  0.28816745663E+02  0.51100000000E-03 0. -1.
        -11    1    3    3    0    0 -0.75572179027E+01 -0.29087798316E+00 -0.14835854419E+01  0.77069564975E+01  0.51100000000E-03 0.  1.
        -12    1    3    3    0    0 -0.14298645894E+01 -0.14129171669E+02  0.33012895412E+02  0.35937852861E+02  0.00000000000E+00 0.  1.
</event>
<event>
 7    1  0.3348003E-013  0.7246144E+02  0.7816164E-02  0.1226708E+00
        -11   -1    0    0    0    0  0.00000000000E+00  0.00000000000E+00  0.45593999997E+02  0.45594000000E+02  0.51100000000E-03 0.  1.
         11   -1    0    0    0    0 -0.00000000000E+00 -0.00000000000E+00 -0.45593999997E+02  0.45594000000E+02  0.51100000000E-03 0. -1.
    9900012    2    1    2    0    0 -0.99597976356E+01 -0.14841600775E+02 -0.55869046766E+01  0.72461436343E+02  0.69999825504E+02 0.  0.
         12    1    1    2    0    0  0.99597976356E+01  0.14841600775E+02  0.55869046766E+01  0.18726563657E+02  0.00000000000E+00 0. -1.
         11    1    3    3    0    0 -0.80128158875E+01  0.86252218530E+01  0.30480492497E+01  0.12161014553E+02  0.51100000000E-03 0. -1.
        -11    1    3    3    0    0  0.99790220062E+01  0.63706686306E+01  0.15934210398E+02  0.19851079574E+02  0.51100000000E-03 0.  1.
         12    1    3    3    0    0 -0.11926003754E+02 -0.29837491259E+02 -0.24569164324E+02  0.40449342217E+02  0.00000000000E+00 0. -1.
</event>
<event>
 7    1  0.3348003E-013  0.7246119E+02  0.7816164E-02  0.1226709E+00
        -11   -1    0    0    0    0  0.00000000000E+00  0.00000000000E+00  0.45593999997E+02  0.45594000000E+02  0.51100000000E-03 0.  1.
         11   -1    0    0    0    0 -0.00000000000E+00 -0.00000000000E+00 -0.45593999997E+02  0.45594000000E+02  0.51100000000E-03 0. -1.
    9900012    2    1    2    0    0  0.14819746387E+02  0.40404303503E+01  0.10711830571E+02  0.72461193690E+02  0.69999509401E+02 0.  0.
         12    1    1    2    0    0 -0.14819746387E+02 -0.40404303503E+01 -0.10711830571E+02  0.18726806310E+02  0.00000000000E+00 0. -1.
         11    1    3    3    0    0 -0.16756406078E+02 -0.38788503275E+01 -0.16570123890E+02  0.23882873163E+02  0.51100000000E-03 0. -1.
        -11    1    3    3    0    0  0.23464380633E+02 -0.19839775863E+01  0.69505342962E+01  0.24552459201E+02  0.51100000000E-03 0.  1.
        -12    1    3    3    0    0  0.81117718320E+01  0.99032582641E+01  0.20331420165E+02  0.24025861325E+02  0.00000000000E+00 0.  1.
</event>
<event>
 7    1  0.3348003E-013  0.7246158E+02  0.7816164E-02  0.1226708E+00
        -11   -1    0    0    0    0  0.00000000000E+00  0.00000000000E+00  0.45593999997E+02  0.45594000000E+02  0.51100000000E-03 0.  1.
         11   -1    0    0    0    0 -0.00000000000E+00 -0.00000000000E+00 -0.45593999997E+02  0.45594000000E+02  0.51100000000E-03 0. -1.
    9900012    2    1    2    0    0 -0.82415307831E+01  0.20024266756E+01  0.16695696797E+02  0.72461579259E+02  0.70000011678E+02 0.  0.
         12    1    1    2    0    0  0.82415307831E+01 -0.20024266756E+01 -0.16695696797E+02  0.18726420741E+02  0.00000000000E+00 0. -1.
         11    1    3    3    0    0  0.51513975998E+01  0.52974146230E+01 -0.90923916456E+00  0.74448784435E+01  0.51100000000E-03 0. -1.
        -11    1    3    3    0    0  0.11288810785E+02  0.23358000730E+02  0.10582510559E+02  0.28018261492E+02  0.51100000000E-03 0.  1.
         12    1    3    3    0    0 -0.24681739168E+02 -0.26652988678E+02  0.70224254025E+01  0.36998439323E+02  0.00000000000E+00 0. -1.
</event>
<event>
 7    1  0.3348003E-013  0.7246110E+02  0.7816164E-02  0.1226709E+00
        -11   -1    0    0    0    0  0.00000000000E+00  0.00000000000E+00  0.45593999997E+02  0.45594000000E+02  0.51100000000E-03 0.  1.
         11   -1    0    0    0    0 -0.00000000000E+00 -0.00000000000E+00 -0.45593999997E+02  0.45594000000E+02  0.51100000000E-03 0. -1.
    9900012    2    1    2    0    0 -0.17228979194E+02 -0.31637333677E+00  0.73320537099E+01  0.72461098821E+02  0.69999385816E+02 0.  0.
         12    1    1    2    0    0  0.17228979194E+02  0.31637333677E+00 -0.73320537099E+01  0.18726901179E+02  0.00000000000E+00 0. -1.
         11    1    3    3    0    0 -0.12136653857E+01 -0.17111897071E+02 -0.77658797950E+01  0.18830796433E+02  0.51100000000E-03 0. -1.
        -11    1    3    3    0    0 -0.23207500868E+02 -0.73309269640E+01  0.12407330955E+00  0.24338158952E+02  0.51100000000E-03 0.  1.
         12    1    3    3    0    0  0.71921870605E+01  0.24126450698E+02  0.14973860195E+02  0.29292143437E+02  0.00000000000E+00 0. -1.
</event>
<event>
 7    1  0.3348003E-013  0.7246161E+02  0.7816164E-02  0.1226708E+00
        -11   -1    0    0    0    0  0.00000000000E+00  0.00000000000E+00  0.45593999997E+02  0.45594000000E+02  0.51100000000E-03 0.  1.
         11   -1    0    0    0    0 -0.00000000000E+00 -0.00000000000E+00 -0.45593999997E+02  0.45594000000E+02  0.51100000000E-03 0. -1.
    9900012    2    1    2    0    0 -0.58364800300E+01  0.79008196398E+01  0.15943342489E+02  0.72461611671E+02  0.70000053901E+02 0.  0.
         12    1    1    2    0    0  0.58364800300E+01 -0.79008196398E+01 -0.15943342489E+02  0.18726388329E+02  0.00000000000E+00 0. -1.
         11    1    3    3    0    0 -0.98884354831E+01  0.18744691281E+02 -0.41857924230E+01  0.21602441204E+02  0.51100000000E-03 0. -1.
        -11    1    3    3    0    0 -0.18942323804E+02  0.38938745346E+01  0.71221414761E+01  0.20608221405E+02  0.51100000000E-03 0.  1.
         12    1    3    3    0    0  0.22994279258E+02 -0.14737746176E+02  0.13006993436E+02  0.30250949062E+02  0.00000000000E+00 0. -1.
</event>
<event>
 7    1  0.3348003E-013  0.7246158E+02  0.7816164E-02  0.1226708E+00
        -11   -1    0    0    0    0  0.00000000000E+00  0.00000000000E+00  0.45593999997E+02  0.45594000000E+02  0.51100000000E-03 0.  1.
         11   -1    0    0    0    0 -0.00000000000E+00 -0.00000000000E+00 -0.45593999997E+02  0.45594000000E+02  0.51100000000E-03 0. -1.
    9900012    2    1    2    0    0  0.16813039007E+02  0.46048552992E+01  0.68407599911E+01  0.72461575615E+02  0.70000006931E+02 0.  0.
         12    1    1    2    0    0 -0.16813039007E+02 -0.46048552992E+01 -0.68407599911E+01  0.18726424385E+02  0.00000000000E+00 0. -1.
         11    1    3    3    0    0 -0.11140969819E+02  0.14381301903E+02 -0.45887075021E+00  0.18197626646E+02  0.51100000000E-03 0. -1.
        -11    1    3    3    0    0 -0.87100913338E+00  0.11446016572E+02  0.13729575765E+02  0.17896122575E+02  0.51100000000E-03 0.  1.
        -12    1    3    3    0    0  0.28825017959E+02 -0.21222463176E+02 -0.64299450239E+01  0.36367826394E+02  0.00000000000E+00 0.  1.
</event>
<event>
 7    1  0.3348003E-013  0.7246157E+02  0.7816164E-02  0.1226708E+00
        -11   -1    0    0    0    0  0.00000000000E+00  0.00000000000E+00  0.45593999997E+02  0.45594000000E+02  0.51100000000E-03 0. -1.
         11   -1    0    0    0    0 -0.00000000000E+00 -0.00000000000E+00 -0.45593999997E+02  0.45594000000E+02  0.51100000000E-03 0.  1.
    9900012    2    1    2    0    0  0.97165140236E+01 -0.15774928277E+02 -0.27239894121E+01  0.72461571477E+02  0.70000001541E+02 0.  0.
         12    1    1    2    0    0 -0.97165140236E+01  0.15774928277E+02  0.27239894121E+01  0.18726428523E+02  0.00000000000E+00 0. -1.
         11    1    3    3    0    0  0.58770007597E+01  0.78216941341E+01  0.31932315290E+01  0.10291489927E+02  0.51100000000E-03 0. -1.
        -11    1    3    3    0    0 -0.47703737108E+01 -0.24337301060E+02 -0.28624637856E+02  0.37873877289E+02  0.51100000000E-03 0.  1.
         12    1    3    3    0    0  0.86098869747E+01  0.74067864913E+00  0.22707416915E+02  0.24296204262E+02  0.00000000000E+00 0. -1.
</event>
<event>
 7    1  0.3348003E-013  0.7246166E+02  0.7816164E-02  0.1226708E+00
        -11   -1    0    0    0    0  0.00000000000E+00  0.00000000000E+00  0.45593999997E+02  0.45594000000E+02  0.51100000000E-03 0. -1.
         11   -1    0    0    0    0 -0.00000000000E+00 -0.00000000000E+00 -0.45593999997E+02  0.45594000000E+02  0.51100000000E-03 0.  1.
    9900012    2    1    2    0    0 -0.50623281035E+01 -0.15321526908E+01 -0.17963882033E+02  0.72461662520E+02  0.70000120142E+02 0.  0.
         12    1    1    2    0    0  0.50623281035E+01  0.15321526908E+01  0.17963882033E+02  0.18726337480E+02  0.00000000000E+00 0. -1.
         11    1    3    3    0    0 -0.11861018333E+01  0.55629260207E+01 -0.83193635857E+01  0.10077936009E+02  0.51100000000E-03 0. -1.
        -11    1    3    3    0    0  0.11265965471E+01  0.22489282784E+02 -0.20524254610E+02  0.30467722059E+02  0.51100000000E-03 0.  1.
         12    1    3    3    0    0 -0.50028228173E+01 -0.29584361495E+02  0.10879736163E+02  0.31916004452E+02  0.00000000000E+00 0. -1.
</event>
<event>
 7    1  0.3348003E-013  0.7246144E+02  0.7816164E-02  0.1226708E+00
        -11   -1    0    0    0    0  0.00000000000E+00  0.00000000000E+00  0.45593999997E+02  0.45594000000E+02  0.51100000000E-03 0. -1.
         11   -1    0    0    0    0 -0.00000000000E+00 -0.00000000000E+00 -0.45593999997E+02  0.45594000000E+02  0.51100000000E-03 0.  1.
    9900012    2    1    2    0    0  0.85849966860E+01 -0.16098732126E+02  0.42205123952E+01  0.72461439476E+02  0.69999829585E+02 0.  0.
         12    1    1    2    0    0 -0.85849966860E+01  0.16098732126E+02 -0.42205123952E+01  0.18726560524E+02  0.00000000000E+00 0. -1.
         11    1    3    3    0    0  0.82987335089E+01  0.34038092535E+01 -0.56372746975E+01  0.10594043683E+02  0.51100000000E-03 0. -1.
        -11    1    3    3    0    0  0.19828392054E+02  0.37301195978E+01 -0.12880778199E+02  0.23937279940E+02  0.51100000000E-03 0.  1.
         12    1    3    3    0    0 -0.19542128876E+02 -0.23232660977E+02  0.22738565292E+02  0.37930115853E+02  0.00000000000E+00 0. -1.
</event>
<event>
 7    1  0.3348003E-013  0.7246159E+02  0.7816164E-02  0.1226708E+00
        -11   -1    0    0    0    0  0.00000000000E+00  0.00000000000E+00  0.45593999997E+02  0.45594000000E+02  0.51100000000E-03 0. -1.
         11   -1    0    0    0    0 -0.00000000000E+00 -0.00000000000E+00 -0.45593999997E+02  0.45594000000E+02  0.51100000000E-03 0.  1.
    9900012    2    1    2    0    0  0.13837163752E+02 -0.98252198020E+01  0.79168380511E+01  0.72461591653E+02  0.70000027824E+02 0.  0.
         12    1    1    2    0    0 -0.13837163752E+02  0.98252198020E+01 -0.79168380511E+01  0.18726408347E+02  0.00000000000E+00 0. -1.
         11    1    3    3    0    0  0.58438141076E+01 -0.22632906076E+02 -0.62000044764E+01  0.24183437649E+02  0.51100000000E-03 0. -1.
        -11    1    3    3    0    0 -0.16037840071E+02 -0.15853817049E+01 -0.15371020627E+01  0.16189145509E+02  0.51100000000E-03 0.  1.
        -12    1    3    3    0    0  0.24031189715E+02  0.14393067979E+02  0.15653944590E+02  0.32089008495E+02  0.00000000000E+00 0.  1.
</event>
<event>
 7    1  0.3348003E-013  0.7246156E+02  0.7816164E-02  0.1226708E+00
        -11   -1    0    0    0    0  0.00000000000E+00  0.00000000000E+00  0.45593999997E+02  0.45594000000E+02  0.51100000000E-03 0.  1.
         11   -1    0    0    0    0 -0.00000000000E+00 -0.00000000000E+00 -0.45593999997E+02  0.45594000000E+02  0.51100000000E-03 0. -1.
    9900012    2    1    2    0    0 -0.27921002281E+01 -0.13980400411E+02  0.12142157557E+02  0.72461563888E+02  0.69999991654E+02 0.  0.
         12    1    1    2    0    0  0.27921002281E+01  0.13980400411E+02 -0.12142157557E+02  0.18726436112E+02  0.00000000000E+00 0. -1.
         11    1    3    3    0    0 -0.23302302666E+01 -0.16071335477E+02  0.16906533168E+01  0.16327158541E+02  0.51100000000E-03 0. -1.
        -11    1    3    3    0    0  0.38515124784E+01 -0.41636512596E+01  0.32407972183E+02  0.32900559288E+02  0.51100000000E-03 0.  1.
         12    1    3    3    0    0 -0.43133824399E+01  0.62545863262E+01 -0.21956467943E+02  0.23233846059E+02  0.00000000000E+00 0. -1.
</event>
<event>
 7    1  0.3348003E-013  0.7246160E+02  0.7816164E-02  0.1226708E+00
        -11   -1    0    0    0    0  0.00000000000E+00  0.00000000000E+00  0.45593999997E+02  0.45594000000E+02  0.51100000000E-03 0. -1.
         11   -1    0    0    0    0 -0.00000000000E+00 -0.00000000000E+00 -0.45593999997E+02  0.45594000000E+02  0.51100000000E-03 0.  1.
    9900012    2    1    2    0    0 -0.88111979751E+01  0.11321687977E+02 -0.12035788762E+02  0.72461600466E+02  0.70000039304E+02 0.  0.
         12    1    1    2    0    0  0.88111979751E+01 -0.11321687977E+02  0.12035788762E+02  0.18726399534E+02  0.00000000000E+00 0. -1.
         11    1    3    3    0    0  0.45349098950E+01  0.13102670074E+00  0.14639822963E+02  0.15326675843E+02  0.51100000000E-03 0. -1.
        -11    1    3    3    0    0 -0.51896114146E+01 -0.14566802521E+02  0.42818628331E+01  0.16045502545E+02  0.51100000000E-03 0.  1.
        -12    1    3    3    0    0 -0.81564964555E+01  0.25757463798E+02 -0.30957474558E+02  0.41089422078E+02  0.00000000000E+00 0.  1.
</event>
<event>
 7    1  0.3348003E-013  0.7246199E+02  0.7816164E-02  0.1226707E+00
        -11   -1    0    0    0    0  0.00000000000E+00  0.00000000000E+00  0.45593999997E+02  0.45594000000E+02  0.51100000000E-03 0. -1.
         11   -1    0    0    0    0 -0.00000000000E+00 -0.00000000000E+00 -0.45593999997E+02  0.45594000000E+02  0.51100000000E-03 0.  1.
    9900012    2    1    2    0    0  0.15724293912E+02 -0.77346196540E+01 -0.66019581876E+01  0.72461985684E+02  0.70000541121E+02 0.  0.
         12    1    1    2    0    0 -0.15724293912E+02  0.77346196540E+01  0.66019581876E+01  0.18726014316E+02  0.00000000000E+00 0. -1.
         11    1    3    3    0    0 -0.85527272962E+01  0.68773936892E+01 -0.87128818755E+00  0.11009397419E+02  0.51100000000E-03 0. -1.
        -11    1    3    3    0    0  0.21381503467E+02  0.15518514863E+02  0.88394897578E+01  0.27859102166E+02  0.51100000000E-03 0.  1.
        -12    1    3    3    0    0  0.28955177422E+01 -0.30130528206E+02 -0.14570159758E+02  0.33593486100E+02  0.00000000000E+00 0.  1.
</event>
<event>
 7    1  0.3348003E-013  0.7246160E+02  0.7816164E-02  0.1226708E+00
        -11   -1    0    0    0    0  0.00000000000E+00  0.00000000000E+00  0.45593999997E+02  0.45594000000E+02  0.51100000000E-03 0. -1.
         11   -1    0    0    0    0 -0.00000000000E+00 -0.00000000000E+00 -0.45593999997E+02  0.45594000000E+02  0.51100000000E-03 0.  1.
    9900012    2    1    2    0    0 -0.12755678084E+02 -0.90600695756E+01 -0.10290083339E+02  0.72461601542E+02  0.70000040706E+02 0.  0.
         12    1    1    2    0    0  0.12755678084E+02  0.90600695756E+01  0.10290083339E+02  0.18726398458E+02  0.00000000000E+00 0. -1.
         11    1    3    3    0    0 -0.14490680828E+02 -0.66983322547E+00  0.20973143868E+02  0.25501005301E+02  0.51100000000E-03 0. -1.
        -11    1    3    3    0    0 -0.76347685477E+01  0.85993352576E+01 -0.17366029867E+01  0.11629877379E+02  0.51100000000E-03 0.  1.
        -12    1    3    3    0    0  0.93697712923E+01 -0.16989571608E+02 -0.29526624220E+02  0.35330718862E+02  0.00000000000E+00 0.  1.
</event>
<event>
 7    1  0.3348003E-013  0.7246094E+02  0.7816164E-02  0.1226710E+00
        -11   -1    0    0    0    0  0.00000000000E+00  0.00000000000E+00  0.45593999997E+02  0.45594000000E+02  0.51100000000E-03 0. -1.
         11   -1    0    0    0    0 -0.00000000000E+00 -0.00000000000E+00 -0.45593999997E+02  0.45594000000E+02  0.51100000000E-03 0.  1.
    9900012    2    1    2    0    0  0.98153073608E+01  0.36223865084E+01 -0.15531928287E+02  0.72460940996E+02  0.69999180218E+02 0.  0.
         12    1    1    2    0    0 -0.98153073608E+01 -0.36223865084E+01  0.15531928287E+02  0.18727059004E+02  0.00000000000E+00 0. -1.
         11    1    3    3    0    0 -0.60451087538E+01  0.25932805183E+01  0.12469910455E+02  0.14098479021E+02  0.51100000000E-03 0. -1.
        -11    1    3    3    0    0  0.13280840524E+02  0.20558055213E+02 -0.43223660768E+00  0.24478586314E+02  0.51100000000E-03 0.  1.
        -12    1    3    3    0    0  0.25795755902E+01 -0.19528949223E+02 -0.27569602135E+02  0.33883875661E+02  0.00000000000E+00 0.  1.
</event>
<event>
 7    1  0.3348003E-013  0.7246145E+02  0.7816164E-02  0.1226708E+00
        -11   -1    0    0    0    0  0.00000000000E+00  0.00000000000E+00  0.45593999997E+02  0.45594000000E+02  0.51100000000E-03 0.  1.
         11   -1    0    0    0    0 -0.00000000000E+00 -0.00000000000E+00 -0.45593999997E+02  0.45594000000E+02  0.51100000000E-03 0. -1.
    9900012    2    1    2    0    0 -0.50824961730E+01  0.50352155648E+01  0.17306023112E+02  0.72461452025E+02  0.69999845932E+02 0.  0.
         12    1    1    2    0    0  0.50824961730E+01 -0.50352155648E+01 -0.17306023112E+02  0.18726547975E+02  0.00000000000E+00 0. -1.
         11    1    3    3    0    0  0.75866610612E+01  0.54843458125E+01 -0.16692434439E+02  0.19138256002E+02  0.51100000000E-03 0. -1.
        -11    1    3    3    0    0  0.12658909793E+02 -0.68089007273E+01  0.78938631986E+01  0.16398847604E+02  0.51100000000E-03 0.  1.
        -12    1    3    3    0    0 -0.25328067028E+02  0.63597704796E+01  0.26104594352E+02  0.36924348419E+02  0.00000000000E+00 0.  1.
</event>
<event>
 7    1  0.3348003E-013  0.7246159E+02  0.7816164E-02  0.1226708E+00
        -11   -1    0    0    0    0  0.00000000000E+00  0.00000000000E+00  0.45593999997E+02  0.45594000000E+02  0.51100000000E-03 0. -1.
         11   -1    0    0    0    0 -0.00000000000E+00 -0.00000000000E+00 -0.45593999997E+02  0.45594000000E+02  0.51100000000E-03 0.  1.
    9900012    2    1    2    0    0  0.98646755582E+01 -0.14359700235E+02 -0.68677343535E+01  0.72461585771E+02  0.70000020162E+02 0.  0.
         12    1    1    2    0    0 -0.98646755582E+01  0.14359700235E+02  0.68677343535E+01  0.18726414229E+02  0.00000000000E+00 0. -1.
         11    1    3    3    0    0  0.68879819408E+01  0.17197711714E+02  0.23963255156E+01  0.18680148812E+02  0.51100000000E-03 0. -1.
        -11    1    3    3    0    0  0.11256674968E+02 -0.22532989080E+01 -0.18664193066E+02  0.21912147096E+02  0.51100000000E-03 0.  1.
        -12    1    3    3    0    0 -0.82799813504E+01 -0.29304113041E+02  0.94001331963E+01  0.31869289863E+02  0.00000000000E+00 0.  1.
</event>
<event>
 7    1  0.3348003E-013  0.7246160E+02  0.7816164E-02  0.1226708E+00
        -11   -1    0    0    0    0  0.00000000000E+00  0.00000000000E+00  0.45593999997E+02  0.45594000000E+02  0.51100000000E-03 0. -1.
         11   -1    0    0    0    0 -0.00000000000E+00 -0.00000000000E+00 -0.45593999997E+02  0.45594000000E+02  0.51100000000E-03 0.  1.
    9900012    2    1    2    0    0  0.83173388595E+01  0.16728907995E+02 -0.12820827844E+01  0.72461595522E+02  0.70000032864E+02 0.  0.
         12    1    1    2    0    0 -0.83173388595E+01 -0.16728907995E+02  0.12820827844E+01  0.18726404478E+02  0.00000000000E+00 0. -1.
         11    1    3    3    0    0  0.10278729261E+01 -0.75975520957E+01 -0.63347379482E+01  0.99452614714E+01  0.51100000000E-03 0. -1.
        -11    1    3    3    0    0 -0.11718853475E+02  0.35459087119E+02 -0.60759546976E+01  0.37836432335E+02  0.51100000000E-03 0.  1.
         12    1    3    3    0    0  0.19008319408E+02 -0.11132627028E+02  0.11128609861E+02  0.24679901716E+02  0.00000000000E+00 0. -1.
</event>
<event>
 7    1  0.3348003E-013  0.7246148E+02  0.7816164E-02  0.1226708E+00
        -11   -1    0    0    0    0  0.00000000000E+00  0.00000000000E+00  0.45593999997E+02  0.45594000000E+02  0.51100000000E-03 0. -1.
         11   -1    0    0    0    0 -0.00000000000E+00 -0.00000000000E+00 -0.45593999997E+02  0.45594000000E+02  0.51100000000E-03 0.  1.
    9900012    2    1    2    0    0  0.14049352393E+02 -0.11782248511E+02  0.38048715575E+01  0.72461475224E+02  0.69999876152E+02 0.  0.
         12    1    1    2    0    0 -0.14049352393E+02  0.11782248511E+02 -0.38048715575E+01  0.18726524776E+02  0.00000000000E+00 0. -1.
         11    1    3    3    0    0  0.16292648118E+02 -0.21203629670E+02 -0.14886914655E+02  0.30604975447E+02  0.51100000000E-03 0. -1.
        -11    1    3    3    0    0 -0.13645282984E+01 -0.66831463447E+01 -0.80970492329E+01  0.10587189858E+02  0.51100000000E-03 0.  1.
        -12    1    3    3    0    0 -0.87876742676E+00  0.16104527503E+02  0.26788835446E+02  0.31269309919E+02  0.00000000000E+00 0.  1.
</event>
<event>
 7    1  0.3348003E-013  0.7246161E+02  0.7816164E-02  0.1226708E+00
        -11   -1    0    0    0    0  0.00000000000E+00  0.00000000000E+00  0.45593999997E+02  0.45594000000E+02  0.51100000000E-03 0.  1.
         11   -1    0    0    0    0 -0.00000000000E+00 -0.00000000000E+00 -0.45593999997E+02  0.45594000000E+02  0.51100000000E-03 0. -1.
    9900012    2    1    2    0    0  0.72139460698E+01  0.13631200990E+02  0.10622003401E+02  0.72461611812E+02  0.70000054084E+02 0.  0.
         12    1    1    2    0    0 -0.72139460698E+01 -0.13631200990E+02 -0.10622003401E+02  0.18726388188E+02  0.00000000000E+00 0. -1.
         11    1    3    3    0    0  0.17667888080E+02  0.12903884485E+02  0.18243387335E+02  0.28486587822E+02  0.51100000000E-03 0. -1.
        -11    1    3    3    0    0  0.11638921602E+02  0.26215033788E+01  0.10066950518E+02  0.15610261657E+02  0.51100000000E-03 0.  1.
        -12    1    3    3    0    0 -0.22092863612E+02 -0.18941868734E+01 -0.17688334452E+02  0.28364762333E+02  0.00000000000E+00 0.  1.
</event>
<event>
 7    1  0.3348003E-013  0.7246159E+02  0.7816164E-02  0.1226708E+00
        -11   -1    0    0    0    0  0.00000000000E+00  0.00000000000E+00  0.45593999997E+02  0.45594000000E+02  0.51100000000E-03 0. -1.
         11   -1    0    0    0    0 -0.00000000000E+00 -0.00000000000E+00 -0.45593999997E+02  0.45594000000E+02  0.51100000000E-03 0.  1.
    9900012    2    1    2    0    0 -0.57513049825E+01  0.14563424974E+02 -0.10271689507E+02  0.72461589204E+02  0.70000024633E+02 0.  0.
         12    1    1    2    0    0  0.57513049825E+01 -0.14563424974E+02  0.10271689507E+02  0.18726410796E+02  0.00000000000E+00 0. -1.
         11    1    3    3    0    0 -0.20162137385E+02  0.17543843208E+02 -0.99244935448E+01  0.28509538594E+02  0.51100000000E-03 0. -1.
        -11    1    3    3    0    0 -0.11697610917E+02 -0.74659146356E+01 -0.84527613609E+01  0.16248789413E+02  0.51100000000E-03 0.  1.
        -12    1    3    3    0    0  0.26108443319E+02  0.44854964013E+01  0.81055653986E+01  0.27703261197E+02  0.00000000000E+00 0.  1.
</event>
<event>
 7    1  0.3348003E-013  0.7246156E+02  0.7816164E-02  0.1226708E+00
        -11   -1    0    0    0    0  0.00000000000E+00  0.00000000000E+00  0.45593999997E+02  0.45594000000E+02  0.51100000000E-03 0.  1.
         11   -1    0    0    0    0 -0.00000000000E+00 -0.00000000000E+00 -0.45593999997E+02  0.45594000000E+02  0.51100000000E-03 0. -1.
    9900012    2    1    2    0    0  0.12365532503E+02 -0.10259827763E+02  0.96181609488E+01  0.72461562009E+02  0.69999989207E+02 0.  0.
         12    1    1    2    0    0 -0.12365532503E+02  0.10259827763E+02 -0.96181609488E+01  0.18726437991E+02  0.00000000000E+00 0. -1.
         11    1    3    3    0    0 -0.17761074695E+01  0.18648094393E+02 -0.55285983019E+01  0.19531292371E+02  0.51100000000E-03 0. -1.
        -11    1    3    3    0    0  0.56440826405E+01  0.87641826839E+01 -0.21029131291E+01  0.10634322304E+02  0.51100000000E-03 0.  1.
        -12    1    3    3    0    0  0.84975573317E+01 -0.37672104840E+02  0.17249672380E+02  0.42295947334E+02  0.00000000000E+00 0.  1.
</event>
<event>
 7    1  0.3348003E-013  0.7246162E+02  0.7816164E-02  0.1226708E+00
        -11   -1    0    0    0    0  0.00000000000E+00  0.00000000000E+00  0.45593999997E+02  0.45594000000E+02  0.51100000000E-03 0.  1.
         11   -1    0    0    0    0 -0.00000000000E+00 -0.00000000000E+00 -0.45593999997E+02  0.45594000000E+02  0.51100000000E-03 0. -1.
    9900012    2    1    2    0    0  0.15543352993E+02 -0.91319248742E+00  0.10404209343E+02  0.72461619815E+02  0.70000064509E+02 0.  0.
         12    1    1    2    0    0 -0.15543352993E+02  0.91319248742E+00 -0.10404209343E+02  0.18726380185E+02  0.00000000000E+00 0. -1.
         11    1    3    3    0    0  0.15765113239E+02 -0.30899255245E+01 -0.21168761016E+02  0.26574477952E+02  0.51100000000E-03 0. -1.
        -11    1    3    3    0    0  0.15266508622E+02 -0.46912208436E+01  0.11855692172E+02  0.19890482037E+02  0.51100000000E-03 0.  1.
        -12    1    3    3    0    0 -0.15488268868E+02  0.68679538807E+01  0.19717278186E+02  0.25996659826E+02  0.00000000000E+00 0.  1.
</event>
<event>
 7    1  0.3348003E-013  0.7246158E+02  0.7816164E-02  0.1226708E+00
        -11   -1    0    0    0    0  0.00000000000E+00  0.00000000000E+00  0.45593999997E+02  0.45594000000E+02  0.51100000000E-03 0. -1.
         11   -1    0    0    0    0 -0.00000000000E+00 -0.00000000000E+00 -0.45593999997E+02  0.45594000000E+02  0.51100000000E-03 0.  1.
    9900012    2    1    2    0    0 -0.83252264945E+00  0.56704606855E+01 -0.17827834017E+02  0.72461577916E+02  0.70000009928E+02 0.  0.
         12    1    1    2    0    0  0.83252264945E+00 -0.56704606855E+01  0.17827834017E+02  0.18726422084E+02  0.00000000000E+00 0. -1.
         11    1    3    3    0    0  0.54082505751E+01  0.21255678678E+02 -0.15330433619E+02  0.26759582313E+02  0.51100000000E-03 0.  1.
        -11    1    3    3    0    0  0.40301732248E+01  0.12640893417E+02 -0.75161846322E+01  0.15248852884E+02  0.51100000000E-03 0. -1.
         12    1    3    3    0    0 -0.10270946449E+02 -0.28226111409E+02  0.50187842348E+01  0.30453142719E+02  0.00000000000E+00 0. -1.
</event>
<event>
 7    1  0.3348003E-013  0.7246161E+02  0.7816164E-02  0.1226708E+00
        -11   -1    0    0    0    0  0.00000000000E+00  0.00000000000E+00  0.45593999997E+02  0.45594000000E+02  0.51100000000E-03 0.  1.
         11   -1    0    0    0    0 -0.00000000000E+00 -0.00000000000E+00 -0.45593999997E+02  0.45594000000E+02  0.51100000000E-03 0. -1.
    9900012    2    1    2    0    0  0.90913840803E+00 -0.16209240584E+02 -0.93333705623E+01  0.72461606353E+02  0.70000046973E+02 0.  0.
         12    1    1    2    0    0 -0.90913840803E+00  0.16209240584E+02  0.93333705623E+01  0.18726393647E+02  0.00000000000E+00 0. -1.
         11    1    3    3    0    0 -0.28617167627E+01 -0.23199464618E+00 -0.51056688688E+01  0.58575676867E+01  0.51100000000E-03 0. -1.
        -11    1    3    3    0    0 -0.26885002812E+02 -0.13442442054E+02 -0.15529637463E+02  0.33833005550E+02  0.51100000000E-03 0.  1.
         12    1    3    3    0    0  0.30655857982E+02 -0.25348038842E+01  0.11301935770E+02  0.32771033116E+02  0.00000000000E+00 0. -1.
</event>
<event>
 7    1  0.3348003E-013  0.7246159E+02  0.7816164E-02  0.1226708E+00
        -11   -1    0    0    0    0  0.00000000000E+00  0.00000000000E+00  0.45593999997E+02  0.45594000000E+02  0.51100000000E-03 0.  1.
         11   -1    0    0    0    0 -0.00000000000E+00 -0.00000000000E+00 -0.45593999997E+02  0.45594000000E+02  0.51100000000E-03 0. -1.
    9900012    2    1    2    0    0 -0.20691278260E+01 -0.13313412488E+01  0.18564067286E+02  0.72461592077E+02  0.70000028376E+02 0.  0.
         12    1    1    2    0    0  0.20691278260E+01  0.13313412488E+01 -0.18564067286E+02  0.18726407923E+02  0.00000000000E+00 0. -1.
         11    1    3    3    0    0  0.17990581282E+02  0.23184492397E+02  0.11341543841E+02  0.31461282865E+02  0.51100000000E-03 0. -1.
        -11    1    3    3    0    0  0.40039866351E+01 -0.30952253408E+01 -0.44453627356E+01  0.67359913151E+01  0.51100000000E-03 0.  1.
        -12    1    3    3    0    0 -0.24063695743E+02 -0.21420608305E+02  0.11667886181E+02  0.34264317897E+02  0.00000000000E+00 0.  1.
</event>
<event>
 7    1  0.3348003E-013  0.7246157E+02  0.7816164E-02  0.1226708E+00
        -11   -1    0    0    0    0  0.00000000000E+00  0.00000000000E+00  0.45593999997E+02  0.45594000000E+02  0.51100000000E-03 0.  1.
         11   -1    0    0    0    0 -0.00000000000E+00 -0.00000000000E+00 -0.45593999997E+02  0.45594000000E+02  0.51100000000E-03 0. -1.
    9900012    2    1    2    0    0  0.71644195120E+01 -0.12954691295E+02  0.11468484143E+02  0.72461573164E+02  0.70000003739E+02 0.  0.
         12    1    1    2    0    0 -0.71644195120E+01  0.12954691295E+02 -0.11468484143E+02  0.18726426836E+02  0.00000000000E+00 0. -1.
         11    1    3    3    0    0 -0.14076581874E+02  0.18466664533E+02  0.83637793234E+01  0.24680369953E+02  0.51100000000E-03 0. -1.
        -11    1    3    3    0    0 -0.65956567595E+01 -0.97509535870E+01 -0.25726955434E+01  0.12050001932E+02  0.51100000000E-03 0.  1.
         12    1    3    3    0    0  0.27836658145E+02 -0.21670402241E+02  0.56774003630E+01  0.35731201279E+02  0.00000000000E+00 0. -1.
</event>
<event>
 7    1  0.3348003E-013  0.7246140E+02  0.7816164E-02  0.1226708E+00
        -11   -1    0    0    0    0  0.00000000000E+00  0.00000000000E+00  0.45593999997E+02  0.45594000000E+02  0.51100000000E-03 0. -1.
         11   -1    0    0    0    0 -0.00000000000E+00 -0.00000000000E+00 -0.45593999997E+02  0.45594000000E+02  0.51100000000E-03 0.  1.
    9900012    2    1    2    0    0  0.11677909963E+02 -0.13361403202E+02  0.59820371918E+01  0.72461402722E+02  0.69999781706E+02 0.  0.
         12    1    1    2    0    0 -0.11677909963E+02  0.13361403202E+02 -0.59820371918E+01  0.18726597278E+02  0.00000000000E+00 0. -1.
         11    1    3    3    0    0  0.27471123538E+02  0.82484882485E+01 -0.84971131525E+01  0.29914897944E+02  0.51100000000E-03 0. -1.
        -11    1    3    3    0    0  0.37185922288E+01 -0.19732738757E+02  0.46193865006E+01  0.20604553839E+02  0.51100000000E-03 0.  1.
        -12    1    3    3    0    0 -0.19511805804E+02 -0.18771526936E+01  0.98597638437E+01  0.21941950939E+02  0.00000000000E+00 0.  1.
</event>
<event>
 7    1  0.3348003E-013  0.7246158E+02  0.7816164E-02  0.1226708E+00
        -11   -1    0    0    0    0  0.00000000000E+00  0.00000000000E+00  0.45593999997E+02  0.45594000000E+02  0.51100000000E-03 0.  1.
         11   -1    0    0    0    0 -0.00000000000E+00 -0.00000000000E+00 -0.45593999997E+02  0.45594000000E+02  0.51100000000E-03 0. -1.
    9900012    2    1    2    0    0 -0.13179718804E+02  0.12425421557E+02  0.47521354642E+01  0.72461578022E+02  0.70000010067E+02 0.  0.
         12    1    1    2    0    0  0.13179718804E+02 -0.12425421557E+02 -0.47521354642E+01  0.18726421978E+02  0.00000000000E+00 0. -1.
         11    1    3    3    0    0 -0.35504497385E+02  0.45502344133E+01  0.13832074946E+02  0.38374474138E+02  0.51100000000E-03 0. -1.
        -11    1    3    3    0    0 -0.25680950746E+01  0.19899081781E+01  0.41650003460E+01  0.52822414762E+01  0.51100000000E-03 0.  1.
        -12    1    3    3    0    0  0.24892873655E+02  0.58852789657E+01 -0.13244939827E+02  0.28804862408E+02  0.00000000000E+00 0.  1.
</event>
<event>
 7    1  0.3348003E-013  0.7246154E+02  0.7816164E-02  0.1226708E+00
        -11   -1    0    0    0    0  0.00000000000E+00  0.00000000000E+00  0.45593999997E+02  0.45594000000E+02  0.51100000000E-03 0. -1.
         11   -1    0    0    0    0 -0.00000000000E+00 -0.00000000000E+00 -0.45593999997E+02  0.45594000000E+02  0.51100000000E-03 0.  1.
    9900012    2    1    2    0    0  0.13294751260E+01 -0.18494624070E+02  0.26194845312E+01  0.72461539501E+02  0.69999959886E+02 0.  0.
         12    1    1    2    0    0 -0.13294751260E+01  0.18494624070E+02 -0.26194845312E+01  0.18726460499E+02  0.00000000000E+00 0. -1.
         11    1    3    3    0    0 -0.89001459816E+01 -0.30629562844E+01 -0.14518502832E+01  0.95237686449E+01  0.51100000000E-03 0. -1.
        -11    1    3    3    0    0  0.90151899154E+01 -0.35305029940E+02 -0.10892500568E+02  0.38031110386E+02  0.51100000000E-03 0.  1.
         12    1    3    3    0    0  0.12144311922E+01  0.19873362155E+02  0.14963835382E+02  0.24906660471E+02  0.00000000000E+00 0. -1.
</event>
<event>
 7    1  0.3348003E-013  0.7246156E+02  0.7816164E-02  0.1226708E+00
        -11   -1    0    0    0    0  0.00000000000E+00  0.00000000000E+00  0.45593999997E+02  0.45594000000E+02  0.51100000000E-03 0.  1.
         11   -1    0    0    0    0 -0.00000000000E+00 -0.00000000000E+00 -0.45593999997E+02  0.45594000000E+02  0.51100000000E-03 0. -1.
    9900012    2    1    2    0    0 -0.18629576523E+02  0.15980626050E+01  0.10317356167E+01  0.72461564036E+02  0.69999991848E+02 0.  0.
         12    1    1    2    0    0  0.18629576523E+02 -0.15980626050E+01 -0.10317356167E+01  0.18726435964E+02  0.00000000000E+00 0. -1.
         11    1    3    3    0    0 -0.26828106566E+02  0.25616182418E+02  0.80276651743E+01  0.37952332102E+02  0.51100000000E-03 0. -1.
        -11    1    3    3    0    0  0.93443374079E+01 -0.34332038326E+01  0.44766872226E+01  0.10915322208E+02  0.51100000000E-03 0.  1.
        -12    1    3    3    0    0 -0.11458073654E+01 -0.20584915980E+02 -0.11472616780E+02  0.23593909727E+02  0.00000000000E+00 0.  1.
</event>
<event>
 7    1  0.3348003E-013  0.7246147E+02  0.7816164E-02  0.1226708E+00
        -11   -1    0    0    0    0  0.00000000000E+00  0.00000000000E+00  0.45593999997E+02  0.45594000000E+02  0.51100000000E-03 0. -1.
         11   -1    0    0    0    0 -0.00000000000E+00 -0.00000000000E+00 -0.45593999997E+02  0.45594000000E+02  0.51100000000E-03 0.  1.
    9900012    2    1    2    0    0 -0.54007620932E+01  0.71167510626E+01 -0.16458023419E+02  0.72461470377E+02  0.69999869839E+02 0.  0.
         12    1    1    2    0    0  0.54007620932E+01 -0.71167510626E+01  0.16458023419E+02  0.18726529623E+02  0.00000000000E+00 0. -1.
         11    1    3    3    0    0 -0.20742025258E+01 -0.11722511414E+02  0.18156269965E+02  0.21711050856E+02  0.51100000000E-03 0. -1.
        -11    1    3    3    0    0 -0.55248051391E+01  0.11242252702E+02  0.25250089448E+01  0.12778395364E+02  0.51100000000E-03 0.  1.
        -12    1    3    3    0    0  0.21982455718E+01  0.75970097744E+01 -0.37139302329E+02  0.37972024157E+02  0.00000000000E+00 0.  1.
</event>
