<event>
 7    1  0.4191642E-015  0.9000775E+02  0.7816164E-02  0.1186339E+00
        -11   -1    0    0    0    0  0.00000000000E+00  0.00000000000E+00  0.45593999997E+02  0.45594000000E+02  0.51100000000E-03 0. -1.
         11   -1    0    0    0    0 -0.00000000000E+00 -0.00000000000E+00 -0.45593999997E+02  0.45594000000E+02  0.51100000000E-03 0.  1.
    9900012    2    1    2    0    0  0.72776341982E+00  0.33360233210E+00  0.86721048822E+00  0.90007752508E+02  0.90000014041E+02 0.  0.
        -12    1    1    2    0    0 -0.72776341982E+00 -0.33360233210E+00 -0.86721048822E+00  0.11802474919E+01  0.00000000000E+00 0.  1.
         11    1    3    3    0    0 -0.11222987685E+01  0.16423288111E+01  0.91845416744E+01  0.93974786235E+01  0.51100000000E-03 0. -1.
        -11    1    3    3    0    0 -0.30638499194E+02  0.20302942276E+02 -0.17217783382E+02  0.40587918927E+02  0.51100000000E-03 0.  1.
         12    1    3    3    0    0  0.32488561383E+02 -0.21611668755E+02  0.89004521960E+01  0.40022354958E+02  0.00000000000E+00 0. -1.
</event>
<event>
 7    1  0.3743571E-015  0.9000782E+02  0.7816164E-02  0.1186339E+00
        -11   -1    0    0    0    0  0.00000000000E+00  0.00000000000E+00  0.45593999997E+02  0.45594000000E+02  0.51100000000E-03 0.  1.
         11   -1    0    0    0    0 -0.00000000000E+00 -0.00000000000E+00 -0.45593999997E+02  0.45594000000E+02  0.51100000000E-03 0. -1.
    9900012    2    1    2    0    0 -0.70377789215E-02  0.94043344732E+00 -0.71299571793E+00  0.90007818873E+02  0.90000081282E+02 0.  0.
        -12    1    1    2    0    0  0.70377789215E-02 -0.94043344732E+00  0.71299571793E+00  0.11801811272E+01  0.00000000000E+00 0.  1.
         11    1    3    3    0    0  0.27652765002E+01 -0.23433447057E+02 -0.30955611342E+02  0.38923297251E+02  0.51100000000E-03 0. -1.
        -11    1    3    3    0    0 -0.10472879724E+02  0.64577771876E-01 -0.12669466101E+01  0.10549432875E+02  0.51100000000E-03 0.  1.
        -12    1    3    3    0    0  0.77005654451E+01  0.24309302732E+02  0.31509562234E+02  0.40535088747E+02  0.00000000000E+00 0.  1.
</event>
<event>
 7    1  0.3743571E-015  0.9000780E+02  0.7816164E-02  0.1186339E+00
        -11   -1    0    0    0    0  0.00000000000E+00  0.00000000000E+00  0.45593999997E+02  0.45594000000E+02  0.51100000000E-03 0.  1.
         11   -1    0    0    0    0 -0.00000000000E+00 -0.00000000000E+00 -0.45593999997E+02  0.45594000000E+02  0.51100000000E-03 0. -1.
    9900012    2    1    2    0    0 -0.58889958486E-01 -0.85143783091E+00 -0.81513811138E+00  0.90007803174E+02  0.90000065376E+02 0.  0.
        -12    1    1    2    0    0  0.58889958486E-01  0.85143783091E+00  0.81513811138E+00  0.11801968258E+01  0.00000000000E+00 0.  1.
         11    1    3    3    0    0  0.53631982950E+01 -0.50082200232E+01  0.64763832304E+01  0.97872214525E+01  0.51100000000E-03 0. -1.
        -11    1    3    3    0    0 -0.47473962525E+01  0.11021648619E+00  0.36213018790E+02  0.36523042713E+02  0.51100000000E-03 0.  1.
         12    1    3    3    0    0 -0.67469200100E+00  0.40465657061E+01 -0.43504540132E+02  0.43697539009E+02  0.00000000000E+00 0. -1.
</event>
<event>
 7    1  0.3743571E-015  0.9000771E+02  0.7816164E-02  0.1186339E+00
        -11   -1    0    0    0    0  0.00000000000E+00  0.00000000000E+00  0.45593999997E+02  0.45594000000E+02  0.51100000000E-03 0. -1.
         11   -1    0    0    0    0 -0.00000000000E+00 -0.00000000000E+00 -0.45593999997E+02  0.45594000000E+02  0.51100000000E-03 0.  1.
    9900012    2    1    2    0    0 -0.55705916627E+00  0.80982444448E+00 -0.65340923865E+00  0.90007714366E+02  0.89999975395E+02 0.  0.
        -12    1    1    2    0    0  0.55705916627E+00 -0.80982444448E+00  0.65340923865E+00  0.11802856344E+01  0.00000000000E+00 0.  1.
         11    1    3    3    0    0 -0.40302455702E+01 -0.46442869712E+01  0.62836690652E+01  0.87918586208E+01  0.51100000000E-03 0. -1.
        -11    1    3    3    0    0 -0.29359338249E+02  0.22831317289E+02 -0.19509596842E+02  0.41998382835E+02  0.51100000000E-03 0.  1.
         12    1    3    3    0    0  0.32832524653E+02 -0.17377205873E+02  0.12572518538E+02  0.39217472910E+02  0.00000000000E+00 0. -1.
</event>
<event>
 7    1  0.3743571E-015  0.9000757E+02  0.7816164E-02  0.1186339E+00
        -11   -1    0    0    0    0  0.00000000000E+00  0.00000000000E+00  0.45593999997E+02  0.45594000000E+02  0.51100000000E-03 0.  1.
         11   -1    0    0    0    0 -0.00000000000E+00 -0.00000000000E+00 -0.45593999997E+02  0.45594000000E+02  0.51100000000E-03 0. -1.
    9900012    2    1    2    0    0  0.40759784222E+00 -0.35263779846E+00 -0.10502028394E+01  0.90007569815E+02  0.89999828936E+02 0.  0.
        -12    1    1    2    0    0 -0.40759784222E+00  0.35263779846E+00  0.10502028394E+01  0.11804301850E+01  0.00000000000E+00 0.  1.
         11    1    3    3    0    0 -0.28812718815E+02  0.50027994116E+01 -0.16625172875E+02  0.33639220277E+02  0.51100000000E-03 0. -1.
        -11    1    3    3    0    0  0.18580479904E+01 -0.21004412482E+02 -0.27136108771E+00  0.21088179702E+02  0.51100000000E-03 0.  1.
        -12    1    3    3    0    0  0.27362268666E+02  0.15648975272E+02  0.15846331123E+02  0.35280169837E+02  0.00000000000E+00 0.  1.
</event>
<event>
 7    1  0.3743571E-015  0.9000778E+02  0.7816164E-02  0.1186339E+00
        -11   -1    0    0    0    0  0.00000000000E+00  0.00000000000E+00  0.45593999997E+02  0.45594000000E+02  0.51100000000E-03 0.  1.
         11   -1    0    0    0    0 -0.00000000000E+00 -0.00000000000E+00 -0.45593999997E+02  0.45594000000E+02  0.51100000000E-03 0. -1.
    9900012    2    1    2    0    0 -0.12501149444E+00 -0.40280867255E+00 -0.11022879784E+01  0.90007779051E+02  0.90000040935E+02 0.  0.
        -12    1    1    2    0    0  0.12501149444E+00  0.40280867255E+00  0.11022879784E+01  0.11802209487E+01  0.00000000000E+00 0.  1.
         11    1    3    3    0    0  0.57551615150E+01  0.55688891410E+01  0.44758088190E+01  0.91742724602E+01  0.51100000000E-03 0. -1.
        -11    1    3    3    0    0  0.32694359139E+02 -0.42507095624E+00 -0.21067858287E+02  0.38896740967E+02  0.51100000000E-03 0.  1.
         12    1    3    3    0    0 -0.38574532149E+02 -0.55466268573E+01  0.15489761489E+02  0.41936765624E+02  0.00000000000E+00 0. -1.
</event>
<event>
 7    1  0.3743571E-015  0.9000788E+02  0.7816164E-02  0.1186339E+00
        -11   -1    0    0    0    0  0.00000000000E+00  0.00000000000E+00  0.45593999997E+02  0.45594000000E+02  0.51100000000E-03 0. -1.
         11   -1    0    0    0    0 -0.00000000000E+00 -0.00000000000E+00 -0.45593999997E+02  0.45594000000E+02  0.51100000000E-03 0.  1.
    9900012    2    1    2    0    0 -0.79866581418E+00 -0.35165703137E+00 -0.79444438392E+00  0.90007884908E+02  0.90000148189E+02 0.  0.
        -12    1    1    2    0    0  0.79866581418E+00  0.35165703137E+00  0.79444438392E+00  0.11801150917E+01  0.00000000000E+00 0.  1.
         11    1    3    3    0    0  0.14024073076E+02 -0.14645886989E+02  0.30443125112E+02  0.36578142356E+02  0.51100000000E-03 0. -1.
        -11    1    3    3    0    0 -0.37988145073E+01  0.17684762575E+01  0.89682867505E+01  0.98989225390E+01  0.51100000000E-03 0.  1.
        -12    1    3    3    0    0 -0.11023924383E+02  0.12525753700E+02 -0.40205856246E+02  0.43530820014E+02  0.00000000000E+00 0.  1.
</event>
<event>
 7    1  0.3743571E-015  0.9000741E+02  0.7816164E-02  0.1186340E+00
        -11   -1    0    0    0    0  0.00000000000E+00  0.00000000000E+00  0.45593999997E+02  0.45594000000E+02  0.51100000000E-03 0.  1.
         11   -1    0    0    0    0 -0.00000000000E+00 -0.00000000000E+00 -0.45593999997E+02  0.45594000000E+02  0.51100000000E-03 0. -1.
    9900012    2    1    2    0    0  0.20108465977E+00  0.18534522914E+00 -0.11484780464E+01  0.90007411284E+02  0.89999668312E+02 0.  0.
        -12    1    1    2    0    0 -0.20108465977E+00 -0.18534522914E+00  0.11484780464E+01  0.11805887164E+01  0.00000000000E+00 0.  1.
         11    1    3    3    0    0 -0.14802534230E+01 -0.61644152203E+01 -0.71596324927E+01  0.95630279147E+01  0.51100000000E-03 0. -1.
        -11    1    3    3    0    0  0.30380200116E+02  0.30194409274E+02  0.49408774014E+01  0.43116947715E+02  0.51100000000E-03 0.  1.
         12    1    3    3    0    0 -0.28698862033E+02 -0.23844648824E+02  0.10702770450E+01  0.37327435654E+02  0.00000000000E+00 0. -1.
</event>
<event>
 7    1  0.3743571E-015  0.9000764E+02  0.7816164E-02  0.1186339E+00
        -11   -1    0    0    0    0  0.00000000000E+00  0.00000000000E+00  0.45593999997E+02  0.45594000000E+02  0.51100000000E-03 0.  1.
         11   -1    0    0    0    0 -0.00000000000E+00 -0.00000000000E+00 -0.45593999997E+02  0.45594000000E+02  0.51100000000E-03 0. -1.
    9900012    2    1    2    0    0 -0.58021657803E+00  0.77366375491E+00  0.67679364175E+00  0.90007637125E+02  0.89999897135E+02 0.  0.
        -12    1    1    2    0    0  0.58021657803E+00 -0.77366375491E+00 -0.67679364175E+00  0.11803628750E+01  0.00000000000E+00 0.  1.
         11    1    3    3    0    0 -0.24873051069E+01  0.18865121805E+02 -0.32839115849E+02  0.37953748661E+02  0.51100000000E-03 0. -1.
        -11    1    3    3    0    0  0.47830545599E+01  0.75676110700E+01 -0.93518918093E+00  0.90011625524E+01  0.51100000000E-03 0.  1.
        -12    1    3    3    0    0 -0.28759660310E+01 -0.25659069120E+02  0.34451098672E+02  0.43052725912E+02  0.00000000000E+00 0.  1.
</event>
<event>
 7    1  0.3743571E-015  0.9000769E+02  0.7816164E-02  0.1186339E+00
        -11   -1    0    0    0    0  0.00000000000E+00  0.00000000000E+00  0.45593999997E+02  0.45594000000E+02  0.51100000000E-03 0.  1.
         11   -1    0    0    0    0 -0.00000000000E+00 -0.00000000000E+00 -0.45593999997E+02  0.45594000000E+02  0.51100000000E-03 0. -1.
    9900012    2    1    2    0    0 -0.10115618409E+01  0.24795922960E+00  0.55533677628E+00  0.90007686452E+02  0.89999947113E+02 0.  0.
        -12    1    1    2    0    0  0.10115618409E+01 -0.24795922960E+00 -0.55533677628E+00  0.11803135484E+01  0.00000000000E+00 0.  1.
         11    1    3    3    0    0 -0.72867719785E+01  0.94542959544E+01  0.87204492734E+01  0.14782658545E+02  0.51100000000E-03 0. -1.
        -11    1    3    3    0    0  0.13195194036E+02 -0.39496701527E+02  0.40507441444E+01  0.41839109760E+02  0.51100000000E-03 0.  1.
         12    1    3    3    0    0 -0.69199838986E+01  0.30290364802E+02 -0.12215856642E+02  0.33385918147E+02  0.00000000000E+00 0. -1.
</event>
<event>
 7    1  0.3743571E-015  0.9000777E+02  0.7816164E-02  0.1186339E+00
        -11   -1    0    0    0    0  0.00000000000E+00  0.00000000000E+00  0.45593999997E+02  0.45594000000E+02  0.51100000000E-03 0.  1.
         11   -1    0    0    0    0 -0.00000000000E+00 -0.00000000000E+00 -0.45593999997E+02  0.45594000000E+02  0.51100000000E-03 0. -1.
    9900012    2    1    2    0    0  0.54265293650E+00 -0.91088255611E+00 -0.51841335645E+00  0.90007774747E+02  0.90000036573E+02 0.  0.
        -12    1    1    2    0    0 -0.54265293650E+00  0.91088255611E+00  0.51841335645E+00  0.11802252534E+01  0.00000000000E+00 0.  1.
         11    1    3    3    0    0  0.30307794262E+02 -0.14428608384E+02 -0.28426453360E+02  0.43986479557E+02  0.51100000000E-03 0. -1.
        -11    1    3    3    0    0 -0.47325424105E+01  0.55008316226E+01 -0.55538359515E+00  0.72776752749E+01  0.51100000000E-03 0.  1.
        -12    1    3    3    0    0 -0.25032598915E+02  0.80168942051E+01  0.28463423599E+02  0.38743619915E+02  0.00000000000E+00 0.  1.
</event>
<event>
 7    1  0.3743571E-015  0.9000780E+02  0.7816164E-02  0.1186339E+00
        -11   -1    0    0    0    0  0.00000000000E+00  0.00000000000E+00  0.45593999997E+02  0.45594000000E+02  0.51100000000E-03 0.  1.
         11   -1    0    0    0    0 -0.00000000000E+00 -0.00000000000E+00 -0.45593999997E+02  0.45594000000E+02  0.51100000000E-03 0. -1.
    9900012    2    1    2    0    0  0.10698830601E+01 -0.44115359416E+00 -0.23153913772E+00  0.90007798056E+02  0.90000060191E+02 0.  0.
        -12    1    1    2    0    0 -0.10698830601E+01  0.44115359416E+00  0.23153913772E+00  0.11802019438E+01  0.00000000000E+00 0.  1.
         11    1    3    3    0    0 -0.48708870059E+01 -0.23499673973E+02  0.87807066922E+01  0.25555058743E+02  0.51100000000E-03 0. -1.
        -11    1    3    3    0    0  0.19087876949E+02 -0.14458146808E+02 -0.53099200360E+01  0.24527134089E+02  0.51100000000E-03 0.  1.
         12    1    3    3    0    0 -0.13147106883E+02  0.37516667188E+02 -0.37023257939E+01  0.39925605225E+02  0.00000000000E+00 0. -1.
</event>
<event>
 7    1  0.3743571E-015  0.9000771E+02  0.7816164E-02  0.1186339E+00
        -11   -1    0    0    0    0  0.00000000000E+00  0.00000000000E+00  0.45593999997E+02  0.45594000000E+02  0.51100000000E-03 0.  1.
         11   -1    0    0    0    0 -0.00000000000E+00 -0.00000000000E+00 -0.45593999997E+02  0.45594000000E+02  0.51100000000E-03 0. -1.
    9900012    2    1    2    0    0 -0.69817567640E+00  0.40450545126E+00 -0.86139416629E+00  0.90007714507E+02  0.89999975539E+02 0.  0.
        -12    1    1    2    0    0  0.69817567640E+00 -0.40450545126E+00  0.86139416629E+00  0.11802854930E+01  0.00000000000E+00 0.  1.
         11    1    3    3    0    0 -0.30739681024E+02 -0.17942156902E+02 -0.87515441174E+01  0.36652946791E+02  0.51100000000E-03 0. -1.
        -11    1    3    3    0    0 -0.77232720765E+01  0.38320108014E+01 -0.60831199356E+01  0.10551662749E+02  0.51100000000E-03 0.  1.
        -12    1    3    3    0    0  0.37764777424E+02  0.14514651552E+02  0.13973269887E+02  0.42803104968E+02  0.00000000000E+00 0.  1.
</event>
<event>
 7    1  0.3743571E-015  0.9000735E+02  0.7816164E-02  0.1186340E+00
        -11   -1    0    0    0    0  0.00000000000E+00  0.00000000000E+00  0.45593999997E+02  0.45594000000E+02  0.51100000000E-03 0.  1.
         11   -1    0    0    0    0 -0.00000000000E+00 -0.00000000000E+00 -0.45593999997E+02  0.45594000000E+02  0.51100000000E-03 0. -1.
    9900012    2    1    2    0    0 -0.52738434687E+00  0.19293317046E+00 -0.10385415229E+01  0.90007353587E+02  0.89999609854E+02 0.  0.
        -12    1    1    2    0    0  0.52738434687E+00 -0.19293317046E+00  0.10385415229E+01  0.11806464130E+01  0.00000000000E+00 0.  1.
         11    1    3    3    0    0  0.16352651056E+02 -0.23868232337E+02  0.17263401517E+00  0.28933225092E+02  0.51100000000E-03 0. -1.
        -11    1    3    3    0    0  0.87904074101E+01  0.86388693248E+01  0.20614369527E+02  0.24017775853E+02  0.51100000000E-03 0.  1.
         12    1    3    3    0    0 -0.25670442813E+02  0.15422296182E+02 -0.21825545065E+02  0.37056352642E+02  0.00000000000E+00 0. -1.
</event>
<event>
 7    1  0.3743571E-015  0.9000777E+02  0.7816164E-02  0.1186339E+00
        -11   -1    0    0    0    0  0.00000000000E+00  0.00000000000E+00  0.45593999997E+02  0.45594000000E+02  0.51100000000E-03 0. -1.
         11   -1    0    0    0    0 -0.00000000000E+00 -0.00000000000E+00 -0.45593999997E+02  0.45594000000E+02  0.51100000000E-03 0.  1.
    9900012    2    1    2    0    0  0.89961852935E+00 -0.76143540864E+00  0.62047685387E-01  0.90007768118E+02  0.90000029857E+02 0.  0.
        -12    1    1    2    0    0 -0.89961852935E+00  0.76143540864E+00 -0.62047685387E-01  0.11802318819E+01  0.00000000000E+00 0.  1.
         11    1    3    3    0    0  0.20600274399E+02  0.23776366903E+02  0.96952455556E+01  0.32919366869E+02  0.51100000000E-03 0.  1.
        -11    1    3    3    0    0  0.67511348508E+01  0.58844589910E+01 -0.13914867961E+02  0.16547756042E+02  0.51100000000E-03 0. -1.
         12    1    3    3    0    0 -0.26451790720E+02 -0.30422261303E+02  0.42816700903E+01  0.40540645207E+02  0.00000000000E+00 0. -1.
</event>
<event>
 7    1  0.3743571E-015  0.9000766E+02  0.7816164E-02  0.1186339E+00
        -11   -1    0    0    0    0  0.00000000000E+00  0.00000000000E+00  0.45593999997E+02  0.45594000000E+02  0.51100000000E-03 0. -1.
         11   -1    0    0    0    0 -0.00000000000E+00 -0.00000000000E+00 -0.45593999997E+02  0.45594000000E+02  0.51100000000E-03 0.  1.
    9900012    2    1    2    0    0 -0.10817382372E+01 -0.37172710946E+00  0.29130704088E+00  0.90007661722E+02  0.89999922057E+02 0.  0.
        -12    1    1    2    0    0  0.10817382372E+01  0.37172710946E+00 -0.29130704088E+00  0.11803382777E+01  0.00000000000E+00 0.  1.
         11    1    3    3    0    0 -0.17785192727E+02  0.10121853660E+02  0.92413255001E+01  0.22453665605E+02  0.51100000000E-03 0. -1.
        -11    1    3    3    0    0 -0.13596769126E+02 -0.21627525546E+02 -0.21027656395E+02  0.33087525227E+02  0.51100000000E-03 0.  1.
         12    1    3    3    0    0  0.30300223616E+02  0.11133944777E+02  0.12077637936E+02  0.34466470890E+02  0.00000000000E+00 0. -1.
</event>
<event>
 7    1  0.3743571E-015  0.9000781E+02  0.7816164E-02  0.1186339E+00
        -11   -1    0    0    0    0  0.00000000000E+00  0.00000000000E+00  0.45593999997E+02  0.45594000000E+02  0.51100000000E-03 0.  1.
         11   -1    0    0    0    0 -0.00000000000E+00 -0.00000000000E+00 -0.45593999997E+02  0.45594000000E+02  0.51100000000E-03 0. -1.
    9900012    2    1    2    0    0  0.18471180670E+00  0.10778014004E+01 -0.44393846980E+00  0.90007806933E+02  0.90000069185E+02 0.  0.
        -12    1    1    2    0    0 -0.18471180670E+00 -0.10778014004E+01  0.44393846980E+00  0.11801930669E+01  0.00000000000E+00 0.  1.
         11    1    3    3    0    0  0.24049273543E+02 -0.19946470248E+02 -0.29055357008E+02  0.42666649791E+02  0.51100000000E-03 0. -1.
        -11    1    3    3    0    0 -0.90886383134E+01 -0.84570095785E+00  0.10629296104E+01  0.91895797575E+01  0.51100000000E-03 0.  1.
        -12    1    3    3    0    0 -0.14775923422E+02  0.21869972606E+02  0.27548488927E+02  0.38151577385E+02  0.00000000000E+00 0.  1.
</event>
<event>
 7    1  0.3743571E-015  0.9000759E+02  0.7816164E-02  0.1186339E+00
        -11   -1    0    0    0    0  0.00000000000E+00  0.00000000000E+00  0.45593999997E+02  0.45594000000E+02  0.51100000000E-03 0.  1.
         11   -1    0    0    0    0 -0.00000000000E+00 -0.00000000000E+00 -0.45593999997E+02  0.45594000000E+02  0.51100000000E-03 0. -1.
    9900012    2    1    2    0    0 -0.68631735501E+00  0.80002257740E+00 -0.53131569713E+00  0.90007591593E+02  0.89999851002E+02 0.  0.
        -12    1    1    2    0    0  0.68631735501E+00 -0.80002257740E+00  0.53131569713E+00  0.11804084065E+01  0.00000000000E+00 0.  1.
         11    1    3    3    0    0 -0.15180494149E+01 -0.51898038086E+00 -0.99699638390E+01  0.10098217361E+02  0.51100000000E-03 0. -1.
        -11    1    3    3    0    0 -0.12958880719E+02  0.31106274887E+02  0.26542638475E+02  0.42895740864E+02  0.51100000000E-03 0.  1.
         12    1    3    3    0    0  0.13790612779E+02 -0.29787271929E+02 -0.17103990333E+02  0.37013633368E+02  0.00000000000E+00 0. -1.
</event>
<event>
 7    1  0.3743571E-015  0.9000770E+02  0.7816164E-02  0.1186339E+00
        -11   -1    0    0    0    0  0.00000000000E+00  0.00000000000E+00  0.45593999997E+02  0.45594000000E+02  0.51100000000E-03 0.  1.
         11   -1    0    0    0    0 -0.00000000000E+00 -0.00000000000E+00 -0.45593999997E+02  0.45594000000E+02  0.51100000000E-03 0. -1.
    9900012    2    1    2    0    0 -0.23648420077E+00 -0.93258375367E+00 -0.68371171681E+00  0.90007703873E+02  0.89999964764E+02 0.  0.
        -12    1    1    2    0    0  0.23648420077E+00  0.93258375367E+00  0.68371171681E+00  0.11802961266E+01  0.00000000000E+00 0.  1.
         11    1    3    3    0    0  0.14515576439E+02 -0.32256806037E+02 -0.16154356116E+02  0.38886587879E+02  0.51100000000E-03 0. -1.
        -11    1    3    3    0    0 -0.67414239247E+01 -0.58487844358E+01 -0.21961415351E+01  0.91911976267E+01  0.51100000000E-03 0.  1.
        -12    1    3    3    0    0 -0.80106367151E+01  0.37173006719E+02  0.17666785934E+02  0.41929918368E+02  0.00000000000E+00 0.  1.
</event>
<event>
 7    1  0.3743571E-015  0.9000770E+02  0.7816164E-02  0.1186339E+00
        -11   -1    0    0    0    0  0.00000000000E+00  0.00000000000E+00  0.45593999997E+02  0.45594000000E+02  0.51100000000E-03 0.  1.
         11   -1    0    0    0    0 -0.00000000000E+00 -0.00000000000E+00 -0.45593999997E+02  0.45594000000E+02  0.51100000000E-03 0. -1.
    9900012    2    1    2    0    0 -0.91167941978E+00  0.14382223501E+00  0.73570927268E+00  0.90007698202E+02  0.89999959019E+02 0.  0.
        -12    1    1    2    0    0  0.91167941978E+00 -0.14382223501E+00 -0.73570927268E+00  0.11803017977E+01  0.00000000000E+00 0.  1.
         11    1    3    3    0    0  0.30385018977E+02  0.48702179379E+01 -0.15293086081E+02  0.34363452725E+02  0.51100000000E-03 0. -1.
        -11    1    3    3    0    0  0.97283526458E+01 -0.43839227267E+01 -0.19569972523E+01  0.10848477413E+02  0.51100000000E-03 0.  1.
        -12    1    3    3    0    0 -0.41025051043E+02 -0.34247297615E+00  0.17985792606E+02  0.44795768065E+02  0.00000000000E+00 0.  1.
</event>
<event>
 7    1  0.3743571E-015  0.9000771E+02  0.7816164E-02  0.1186339E+00
        -11   -1    0    0    0    0  0.00000000000E+00  0.00000000000E+00  0.45593999997E+02  0.45594000000E+02  0.51100000000E-03 0.  1.
         11   -1    0    0    0    0 -0.00000000000E+00 -0.00000000000E+00 -0.45593999997E+02  0.45594000000E+02  0.51100000000E-03 0. -1.
    9900012    2    1    2    0    0  0.45682674911E+00  0.10881470372E+01 -0.18198504599E-01  0.90007709426E+02  0.89999970391E+02 0.  0.
        -12    1    1    2    0    0 -0.45682674911E+00 -0.10881470372E+01  0.18198504599E-01  0.11802905739E+01  0.00000000000E+00 0.  1.
         11    1    3    3    0    0 -0.38726215519E+02  0.34188326397E+01 -0.14635070717E+02  0.41540263362E+02  0.51100000000E-03 0. -1.
        -11    1    3    3    0    0  0.35877243918E+01  0.68543897480E+01  0.79748730803E+01  0.11110941726E+02  0.51100000000E-03 0.  1.
        -12    1    3    3    0    0  0.35595317876E+02 -0.91850753506E+01  0.66419991320E+01  0.37356504338E+02  0.00000000000E+00 0.  1.
</event>
<event>
 7    1  0.3743571E-015  0.9000786E+02  0.7816164E-02  0.1186339E+00
        -11   -1    0    0    0    0  0.00000000000E+00  0.00000000000E+00  0.45593999997E+02  0.45594000000E+02  0.51100000000E-03 0. -1.
         11   -1    0    0    0    0 -0.00000000000E+00 -0.00000000000E+00 -0.45593999997E+02  0.45594000000E+02  0.51100000000E-03 0.  1.
    9900012    2    1    2    0    0 -0.76773734198E+00 -0.88786617244E+00  0.12253514403E+00  0.90007855167E+02  0.90000118055E+02 0.  0.
        -12    1    1    2    0    0  0.76773734198E+00  0.88786617244E+00 -0.12253514403E+00  0.11801448335E+01  0.00000000000E+00 0.  1.
         11    1    3    3    0    0 -0.16379798366E+02  0.32894476046E+02 -0.77831968602E+00  0.36755273508E+02  0.51100000000E-03 0. -1.
        -11    1    3    3    0    0 -0.10280239960E+02 -0.92971406214E+00 -0.41379039577E+01  0.11120699227E+02  0.51100000000E-03 0.  1.
        -12    1    3    3    0    0  0.25892300985E+02 -0.32852628156E+02  0.50387587878E+01  0.42131882431E+02  0.00000000000E+00 0.  1.
</event>
<event>
 7    1  0.3743571E-015  0.9000778E+02  0.7816164E-02  0.1186339E+00
        -11   -1    0    0    0    0  0.00000000000E+00  0.00000000000E+00  0.45593999997E+02  0.45594000000E+02  0.51100000000E-03 0.  1.
         11   -1    0    0    0    0 -0.00000000000E+00 -0.00000000000E+00 -0.45593999997E+02  0.45594000000E+02  0.51100000000E-03 0. -1.
    9900012    2    1    2    0    0 -0.11502794049E+01  0.22067135202E+00  0.14516469547E+00  0.90007783349E+02  0.90000045289E+02 0.  0.
        -12    1    1    2    0    0  0.11502794049E+01 -0.22067135202E+00 -0.14516469547E+00  0.11802166511E+01  0.00000000000E+00 0.  1.
         11    1    3    3    0    0  0.72321019885E+01  0.21279051482E+02  0.23189524136E+02  0.32293271143E+02  0.51100000000E-03 0. -1.
        -11    1    3    3    0    0 -0.18010055445E+02 -0.40873504015E+01  0.87300610280E+01  0.20427493636E+02  0.51100000000E-03 0.  1.
         12    1    3    3    0    0  0.96276740516E+01 -0.16971029729E+02 -0.31774420469E+02  0.37287018570E+02  0.00000000000E+00 0. -1.
</event>
<event>
 7    1  0.3743571E-015  0.9000690E+02  0.7816164E-02  0.1186341E+00
        -11   -1    0    0    0    0  0.00000000000E+00  0.00000000000E+00  0.45593999997E+02  0.45594000000E+02  0.51100000000E-03 0. -1.
         11   -1    0    0    0    0 -0.00000000000E+00 -0.00000000000E+00 -0.45593999997E+02  0.45594000000E+02  0.51100000000E-03 0.  1.
    9900012    2    1    2    0    0  0.69564994785E+00  0.84820396552E+00  0.43775528309E+00  0.90006895218E+02  0.89999145431E+02 0.  0.
        -12    1    1    2    0    0 -0.69564994785E+00 -0.84820396552E+00 -0.43775528309E+00  0.11811047815E+01  0.00000000000E+00 0.  1.
         11    1    3    3    0    0 -0.18680768439E+01  0.33742759771E+02  0.23417556471E+02  0.41115027659E+02  0.51100000000E-03 0. -1.
        -11    1    3    3    0    0  0.52003441586E+01 -0.25129485938E+01  0.48988336219E+01  0.75734444686E+01  0.51100000000E-03 0.  1.
        -12    1    3    3    0    0 -0.26366173668E+01 -0.30381607212E+02 -0.27878634809E+02  0.41318423091E+02  0.00000000000E+00 0.  1.
</event>
<event>
 7    1  0.3743571E-015  0.9000778E+02  0.7816164E-02  0.1186339E+00
        -11   -1    0    0    0    0  0.00000000000E+00  0.00000000000E+00  0.45593999997E+02  0.45594000000E+02  0.51100000000E-03 0. -1.
         11   -1    0    0    0    0 -0.00000000000E+00 -0.00000000000E+00 -0.45593999997E+02  0.45594000000E+02  0.51100000000E-03 0.  1.
    9900012    2    1    2    0    0 -0.48475821132E+00  0.39189563180E+00  0.10021728381E+01  0.90007778365E+02  0.90000040240E+02 0.  0.
        -12    1    1    2    0    0  0.48475821132E+00 -0.39189563180E+00 -0.10021728381E+01  0.11802216348E+01  0.00000000000E+00 0.  1.
         11    1    3    3    0    0 -0.71420888026E+01  0.15936643088E+01  0.58684628011E+01  0.93801947902E+01  0.51100000000E-03 0. -1.
        -11    1    3    3    0    0 -0.26911557169E+02  0.69206636969E+01  0.23141049814E+02  0.36161245582E+02  0.51100000000E-03 0.  1.
         12    1    3    3    0    0  0.33568887760E+02 -0.81224323739E+01 -0.28007339777E+02  0.44466337993E+02  0.00000000000E+00 0. -1.
</event>
<event>
 7    1  0.3743571E-015  0.9000785E+02  0.7816164E-02  0.1186339E+00
        -11   -1    0    0    0    0  0.00000000000E+00  0.00000000000E+00  0.45593999997E+02  0.45594000000E+02  0.51100000000E-03 0.  1.
         11   -1    0    0    0    0 -0.00000000000E+00 -0.00000000000E+00 -0.45593999997E+02  0.45594000000E+02  0.51100000000E-03 0. -1.
    9900012    2    1    2    0    0  0.72963465210E+00 -0.79570311940E+00  0.47670192157E+00  0.90007849627E+02  0.90000112442E+02 0.  0.
        -12    1    1    2    0    0 -0.72963465210E+00  0.79570311940E+00 -0.47670192157E+00  0.11801503725E+01  0.00000000000E+00 0.  1.
         11    1    3    3    0    0 -0.22383075702E+02 -0.21942953213E+02 -0.18430872413E+02  0.36361962705E+02  0.51100000000E-03 0. -1.
        -11    1    3    3    0    0 -0.89370944307E+01 -0.29993325360E-01 -0.29955890000E+01  0.94258214592E+01  0.51100000000E-03 0.  1.
        -12    1    3    3    0    0  0.32049804785E+02  0.21177243419E+02  0.21903163334E+02  0.44220065464E+02  0.00000000000E+00 0.  1.
</event>
<event>
 7    1  0.3743571E-015  0.9000765E+02  0.7816164E-02  0.1186339E+00
        -11   -1    0    0    0    0  0.00000000000E+00  0.00000000000E+00  0.45593999997E+02  0.45594000000E+02  0.51100000000E-03 0. -1.
         11   -1    0    0    0    0 -0.00000000000E+00 -0.00000000000E+00 -0.45593999997E+02  0.45594000000E+02  0.51100000000E-03 0.  1.
    9900012    2    1    2    0    0 -0.17198035096E+00  0.11279612702E+01 -0.30224644627E+00  0.90007649720E+02  0.89999909897E+02 0.  0.
        -12    1    1    2    0    0  0.17198035096E+00 -0.11279612702E+01  0.30224644627E+00  0.11803502796E+01  0.00000000000E+00 0.  1.
         11    1    3    3    0    0 -0.70060201219E+00  0.27525883645E+01  0.88195686369E+01  0.92656557828E+01  0.51100000000E-03 0. -1.
        -11    1    3    3    0    0 -0.29271331485E+02  0.24543030949E+02  0.52535051281E+01  0.38558663507E+02  0.51100000000E-03 0.  1.
         12    1    3    3    0    0  0.29799953147E+02 -0.26167658043E+02 -0.14375320211E+02  0.42183330430E+02  0.00000000000E+00 0. -1.
</event>
<event>
 7    1  0.3743571E-015  0.9000778E+02  0.7816164E-02  0.1186339E+00
        -11   -1    0    0    0    0  0.00000000000E+00  0.00000000000E+00  0.45593999997E+02  0.45594000000E+02  0.51100000000E-03 0.  1.
         11   -1    0    0    0    0 -0.00000000000E+00 -0.00000000000E+00 -0.45593999997E+02  0.45594000000E+02  0.51100000000E-03 0. -1.
    9900012    2    1    2    0    0 -0.12024551619E+00 -0.83605878153E+00 -0.82429932921E+00  0.90007778557E+02  0.90000040434E+02 0.  0.
        -12    1    1    2    0    0  0.12024551619E+00  0.83605878153E+00  0.82429932921E+00  0.11802214430E+01  0.00000000000E+00 0.  1.
         11    1    3    3    0    0  0.18236830132E+01  0.30211050583E+01 -0.10574790372E+02  0.11148053067E+02  0.51100000000E-03 0. -1.
        -11    1    3    3    0    0  0.17158157757E+02  0.28429034949E+02  0.21488814367E+02  0.39552263512E+02  0.51100000000E-03 0.  1.
         12    1    3    3    0    0 -0.19102086287E+02 -0.32286198789E+02 -0.11738323324E+02  0.39307461978E+02  0.00000000000E+00 0. -1.
</event>
<event>
 7    1  0.3743571E-015  0.9000770E+02  0.7816164E-02  0.1186339E+00
        -11   -1    0    0    0    0  0.00000000000E+00  0.00000000000E+00  0.45593999997E+02  0.45594000000E+02  0.51100000000E-03 0.  1.
         11   -1    0    0    0    0 -0.00000000000E+00 -0.00000000000E+00 -0.45593999997E+02  0.45594000000E+02  0.51100000000E-03 0. -1.
    9900012    2    1    2    0    0 -0.11545239841E+01 -0.10743938716E+00  0.22052309881E+00  0.90007703728E+02  0.89999964618E+02 0.  0.
        -12    1    1    2    0    0  0.11545239841E+01  0.10743938716E+00 -0.22052309881E+00  0.11802962716E+01  0.00000000000E+00 0.  1.
         11    1    3    3    0    0 -0.46379704639E+01 -0.10405172896E+02 -0.31348259907E+02  0.33354037124E+02  0.51100000000E-03 0. -1.
        -11    1    3    3    0    0 -0.84281856846E+01 -0.77091542299E+01 -0.63135001997E+01  0.13050887246E+02  0.51100000000E-03 0.  1.
        -12    1    3    3    0    0  0.11911632164E+02  0.18006887739E+02  0.37882283206E+02  0.43602779358E+02  0.00000000000E+00 0.  1.
</event>
<event>
 7    1  0.3743571E-015  0.9000773E+02  0.7816164E-02  0.1186339E+00
        -11   -1    0    0    0    0  0.00000000000E+00  0.00000000000E+00  0.45593999997E+02  0.45594000000E+02  0.51100000000E-03 0.  1.
         11   -1    0    0    0    0 -0.00000000000E+00 -0.00000000000E+00 -0.45593999997E+02  0.45594000000E+02  0.51100000000E-03 0. -1.
    9900012    2    1    2    0    0  0.55508402930E+00 -0.99375635455E+00 -0.31202030884E+00  0.90007734502E+02  0.89999995798E+02 0.  0.
        -12    1    1    2    0    0 -0.55508402930E+00  0.99375635455E+00  0.31202030884E+00  0.11802654976E+01  0.00000000000E+00 0.  1.
         11    1    3    3    0    0  0.32550208899E+01 -0.63232738357E+01 -0.32119560631E+02  0.32897494257E+02  0.51100000000E-03 0. -1.
        -11    1    3    3    0    0 -0.11801782999E+02 -0.85201892961E+01 -0.60660655358E+01  0.15769364570E+02  0.51100000000E-03 0.  1.
        -12    1    3    3    0    0  0.91018461388E+01  0.13849706777E+02  0.37873605858E+02  0.41340875675E+02  0.00000000000E+00 0.  1.
</event>
<event>
 7    1  0.3743571E-015  0.9000797E+02  0.7816164E-02  0.1186339E+00
        -11   -1    0    0    0    0  0.00000000000E+00  0.00000000000E+00  0.45593999997E+02  0.45594000000E+02  0.51100000000E-03 0. -1.
         11   -1    0    0    0    0 -0.00000000000E+00 -0.00000000000E+00 -0.45593999997E+02  0.45594000000E+02  0.51100000000E-03 0.  1.
    9900012    2    1    2    0    0  0.48815269075E-01  0.33280625421E+00  0.11310720270E+01  0.90007971668E+02  0.90000236094E+02 0.  0.
        -12    1    1    2    0    0 -0.48815269075E-01 -0.33280625421E+00 -0.11310720270E+01  0.11800283317E+01  0.00000000000E+00 0.  1.
         11    1    3    3    0    0 -0.20900649726E+01  0.69625387909E+01  0.10157577267E+02  0.12490864430E+02  0.51100000000E-03 0. -1.
        -11    1    3    3    0    0  0.63944022490E+01  0.34718797901E+02 -0.19898272692E+01  0.35358771481E+02  0.51100000000E-03 0.  1.
         12    1    3    3    0    0 -0.42555220073E+01 -0.41348530438E+02 -0.70366779709E+01  0.42158335757E+02  0.00000000000E+00 0. -1.
</event>
<event>
 7    1  0.3743571E-015  0.9000775E+02  0.7816164E-02  0.1186339E+00
        -11   -1    0    0    0    0  0.00000000000E+00  0.00000000000E+00  0.45593999997E+02  0.45594000000E+02  0.51100000000E-03 0.  1.
         11   -1    0    0    0    0 -0.00000000000E+00 -0.00000000000E+00 -0.45593999997E+02  0.45594000000E+02  0.51100000000E-03 0. -1.
    9900012    2    1    2    0    0 -0.14318436343E+00 -0.74390582670E+00 -0.90503704880E+00  0.90007750153E+02  0.90000011655E+02 0.  0.
        -12    1    1    2    0    0  0.14318436343E+00  0.74390582670E+00  0.90503704880E+00  0.11802498467E+01  0.00000000000E+00 0.  1.
         11    1    3    3    0    0  0.16263622359E+02  0.98291564439E+01 -0.98843858774E+01  0.21420056327E+02  0.51100000000E-03 0. -1.
        -11    1    3    3    0    0 -0.13655070980E+02 -0.24234203193E+02 -0.21445259677E+02  0.35123449869E+02  0.51100000000E-03 0.  1.
         12    1    3    3    0    0 -0.27517357418E+01  0.13661140922E+02  0.30424608505E+02  0.33464243957E+02  0.00000000000E+00 0. -1.
</event>
<event>
 7    1  0.3743571E-015  0.9000767E+02  0.7816164E-02  0.1186339E+00
        -11   -1    0    0    0    0  0.00000000000E+00  0.00000000000E+00  0.45593999997E+02  0.45594000000E+02  0.51100000000E-03 0.  1.
         11   -1    0    0    0    0 -0.00000000000E+00 -0.00000000000E+00 -0.45593999997E+02  0.45594000000E+02  0.51100000000E-03 0. -1.
    9900012    2    1    2    0    0  0.95138803506E+00 -0.34493115671E+00 -0.60749993180E+00  0.90007672561E+02  0.89999933039E+02 0.  0.
        -12    1    1    2    0    0 -0.95138803506E+00  0.34493115671E+00  0.60749993180E+00  0.11803274390E+01  0.00000000000E+00 0.  1.
         11    1    3    3    0    0  0.98618415450E+01 -0.87596834060E+01  0.49755605628E+00  0.13199830844E+02  0.51100000000E-03 0. -1.
        -11    1    3    3    0    0 -0.28133302756E+02  0.45380044651E+01  0.29142494361E+02  0.40759798654E+02  0.51100000000E-03 0.  1.
         12    1    3    3    0    0  0.19222849246E+02  0.38767477842E+01 -0.30247550349E+02  0.36048043062E+02  0.00000000000E+00 0. -1.
</event>
<event>
 7    1  0.3743571E-015  0.9000776E+02  0.7816164E-02  0.1186339E+00
        -11   -1    0    0    0    0  0.00000000000E+00  0.00000000000E+00  0.45593999997E+02  0.45594000000E+02  0.51100000000E-03 0. -1.
         11   -1    0    0    0    0 -0.00000000000E+00 -0.00000000000E+00 -0.45593999997E+02  0.45594000000E+02  0.51100000000E-03 0.  1.
    9900012    2    1    2    0    0 -0.36052013816E+00  0.29663321175E+00  0.10839794858E+01  0.90007755297E+02  0.90000016867E+02 0.  0.
        -12    1    1    2    0    0  0.36052013816E+00 -0.29663321175E+00 -0.10839794858E+01  0.11802447025E+01  0.00000000000E+00 0.  1.
         11    1    3    3    0    0 -0.20844335245E+01 -0.77078161877E+01  0.60541722720E+01  0.10020393987E+02  0.51100000000E-03 0. -1.
        -11    1    3    3    0    0 -0.10663390653E+02 -0.33621471539E+02 -0.89073777081E+01  0.36379288428E+02  0.51100000000E-03 0.  1.
         12    1    3    3    0    0  0.12387304039E+02  0.41625920938E+02  0.39371849218E+01  0.43608072882E+02  0.00000000000E+00 0. -1.
</event>
<event>
 7    1  0.3743571E-015  0.9000759E+02  0.7816164E-02  0.1186339E+00
        -11   -1    0    0    0    0  0.00000000000E+00  0.00000000000E+00  0.45593999997E+02  0.45594000000E+02  0.51100000000E-03 0. -1.
         11   -1    0    0    0    0 -0.00000000000E+00 -0.00000000000E+00 -0.45593999997E+02  0.45594000000E+02  0.51100000000E-03 0.  1.
    9900012    2    1    2    0    0  0.10216291160E+01 -0.26514112437E+00  0.52852895545E+00  0.90007589595E+02  0.89999848978E+02 0.  0.
        -12    1    1    2    0    0 -0.10216291160E+01  0.26514112437E+00 -0.52852895545E+00  0.11804104045E+01  0.00000000000E+00 0.  1.
         11    1    3    3    0    0  0.13808229731E+02 -0.18171376012E+01  0.20144970421E+02  0.24490590660E+02  0.51100000000E-03 0. -1.
        -11    1    3    3    0    0 -0.23691816073E+01 -0.26161507968E+02  0.53272725579E+01  0.26803308635E+02  0.51100000000E-03 0.  1.
        -12    1    3    3    0    0 -0.10417419008E+02  0.27713504444E+02 -0.24943714023E+02  0.38713690300E+02  0.00000000000E+00 0.  1.
</event>
<event>
 7    1  0.3743571E-015  0.9000756E+02  0.7816164E-02  0.1186339E+00
        -11   -1    0    0    0    0  0.00000000000E+00  0.00000000000E+00  0.45593999997E+02  0.45594000000E+02  0.51100000000E-03 0. -1.
         11   -1    0    0    0    0 -0.00000000000E+00 -0.00000000000E+00 -0.45593999997E+02  0.45594000000E+02  0.51100000000E-03 0.  1.
    9900012    2    1    2    0    0 -0.32056984380E+00  0.53721006148E+00  0.10010430517E+01  0.90007556496E+02  0.89999815442E+02 0.  0.
        -12    1    1    2    0    0  0.32056984380E+00 -0.53721006148E+00 -0.10010430517E+01  0.11804435040E+01  0.00000000000E+00 0.  1.
         11    1    3    3    0    0  0.20954289795E+00  0.11878177609E+02  0.86662245274E+01  0.14705048771E+02  0.51100000000E-03 0. -1.
        -11    1    3    3    0    0  0.29913054457E+02  0.11183465738E+02 -0.17169398704E+02  0.36258088546E+02  0.51100000000E-03 0.  1.
         12    1    3    3    0    0 -0.30443167199E+02 -0.22524433286E+02  0.95042172285E+01  0.39044419179E+02  0.00000000000E+00 0. -1.
</event>
<event>
 7    1  0.3743571E-015  0.9000774E+02  0.7816164E-02  0.1186339E+00
        -11   -1    0    0    0    0  0.00000000000E+00  0.00000000000E+00  0.45593999997E+02  0.45594000000E+02  0.51100000000E-03 0.  1.
         11   -1    0    0    0    0 -0.00000000000E+00 -0.00000000000E+00 -0.45593999997E+02  0.45594000000E+02  0.51100000000E-03 0. -1.
    9900012    2    1    2    0    0  0.58005651106E+00 -0.59296314658E+00 -0.83961139074E+00  0.90007738107E+02  0.89999999450E+02 0.  0.
        -12    1    1    2    0    0 -0.58005651106E+00  0.59296314658E+00  0.83961139074E+00  0.11802618933E+01  0.00000000000E+00 0.  1.
         11    1    3    3    0    0  0.51559594003E+01  0.70420442527E+01  0.50802776516E+01  0.10098689315E+02  0.51100000000E-03 0. -1.
        -11    1    3    3    0    0 -0.28280997990E+01  0.24815863806E+02  0.24794339306E+02  0.35193529331E+02  0.51100000000E-03 0.  1.
         12    1    3    3    0    0 -0.17478030902E+01 -0.32450871205E+02 -0.30714228348E+02  0.44715519461E+02  0.00000000000E+00 0. -1.
</event>
<event>
 7    1  0.3743571E-015  0.9000774E+02  0.7816164E-02  0.1186339E+00
        -11   -1    0    0    0    0  0.00000000000E+00  0.00000000000E+00  0.45593999997E+02  0.45594000000E+02  0.51100000000E-03 0.  1.
         11   -1    0    0    0    0 -0.00000000000E+00 -0.00000000000E+00 -0.45593999997E+02  0.45594000000E+02  0.51100000000E-03 0. -1.
    9900012    2    1    2    0    0 -0.88233429973E+00 -0.70287731607E+00  0.34709041826E+00  0.90007736429E+02  0.89999997750E+02 0.  0.
        -12    1    1    2    0    0  0.88233429973E+00  0.70287731607E+00 -0.34709041826E+00  0.11802635707E+01  0.00000000000E+00 0.  1.
         11    1    3    3    0    0  0.75230531225E+01  0.13788071598E+01  0.61024681381E+01  0.97845569704E+01  0.51100000000E-03 0. -1.
        -11    1    3    3    0    0  0.11163960126E+02 -0.36786654257E+02 -0.11125334871E+02  0.40020807255E+02  0.51100000000E-03 0.  1.
         12    1    3    3    0    0 -0.19569347549E+02  0.34704969781E+02  0.53699571513E+01  0.40202372203E+02  0.00000000000E+00 0. -1.
</event>
<event>
 7    1  0.3743571E-015  0.9000771E+02  0.7816164E-02  0.1186339E+00
        -11   -1    0    0    0    0  0.00000000000E+00  0.00000000000E+00  0.45593999997E+02  0.45594000000E+02  0.51100000000E-03 0.  1.
         11   -1    0    0    0    0 -0.00000000000E+00 -0.00000000000E+00 -0.45593999997E+02  0.45594000000E+02  0.51100000000E-03 0. -1.
    9900012    2    1    2    0    0 -0.98453064047E+00  0.63578175678E+00  0.13990966417E+00  0.90007706080E+02  0.89999967000E+02 0.  0.
        -12    1    1    2    0    0  0.98453064047E+00 -0.63578175678E+00 -0.13990966417E+00  0.11802939203E+01  0.00000000000E+00 0.  1.
         11    1    3    3    0    0 -0.33047973823E+02  0.19530733772E+02 -0.13199841075E+01  0.38410421681E+02  0.51100000000E-03 0. -1.
        -11    1    3    3    0    0 -0.78285264582E+01 -0.45273352334E+01 -0.11520932099E+01  0.91164636700E+01  0.51100000000E-03 0.  1.
        -12    1    3    3    0    0  0.39891969640E+02 -0.14367616781E+02  0.26119869816E+01  0.42480820728E+02  0.00000000000E+00 0.  1.
</event>
<event>
 7    1  0.3743571E-015  0.9000775E+02  0.7816164E-02  0.1186339E+00
        -11   -1    0    0    0    0  0.00000000000E+00  0.00000000000E+00  0.45593999997E+02  0.45594000000E+02  0.51100000000E-03 0.  1.
         11   -1    0    0    0    0 -0.00000000000E+00 -0.00000000000E+00 -0.45593999997E+02  0.45594000000E+02  0.51100000000E-03 0. -1.
    9900012    2    1    2    0    0 -0.31184165742E+00  0.10403802397E+01 -0.46190765882E+00  0.90007747930E+02  0.90000009403E+02 0.  0.
        -12    1    1    2    0    0  0.31184165742E+00 -0.10403802397E+01  0.46190765882E+00  0.11802520696E+01  0.00000000000E+00 0.  1.
         11    1    3    3    0    0  0.37619745399E+01 -0.65411597112E+01  0.70259002983E+01  0.10310310280E+02  0.51100000000E-03 0. -1.
        -11    1    3    3    0    0 -0.72937407517E+01 -0.20845770805E+02  0.27003948804E+02  0.34884926055E+02  0.51100000000E-03 0.  1.
         12    1    3    3    0    0  0.32199245543E+01  0.28427310756E+02 -0.34491756761E+02  0.44812511595E+02  0.00000000000E+00 0. -1.
</event>
<event>
 7    1  0.3743571E-015  0.9000754E+02  0.7816164E-02  0.1186339E+00
        -11   -1    0    0    0    0  0.00000000000E+00  0.00000000000E+00  0.45593999997E+02  0.45594000000E+02  0.51100000000E-03 0. -1.
         11   -1    0    0    0    0 -0.00000000000E+00 -0.00000000000E+00 -0.45593999997E+02  0.45594000000E+02  0.51100000000E-03 0.  1.
    9900012    2    1    2    0    0 -0.11740478090E+01 -0.59096942442E-01  0.10776022222E+00  0.90007536967E+02  0.89999795655E+02 0.  0.
        -12    1    1    2    0    0  0.11740478090E+01  0.59096942442E-01 -0.10776022222E+00  0.11804630329E+01  0.00000000000E+00 0.  1.
         11    1    3    3    0    0 -0.93650593863E+01  0.25841055462E+00  0.50493987700E+01  0.10642722468E+02  0.51100000000E-03 0. -1.
        -11    1    3    3    0    0 -0.16260245012E+02 -0.51628656226E+01 -0.35823366667E+02  0.39678260407E+02  0.51100000000E-03 0.  1.
         12    1    3    3    0    0  0.24451256589E+02  0.48453581255E+01  0.30881728119E+02  0.39686554093E+02  0.00000000000E+00 0. -1.
</event>
<event>
 7    1  0.3743571E-015  0.9000773E+02  0.7816164E-02  0.1186339E+00
        -11   -1    0    0    0    0  0.00000000000E+00  0.00000000000E+00  0.45593999997E+02  0.45594000000E+02  0.51100000000E-03 0.  1.
         11   -1    0    0    0    0 -0.00000000000E+00 -0.00000000000E+00 -0.45593999997E+02  0.45594000000E+02  0.51100000000E-03 0. -1.
    9900012    2    1    2    0    0 -0.10186222720E+01  0.58636945103E+00  0.10779444102E+00  0.90007728799E+02  0.89999990019E+02 0.  0.
        -12    1    1    2    0    0  0.10186222720E+01 -0.58636945103E+00 -0.10779444102E+00  0.11802712009E+01  0.00000000000E+00 0.  1.
         11    1    3    3    0    0 -0.45620691564E+01 -0.90238813854E+01 -0.16768228081E+01  0.10249616834E+02  0.51100000000E-03 0. -1.
        -11    1    3    3    0    0 -0.19221949090E+02  0.38135203586E+02  0.55666083794E+01  0.43066973524E+02  0.51100000000E-03 0.  1.
         12    1    3    3    0    0  0.22765395974E+02 -0.28524952750E+02 -0.37819911303E+01  0.36691138442E+02  0.00000000000E+00 0. -1.
</event>
<event>
 7    1  0.3743571E-015  0.9000779E+02  0.7816164E-02  0.1186339E+00
        -11   -1    0    0    0    0  0.00000000000E+00  0.00000000000E+00  0.45593999997E+02  0.45594000000E+02  0.51100000000E-03 0.  1.
         11   -1    0    0    0    0 -0.00000000000E+00 -0.00000000000E+00 -0.45593999997E+02  0.45594000000E+02  0.51100000000E-03 0. -1.
    9900012    2    1    2    0    0 -0.44172417589E+00 -0.39847811224E+00 -0.10193091107E+01  0.90007789800E+02  0.90000051825E+02 0.  0.
        -12    1    1    2    0    0  0.44172417589E+00  0.39847811224E+00  0.10193091107E+01  0.11802102002E+01  0.00000000000E+00 0.  1.
         11    1    3    3    0    0  0.17243094313E+02  0.33278328492E+00 -0.88716612849E+01  0.19394365687E+02  0.51100000000E-03 0. -1.
        -11    1    3    3    0    0 -0.21273197418E+02 -0.29023849378E+02 -0.95154560293E+01  0.37221991682E+02  0.51100000000E-03 0.  1.
         12    1    3    3    0    0  0.35883789293E+01  0.28292587981E+02  0.17367808203E+02  0.33391432431E+02  0.00000000000E+00 0. -1.
</event>
<event>
 7    1  0.3743571E-015  0.9000769E+02  0.7816164E-02  0.1186339E+00
        -11   -1    0    0    0    0  0.00000000000E+00  0.00000000000E+00  0.45593999997E+02  0.45594000000E+02  0.51100000000E-03 0. -1.
         11   -1    0    0    0    0 -0.00000000000E+00 -0.00000000000E+00 -0.45593999997E+02  0.45594000000E+02  0.51100000000E-03 0.  1.
    9900012    2    1    2    0    0  0.90910158918E+00  0.30511614676E+00  0.68816545707E+00  0.90007689338E+02  0.89999950037E+02 0.  0.
        -12    1    1    2    0    0 -0.90910158918E+00 -0.30511614676E+00 -0.68816545707E+00  0.11803106620E+01  0.00000000000E+00 0.  1.
         11    1    3    3    0    0  0.14022587361E+02  0.34905322551E+02  0.24406603774E+00  0.37617470239E+02  0.51100000000E-03 0. -1.
        -11    1    3    3    0    0  0.36260077695E+01  0.47129368750E+01  0.69746349033E+01  0.91654371760E+01  0.51100000000E-03 0.  1.
        -12    1    3    3    0    0 -0.16739493541E+02 -0.39313143280E+02 -0.65305354840E+01  0.43224781923E+02  0.00000000000E+00 0.  1.
</event>
<event>
 7    1  0.3743571E-015  0.9000769E+02  0.7816164E-02  0.1186339E+00
        -11   -1    0    0    0    0  0.00000000000E+00  0.00000000000E+00  0.45593999997E+02  0.45594000000E+02  0.51100000000E-03 0.  1.
         11   -1    0    0    0    0 -0.00000000000E+00 -0.00000000000E+00 -0.45593999997E+02  0.45594000000E+02  0.51100000000E-03 0. -1.
    9900012    2    1    2    0    0 -0.25194016021E-01  0.11638868592E+01  0.19456490872E+00  0.90007693742E+02  0.89999954499E+02 0.  0.
        -12    1    1    2    0    0  0.25194016021E-01 -0.11638868592E+01 -0.19456490872E+00  0.11803062582E+01  0.00000000000E+00 0.  1.
         11    1    3    3    0    0  0.38685350503E+02  0.37815848513E+01 -0.29926437319E+01  0.38984774519E+02  0.51100000000E-03 0. -1.
        -11    1    3    3    0    0 -0.58166651864E+01 -0.81045591462E+01  0.12882835260E+02  0.16293707909E+02  0.51100000000E-03 0.  1.
        -12    1    3    3    0    0 -0.32893879333E+02  0.54868611542E+01 -0.96956266190E+01  0.34729211313E+02  0.00000000000E+00 0.  1.
</event>
<event>
 7    1  0.3743571E-015  0.9000772E+02  0.7816164E-02  0.1186339E+00
        -11   -1    0    0    0    0  0.00000000000E+00  0.00000000000E+00  0.45593999997E+02  0.45594000000E+02  0.51100000000E-03 0.  1.
         11   -1    0    0    0    0 -0.00000000000E+00 -0.00000000000E+00 -0.45593999997E+02  0.45594000000E+02  0.51100000000E-03 0. -1.
    9900012    2    1    2    0    0  0.23188375445E+00  0.22797832337E+00 -0.11346037731E+01  0.90007716172E+02  0.89999977226E+02 0.  0.
        -12    1    1    2    0    0 -0.23188375445E+00 -0.22797832337E+00  0.11346037731E+01  0.11802838275E+01  0.00000000000E+00 0.  1.
         11    1    3    3    0    0 -0.75851199132E+01  0.80944272518E+00 -0.44804028051E+01  0.88466519758E+01  0.51100000000E-03 0. -1.
        -11    1    3    3    0    0 -0.24220384960E+02 -0.98683454362E+00  0.30641528075E+02  0.39070502083E+02  0.51100000000E-03 0.  1.
         12    1    3    3    0    0  0.32037388628E+02  0.40537014181E+00 -0.27295729043E+02  0.42090562113E+02  0.00000000000E+00 0. -1.
</event>
<event>
 7    1  0.4033587E-015  0.9000779E+02  0.7816164E-02  0.1186339E+00
        -11   -1    0    0    0    0  0.00000000000E+00  0.00000000000E+00  0.45593999997E+02  0.45594000000E+02  0.51100000000E-03 0.  1.
         11   -1    0    0    0    0 -0.00000000000E+00 -0.00000000000E+00 -0.45593999997E+02  0.45594000000E+02  0.51100000000E-03 0. -1.
    9900012    2    1    2    0    0  0.98845180664E+00 -0.29177018778E+00 -0.57510014956E+00  0.90007785190E+02  0.90000047154E+02 0.  0.
        -12    1    1    2    0    0 -0.98845180664E+00  0.29177018778E+00  0.57510014956E+00  0.11802148103E+01  0.00000000000E+00 0.  1.
         11    1    3    3    0    0  0.75431090566E+01 -0.44926834443E+01 -0.22053725988E+01  0.90524232851E+01  0.51100000000E-03 0. -1.
        -11    1    3    3    0    0 -0.95566705071E+01 -0.25269106607E+02  0.29697852744E+02  0.40147480093E+02  0.51100000000E-03 0.  1.
         12    1    3    3    0    0  0.30020132571E+01  0.29470019864E+02 -0.28067580295E+02  0.40807881812E+02  0.00000000000E+00 0. -1.
</event>
<event>
 7    1  0.3743571E-015  0.9000767E+02  0.7816164E-02  0.1186339E+00
        -11   -1    0    0    0    0  0.00000000000E+00  0.00000000000E+00  0.45593999997E+02  0.45594000000E+02  0.51100000000E-03 0. -1.
         11   -1    0    0    0    0 -0.00000000000E+00 -0.00000000000E+00 -0.45593999997E+02  0.45594000000E+02  0.51100000000E-03 0.  1.
    9900012    2    1    2    0    0  0.25110904255E+00  0.70033885648E+00  0.91632846161E+00  0.90007666100E+02  0.89999926493E+02 0.  0.
        -12    1    1    2    0    0 -0.25110904255E+00 -0.70033885648E+00 -0.91632846161E+00  0.11803338997E+01  0.00000000000E+00 0.  1.
         11    1    3    3    0    0  0.53628384085E+00  0.88637718719E+01 -0.48949610583E+01  0.10139758191E+02  0.51100000000E-03 0. -1.
        -11    1    3    3    0    0  0.41448534499E+01 -0.15984965470E+02 -0.34669303304E+02  0.38401295851E+02  0.51100000000E-03 0.  1.
         12    1    3    3    0    0 -0.44300282482E+01  0.78215324546E+01  0.40480592824E+02  0.41466612058E+02  0.00000000000E+00 0. -1.
</event>
<event>
 7    1  0.3743571E-015  0.9000753E+02  0.7816164E-02  0.1186339E+00
        -11   -1    0    0    0    0  0.00000000000E+00  0.00000000000E+00  0.45593999997E+02  0.45594000000E+02  0.51100000000E-03 0.  1.
         11   -1    0    0    0    0 -0.00000000000E+00 -0.00000000000E+00 -0.45593999997E+02  0.45594000000E+02  0.51100000000E-03 0. -1.
    9900012    2    1    2    0    0 -0.10031236981E+01 -0.49063592785E+00 -0.38279265594E+00  0.90007529338E+02  0.89999787925E+02 0.  0.
        -12    1    1    2    0    0  0.10031236981E+01  0.49063592785E+00  0.38279265594E+00  0.11804706624E+01  0.00000000000E+00 0.  1.
         11    1    3    3    0    0 -0.27911370470E+02 -0.25596086370E+02 -0.21642847783E+02  0.43618999294E+02  0.51100000000E-03 0. -1.
        -11    1    3    3    0    0  0.11103706121E+02  0.25782525529E+01 -0.34186241577E+00  0.11404233689E+02  0.51100000000E-03 0.  1.
        -12    1    3    3    0    0  0.15804540651E+02  0.22527197889E+02  0.21601917543E+02  0.34984296355E+02  0.00000000000E+00 0.  1.
</event>
<event>
 7    1  0.3743571E-015  0.9000779E+02  0.7816164E-02  0.1186339E+00
        -11   -1    0    0    0    0  0.00000000000E+00  0.00000000000E+00  0.45593999997E+02  0.45594000000E+02  0.51100000000E-03 0.  1.
         11   -1    0    0    0    0 -0.00000000000E+00 -0.00000000000E+00 -0.45593999997E+02  0.45594000000E+02  0.51100000000E-03 0. -1.
    9900012    2    1    2    0    0 -0.85606845021E+00 -0.73396646927E+00 -0.34832934451E+00  0.90007790992E+02  0.90000053033E+02 0.  0.
        -12    1    1    2    0    0  0.85606845021E+00  0.73396646927E+00  0.34832934451E+00  0.11802090076E+01  0.00000000000E+00 0.  1.
         11    1    3    3    0    0 -0.17073753819E+02  0.23304531778E+02  0.23538625271E+02  0.37265012422E+02  0.51100000000E-03 0. -1.
        -11    1    3    3    0    0  0.12462833335E+01  0.31005735209E+01  0.77582261202E+01  0.84472984497E+01  0.51100000000E-03 0.  1.
        -12    1    3    3    0    0  0.14971402035E+02 -0.27139071768E+02 -0.31645180736E+02  0.44295480121E+02  0.00000000000E+00 0.  1.
</event>
<event>
 7    1  0.3743571E-015  0.9000754E+02  0.7816164E-02  0.1186339E+00
        -11   -1    0    0    0    0  0.00000000000E+00  0.00000000000E+00  0.45593999997E+02  0.45594000000E+02  0.51100000000E-03 0. -1.
         11   -1    0    0    0    0 -0.00000000000E+00 -0.00000000000E+00 -0.45593999997E+02  0.45594000000E+02  0.51100000000E-03 0.  1.
    9900012    2    1    2    0    0 -0.10710396900E+01  0.49160764094E+00  0.68464592412E-01  0.90007537595E+02  0.89999796291E+02 0.  0.
        -12    1    1    2    0    0  0.10710396900E+01 -0.49160764094E+00 -0.68464592412E-01  0.11804624054E+01  0.00000000000E+00 0.  1.
         11    1    3    3    0    0  0.45040508171E+01 -0.57258912849E+01 -0.25804754343E+01  0.77285935653E+01  0.51100000000E-03 0. -1.
        -11    1    3    3    0    0 -0.28950898884E+01  0.30138244255E+02 -0.29396650270E+02  0.42200217530E+02  0.51100000000E-03 0.  1.
         12    1    3    3    0    0 -0.26800006187E+01 -0.23920745329E+02  0.32045590296E+02  0.40078726500E+02  0.00000000000E+00 0. -1.
</event>
<event>
 7    1  0.3743571E-015  0.9000763E+02  0.7816164E-02  0.1186339E+00
        -11   -1    0    0    0    0  0.00000000000E+00  0.00000000000E+00  0.45593999997E+02  0.45594000000E+02  0.51100000000E-03 0.  1.
         11   -1    0    0    0    0 -0.00000000000E+00 -0.00000000000E+00 -0.45593999997E+02  0.45594000000E+02  0.51100000000E-03 0. -1.
    9900012    2    1    2    0    0  0.37618887052E+00  0.10857780940E+01  0.26989881922E+00  0.90007628233E+02  0.89999888126E+02 0.  0.
        -12    1    1    2    0    0 -0.37618887052E+00 -0.10857780940E+01 -0.26989881922E+00  0.11803717670E+01  0.00000000000E+00 0.  1.
         11    1    3    3    0    0  0.10370976271E+02  0.46555897475E+01  0.26216231961E+01  0.11666386465E+02  0.51100000000E-03 0. -1.
        -11    1    3    3    0    0 -0.11372759869E+02  0.34532157666E+02  0.10934993908E+02  0.37965559026E+02  0.51100000000E-03 0.  1.
         12    1    3    3    0    0  0.13779724690E+01 -0.38101969319E+02 -0.13286718284E+02  0.40375682742E+02  0.00000000000E+00 0. -1.
</event>
<event>
 7    1  0.3743571E-015  0.9000778E+02  0.7816164E-02  0.1186339E+00
        -11   -1    0    0    0    0  0.00000000000E+00  0.00000000000E+00  0.45593999997E+02  0.45594000000E+02  0.51100000000E-03 0.  1.
         11   -1    0    0    0    0 -0.00000000000E+00 -0.00000000000E+00 -0.45593999997E+02  0.45594000000E+02  0.51100000000E-03 0. -1.
    9900012    2    1    2    0    0  0.11226919118E+01  0.21363240924E+00 -0.29470066720E+00  0.90007777810E+02  0.90000039677E+02 0.  0.
        -12    1    1    2    0    0 -0.11226919118E+01 -0.21363240924E+00  0.29470066720E+00  0.11802221902E+01  0.00000000000E+00 0.  1.
         11    1    3    3    0    0 -0.10251643792E+02  0.21484818784E+01 -0.36150801970E+02  0.37637649477E+02  0.51100000000E-03 0. -1.
        -11    1    3    3    0    0 -0.78293483690E+01 -0.31272198208E+01 -0.30506646220E+01  0.89657545465E+01  0.51100000000E-03 0.  1.
        -12    1    3    3    0    0  0.19203684073E+02  0.11923703517E+01  0.38906765925E+02  0.43404373786E+02  0.00000000000E+00 0.  1.
</event>
<event>
 7    1  0.3743571E-015  0.9000753E+02  0.7816164E-02  0.1186339E+00
        -11   -1    0    0    0    0  0.00000000000E+00  0.00000000000E+00  0.45593999997E+02  0.45594000000E+02  0.51100000000E-03 0. -1.
         11   -1    0    0    0    0 -0.00000000000E+00 -0.00000000000E+00 -0.45593999997E+02  0.45594000000E+02  0.51100000000E-03 0.  1.
    9900012    2    1    2    0    0 -0.32262931827E+00 -0.33579814637E+00  0.10847338867E+01  0.90007534974E+02  0.89999793636E+02 0.  0.
        -12    1    1    2    0    0  0.32262931827E+00  0.33579814637E+00 -0.10847338867E+01  0.11804650258E+01  0.00000000000E+00 0.  1.
         11    1    3    3    0    0 -0.48214273135E+00  0.70911867771E+01 -0.46260699927E+00  0.71225976314E+01  0.51100000000E-03 0. -1.
        -11    1    3    3    0    0  0.25568995368E+02  0.28582841002E+02  0.50137291646E+01  0.38676734664E+02  0.51100000000E-03 0.  1.
         12    1    3    3    0    0 -0.25409481955E+02 -0.36009825925E+02 -0.34663882786E+01  0.44208202679E+02  0.00000000000E+00 0. -1.
</event>
<event>
 7    1  0.3743571E-015  0.9000777E+02  0.7816164E-02  0.1186339E+00
        -11   -1    0    0    0    0  0.00000000000E+00  0.00000000000E+00  0.45593999997E+02  0.45594000000E+02  0.51100000000E-03 0. -1.
         11   -1    0    0    0    0 -0.00000000000E+00 -0.00000000000E+00 -0.45593999997E+02  0.45594000000E+02  0.51100000000E-03 0.  1.
    9900012    2    1    2    0    0 -0.13005206903E+00  0.95145436208E+00  0.68612721185E+00  0.90007767186E+02  0.90000028913E+02 0.  0.
        -12    1    1    2    0    0  0.13005206903E+00 -0.95145436208E+00 -0.68612721185E+00  0.11802328137E+01  0.00000000000E+00 0.  1.
         11    1    3    3    0    0  0.94720356273E+01 -0.79570157386E+01 -0.24323984963E+01  0.12607542231E+02  0.51100000000E-03 0. -1.
        -11    1    3    3    0    0 -0.21388370708E+02 -0.29504462150E+02 -0.37613862671E+01  0.36635006691E+02  0.51100000000E-03 0.  1.
         12    1    3    3    0    0  0.11786283012E+02  0.38412932251E+02  0.68799119753E+01  0.40765218265E+02  0.00000000000E+00 0. -1.
</event>
<event>
 7    1  0.3743571E-015  0.9000779E+02  0.7816164E-02  0.1186339E+00
        -11   -1    0    0    0    0  0.00000000000E+00  0.00000000000E+00  0.45593999997E+02  0.45594000000E+02  0.51100000000E-03 0. -1.
         11   -1    0    0    0    0 -0.00000000000E+00 -0.00000000000E+00 -0.45593999997E+02  0.45594000000E+02  0.51100000000E-03 0.  1.
    9900012    2    1    2    0    0 -0.64014838467E+00  0.98747779810E+00  0.89352144310E-01  0.90007794017E+02  0.90000056098E+02 0.  0.
        -12    1    1    2    0    0  0.64014838467E+00 -0.98747779810E+00 -0.89352144310E-01  0.11802059828E+01  0.00000000000E+00 0.  1.
         11    1    3    3    0    0  0.81800579219E+01  0.52379251002E+01  0.23003488501E+01  0.99820244467E+01  0.51100000000E-03 0. -1.
        -11    1    3    3    0    0 -0.42237495527E+02  0.15338156899E+01 -0.13359016588E+02  0.44326312089E+02  0.51100000000E-03 0.  1.
         12    1    3    3    0    0  0.33417289220E+02 -0.57842629920E+01  0.11148019882E+02  0.35699457482E+02  0.00000000000E+00 0. -1.
</event>
<event>
 7    1  0.3743571E-015  0.9000768E+02  0.7816164E-02  0.1186339E+00
        -11   -1    0    0    0    0  0.00000000000E+00  0.00000000000E+00  0.45593999997E+02  0.45594000000E+02  0.51100000000E-03 0.  1.
         11   -1    0    0    0    0 -0.00000000000E+00 -0.00000000000E+00 -0.45593999997E+02  0.45594000000E+02  0.51100000000E-03 0. -1.
    9900012    2    1    2    0    0 -0.11481613774E+01 -0.64773940143E-02 -0.27354586642E+00  0.90007684853E+02  0.89999945493E+02 0.  0.
        -12    1    1    2    0    0  0.11481613774E+01  0.64773940143E-02  0.27354586642E+00  0.11803151470E+01  0.00000000000E+00 0.  1.
         11    1    3    3    0    0  0.83223304670E+01  0.35480491361E+02 -0.18097792249E+02  0.40689759599E+02  0.51100000000E-03 0. -1.
        -11    1    3    3    0    0  0.71856961713E+01 -0.64902054530E+01 -0.27370812064E+01  0.10062236833E+02  0.51100000000E-03 0.  1.
        -12    1    3    3    0    0 -0.16656188016E+02 -0.28996763302E+02  0.20561327589E+02  0.39255688422E+02  0.00000000000E+00 0.  1.
</event>
<event>
 7    1  0.3743571E-015  0.9000806E+02  0.7816164E-02  0.1186338E+00
        -11   -1    0    0    0    0  0.00000000000E+00  0.00000000000E+00  0.45593999997E+02  0.45594000000E+02  0.51100000000E-03 0.  1.
         11   -1    0    0    0    0 -0.00000000000E+00 -0.00000000000E+00 -0.45593999997E+02  0.45594000000E+02  0.51100000000E-03 0. -1.
    9900012    2    1    2    0    0  0.60082876731E+00  0.57201319858E-02 -0.10154996669E+01  0.90008056145E+02  0.90000321686E+02 0.  0.
        -12    1    1    2    0    0 -0.60082876731E+00 -0.57201319858E-02  0.10154996669E+01  0.11799438550E+01  0.00000000000E+00 0.  1.
         11    1    3    3    0    0  0.31926224629E+02 -0.62327485315E+01 -0.27374225900E+02  0.42514458919E+02  0.51100000000E-03 0. -1.
        -11    1    3    3    0    0 -0.20285268714E+01  0.91595928806E+01  0.28128008792E+01  0.97941264058E+01  0.51100000000E-03 0.  1.
        -12    1    3    3    0    0 -0.29296868991E+02 -0.29211242171E+01  0.23545925354E+02  0.37699470820E+02  0.00000000000E+00 0.  1.
</event>
<event>
 7    1  0.3743571E-015  0.9000783E+02  0.7816164E-02  0.1186339E+00
        -11   -1    0    0    0    0  0.00000000000E+00  0.00000000000E+00  0.45593999997E+02  0.45594000000E+02  0.51100000000E-03 0.  1.
         11   -1    0    0    0    0 -0.00000000000E+00 -0.00000000000E+00 -0.45593999997E+02  0.45594000000E+02  0.51100000000E-03 0. -1.
    9900012    2    1    2    0    0  0.50228111215E+00  0.71020104031E+00 -0.79757469752E+00  0.90007831694E+02  0.90000094272E+02 0.  0.
        -12    1    1    2    0    0 -0.50228111215E+00 -0.71020104031E+00  0.79757469752E+00  0.11801683064E+01  0.00000000000E+00 0.  1.
         11    1    3    3    0    0  0.25761466907E+01  0.75167004447E+01  0.18533882123E+01  0.81591890206E+01  0.51100000000E-03 0. -1.
        -11    1    3    3    0    0  0.32492680832E+02  0.19304939611E+02  0.40569414771E+01  0.38012021459E+02  0.51100000000E-03 0.  1.
         12    1    3    3    0    0 -0.34566546410E+02 -0.26111439015E+02 -0.67079043869E+01  0.43836621214E+02  0.00000000000E+00 0. -1.
</event>
<event>
 7    1  0.3743571E-015  0.9000772E+02  0.7816164E-02  0.1186339E+00
        -11   -1    0    0    0    0  0.00000000000E+00  0.00000000000E+00  0.45593999997E+02  0.45594000000E+02  0.51100000000E-03 0. -1.
         11   -1    0    0    0    0 -0.00000000000E+00 -0.00000000000E+00 -0.45593999997E+02  0.45594000000E+02  0.51100000000E-03 0.  1.
    9900012    2    1    2    0    0 -0.10231395040E+01 -0.53132834312E+00 -0.25287565987E+00  0.90007715987E+02  0.89999977038E+02 0.  0.
        -12    1    1    2    0    0  0.10231395040E+01  0.53132834312E+00  0.25287565987E+00  0.11802840133E+01  0.00000000000E+00 0.  1.
         11    1    3    3    0    0  0.12191510789E+02 -0.30850795761E+02 -0.18635771855E+02  0.38048607429E+02  0.51100000000E-03 0. -1.
        -11    1    3    3    0    0  0.10826195698E+02  0.30698920042E+01  0.39578909934E-01  0.11253102549E+02  0.51100000000E-03 0.  1.
        -12    1    3    3    0    0 -0.24040845991E+02  0.27249575413E+02  0.18343317285E+02  0.40706006009E+02  0.00000000000E+00 0.  1.
</event>
<event>
 7    1  0.3743571E-015  0.9000749E+02  0.7816164E-02  0.1186340E+00
        -11   -1    0    0    0    0  0.00000000000E+00  0.00000000000E+00  0.45593999997E+02  0.45594000000E+02  0.51100000000E-03 0.  1.
         11   -1    0    0    0    0 -0.00000000000E+00 -0.00000000000E+00 -0.45593999997E+02  0.45594000000E+02  0.51100000000E-03 0. -1.
    9900012    2    1    2    0    0 -0.13097790741E+00  0.10222842594E+01 -0.57565095260E+00  0.90007494033E+02  0.89999752154E+02 0.  0.
        -12    1    1    2    0    0  0.13097790741E+00 -0.10222842594E+01  0.57565095260E+00  0.11805059672E+01  0.00000000000E+00 0.  1.
         11    1    3    3    0    0 -0.14191744690E+01 -0.90155698974E+01  0.90862816677E+00  0.91717044302E+01  0.51100000000E-03 0. -1.
        -11    1    3    3    0    0  0.39937085037E+02  0.63743359117E+01  0.71380406414E+01  0.41067682477E+02  0.51100000000E-03 0.  1.
         12    1    3    3    0    0 -0.38648888475E+02  0.36635182452E+01 -0.86223197608E+01  0.39768107126E+02  0.00000000000E+00 0. -1.
</event>
<event>
 7    1  0.3743571E-015  0.9000766E+02  0.7816164E-02  0.1186339E+00
        -11   -1    0    0    0    0  0.00000000000E+00  0.00000000000E+00  0.45593999997E+02  0.45594000000E+02  0.51100000000E-03 0. -1.
         11   -1    0    0    0    0 -0.00000000000E+00 -0.00000000000E+00 -0.45593999997E+02  0.45594000000E+02  0.51100000000E-03 0.  1.
    9900012    2    1    2    0    0 -0.39475032818E+00 -0.94817944831E+00 -0.58165629577E+00  0.90007662703E+02  0.89999923051E+02 0.  0.
        -12    1    1    2    0    0  0.39475032818E+00  0.94817944831E+00  0.58165629577E+00  0.11803372968E+01  0.00000000000E+00 0.  1.
         11    1    3    3    0    0  0.77131752314E+01  0.19021683307E+00  0.83116036310E+00  0.77601599471E+01  0.51100000000E-03 0. -1.
        -11    1    3    3    0    0 -0.11764857582E+02  0.34752811426E+01 -0.40706723665E+02  0.42515018578E+02  0.51100000000E-03 0.  1.
         12    1    3    3    0    0  0.36569320219E+01 -0.46136774240E+01  0.39293907006E+02  0.39732484178E+02  0.00000000000E+00 0. -1.
</event>
<event>
 7    1  0.3743571E-015  0.9000749E+02  0.7816164E-02  0.1186340E+00
        -11   -1    0    0    0    0  0.00000000000E+00  0.00000000000E+00  0.45593999997E+02  0.45594000000E+02  0.51100000000E-03 0.  1.
         11   -1    0    0    0    0 -0.00000000000E+00 -0.00000000000E+00 -0.45593999997E+02  0.45594000000E+02  0.51100000000E-03 0. -1.
    9900012    2    1    2    0    0 -0.95794035366E+00  0.63200496933E+00 -0.27663652878E+00  0.90007488343E+02  0.89999746389E+02 0.  0.
        -12    1    1    2    0    0  0.95794035366E+00 -0.63200496933E+00  0.27663652878E+00  0.11805116566E+01  0.00000000000E+00 0.  1.
         11    1    3    3    0    0  0.91682320963E+01  0.52809277051E+01  0.11225230592E+02  0.15425643562E+02  0.51100000000E-03 0. -1.
        -11    1    3    3    0    0 -0.28633243782E+02 -0.11117792157E+02  0.20587727066E+02  0.36977323564E+02  0.51100000000E-03 0.  1.
         12    1    3    3    0    0  0.18507071332E+02  0.64688694214E+01 -0.32089594187E+02  0.37604521217E+02  0.00000000000E+00 0. -1.
</event>
<event>
 7    1  0.3743571E-015  0.9000769E+02  0.7816164E-02  0.1186339E+00
        -11   -1    0    0    0    0  0.00000000000E+00  0.00000000000E+00  0.45593999997E+02  0.45594000000E+02  0.51100000000E-03 0. -1.
         11   -1    0    0    0    0 -0.00000000000E+00 -0.00000000000E+00 -0.45593999997E+02  0.45594000000E+02  0.51100000000E-03 0.  1.
    9900012    2    1    2    0    0 -0.80143889365E+00 -0.11738002346E+00 -0.85852211005E+00  0.90007685388E+02  0.89999946035E+02 0.  0.
        -12    1    1    2    0    0  0.80143889365E+00  0.11738002346E+00  0.85852211005E+00  0.11803146121E+01  0.00000000000E+00 0.  1.
         11    1    3    3    0    0 -0.38084972862E+02  0.15871786203E+02 -0.10086765128E+02  0.42474952457E+02  0.51100000000E-03 0. -1.
        -11    1    3    3    0    0  0.13066587073E+01 -0.99246605119E+01  0.34817047026E+01  0.10598514573E+02  0.51100000000E-03 0.  1.
        -12    1    3    3    0    0  0.35976875261E+02 -0.60645057141E+01  0.57465383158E+01  0.36934218358E+02  0.00000000000E+00 0.  1.
</event>
<event>
 7    1  0.3743571E-015  0.9000774E+02  0.7816164E-02  0.1186339E+00
        -11   -1    0    0    0    0  0.00000000000E+00  0.00000000000E+00  0.45593999997E+02  0.45594000000E+02  0.51100000000E-03 0. -1.
         11   -1    0    0    0    0 -0.00000000000E+00 -0.00000000000E+00 -0.45593999997E+02  0.45594000000E+02  0.51100000000E-03 0.  1.
    9900012    2    1    2    0    0 -0.42179480729E+00  0.72710753004E-01 -0.10999123475E+01  0.90007743721E+02  0.90000005138E+02 0.  0.
        -12    1    1    2    0    0  0.42179480729E+00 -0.72710753004E-01  0.10999123475E+01  0.11802562794E+01  0.00000000000E+00 0.  1.
         11    1    3    3    0    0 -0.11310024630E+02  0.27896081435E+02  0.21233361202E+02  0.36836987455E+02  0.51100000000E-03 0. -1.
        -11    1    3    3    0    0 -0.69366916978E+01  0.24527691204E+00  0.62373261335E+01  0.93317785031E+01  0.51100000000E-03 0.  1.
        -12    1    3    3    0    0  0.17824921521E+02 -0.28068647594E+02 -0.28570599683E+02  0.43838977762E+02  0.00000000000E+00 0.  1.
</event>
<event>
 7    1  0.3743571E-015  0.9000772E+02  0.7816164E-02  0.1186339E+00
        -11   -1    0    0    0    0  0.00000000000E+00  0.00000000000E+00  0.45593999997E+02  0.45594000000E+02  0.51100000000E-03 0.  1.
         11   -1    0    0    0    0 -0.00000000000E+00 -0.00000000000E+00 -0.45593999997E+02  0.45594000000E+02  0.51100000000E-03 0. -1.
    9900012    2    1    2    0    0  0.26550251869E-01  0.97962609871E+00  0.65779410864E+00  0.90007718128E+02  0.89999979207E+02 0.  0.
        -12    1    1    2    0    0 -0.26550251869E-01 -0.97962609871E+00 -0.65779410864E+00  0.11802818725E+01  0.00000000000E+00 0.  1.
         11    1    3    3    0    0 -0.92350448949E+01 -0.31785331953E+01 -0.10510575865E+00  0.97673013144E+01  0.51100000000E-03 0. -1.
        -11    1    3    3    0    0 -0.16905531551E+02  0.12402427992E+02  0.32256971480E+02  0.38472450227E+02  0.51100000000E-03 0.  1.
         12    1    3    3    0    0  0.26167126698E+02 -0.82442686982E+01 -0.31494071613E+02  0.41767966586E+02  0.00000000000E+00 0. -1.
</event>
<event>
 7    1  0.3743571E-015  0.9000774E+02  0.7816164E-02  0.1186339E+00
        -11   -1    0    0    0    0  0.00000000000E+00  0.00000000000E+00  0.45593999997E+02  0.45594000000E+02  0.51100000000E-03 0.  1.
         11   -1    0    0    0    0 -0.00000000000E+00 -0.00000000000E+00 -0.45593999997E+02  0.45594000000E+02  0.51100000000E-03 0. -1.
    9900012    2    1    2    0    0 -0.70681932919E+00  0.76795769080E+00 -0.55104743212E+00  0.90007743311E+02  0.90000004723E+02 0.  0.
        -12    1    1    2    0    0  0.70681932919E+00 -0.76795769080E+00  0.55104743212E+00  0.11802566888E+01  0.00000000000E+00 0.  1.
         11    1    3    3    0    0  0.65182328266E+01  0.77740359558E+01  0.81496154339E+01  0.13013040621E+02  0.51100000000E-03 0. -1.
        -11    1    3    3    0    0 -0.34776667490E+02 -0.25486727423E+02 -0.20888225284E+01  0.43166573367E+02  0.51100000000E-03 0.  1.
         12    1    3    3    0    0  0.27551615334E+02  0.18480649158E+02 -0.66118403376E+01  0.33828129323E+02  0.00000000000E+00 0. -1.
</event>
<event>
 7    1  0.3743571E-015  0.9000781E+02  0.7816164E-02  0.1186339E+00
        -11   -1    0    0    0    0  0.00000000000E+00  0.00000000000E+00  0.45593999997E+02  0.45594000000E+02  0.51100000000E-03 0.  1.
         11   -1    0    0    0    0 -0.00000000000E+00 -0.00000000000E+00 -0.45593999997E+02  0.45594000000E+02  0.51100000000E-03 0. -1.
    9900012    2    1    2    0    0 -0.14869422918E+00  0.71352267797E+00  0.92823293329E+00  0.90007813166E+02  0.90000075499E+02 0.  0.
        -12    1    1    2    0    0  0.14869422918E+00 -0.71352267797E+00 -0.92823293329E+00  0.11801868344E+01  0.00000000000E+00 0.  1.
         11    1    3    3    0    0 -0.56340773490E+01 -0.79795211136E+00 -0.38738972755E+02  0.39154662117E+02  0.51100000000E-03 0. -1.
        -11    1    3    3    0    0 -0.11151144786E+02  0.29432164443E+00  0.46880010230E+01  0.12100083021E+02  0.51100000000E-03 0.  1.
        -12    1    3    3    0    0  0.16636527906E+02  0.12171531449E+01  0.34979204665E+02  0.38753068027E+02  0.00000000000E+00 0.  1.
</event>
<event>
 7    1  0.3743571E-015  0.9000767E+02  0.7816164E-02  0.1186339E+00
        -11   -1    0    0    0    0  0.00000000000E+00  0.00000000000E+00  0.45593999997E+02  0.45594000000E+02  0.51100000000E-03 0. -1.
         11   -1    0    0    0    0 -0.00000000000E+00 -0.00000000000E+00 -0.45593999997E+02  0.45594000000E+02  0.51100000000E-03 0.  1.
    9900012    2    1    2    0    0 -0.11384350207E+01  0.19558110765E+00  0.24267661672E+00  0.90007670298E+02  0.89999930746E+02 0.  0.
        -12    1    1    2    0    0  0.11384350207E+01 -0.19558110765E+00 -0.24267661672E+00  0.11803297024E+01  0.00000000000E+00 0.  1.
         11    1    3    3    0    0  0.89585918684E+00  0.49533329546E+01 -0.74704021346E+01  0.90080508078E+01  0.51100000000E-03 0. -1.
        -11    1    3    3    0    0 -0.13603316494E+02 -0.79220984334E+01 -0.34069022878E+02  0.37530097034E+02  0.51100000000E-03 0.  1.
         12    1    3    3    0    0  0.11569022286E+02  0.31643465864E+01  0.41782101630E+02  0.43469522456E+02  0.00000000000E+00 0. -1.
</event>
<event>
 7    1  0.3743571E-015  0.9000823E+02  0.7816164E-02  0.1186338E+00
        -11   -1    0    0    0    0  0.00000000000E+00  0.00000000000E+00  0.45593999997E+02  0.45594000000E+02  0.51100000000E-03 0.  1.
         11   -1    0    0    0    0 -0.00000000000E+00 -0.00000000000E+00 -0.45593999997E+02  0.45594000000E+02  0.51100000000E-03 0. -1.
    9900012    2    1    2    0    0  0.16187023751E+00 -0.73141057567E+00 -0.91141949385E+00  0.90008233541E+02  0.90000501422E+02 0.  0.
        -12    1    1    2    0    0 -0.16187023751E+00  0.73141057567E+00  0.91141949385E+00  0.11797664590E+01  0.00000000000E+00 0.  1.
         11    1    3    3    0    0  0.49491259140E+01 -0.25196395886E+02 -0.20156574476E+02  0.32644137419E+02  0.51100000000E-03 0. -1.
        -11    1    3    3    0    0 -0.52616187946E+01 -0.45455302386E+01 -0.12533187746E+02  0.14332734311E+02  0.51100000000E-03 0.  1.
        -12    1    3    3    0    0  0.47436311806E+00  0.29010515549E+02  0.31778342728E+02  0.43031361811E+02  0.00000000000E+00 0.  1.
</event>
<event>
 7    1  0.3743571E-015  0.9000782E+02  0.7816164E-02  0.1186339E+00
        -11   -1    0    0    0    0  0.00000000000E+00  0.00000000000E+00  0.45593999997E+02  0.45594000000E+02  0.51100000000E-03 0.  1.
         11   -1    0    0    0    0 -0.00000000000E+00 -0.00000000000E+00 -0.45593999997E+02  0.45594000000E+02  0.51100000000E-03 0. -1.
    9900012    2    1    2    0    0 -0.72966486731E+00 -0.10062222488E+00 -0.92211258638E+00  0.90007818966E+02  0.90000081376E+02 0.  0.
        -12    1    1    2    0    0  0.72966486731E+00  0.10062222488E+00  0.92211258638E+00  0.11801810339E+01  0.00000000000E+00 0.  1.
         11    1    3    3    0    0 -0.29350522777E+02 -0.19799161603E+02 -0.10404068683E+02  0.36901282266E+02  0.51100000000E-03 0. -1.
        -11    1    3    3    0    0 -0.85872528007E+01 -0.19412848197E+01  0.41539966814E+01  0.97347411935E+01  0.51100000000E-03 0.  1.
        -12    1    3    3    0    0  0.37208110711E+02  0.21639824197E+02  0.53279594149E+01  0.43371795507E+02  0.00000000000E+00 0.  1.
</event>
<event>
 7    1  0.3743571E-015  0.9000776E+02  0.7816164E-02  0.1186339E+00
        -11   -1    0    0    0    0  0.00000000000E+00  0.00000000000E+00  0.45593999997E+02  0.45594000000E+02  0.51100000000E-03 0. -1.
         11   -1    0    0    0    0 -0.00000000000E+00 -0.00000000000E+00 -0.45593999997E+02  0.45594000000E+02  0.51100000000E-03 0.  1.
    9900012    2    1    2    0    0  0.59463597086E+00  0.10138908490E+01 -0.10673242122E+00  0.90007763413E+02  0.90000025090E+02 0.  0.
        -12    1    1    2    0    0 -0.59463597086E+00 -0.10138908490E+01  0.10673242122E+00  0.11802365870E+01  0.00000000000E+00 0.  1.
         11    1    3    3    0    0 -0.56397358459E+00  0.88743983370E+01  0.38989683972E+01  0.97095296936E+01  0.51100000000E-03 0. -1.
        -11    1    3    3    0    0  0.34321623132E+02 -0.73389912149E+01 -0.23109817449E+02  0.42022592367E+02  0.51100000000E-03 0.  1.
         12    1    3    3    0    0 -0.33163013577E+02 -0.52151627303E+00  0.19104116630E+02  0.38275641352E+02  0.00000000000E+00 0. -1.
</event>
<event>
 7    1  0.3743571E-015  0.9000772E+02  0.7816164E-02  0.1186339E+00
        -11   -1    0    0    0    0  0.00000000000E+00  0.00000000000E+00  0.45593999997E+02  0.45594000000E+02  0.51100000000E-03 0. -1.
         11   -1    0    0    0    0 -0.00000000000E+00 -0.00000000000E+00 -0.45593999997E+02  0.45594000000E+02  0.51100000000E-03 0.  1.
    9900012    2    1    2    0    0 -0.93428103885E+00  0.71615203052E+00 -0.85521955848E-01  0.90007716646E+02  0.89999977706E+02 0.  0.
        -12    1    1    2    0    0  0.93428103885E+00 -0.71615203052E+00  0.85521955848E-01  0.11802833538E+01  0.00000000000E+00 0.  1.
         11    1    3    3    0    0 -0.32861696328E+01 -0.45237498697E-01 -0.91806700975E+01  0.97511876706E+01  0.51100000000E-03 0. -1.
        -11    1    3    3    0    0  0.25196507284E+02 -0.14506711371E+01 -0.27331741945E+02  0.37202050267E+02  0.51100000000E-03 0.  1.
         12    1    3    3    0    0 -0.22844618691E+02  0.22120606663E+01  0.36426890086E+02  0.43054478709E+02  0.00000000000E+00 0. -1.
</event>
<event>
 7    1  0.3743571E-015  0.9000772E+02  0.7816164E-02  0.1186339E+00
        -11   -1    0    0    0    0  0.00000000000E+00  0.00000000000E+00  0.45593999997E+02  0.45594000000E+02  0.51100000000E-03 0. -1.
         11   -1    0    0    0    0 -0.00000000000E+00 -0.00000000000E+00 -0.45593999997E+02  0.45594000000E+02  0.51100000000E-03 0.  1.
    9900012    2    1    2    0    0 -0.30415519664E+00 -0.85468229312E+00  0.75503488861E+00  0.90007716183E+02  0.89999977237E+02 0.  0.
        -12    1    1    2    0    0  0.30415519664E+00  0.85468229312E+00 -0.75503488861E+00  0.11802838171E+01  0.00000000000E+00 0.  1.
         11    1    3    3    0    0  0.15546234176E+02 -0.21082216332E+02 -0.25893018170E+02  0.36831964824E+02  0.51100000000E-03 0. -1.
        -11    1    3    3    0    0  0.59415181833E+01 -0.73001123085E+01  0.54874840616E+00  0.94283828472E+01  0.51100000000E-03 0.  1.
        -12    1    3    3    0    0 -0.21791907556E+02  0.27527646348E+02  0.26099304653E+02  0.43747368512E+02  0.00000000000E+00 0.  1.
</event>
<event>
 7    1  0.3743571E-015  0.9000781E+02  0.7816164E-02  0.1186339E+00
        -11   -1    0    0    0    0  0.00000000000E+00  0.00000000000E+00  0.45593999997E+02  0.45594000000E+02  0.51100000000E-03 0. -1.
         11   -1    0    0    0    0 -0.00000000000E+00 -0.00000000000E+00 -0.45593999997E+02  0.45594000000E+02  0.51100000000E-03 0.  1.
    9900012    2    1    2    0    0  0.25441045050E+00 -0.72250559926E+00  0.89783527435E+00  0.90007810524E+02  0.90000072823E+02 0.  0.
        -12    1    1    2    0    0 -0.25441045050E+00  0.72250559926E+00 -0.89783527435E+00  0.11801894755E+01  0.00000000000E+00 0.  1.
         11    1    3    3    0    0 -0.98021757968E+01 -0.90000956463E-01 -0.56898712652E+01  0.11334257179E+02  0.51100000000E-03 0. -1.
        -11    1    3    3    0    0 -0.97772660016E+01  0.29917777000E+02 -0.16511248064E+02  0.35542785821E+02  0.51100000000E-03 0.  1.
         12    1    3    3    0    0  0.19833852249E+02 -0.30550281642E+02  0.23098954603E+02  0.43130767524E+02  0.00000000000E+00 0. -1.
</event>
<event>
 7    1  0.3743571E-015  0.9000727E+02  0.7816164E-02  0.1186340E+00
        -11   -1    0    0    0    0  0.00000000000E+00  0.00000000000E+00  0.45593999997E+02  0.45594000000E+02  0.51100000000E-03 0. -1.
         11   -1    0    0    0    0 -0.00000000000E+00 -0.00000000000E+00 -0.45593999997E+02  0.45594000000E+02  0.51100000000E-03 0.  1.
    9900012    2    1    2    0    0  0.56458472273E+00 -0.82667875661E+00  0.62607006741E+00  0.90007272510E+02  0.89999527706E+02 0.  0.
        -12    1    1    2    0    0 -0.56458472273E+00  0.82667875661E+00 -0.62607006741E+00  0.11807274898E+01  0.00000000000E+00 0.  1.
         11    1    3    3    0    0  0.15121397327E+02 -0.24895436391E+02  0.24717376631E+02  0.38201938668E+02  0.51100000000E-03 0. -1.
        -11    1    3    3    0    0 -0.99031868053E+01 -0.28847421962E+01  0.53494527899E+01  0.11619444559E+02  0.51100000000E-03 0.  1.
        -12    1    3    3    0    0 -0.46536257989E+01  0.26953499830E+02 -0.29440759354E+02  0.40185889284E+02  0.00000000000E+00 0.  1.
</event>
<event>
 7    1  0.3743571E-015  0.9000765E+02  0.7816164E-02  0.1186339E+00
        -11   -1    0    0    0    0  0.00000000000E+00  0.00000000000E+00  0.45593999997E+02  0.45594000000E+02  0.51100000000E-03 0. -1.
         11   -1    0    0    0    0 -0.00000000000E+00 -0.00000000000E+00 -0.45593999997E+02  0.45594000000E+02  0.51100000000E-03 0.  1.
    9900012    2    1    2    0    0  0.16344728018E+00  0.17386761188E-01  0.11688534811E+01  0.90007645912E+02  0.89999906038E+02 0.  0.
        -12    1    1    2    0    0 -0.16344728018E+00 -0.17386761188E-01 -0.11688534811E+01  0.11803540880E+01  0.00000000000E+00 0.  1.
         11    1    3    3    0    0 -0.13777414602E+02 -0.17532426858E+02 -0.41292266664E+01  0.22677161590E+02  0.51100000000E-03 0. -1.
        -11    1    3    3    0    0 -0.74761230368E+01  0.37128000258E+02  0.22885631732E+00  0.37873911790E+02  0.51100000000E-03 0.  1.
         12    1    3    3    0    0  0.21416984919E+02 -0.19578186639E+02  0.50692238302E+01  0.29456572532E+02  0.00000000000E+00 0. -1.
</event>
<event>
 7    1  0.3743571E-015  0.9000770E+02  0.7816164E-02  0.1186339E+00
        -11   -1    0    0    0    0  0.00000000000E+00  0.00000000000E+00  0.45593999997E+02  0.45594000000E+02  0.51100000000E-03 0.  1.
         11   -1    0    0    0    0 -0.00000000000E+00 -0.00000000000E+00 -0.45593999997E+02  0.45594000000E+02  0.51100000000E-03 0. -1.
    9900012    2    1    2    0    0  0.46518215270E+00  0.54977294430E+00 -0.93512210833E+00  0.90007704239E+02  0.89999965135E+02 0.  0.
        -12    1    1    2    0    0 -0.46518215270E+00 -0.54977294430E+00  0.93512210833E+00  0.11802957608E+01  0.00000000000E+00 0.  1.
         11    1    3    3    0    0 -0.32272568959E+02 -0.22958415129E+02  0.24683411593E+01  0.39682492875E+02  0.51100000000E-03 0. -1.
        -11    1    3    3    0    0 -0.24210281612E+01  0.94942402996E+01  0.57831893550E+01  0.11377488985E+02  0.51100000000E-03 0.  1.
        -12    1    3    3    0    0  0.35158779273E+02  0.14013947773E+02 -0.91866526226E+01  0.38947722380E+02  0.00000000000E+00 0.  1.
</event>
<event>
 7    1  0.3743571E-015  0.9000772E+02  0.7816164E-02  0.1186339E+00
        -11   -1    0    0    0    0  0.00000000000E+00  0.00000000000E+00  0.45593999997E+02  0.45594000000E+02  0.51100000000E-03 0.  1.
         11   -1    0    0    0    0 -0.00000000000E+00 -0.00000000000E+00 -0.45593999997E+02  0.45594000000E+02  0.51100000000E-03 0. -1.
    9900012    2    1    2    0    0  0.52446390595E+00  0.99266308483E+00 -0.36416311598E+00  0.90007721574E+02  0.89999982698E+02 0.  0.
        -12    1    1    2    0    0 -0.52446390595E+00 -0.99266308483E+00  0.36416311598E+00  0.11802784263E+01  0.00000000000E+00 0.  1.
         11    1    3    3    0    0  0.19598315183E+01  0.17879973000E+02 -0.28754320969E+02  0.33916741422E+02  0.51100000000E-03 0. -1.
        -11    1    3    3    0    0  0.38857641289E+00  0.11618456844E+02 -0.45565299984E+01  0.12486052097E+02  0.51100000000E-03 0.  1.
        -12    1    3    3    0    0 -0.18239440252E+01 -0.28505766759E+02  0.32946687851E+02  0.43604928055E+02  0.00000000000E+00 0.  1.
</event>
<event>
 7    1  0.3743571E-015  0.9000789E+02  0.7816164E-02  0.1186339E+00
        -11   -1    0    0    0    0  0.00000000000E+00  0.00000000000E+00  0.45593999997E+02  0.45594000000E+02  0.51100000000E-03 0. -1.
         11   -1    0    0    0    0 -0.00000000000E+00 -0.00000000000E+00 -0.45593999997E+02  0.45594000000E+02  0.51100000000E-03 0.  1.
    9900012    2    1    2    0    0 -0.97978578962E+00 -0.63414851869E+00  0.17471020468E+00  0.90007894838E+02  0.90000158250E+02 0.  0.
        -12    1    1    2    0    0  0.97978578962E+00  0.63414851869E+00 -0.17471020468E+00  0.11801051618E+01  0.00000000000E+00 0.  1.
         11    1    3    3    0    0 -0.63176007798E+01 -0.32943251701E+01  0.55067860949E+01  0.90049625927E+01  0.51100000000E-03 0. -1.
        -11    1    3    3    0    0 -0.22772712618E+02 -0.19512545342E+02 -0.25976135391E+02  0.39674872096E+02  0.51100000000E-03 0.  1.
         12    1    3    3    0    0  0.28110527608E+02  0.22172721994E+02  0.20644059501E+02  0.41328060149E+02  0.00000000000E+00 0. -1.
</event>
<event>
 7    1  0.3743571E-015  0.9000776E+02  0.7816164E-02  0.1186339E+00
        -11   -1    0    0    0    0  0.00000000000E+00  0.00000000000E+00  0.45593999997E+02  0.45594000000E+02  0.51100000000E-03 0. -1.
         11   -1    0    0    0    0 -0.00000000000E+00 -0.00000000000E+00 -0.45593999997E+02  0.45594000000E+02  0.51100000000E-03 0.  1.
    9900012    2    1    2    0    0 -0.36811648781E+00 -0.70628452753E+00  0.87098345731E+00  0.90007762835E+02  0.90000024505E+02 0.  0.
        -12    1    1    2    0    0  0.36811648781E+00  0.70628452753E+00 -0.87098345731E+00  0.11802371649E+01  0.00000000000E+00 0.  1.
         11    1    3    3    0    0 -0.61501660115E+01 -0.58587527018E+01 -0.19451200935E+01  0.87139553378E+01  0.51100000000E-03 0. -1.
        -11    1    3    3    0    0 -0.34648054083E+02  0.17620604395E+02  0.29704219779E+01  0.38984570768E+02  0.51100000000E-03 0.  1.
         12    1    3    3    0    0  0.40430103607E+02 -0.12468136220E+02 -0.15431842718E+00  0.42309236729E+02  0.00000000000E+00 0. -1.
</event>
<event>
 7    1  0.3743571E-015  0.9000768E+02  0.7816164E-02  0.1186339E+00
        -11   -1    0    0    0    0  0.00000000000E+00  0.00000000000E+00  0.45593999997E+02  0.45594000000E+02  0.51100000000E-03 0.  1.
         11   -1    0    0    0    0 -0.00000000000E+00 -0.00000000000E+00 -0.45593999997E+02  0.45594000000E+02  0.51100000000E-03 0. -1.
    9900012    2    1    2    0    0 -0.97444406613E+00  0.19036479534E+00 -0.63826128422E+00  0.90007679086E+02  0.89999939650E+02 0.  0.
        -12    1    1    2    0    0  0.97444406613E+00 -0.19036479534E+00  0.63826128422E+00  0.11803209141E+01  0.00000000000E+00 0.  1.
         11    1    3    3    0    0 -0.13071185261E+01  0.83397214512E+00  0.90249001826E+01  0.91571224709E+01  0.51100000000E-03 0. -1.
        -11    1    3    3    0    0 -0.34966396047E+02 -0.48618124333E+01  0.14180919640E+02  0.38044507550E+02  0.51100000000E-03 0.  1.
         12    1    3    3    0    0  0.35299070507E+02  0.42182050835E+01 -0.23844081107E+02  0.42806049065E+02  0.00000000000E+00 0. -1.
</event>
<event>
 7    1  0.3743571E-015  0.9000754E+02  0.7816164E-02  0.1186339E+00
        -11   -1    0    0    0    0  0.00000000000E+00  0.00000000000E+00  0.45593999997E+02  0.45594000000E+02  0.51100000000E-03 0.  1.
         11   -1    0    0    0    0 -0.00000000000E+00 -0.00000000000E+00 -0.45593999997E+02  0.45594000000E+02  0.51100000000E-03 0. -1.
    9900012    2    1    2    0    0  0.54350305906E+00  0.65867684812E+00 -0.81499939715E+00  0.90007544671E+02  0.89999803461E+02 0.  0.
        -12    1    1    2    0    0 -0.54350305906E+00 -0.65867684812E+00  0.81499939715E+00  0.11804553286E+01  0.00000000000E+00 0.  1.
         11    1    3    3    0    0 -0.17709686783E+01 -0.31784399166E+02  0.20624503523E+02  0.37930917551E+02  0.51100000000E-03 0. -1.
        -11    1    3    3    0    0 -0.48901431889E+01 -0.63285247373E+01 -0.42632390787E+01  0.90630532086E+01  0.51100000000E-03 0.  1.
        -12    1    3    3    0    0  0.72046149263E+01  0.38771600752E+02 -0.17176263842E+02  0.43013573912E+02  0.00000000000E+00 0.  1.
</event>
<event>
 7    1  0.3743571E-015  0.9000716E+02  0.7816164E-02  0.1186340E+00
        -11   -1    0    0    0    0  0.00000000000E+00  0.00000000000E+00  0.45593999997E+02  0.45594000000E+02  0.51100000000E-03 0.  1.
         11   -1    0    0    0    0 -0.00000000000E+00 -0.00000000000E+00 -0.45593999997E+02  0.45594000000E+02  0.51100000000E-03 0. -1.
    9900012    2    1    2    0    0 -0.80400795060E+00  0.81914037354E+00 -0.27743590500E+00  0.90007156904E+02  0.89999410573E+02 0.  0.
        -12    1    1    2    0    0  0.80400795060E+00 -0.81914037354E+00  0.27743590500E+00  0.11808430961E+01  0.00000000000E+00 0.  1.
         11    1    3    3    0    0 -0.85012251111E+01  0.31477695556E+01  0.21928584013E+01  0.93267309275E+01  0.51100000000E-03 0. -1.
        -11    1    3    3    0    0  0.31979609515E+01  0.38742712852E+02  0.30608695159E+01  0.38994790368E+02  0.51100000000E-03 0.  1.
         12    1    3    3    0    0  0.44992562090E+01 -0.41071342034E+02 -0.55311638222E+01  0.41685635609E+02  0.00000000000E+00 0. -1.
</event>
<event>
 7    1  0.3743571E-015  0.9000782E+02  0.7816164E-02  0.1186339E+00
        -11   -1    0    0    0    0  0.00000000000E+00  0.00000000000E+00  0.45593999997E+02  0.45594000000E+02  0.51100000000E-03 0.  1.
         11   -1    0    0    0    0 -0.00000000000E+00 -0.00000000000E+00 -0.45593999997E+02  0.45594000000E+02  0.51100000000E-03 0. -1.
    9900012    2    1    2    0    0  0.73999940858E+00 -0.54880665757E+00 -0.73759432229E+00  0.90007816431E+02  0.90000078808E+02 0.  0.
        -12    1    1    2    0    0 -0.73999940858E+00  0.54880665757E+00  0.73759432229E+00  0.11801835689E+01  0.00000000000E+00 0.  1.
         11    1    3    3    0    0  0.13659741541E+02 -0.31663683111E+02 -0.19099933828E+02  0.39420614400E+02  0.51100000000E-03 0. -1.
        -11    1    3    3    0    0  0.38686425312E+01  0.23526558150E+01 -0.72680235015E+01  0.85630339424E+01  0.51100000000E-03 0.  1.
        -12    1    3    3    0    0 -0.16788384664E+02  0.28762220639E+02  0.25630363008E+02  0.42024168089E+02  0.00000000000E+00 0.  1.
</event>
<event>
 7    1  0.3743571E-015  0.9000775E+02  0.7816164E-02  0.1186339E+00
        -11   -1    0    0    0    0  0.00000000000E+00  0.00000000000E+00  0.45593999997E+02  0.45594000000E+02  0.51100000000E-03 0.  1.
         11   -1    0    0    0    0 -0.00000000000E+00 -0.00000000000E+00 -0.45593999997E+02  0.45594000000E+02  0.51100000000E-03 0. -1.
    9900012    2    1    2    0    0  0.45264265365E+00 -0.60776500309E+00 -0.90483897521E+00  0.90007746959E+02  0.90000008418E+02 0.  0.
        -12    1    1    2    0    0 -0.45264265365E+00  0.60776500309E+00  0.90483897521E+00  0.11802530415E+01  0.00000000000E+00 0.  1.
         11    1    3    3    0    0 -0.27861840330E+01  0.37789841205E+02 -0.14295138870E+02  0.40499208824E+02  0.51100000000E-03 0. -1.
        -11    1    3    3    0    0 -0.32767114386E+01  0.46591490582E-01  0.98207517606E+01  0.10353075583E+02  0.51100000000E-03 0.  1.
        -12    1    3    3    0    0  0.65155381252E+01 -0.38444197699E+02  0.35695481340E+01  0.39155462552E+02  0.00000000000E+00 0.  1.
</event>
<event>
 7    1  0.3743571E-015  0.9000762E+02  0.7816164E-02  0.1186339E+00
        -11   -1    0    0    0    0  0.00000000000E+00  0.00000000000E+00  0.45593999997E+02  0.45594000000E+02  0.51100000000E-03 0.  1.
         11   -1    0    0    0    0 -0.00000000000E+00 -0.00000000000E+00 -0.45593999997E+02  0.45594000000E+02  0.51100000000E-03 0. -1.
    9900012    2    1    2    0    0 -0.97731659989E+00  0.54377337080E-01 -0.65968730487E+00  0.90007622107E+02  0.89999881918E+02 0.  0.
        -12    1    1    2    0    0  0.97731659989E+00 -0.54377337080E-01  0.65968730487E+00  0.11803778935E+01  0.00000000000E+00 0.  1.
         11    1    3    3    0    0  0.39299748248E+01  0.17477970114E+01  0.98986820945E+01  0.10792747750E+02  0.51100000000E-03 0. -1.
        -11    1    3    3    0    0  0.44402729765E+01  0.31394347515E+02  0.16238366309E+02  0.35623105152E+02  0.51100000000E-03 0.  1.
         12    1    3    3    0    0 -0.93475644011E+01 -0.33087767189E+02 -0.26796735709E+02  0.43591769205E+02  0.00000000000E+00 0. -1.
</event>
<event>
 7    1  0.3743571E-015  0.9000770E+02  0.7816164E-02  0.1186339E+00
        -11   -1    0    0    0    0  0.00000000000E+00  0.00000000000E+00  0.45593999997E+02  0.45594000000E+02  0.51100000000E-03 0. -1.
         11   -1    0    0    0    0 -0.00000000000E+00 -0.00000000000E+00 -0.45593999997E+02  0.45594000000E+02  0.51100000000E-03 0.  1.
    9900012    2    1    2    0    0 -0.97235880860E+00  0.29494848890E-01  0.66839956410E+00  0.90007699370E+02  0.89999960202E+02 0.  0.
        -12    1    1    2    0    0  0.97235880860E+00 -0.29494848890E-01 -0.66839956410E+00  0.11803006295E+01  0.00000000000E+00 0.  1.
         11    1    3    3    0    0 -0.28950655792E+01  0.10105379637E+02 -0.32723233768E+01  0.11009459699E+02  0.51100000000E-03 0. -1.
        -11    1    3    3    0    0  0.39990320783E+02 -0.57129280276E+01 -0.69288038460E+00  0.40402269570E+02  0.51100000000E-03 0.  1.
         12    1    3    3    0    0 -0.38067614012E+02 -0.43629567609E+01  0.46336033255E+01  0.38595970101E+02  0.00000000000E+00 0. -1.
</event>
<event>
 7    1  0.3743571E-015  0.9000771E+02  0.7816164E-02  0.1186339E+00
        -11   -1    0    0    0    0  0.00000000000E+00  0.00000000000E+00  0.45593999997E+02  0.45594000000E+02  0.51100000000E-03 0.  1.
         11   -1    0    0    0    0 -0.00000000000E+00 -0.00000000000E+00 -0.45593999997E+02  0.45594000000E+02  0.51100000000E-03 0. -1.
    9900012    2    1    2    0    0  0.86507479938E+00 -0.80370904558E-01 -0.79891560303E+00  0.90007711886E+02  0.89999972883E+02 0.  0.
        -12    1    1    2    0    0 -0.86507479938E+00  0.80370904558E-01  0.79891560303E+00  0.11802881138E+01  0.00000000000E+00 0.  1.
         11    1    3    3    0    0 -0.88625156017E+01 -0.29386420031E+01  0.40838611777E+01  0.10191060887E+02  0.51100000000E-03 0. -1.
        -11    1    3    3    0    0 -0.12330376691E+02 -0.34077652286E+02 -0.62450405156E+01  0.36773973214E+02  0.51100000000E-03 0.  1.
         12    1    3    3    0    0  0.22057967092E+02  0.36935923384E+02  0.13622637349E+01  0.43042677786E+02  0.00000000000E+00 0. -1.
</event>
<event>
 7    1  0.3743571E-015  0.9000790E+02  0.7816164E-02  0.1186339E+00
        -11   -1    0    0    0    0  0.00000000000E+00  0.00000000000E+00  0.45593999997E+02  0.45594000000E+02  0.51100000000E-03 0. -1.
         11   -1    0    0    0    0 -0.00000000000E+00 -0.00000000000E+00 -0.45593999997E+02  0.45594000000E+02  0.51100000000E-03 0.  1.
    9900012    2    1    2    0    0 -0.11711200241E+01 -0.61335816357E-01  0.13170835565E+00  0.90007902002E+02  0.90000165509E+02 0.  0.
        -12    1    1    2    0    0  0.11711200241E+01  0.61335816357E-01 -0.13170835565E+00  0.11800979977E+01  0.00000000000E+00 0.  1.
         11    1    3    3    0    0 -0.44241741588E+01 -0.17206483931E+02  0.38007231820E+02  0.41954571588E+02  0.51100000000E-03 0. -1.
        -11    1    3    3    0    0 -0.87218052123E+01  0.24017419400E+01 -0.57078955562E+01  0.10696650057E+02  0.51100000000E-03 0.  1.
        -12    1    3    3    0    0  0.11974859347E+02  0.14743406175E+02 -0.32167627908E+02  0.37356680357E+02  0.00000000000E+00 0.  1.
</event>
<event>
 7    1  0.3743571E-015  0.9000767E+02  0.7816164E-02  0.1186339E+00
        -11   -1    0    0    0    0  0.00000000000E+00  0.00000000000E+00  0.45593999997E+02  0.45594000000E+02  0.51100000000E-03 0.  1.
         11   -1    0    0    0    0 -0.00000000000E+00 -0.00000000000E+00 -0.45593999997E+02  0.45594000000E+02  0.51100000000E-03 0. -1.
    9900012    2    1    2    0    0 -0.57983069737E+00 -0.64772201595E+00 -0.79839673100E+00  0.90007667510E+02  0.89999927921E+02 0.  0.
        -12    1    1    2    0    0  0.57983069737E+00  0.64772201595E+00  0.79839673100E+00  0.11803324903E+01  0.00000000000E+00 0.  1.
         11    1    3    3    0    0 -0.15656951961E+02 -0.21632939431E+02 -0.28459732322E+02  0.39026664952E+02  0.51100000000E-03 0. -1.
        -11    1    3    3    0    0 -0.97922530016E+01  0.18100723708E-01  0.32716183902E+01  0.10324341802E+02  0.51100000000E-03 0.  1.
        -12    1    3    3    0    0  0.24869374266E+02  0.20967116691E+02  0.24389717201E+02  0.40656660756E+02  0.00000000000E+00 0.  1.
</event>
<event>
 7    1  0.3743571E-015  0.9000776E+02  0.7816164E-02  0.1186339E+00
        -11   -1    0    0    0    0  0.00000000000E+00  0.00000000000E+00  0.45593999997E+02  0.45594000000E+02  0.51100000000E-03 0.  1.
         11   -1    0    0    0    0 -0.00000000000E+00 -0.00000000000E+00 -0.45593999997E+02  0.45594000000E+02  0.51100000000E-03 0. -1.
    9900012    2    1    2    0    0  0.62997305779E+00  0.71275978768E+00 -0.69862612148E+00  0.90007758065E+02  0.90000019671E+02 0.  0.
        -12    1    1    2    0    0 -0.62997305779E+00 -0.71275978768E+00  0.69862612148E+00  0.11802419354E+01  0.00000000000E+00 0.  1.
         11    1    3    3    0    0  0.31326762428E+02  0.18722134647E+02  0.54102900874E+01  0.36893842427E+02  0.51100000000E-03 0. -1.
        -11    1    3    3    0    0  0.59239208000E+01  0.52928398985E+01 -0.55745208440E+01  0.97047552641E+01  0.51100000000E-03 0.  1.
        -12    1    3    3    0    0 -0.36620710170E+02 -0.23302214757E+02 -0.53439536492E+00  0.43409160374E+02  0.00000000000E+00 0.  1.
</event>
<event>
 7    1  0.3743571E-015  0.9000697E+02  0.7816164E-02  0.1186341E+00
        -11   -1    0    0    0    0  0.00000000000E+00  0.00000000000E+00  0.45593999997E+02  0.45594000000E+02  0.51100000000E-03 0. -1.
         11   -1    0    0    0    0 -0.00000000000E+00 -0.00000000000E+00 -0.45593999997E+02  0.45594000000E+02  0.51100000000E-03 0.  1.
    9900012    2    1    2    0    0 -0.27802410535E+00 -0.89690429613E+00 -0.71631521912E+00  0.90006965617E+02  0.89999216760E+02 0.  0.
        -12    1    1    2    0    0  0.27802410535E+00  0.89690429613E+00  0.71631521912E+00  0.11810343825E+01  0.00000000000E+00 0.  1.
         11    1    3    3    0    0 -0.56844512623E+00 -0.68933610352E+01  0.65183690094E+01  0.95042459474E+01  0.51100000000E-03 0. -1.
        -11    1    3    3    0    0 -0.27935258625E+02 -0.16152027490E+02 -0.24664041694E+02  0.40615041788E+02  0.51100000000E-03 0.  1.
         12    1    3    3    0    0  0.28225679646E+02  0.22148484229E+02  0.17429357466E+02  0.39887677882E+02  0.00000000000E+00 0. -1.
</event>
<event>
 7    1  0.3743571E-015  0.9000749E+02  0.7816164E-02  0.1186340E+00
        -11   -1    0    0    0    0  0.00000000000E+00  0.00000000000E+00  0.45593999997E+02  0.45594000000E+02  0.51100000000E-03 0. -1.
         11   -1    0    0    0    0 -0.00000000000E+00 -0.00000000000E+00 -0.45593999997E+02  0.45594000000E+02  0.51100000000E-03 0.  1.
    9900012    2    1    2    0    0  0.61179073511E+00  0.93208222084E+00  0.38799661314E+00  0.90007488864E+02  0.89999746917E+02 0.  0.
        -12    1    1    2    0    0 -0.61179073511E+00 -0.93208222084E+00 -0.38799661314E+00  0.11805111358E+01  0.00000000000E+00 0.  1.
         11    1    3    3    0    0 -0.31083865889E+02 -0.80575892686E+01  0.18694941666E+02  0.37156860841E+02  0.51100000000E-03 0. -1.
        -11    1    3    3    0    0 -0.54405994021E+01  0.55358604805E+01  0.46566900292E+01  0.90515543087E+01  0.51100000000E-03 0.  1.
        -12    1    3    3    0    0  0.37136256026E+02  0.34538110089E+01 -0.22963635082E+02  0.43799073715E+02  0.00000000000E+00 0.  1.
</event>
<event>
 7    1  0.3743571E-015  0.9000762E+02  0.7816164E-02  0.1186339E+00
        -11   -1    0    0    0    0  0.00000000000E+00  0.00000000000E+00  0.45593999997E+02  0.45594000000E+02  0.51100000000E-03 0.  1.
         11   -1    0    0    0    0 -0.00000000000E+00 -0.00000000000E+00 -0.45593999997E+02  0.45594000000E+02  0.51100000000E-03 0. -1.
    9900012    2    1    2    0    0  0.22510053834E+00  0.53857331827E+00 -0.10259415296E+01  0.90007624003E+02  0.89999883840E+02 0.  0.
        -12    1    1    2    0    0 -0.22510053834E+00 -0.53857331827E+00  0.10259415296E+01  0.11803759967E+01  0.00000000000E+00 0.  1.
         11    1    3    3    0    0  0.50852485669E+01  0.36589309665E+02  0.94786686576E+01  0.38137678148E+02  0.51100000000E-03 0. -1.
        -11    1    3    3    0    0 -0.32838003790E+01  0.56079898935E+01  0.41153636466E+01  0.76921462402E+01  0.51100000000E-03 0.  1.
        -12    1    3    3    0    0 -0.15763476496E+01 -0.41658726241E+02 -0.14619973834E+02  0.44177799615E+02  0.00000000000E+00 0.  1.
</event>
<event>
 7    1  0.3743571E-015  0.9000742E+02  0.7816164E-02  0.1186340E+00
        -11   -1    0    0    0    0  0.00000000000E+00  0.00000000000E+00  0.45593999997E+02  0.45594000000E+02  0.51100000000E-03 0.  1.
         11   -1    0    0    0    0 -0.00000000000E+00 -0.00000000000E+00 -0.45593999997E+02  0.45594000000E+02  0.51100000000E-03 0. -1.
    9900012    2    1    2    0    0  0.90246436063E+00  0.75456574365E+00 -0.99841690903E-01  0.90007415506E+02  0.89999672590E+02 0.  0.
        -12    1    1    2    0    0 -0.90246436063E+00 -0.75456574365E+00  0.99841690903E-01  0.11805844938E+01  0.00000000000E+00 0.  1.
         11    1    3    3    0    0 -0.75314935864E+01  0.50397882654E+00 -0.67713570406E+01  0.10140447068E+02  0.51100000000E-03 0. -1.
        -11    1    3    3    0    0  0.30040610687E+02  0.29203634983E+02 -0.42869815629E+01  0.42114947440E+02  0.51100000000E-03 0.  1.
         12    1    3    3    0    0 -0.21606652740E+02 -0.28953048066E+02  0.10958496913E+02  0.37752020999E+02  0.00000000000E+00 0. -1.
</event>
<event>
 7    1  0.3743571E-015  0.9000765E+02  0.7816164E-02  0.1186339E+00
        -11   -1    0    0    0    0  0.00000000000E+00  0.00000000000E+00  0.45593999997E+02  0.45594000000E+02  0.51100000000E-03 0.  1.
         11   -1    0    0    0    0 -0.00000000000E+00 -0.00000000000E+00 -0.45593999997E+02  0.45594000000E+02  0.51100000000E-03 0. -1.
    9900012    2    1    2    0    0 -0.95239106325E+00  0.35674470989E+00  0.59909593646E+00  0.90007647736E+02  0.89999907886E+02 0.  0.
        -12    1    1    2    0    0  0.95239106325E+00 -0.35674470989E+00 -0.59909593646E+00  0.11803522637E+01  0.00000000000E+00 0.  1.
         11    1    3    3    0    0 -0.73229247133E+01 -0.45414435066E+01  0.24584388504E+01  0.89606839763E+01  0.51100000000E-03 0. -1.
        -11    1    3    3    0    0 -0.33151789873E+02  0.13409292163E+02 -0.14647095444E+02  0.38644374666E+02  0.51100000000E-03 0.  1.
         12    1    3    3    0    0  0.39522323523E+02 -0.85111039466E+01  0.12787752530E+02  0.42402589094E+02  0.00000000000E+00 0. -1.
</event>
<event>
 7    1  0.4612164E-015  0.9000763E+02  0.7816164E-02  0.1186339E+00
        -11   -1    0    0    0    0  0.00000000000E+00  0.00000000000E+00  0.45593999997E+02  0.45594000000E+02  0.51100000000E-03 0.  1.
         11   -1    0    0    0    0 -0.00000000000E+00 -0.00000000000E+00 -0.45593999997E+02  0.45594000000E+02  0.51100000000E-03 0. -1.
    9900012    2    1    2    0    0  0.10735567988E+01 -0.48934385236E+00  0.35964739337E-01  0.90007629267E+02  0.89999889173E+02 0.  0.
        -12    1    1    2    0    0 -0.10735567988E+01  0.48934385236E+00 -0.35964739337E-01  0.11803707335E+01  0.00000000000E+00 0.  1.
         11    1    3    3    0    0 -0.19018776722E+02 -0.22910669554E+02 -0.20971853405E+02  0.36420204323E+02  0.51100000000E-03 0. -1.
        -11    1    3    3    0    0  0.75151388926E+00 -0.91171405409E+01 -0.28305359304E+01  0.95759573246E+01  0.51100000000E-03 0.  1.
        -12    1    3    3    0    0  0.19340819632E+02  0.31538466242E+02  0.23838354075E+02  0.44011467619E+02  0.00000000000E+00 0.  1.
</event>
<event>
 7    1  0.3743571E-015  0.9000778E+02  0.7816164E-02  0.1186339E+00
        -11   -1    0    0    0    0  0.00000000000E+00  0.00000000000E+00  0.45593999997E+02  0.45594000000E+02  0.51100000000E-03 0. -1.
         11   -1    0    0    0    0 -0.00000000000E+00 -0.00000000000E+00 -0.45593999997E+02  0.45594000000E+02  0.51100000000E-03 0.  1.
    9900012    2    1    2    0    0  0.64863509227E+00  0.98584053708E+00  0.17759783821E-01  0.90007777793E+02  0.90000039660E+02 0.  0.
        -12    1    1    2    0    0 -0.64863509227E+00 -0.98584053708E+00 -0.17759783821E-01  0.11802222068E+01  0.00000000000E+00 0.  1.
         11    1    3    3    0    0  0.11933928472E+02  0.18574137294E+02 -0.29012492090E+02  0.36457398735E+02  0.51100000000E-03 0. -1.
        -11    1    3    3    0    0 -0.27170892963E+00  0.83967823495E+01 -0.46550891446E+01  0.96046673432E+01  0.51100000000E-03 0.  1.
        -12    1    3    3    0    0 -0.11013584450E+02 -0.25985079107E+02  0.33685341018E+02  0.43945711715E+02  0.00000000000E+00 0.  1.
</event>
<event>
 7    1  0.3743571E-015  0.9000780E+02  0.7816164E-02  0.1186339E+00
        -11   -1    0    0    0    0  0.00000000000E+00  0.00000000000E+00  0.45593999997E+02  0.45594000000E+02  0.51100000000E-03 0.  1.
         11   -1    0    0    0    0 -0.00000000000E+00 -0.00000000000E+00 -0.45593999997E+02  0.45594000000E+02  0.51100000000E-03 0. -1.
    9900012    2    1    2    0    0  0.11416694172E+01 -0.29372006949E+00  0.56501257812E-01  0.90007799623E+02  0.90000061778E+02 0.  0.
        -12    1    1    2    0    0 -0.11416694172E+01  0.29372006949E+00 -0.56501257812E-01  0.11802003768E+01  0.00000000000E+00 0.  1.
         11    1    3    3    0    0  0.36824588145E+02 -0.13240474981E+02 -0.16275964785E+02  0.42382396106E+02  0.51100000000E-03 0. -1.
        -11    1    3    3    0    0 -0.62391835279E+01  0.30186837591E+01 -0.61548748817E+01  0.92694308241E+01  0.51100000000E-03 0.  1.
        -12    1    3    3    0    0 -0.29443735200E+02  0.99280711522E+01  0.22487340924E+02  0.38355972693E+02  0.00000000000E+00 0.  1.
</event>
<event>
 7    1  0.3743571E-015  0.9000770E+02  0.7816164E-02  0.1186339E+00
        -11   -1    0    0    0    0  0.00000000000E+00  0.00000000000E+00  0.45593999997E+02  0.45594000000E+02  0.51100000000E-03 0.  1.
         11   -1    0    0    0    0 -0.00000000000E+00 -0.00000000000E+00 -0.45593999997E+02  0.45594000000E+02  0.51100000000E-03 0. -1.
    9900012    2    1    2    0    0  0.10036027896E+01 -0.61170254265E+00 -0.10822331861E+00  0.90007698832E+02  0.89999959657E+02 0.  0.
        -12    1    1    2    0    0 -0.10036027896E+01  0.61170254265E+00  0.10822331861E+00  0.11803011678E+01  0.00000000000E+00 0.  1.
         11    1    3    3    0    0 -0.30060331066E+02 -0.16343541431E+02  0.26966502522E+02  0.43565205254E+02  0.51100000000E-03 0. -1.
        -11    1    3    3    0    0  0.24873870172E+01  0.46737720567E+00 -0.89887091280E+01  0.93382240107E+01  0.51100000000E-03 0.  1.
        -12    1    3    3    0    0  0.28576546838E+02  0.15264461682E+02 -0.18086016712E+02  0.37104269568E+02  0.00000000000E+00 0.  1.
</event>
<event>
 7    1  0.3743571E-015  0.9000763E+02  0.7816164E-02  0.1186339E+00
        -11   -1    0    0    0    0  0.00000000000E+00  0.00000000000E+00  0.45593999997E+02  0.45594000000E+02  0.51100000000E-03 0.  1.
         11   -1    0    0    0    0 -0.00000000000E+00 -0.00000000000E+00 -0.45593999997E+02  0.45594000000E+02  0.51100000000E-03 0. -1.
    9900012    2    1    2    0    0 -0.38047579499E+00  0.60745539305E+00 -0.93782531459E+00  0.90007627090E+02  0.89999886968E+02 0.  0.
        -12    1    1    2    0    0  0.38047579499E+00 -0.60745539305E+00  0.93782531459E+00  0.11803729096E+01  0.00000000000E+00 0.  1.
         11    1    3    3    0    0 -0.13691186281E+02  0.38600942410E+02 -0.78644656089E+00  0.40964616869E+02  0.51100000000E-03 0. -1.
        -11    1    3    3    0    0 -0.64459845446E+01 -0.28785766062E+01 -0.47222536145E+01  0.84933267621E+01  0.51100000000E-03 0.  1.
        -12    1    3    3    0    0  0.19756695030E+02 -0.35114910411E+02  0.45708748608E+01  0.40549683460E+02  0.00000000000E+00 0.  1.
</event>
<event>
 7    1  0.3743571E-015  0.9000772E+02  0.7816164E-02  0.1186339E+00
        -11   -1    0    0    0    0  0.00000000000E+00  0.00000000000E+00  0.45593999997E+02  0.45594000000E+02  0.51100000000E-03 0. -1.
         11   -1    0    0    0    0 -0.00000000000E+00 -0.00000000000E+00 -0.45593999997E+02  0.45594000000E+02  0.51100000000E-03 0.  1.
    9900012    2    1    2    0    0 -0.62590771866E+00  0.43815189686E+00  0.89961746776E+00  0.90007724970E+02  0.89999986140E+02 0.  0.
        -12    1    1    2    0    0  0.62590771866E+00 -0.43815189686E+00 -0.89961746776E+00  0.11802750295E+01  0.00000000000E+00 0.  1.
         11    1    3    3    0    0  0.49879383693E+01  0.92289523118E+01  0.35665974457E+00  0.10496680255E+02  0.51100000000E-03 0. -1.
        -11    1    3    3    0    0 -0.56405596537E+01 -0.29472872903E+02  0.30708889143E+02  0.42936022440E+02  0.51100000000E-03 0.  1.
         12    1    3    3    0    0  0.26713565771E-01  0.20682072488E+02 -0.30165931420E+02  0.36575022275E+02  0.00000000000E+00 0. -1.
</event>
<event>
 7    1  0.3743571E-015  0.9000771E+02  0.7816164E-02  0.1186339E+00
        -11   -1    0    0    0    0  0.00000000000E+00  0.00000000000E+00  0.45593999997E+02  0.45594000000E+02  0.51100000000E-03 0.  1.
         11   -1    0    0    0    0 -0.00000000000E+00 -0.00000000000E+00 -0.45593999997E+02  0.45594000000E+02  0.51100000000E-03 0. -1.
    9900012    2    1    2    0    0  0.11551320403E+01 -0.54692970875E-01  0.23612354085E+00  0.90007713730E+02  0.89999974752E+02 0.  0.
        -12    1    1    2    0    0 -0.11551320403E+01  0.54692970875E-01 -0.23612354085E+00  0.11802862695E+01  0.00000000000E+00 0.  1.
         11    1    3    3    0    0  0.15271864968E+01  0.76214322515E+01 -0.37236862349E+01  0.86188379493E+01  0.51100000000E-03 0. -1.
        -11    1    3    3    0    0  0.30248958784E+02  0.20524980170E+02 -0.92632927047E+01  0.37710514588E+02  0.51100000000E-03 0.  1.
         12    1    3    3    0    0 -0.30621013241E+02 -0.28201105393E+02  0.13223102481E+02  0.43678361193E+02  0.00000000000E+00 0. -1.
</event>
<event>
 7    1  0.3743571E-015  0.9000775E+02  0.7816164E-02  0.1186339E+00
        -11   -1    0    0    0    0  0.00000000000E+00  0.00000000000E+00  0.45593999997E+02  0.45594000000E+02  0.51100000000E-03 0.  1.
         11   -1    0    0    0    0 -0.00000000000E+00 -0.00000000000E+00 -0.45593999997E+02  0.45594000000E+02  0.51100000000E-03 0. -1.
    9900012    2    1    2    0    0  0.85682578449E+00  0.69306177894E+00 -0.42248758011E+00  0.90007753920E+02  0.90000015472E+02 0.  0.
        -12    1    1    2    0    0 -0.85682578449E+00 -0.69306177894E+00  0.42248758011E+00  0.11802460802E+01  0.00000000000E+00 0.  1.
         11    1    3    3    0    0 -0.23892109257E+02 -0.14804895217E+02 -0.12242014612E+02  0.30657539516E+02  0.51100000000E-03 0. -1.
        -11    1    3    3    0    0  0.18894104359E+02  0.31294433684E+02 -0.33122784307E+01  0.36705584695E+02  0.51100000000E-03 0.  1.
         12    1    3    3    0    0  0.58548306829E+01 -0.15796476689E+02  0.15131805463E+02  0.22644629709E+02  0.00000000000E+00 0. -1.
</event>
<event>
 7    1  0.3743571E-015  0.9000770E+02  0.7816164E-02  0.1186339E+00
        -11   -1    0    0    0    0  0.00000000000E+00  0.00000000000E+00  0.45593999997E+02  0.45594000000E+02  0.51100000000E-03 0. -1.
         11   -1    0    0    0    0 -0.00000000000E+00 -0.00000000000E+00 -0.45593999997E+02  0.45594000000E+02  0.51100000000E-03 0.  1.
    9900012    2    1    2    0    0 -0.11207703898E+01 -0.36994787393E+00 -0.11390795015E-01  0.90007696036E+02  0.89999956824E+02 0.  0.
        -12    1    1    2    0    0  0.11207703898E+01  0.36994787393E+00  0.11390795015E-01  0.11803039635E+01  0.00000000000E+00 0.  1.
         11    1    3    3    0    0  0.72656133433E+01  0.29635703792E+01  0.48530383964E+01  0.92262597289E+01  0.51100000000E-03 0. -1.
        -11    1    3    3    0    0 -0.73899342668E+01 -0.38487953533E+02 -0.18146557554E+02  0.43188323039E+02  0.51100000000E-03 0.  1.
         12    1    3    3    0    0 -0.99644946633E+00  0.35154435280E+02  0.13282128363E+02  0.37593113268E+02  0.00000000000E+00 0. -1.
</event>
<event>
 7    1  0.3743571E-015  0.9000762E+02  0.7816164E-02  0.1186339E+00
        -11   -1    0    0    0    0  0.00000000000E+00  0.00000000000E+00  0.45593999997E+02  0.45594000000E+02  0.51100000000E-03 0.  1.
         11   -1    0    0    0    0 -0.00000000000E+00 -0.00000000000E+00 -0.45593999997E+02  0.45594000000E+02  0.51100000000E-03 0. -1.
    9900012    2    1    2    0    0  0.87277285018E+00  0.59299742455E+00 -0.52907244299E+00  0.90007620382E+02  0.89999880171E+02 0.  0.
        -12    1    1    2    0    0 -0.87277285018E+00 -0.59299742455E+00  0.52907244299E+00  0.11803796184E+01  0.00000000000E+00 0.  1.
         11    1    3    3    0    0  0.23171837288E+02 -0.27900238375E+02  0.14587779333E+02  0.39091695420E+02  0.51100000000E-03 0. -1.
        -11    1    3    3    0    0  0.10599888226E+01  0.83348072885E+01  0.85821689698E+01  0.12010254507E+02  0.51100000000E-03 0.  1.
        -12    1    3    3    0    0 -0.23359053260E+02  0.20158428511E+02 -0.23699020745E+02  0.38905670455E+02  0.00000000000E+00 0.  1.
</event>
<event>
 7    1  0.3759595E-015  0.9000782E+02  0.7816164E-02  0.1186339E+00
        -11   -1    0    0    0    0  0.00000000000E+00  0.00000000000E+00  0.45593999997E+02  0.45594000000E+02  0.51100000000E-03 0.  1.
         11   -1    0    0    0    0 -0.00000000000E+00 -0.00000000000E+00 -0.45593999997E+02  0.45594000000E+02  0.51100000000E-03 0. -1.
    9900012    2    1    2    0    0 -0.61829363336E+00  0.58803359471E+00 -0.81532673681E+00  0.90007818568E+02  0.90000080973E+02 0.  0.
        -12    1    1    2    0    0  0.61829363336E+00 -0.58803359471E+00  0.81532673681E+00  0.11801814324E+01  0.00000000000E+00 0.  1.
         11    1    3    3    0    0 -0.97507483329E+01 -0.25237233500E+02 -0.26873147034E+02  0.38133464038E+02  0.51100000000E-03 0. -1.
        -11    1    3    3    0    0  0.56633855785E+01 -0.83078004342E+00 -0.71444845693E+01  0.91546595630E+01  0.51100000000E-03 0.  1.
        -12    1    3    3    0    0  0.34690691211E+01  0.26656047138E+02  0.33202304867E+02  0.42719694967E+02  0.00000000000E+00 0.  1.
</event>
<event>
 7    1  0.3743571E-015  0.9000773E+02  0.7816164E-02  0.1186339E+00
        -11   -1    0    0    0    0  0.00000000000E+00  0.00000000000E+00  0.45593999997E+02  0.45594000000E+02  0.51100000000E-03 0.  1.
         11   -1    0    0    0    0 -0.00000000000E+00 -0.00000000000E+00 -0.45593999997E+02  0.45594000000E+02  0.51100000000E-03 0. -1.
    9900012    2    1    2    0    0  0.10727290379E+00 -0.67654879168E+00 -0.96115338888E+00  0.90007728175E+02  0.89999989387E+02 0.  0.
        -12    1    1    2    0    0 -0.10727290379E+00  0.67654879168E+00  0.96115338888E+00  0.11802718248E+01  0.00000000000E+00 0.  1.
         11    1    3    3    0    0 -0.14642814284E+02 -0.31940590394E+02 -0.13724630324E+02  0.37722391264E+02  0.51100000000E-03 0. -1.
        -11    1    3    3    0    0 -0.51121905170E+01 -0.63582134946E+01  0.19015440654E+01  0.83771857338E+01  0.51100000000E-03 0.  1.
        -12    1    3    3    0    0  0.19862277705E+02  0.37622255097E+02  0.10861932870E+02  0.43908151178E+02  0.00000000000E+00 0.  1.
</event>
<event>
 7    1  0.3743571E-015  0.9000780E+02  0.7816164E-02  0.1186339E+00
        -11   -1    0    0    0    0  0.00000000000E+00  0.00000000000E+00  0.45593999997E+02  0.45594000000E+02  0.51100000000E-03 0.  1.
         11   -1    0    0    0    0 -0.00000000000E+00 -0.00000000000E+00 -0.45593999997E+02  0.45594000000E+02  0.51100000000E-03 0. -1.
    9900012    2    1    2    0    0  0.71478542408E+00  0.44021609697E+00 -0.82955971873E+00  0.90007797585E+02  0.90000059713E+02 0.  0.
        -12    1    1    2    0    0 -0.71478542408E+00 -0.44021609697E+00  0.82955971873E+00  0.11802024155E+01  0.00000000000E+00 0.  1.
         11    1    3    3    0    0  0.40483007660E+00 -0.41609044662E+01 -0.36156847554E+02  0.36397728482E+02  0.51100000000E-03 0. -1.
        -11    1    3    3    0    0  0.18413320735E+01  0.49044695729E+01 -0.83757564138E+01  0.98791508421E+01  0.51100000000E-03 0.  1.
        -12    1    3    3    0    0 -0.15313767260E+01 -0.30334900977E+00  0.43703044249E+02  0.43730918260E+02  0.00000000000E+00 0.  1.
</event>
<event>
 7    1  0.3743571E-015  0.9000766E+02  0.7816164E-02  0.1186339E+00
        -11   -1    0    0    0    0  0.00000000000E+00  0.00000000000E+00  0.45593999997E+02  0.45594000000E+02  0.51100000000E-03 0.  1.
         11   -1    0    0    0    0 -0.00000000000E+00 -0.00000000000E+00 -0.45593999997E+02  0.45594000000E+02  0.51100000000E-03 0. -1.
    9900012    2    1    2    0    0  0.31825587458E-01 -0.11795604895E+01 -0.28827227536E-01  0.90007658174E+02  0.89999918462E+02 0.  0.
        -12    1    1    2    0    0 -0.31825587458E-01  0.11795604895E+01  0.28827227536E-01  0.11803418257E+01  0.00000000000E+00 0.  1.
         11    1    3    3    0    0  0.20062077951E+02  0.33892036215E+01 -0.36577879084E+02  0.41855882639E+02  0.51100000000E-03 0. -1.
        -11    1    3    3    0    0 -0.73636913743E+01 -0.54800215755E+01 -0.29170783367E+00  0.91836638029E+01  0.51100000000E-03 0.  1.
        -12    1    3    3    0    0 -0.12666560989E+02  0.91125746449E+00  0.36840759690E+02  0.38968111733E+02  0.00000000000E+00 0.  1.
</event>
<event>
 7    1  0.3743571E-015  0.9000766E+02  0.7816164E-02  0.1186339E+00
        -11   -1    0    0    0    0  0.00000000000E+00  0.00000000000E+00  0.45593999997E+02  0.45594000000E+02  0.51100000000E-03 0.  1.
         11   -1    0    0    0    0 -0.00000000000E+00 -0.00000000000E+00 -0.45593999997E+02  0.45594000000E+02  0.51100000000E-03 0. -1.
    9900012    2    1    2    0    0  0.10246211559E+00  0.10128738953E+01 -0.59731266721E+00  0.90007663423E+02  0.89999923780E+02 0.  0.
        -12    1    1    2    0    0 -0.10246211559E+00 -0.10128738953E+01  0.59731266721E+00  0.11803365771E+01  0.00000000000E+00 0.  1.
         11    1    3    3    0    0 -0.91923233217E+01 -0.57509882872E+00 -0.28216662046E+01  0.96328265397E+01  0.51100000000E-03 0. -1.
        -11    1    3    3    0    0 -0.32033219355E+02 -0.76638661260E+01  0.14924302516E+02  0.36160707848E+02  0.51100000000E-03 0.  1.
         12    1    3    3    0    0  0.41328004792E+02  0.92518388500E+01 -0.12699948979E+02  0.44214129035E+02  0.00000000000E+00 0. -1.
</event>
<event>
 7    1  0.3743571E-015  0.9000768E+02  0.7816164E-02  0.1186339E+00
        -11   -1    0    0    0    0  0.00000000000E+00  0.00000000000E+00  0.45593999997E+02  0.45594000000E+02  0.51100000000E-03 0.  1.
         11   -1    0    0    0    0 -0.00000000000E+00 -0.00000000000E+00 -0.45593999997E+02  0.45594000000E+02  0.51100000000E-03 0. -1.
    9900012    2    1    2    0    0  0.96634880432E+00  0.57999919013E+00 -0.35062279468E+00  0.90007675716E+02  0.89999936235E+02 0.  0.
        -12    1    1    2    0    0 -0.96634880432E+00 -0.57999919013E+00  0.35062279468E+00  0.11803242844E+01  0.00000000000E+00 0.  1.
         11    1    3    3    0    0  0.93026564659E+00  0.47989684374E+01  0.68685188988E+01  0.84304237355E+01  0.51100000000E-03 0. -1.
        -11    1    3    3    0    0 -0.40116478010E+02  0.24395092409E+01 -0.74523989873E+01  0.40875680596E+02  0.51100000000E-03 0.  1.
         12    1    3    3    0    0  0.40152561168E+02 -0.66584784881E+01  0.23325729382E+00  0.40701571384E+02  0.00000000000E+00 0. -1.
</event>
<event>
 7    1  0.4333369E-015  0.9000777E+02  0.7816164E-02  0.1186339E+00
        -11   -1    0    0    0    0  0.00000000000E+00  0.00000000000E+00  0.45593999997E+02  0.45594000000E+02  0.51100000000E-03 0.  1.
         11   -1    0    0    0    0 -0.00000000000E+00 -0.00000000000E+00 -0.45593999997E+02  0.45594000000E+02  0.51100000000E-03 0. -1.
    9900012    2    1    2    0    0 -0.24234395290E+00 -0.78379036313E+00  0.84846494571E+00  0.90007766680E+02  0.90000028400E+02 0.  0.
        -12    1    1    2    0    0  0.24234395290E+00  0.78379036313E+00 -0.84846494571E+00  0.11802333197E+01  0.00000000000E+00 0.  1.
         11    1    3    3    0    0 -0.43567133475E+01 -0.83487377832E+01 -0.28191494957E+01  0.98300548272E+01  0.51100000000E-03 0. -1.
        -11    1    3    3    0    0  0.14340377246E+02 -0.66482724355E+01 -0.34630215502E+02  0.38067016851E+02  0.51100000000E-03 0.  1.
         12    1    3    3    0    0 -0.10226007852E+02  0.14213219856E+02  0.38297829943E+02  0.42110695003E+02  0.00000000000E+00 0. -1.
</event>
<event>
 7    1  0.3743571E-015  0.9000773E+02  0.7816164E-02  0.1186339E+00
        -11   -1    0    0    0    0  0.00000000000E+00  0.00000000000E+00  0.45593999997E+02  0.45594000000E+02  0.51100000000E-03 0.  1.
         11   -1    0    0    0    0 -0.00000000000E+00 -0.00000000000E+00 -0.45593999997E+02  0.45594000000E+02  0.51100000000E-03 0. -1.
    9900012    2    1    2    0    0 -0.38417313385E+00 -0.11099448165E+01  0.11601830271E+00  0.90007734462E+02  0.89999995757E+02 0.  0.
        -12    1    1    2    0    0  0.38417313385E+00  0.11099448165E+01 -0.11601830271E+00  0.11802655375E+01  0.00000000000E+00 0.  1.
         11    1    3    3    0    0  0.28211602924E+02  0.81071211138E+01 -0.23564766595E+02  0.37641973610E+02  0.51100000000E-03 0. -1.
        -11    1    3    3    0    0 -0.21987199172E+01 -0.26707147834E+01 -0.91214257724E+01  0.97553828788E+01  0.51100000000E-03 0.  1.
        -12    1    3    3    0    0 -0.26397056141E+02 -0.65463511470E+01  0.32802210670E+02  0.42610377974E+02  0.00000000000E+00 0.  1.
</event>
<event>
 7    1  0.3743571E-015  0.9000775E+02  0.7816164E-02  0.1186339E+00
        -11   -1    0    0    0    0  0.00000000000E+00  0.00000000000E+00  0.45593999997E+02  0.45594000000E+02  0.51100000000E-03 0.  1.
         11   -1    0    0    0    0 -0.00000000000E+00 -0.00000000000E+00 -0.45593999997E+02  0.45594000000E+02  0.51100000000E-03 0. -1.
    9900012    2    1    2    0    0  0.65941607905E-01  0.32341083462E+00 -0.11331545973E+01  0.90007753329E+02  0.90000014873E+02 0.  0.
        -12    1    1    2    0    0 -0.65941607905E-01 -0.32341083462E+00  0.11331545973E+01  0.11802466713E+01  0.00000000000E+00 0.  1.
         11    1    3    3    0    0 -0.37997828651E+01  0.26245371123E+02 -0.30440409471E+02  0.40371727536E+02  0.51100000000E-03 0. -1.
        -11    1    3    3    0    0 -0.30253216015E+01 -0.65486042466E+01 -0.55935656258E+01  0.91282399750E+01  0.51100000000E-03 0.  1.
        -12    1    3    3    0    0  0.68910460745E+01 -0.19373356042E+02  0.34900820499E+02  0.40507785818E+02  0.00000000000E+00 0.  1.
</event>
<event>
 7    1  0.3743571E-015  0.9000771E+02  0.7816164E-02  0.1186339E+00
        -11   -1    0    0    0    0  0.00000000000E+00  0.00000000000E+00  0.45593999997E+02  0.45594000000E+02  0.51100000000E-03 0.  1.
         11   -1    0    0    0    0 -0.00000000000E+00 -0.00000000000E+00 -0.45593999997E+02  0.45594000000E+02  0.51100000000E-03 0. -1.
    9900012    2    1    2    0    0  0.11346390472E+01  0.54881585241E-01  0.32041122256E+00  0.90007711430E+02  0.89999972421E+02 0.  0.
        -12    1    1    2    0    0 -0.11346390472E+01 -0.54881585241E-01 -0.32041122256E+00  0.11802885695E+01  0.00000000000E+00 0.  1.
         11    1    3    3    0    0  0.46142389171E+01  0.10609637003E+01  0.95060327251E+01  0.10619863614E+02  0.51100000000E-03 0. -1.
        -11    1    3    3    0    0 -0.20432185994E+02  0.14703625103E+02  0.26705021391E+02  0.36699168702E+02  0.51100000000E-03 0.  1.
         12    1    3    3    0    0  0.16952586125E+02 -0.15709707219E+02 -0.35890642893E+02  0.42688679114E+02  0.00000000000E+00 0. -1.
</event>
<event>
 7    1  0.6651596E-015  0.9000772E+02  0.7816164E-02  0.1186339E+00
        -11   -1    0    0    0    0  0.00000000000E+00  0.00000000000E+00  0.45593999997E+02  0.45594000000E+02  0.51100000000E-03 0. -1.
         11   -1    0    0    0    0 -0.00000000000E+00 -0.00000000000E+00 -0.45593999997E+02  0.45594000000E+02  0.51100000000E-03 0.  1.
    9900012    2    1    2    0    0 -0.66389097766E+00 -0.32311561653E+00  0.92082359759E+00  0.90007715700E+02  0.89999976747E+02 0.  0.
        -12    1    1    2    0    0  0.66389097766E+00  0.32311561653E+00 -0.92082359759E+00  0.11802843004E+01  0.00000000000E+00 0.  1.
         11    1    3    3    0    0  0.27129473784E+02  0.12011248066E+01  0.23850449488E+02  0.36142703131E+02  0.51100000000E-03 0. -1.
        -11    1    3    3    0    0  0.28140995660E+01 -0.24373913124E+01  0.89305085690E+01  0.96754336512E+01  0.51100000000E-03 0.  1.
        -12    1    3    3    0    0 -0.30607464328E+02  0.91315088929E+00 -0.31860134459E+02  0.44189578917E+02  0.00000000000E+00 0.  1.
</event>
<event>
 7    1  0.3743571E-015  0.9000777E+02  0.7816164E-02  0.1186339E+00
        -11   -1    0    0    0    0  0.00000000000E+00  0.00000000000E+00  0.45593999997E+02  0.45594000000E+02  0.51100000000E-03 0. -1.
         11   -1    0    0    0    0 -0.00000000000E+00 -0.00000000000E+00 -0.45593999997E+02  0.45594000000E+02  0.51100000000E-03 0.  1.
    9900012    2    1    2    0    0  0.65393029112E+00  0.85451014432E+00 -0.48490798350E+00  0.90007767750E+02  0.90000029484E+02 0.  0.
        -12    1    1    2    0    0 -0.65393029112E+00 -0.85451014432E+00  0.48490798350E+00  0.11802322504E+01  0.00000000000E+00 0.  1.
         11    1    3    3    0    0 -0.74684714110E+01 -0.54686518464E+01 -0.43807025924E+01  0.10240838525E+02  0.51100000000E-03 0. -1.
        -11    1    3    3    0    0  0.33963094868E+02 -0.14497947392E+02 -0.16892235468E+02  0.40608249297E+02  0.51100000000E-03 0.  1.
         12    1    3    3    0    0 -0.25840693165E+02  0.20821109383E+02  0.20788030077E+02  0.39158679928E+02  0.00000000000E+00 0. -1.
</event>
<event>
 7    1  0.3743571E-015  0.9000770E+02  0.7816164E-02  0.1186339E+00
        -11   -1    0    0    0    0  0.00000000000E+00  0.00000000000E+00  0.45593999997E+02  0.45594000000E+02  0.51100000000E-03 0.  1.
         11   -1    0    0    0    0 -0.00000000000E+00 -0.00000000000E+00 -0.45593999997E+02  0.45594000000E+02  0.51100000000E-03 0. -1.
    9900012    2    1    2    0    0  0.70376007462E+00  0.33969376034E+00 -0.88455674836E+00  0.90007698880E+02  0.89999959705E+02 0.  0.
        -12    1    1    2    0    0 -0.70376007462E+00 -0.33969376034E+00  0.88455674836E+00  0.11803011203E+01  0.00000000000E+00 0.  1.
         11    1    3    3    0    0 -0.33013874892E+02 -0.16372335829E+02 -0.49120530477E+00  0.36853908867E+02  0.51100000000E-03 0. -1.
        -11    1    3    3    0    0 -0.51349564964E+01 -0.36930589190E+01  0.61044401451E+01  0.87903726966E+01  0.51100000000E-03 0.  1.
        -12    1    3    3    0    0  0.38852591463E+02  0.20405088508E+02 -0.64977915887E+01  0.44363417316E+02  0.00000000000E+00 0.  1.
</event>
<event>
 7    1  0.3743571E-015  0.9000775E+02  0.7816164E-02  0.1186339E+00
        -11   -1    0    0    0    0  0.00000000000E+00  0.00000000000E+00  0.45593999997E+02  0.45594000000E+02  0.51100000000E-03 0. -1.
         11   -1    0    0    0    0 -0.00000000000E+00 -0.00000000000E+00 -0.45593999997E+02  0.45594000000E+02  0.51100000000E-03 0.  1.
    9900012    2    1    2    0    0 -0.59042899369E+00 -0.29384189948E+00  0.97879844938E+00  0.90007747543E+02  0.90000009010E+02 0.  0.
        -12    1    1    2    0    0  0.59042899369E+00  0.29384189948E+00 -0.97879844938E+00  0.11802524573E+01  0.00000000000E+00 0.  1.
         11    1    3    3    0    0  0.50303192624E+00  0.67554458385E+01 -0.64459394924E+01  0.93508943848E+01  0.51100000000E-03 0. -1.
        -11    1    3    3    0    0 -0.33836963558E+02 -0.14541929040E+02 -0.15533041361E+02  0.39971029224E+02  0.51100000000E-03 0.  1.
         12    1    3    3    0    0  0.32743502638E+02  0.74926413016E+01  0.22957779303E+02  0.40685823934E+02  0.00000000000E+00 0. -1.
</event>
<event>
 7    1  0.3743571E-015  0.9000783E+02  0.7816164E-02  0.1186339E+00
        -11   -1    0    0    0    0  0.00000000000E+00  0.00000000000E+00  0.45593999997E+02  0.45594000000E+02  0.51100000000E-03 0. -1.
         11   -1    0    0    0    0 -0.00000000000E+00 -0.00000000000E+00 -0.45593999997E+02  0.45594000000E+02  0.51100000000E-03 0.  1.
    9900012    2    1    2    0    0 -0.37744252300E+00  0.10143925464E+01 -0.47046504530E+00  0.90007833717E+02  0.90000096322E+02 0.  0.
        -12    1    1    2    0    0  0.37744252300E+00 -0.10143925464E+01  0.47046504530E+00  0.11801662829E+01  0.00000000000E+00 0.  1.
         11    1    3    3    0    0 -0.13391169645E+00 -0.42530561471E+02 -0.45231103567E+01  0.42770610458E+02  0.51100000000E-03 0. -1.
        -11    1    3    3    0    0  0.65225443786E+01  0.68298345071E+01 -0.12600568782E+01  0.95277472763E+01  0.51100000000E-03 0.  1.
        -12    1    3    3    0    0 -0.67660752051E+01  0.36715119510E+02  0.53127021896E+01  0.37709475983E+02  0.00000000000E+00 0.  1.
</event>
<event>
 7    1  0.3743571E-015  0.9000763E+02  0.7816164E-02  0.1186339E+00
        -11   -1    0    0    0    0  0.00000000000E+00  0.00000000000E+00  0.45593999997E+02  0.45594000000E+02  0.51100000000E-03 0.  1.
         11   -1    0    0    0    0 -0.00000000000E+00 -0.00000000000E+00 -0.45593999997E+02  0.45594000000E+02  0.51100000000E-03 0. -1.
    9900012    2    1    2    0    0 -0.51669393598E+00  0.64470067622E+00  0.84300805477E+00  0.90007629649E+02  0.89999889560E+02 0.  0.
        -12    1    1    2    0    0  0.51669393598E+00 -0.64470067622E+00 -0.84300805477E+00  0.11803703511E+01  0.00000000000E+00 0.  1.
         11    1    3    3    0    0 -0.80232321200E+00 -0.66058259334E+01 -0.37408819508E+02  0.37996058165E+02  0.51100000000E-03 0. -1.
        -11    1    3    3    0    0 -0.13712421168E+02 -0.13429097219E+01  0.45324382651E+01  0.14504375123E+02  0.51100000000E-03 0.  1.
        -12    1    3    3    0    0  0.13998050444E+02  0.85934363315E+01  0.33719389298E+02  0.37507196361E+02  0.00000000000E+00 0.  1.
</event>
<event>
 7    1  0.3743571E-015  0.9000784E+02  0.7816164E-02  0.1186339E+00
        -11   -1    0    0    0    0  0.00000000000E+00  0.00000000000E+00  0.45593999997E+02  0.45594000000E+02  0.51100000000E-03 0.  1.
         11   -1    0    0    0    0 -0.00000000000E+00 -0.00000000000E+00 -0.45593999997E+02  0.45594000000E+02  0.51100000000E-03 0. -1.
    9900012    2    1    2    0    0 -0.61324449253E+00 -0.70116836293E+00 -0.72461284251E+00  0.90007843378E+02  0.90000106111E+02 0.  0.
        -12    1    1    2    0    0  0.61324449253E+00  0.70116836293E+00  0.72461284251E+00  0.11801566219E+01  0.00000000000E+00 0.  1.
         11    1    3    3    0    0 -0.25766594560E+02 -0.13928040092E+02 -0.24440213966E+02  0.38147499983E+02  0.51100000000E-03 0. -1.
        -11    1    3    3    0    0 -0.31037365257E+01  0.20560618369E+01 -0.74534315375E+01  0.83315192278E+01  0.51100000000E-03 0.  1.
        -12    1    3    3    0    0  0.28257086593E+02  0.11170809892E+02  0.31169032661E+02  0.43528824167E+02  0.00000000000E+00 0.  1.
</event>
<event>
 7    1  0.3743571E-015  0.9000779E+02  0.7816164E-02  0.1186339E+00
        -11   -1    0    0    0    0  0.00000000000E+00  0.00000000000E+00  0.45593999997E+02  0.45594000000E+02  0.51100000000E-03 0. -1.
         11   -1    0    0    0    0 -0.00000000000E+00 -0.00000000000E+00 -0.45593999997E+02  0.45594000000E+02  0.51100000000E-03 0.  1.
    9900012    2    1    2    0    0 -0.32108333470E+00  0.12954990688E+00  0.11282774571E+01  0.90007793363E+02  0.90000055435E+02 0.  0.
        -12    1    1    2    0    0  0.32108333470E+00 -0.12954990688E+00 -0.11282774571E+01  0.11802066372E+01  0.00000000000E+00 0.  1.
         11    1    3    3    0    0 -0.33622242922E+02 -0.18371240050E+02  0.58545278918E+01  0.38758652933E+02  0.51100000000E-03 0. -1.
        -11    1    3    3    0    0  0.72340965112E+01 -0.72297656601E+01  0.74475665504E+01  0.12651794798E+02  0.51100000000E-03 0.  1.
        -12    1    3    3    0    0  0.26067063076E+02  0.25730555617E+02 -0.12173816985E+02  0.38597345631E+02  0.00000000000E+00 0.  1.
</event>
<event>
 7    1  0.3743571E-015  0.9000779E+02  0.7816164E-02  0.1186339E+00
        -11   -1    0    0    0    0  0.00000000000E+00  0.00000000000E+00  0.45593999997E+02  0.45594000000E+02  0.51100000000E-03 0.  1.
         11   -1    0    0    0    0 -0.00000000000E+00 -0.00000000000E+00 -0.45593999997E+02  0.45594000000E+02  0.51100000000E-03 0. -1.
    9900012    2    1    2    0    0 -0.10239677391E+01 -0.51909573578E+00  0.27373733084E+00  0.90007787121E+02  0.90000049111E+02 0.  0.
        -12    1    1    2    0    0  0.10239677391E+01  0.51909573578E+00 -0.27373733084E+00  0.11802128790E+01  0.00000000000E+00 0.  1.
         11    1    3    3    0    0 -0.59962152982E+01  0.89522480012E+01 -0.19082476619E+01  0.10942520349E+02  0.51100000000E-03 0. -1.
        -11    1    3    3    0    0  0.26665410492E+02  0.18283806422E+02  0.21559232530E+02  0.38860548137E+02  0.51100000000E-03 0.  1.
         12    1    3    3    0    0 -0.21693162933E+02 -0.27755150159E+02 -0.19377247537E+02  0.40204718635E+02  0.00000000000E+00 0. -1.
</event>
<event>
 7    1  0.3743571E-015  0.9000785E+02  0.7816164E-02  0.1186339E+00
        -11   -1    0    0    0    0  0.00000000000E+00  0.00000000000E+00  0.45593999997E+02  0.45594000000E+02  0.51100000000E-03 0.  1.
         11   -1    0    0    0    0 -0.00000000000E+00 -0.00000000000E+00 -0.45593999997E+02  0.45594000000E+02  0.51100000000E-03 0. -1.
    9900012    2    1    2    0    0 -0.37308943543E+00 -0.33769930933E+00 -0.10674867280E+01  0.90007845576E+02  0.90000108337E+02 0.  0.
        -12    1    1    2    0    0  0.37308943543E+00  0.33769930933E+00  0.10674867280E+01  0.11801544241E+01  0.00000000000E+00 0.  1.
         11    1    3    3    0    0  0.65106996088E+01  0.14612093690E+02 -0.23816931120E+02  0.28690568130E+02  0.51100000000E-03 0. -1.
        -11    1    3    3    0    0  0.23836840020E+02 -0.42791059726E+01  0.12274420371E+02  0.27150821089E+02  0.51100000000E-03 0.  1.
        -12    1    3    3    0    0 -0.30720629065E+02 -0.10670687027E+02  0.10475024021E+02  0.34166456357E+02  0.00000000000E+00 0.  1.
</event>
<event>
 7    1  0.3743571E-015  0.9000768E+02  0.7816164E-02  0.1186339E+00
        -11   -1    0    0    0    0  0.00000000000E+00  0.00000000000E+00  0.45593999997E+02  0.45594000000E+02  0.51100000000E-03 0.  1.
         11   -1    0    0    0    0 -0.00000000000E+00 -0.00000000000E+00 -0.45593999997E+02  0.45594000000E+02  0.51100000000E-03 0. -1.
    9900012    2    1    2    0    0  0.29142598144E+00  0.10555371471E+01 -0.44053476038E+00  0.90007678583E+02  0.89999939141E+02 0.  0.
        -12    1    1    2    0    0 -0.29142598144E+00 -0.10555371471E+01  0.44053476038E+00  0.11803214167E+01  0.00000000000E+00 0.  1.
         11    1    3    3    0    0  0.32638666890E+01  0.37528454897E+02 -0.42196956403E+01  0.37905719677E+02  0.51100000000E-03 0. -1.
        -11    1    3    3    0    0 -0.91395288293E+00  0.13505632807E+01  0.13011780306E+02  0.13113571521E+02  0.51100000000E-03 0.  1.
        -12    1    3    3    0    0 -0.20584878247E+01 -0.37823481031E+02 -0.92326194261E+01  0.38988387385E+02  0.00000000000E+00 0.  1.
</event>
<event>
 7    1  0.3743571E-015  0.9000771E+02  0.7816164E-02  0.1186339E+00
        -11   -1    0    0    0    0  0.00000000000E+00  0.00000000000E+00  0.45593999997E+02  0.45594000000E+02  0.51100000000E-03 0. -1.
         11   -1    0    0    0    0 -0.00000000000E+00 -0.00000000000E+00 -0.45593999997E+02  0.45594000000E+02  0.51100000000E-03 0.  1.
    9900012    2    1    2    0    0 -0.20627771894E+00 -0.22802783902E+00  0.11395336830E+01  0.90007710117E+02  0.89999971091E+02 0.  0.
        -12    1    1    2    0    0  0.20627771894E+00  0.22802783902E+00 -0.11395336830E+01  0.11802898828E+01  0.00000000000E+00 0.  1.
         11    1    3    3    0    0  0.51331501890E+00  0.99944054247E+00 -0.87710844642E+01  0.88427539062E+01  0.51100000000E-03 0. -1.
        -11    1    3    3    0    0  0.55101052635E+01  0.38597191553E+02 -0.22736473776E+01  0.39054755517E+02  0.51100000000E-03 0.  1.
         12    1    3    3    0    0 -0.62296980014E+01 -0.39824659935E+02  0.12184265525E+02  0.42110200694E+02  0.00000000000E+00 0. -1.
</event>
<event>
 7    1  0.3743571E-015  0.9000774E+02  0.7816164E-02  0.1186339E+00
        -11   -1    0    0    0    0  0.00000000000E+00  0.00000000000E+00  0.45593999997E+02  0.45594000000E+02  0.51100000000E-03 0.  1.
         11   -1    0    0    0    0 -0.00000000000E+00 -0.00000000000E+00 -0.45593999997E+02  0.45594000000E+02  0.51100000000E-03 0. -1.
    9900012    2    1    2    0    0  0.32664653308E+00  0.61127780247E+00 -0.95532902426E+00  0.90007740684E+02  0.90000002061E+02 0.  0.
        -12    1    1    2    0    0 -0.32664653308E+00 -0.61127780247E+00  0.95532902426E+00  0.11802593164E+01  0.00000000000E+00 0.  1.
         11    1    3    3    0    0  0.32317272754E+02 -0.16628437643E+02 -0.97038254992E+01  0.37617486443E+02  0.51100000000E-03 0. -1.
        -11    1    3    3    0    0  0.54395098649E+01  0.38979992565E+01 -0.69654321350E+01  0.96591878988E+01  0.51100000000E-03 0.  1.
        -12    1    3    3    0    0 -0.37430136086E+02  0.13341716189E+02  0.15713928610E+02  0.42731066341E+02  0.00000000000E+00 0.  1.
</event>
<event>
 7    1  0.3743571E-015  0.9000769E+02  0.7816164E-02  0.1186339E+00
        -11   -1    0    0    0    0  0.00000000000E+00  0.00000000000E+00  0.45593999997E+02  0.45594000000E+02  0.51100000000E-03 0. -1.
         11   -1    0    0    0    0 -0.00000000000E+00 -0.00000000000E+00 -0.45593999997E+02  0.45594000000E+02  0.51100000000E-03 0.  1.
    9900012    2    1    2    0    0 -0.20962318162E+00 -0.10170360424E+01  0.56110238109E+00  0.90007686452E+02  0.89999947113E+02 0.  0.
        -12    1    1    2    0    0  0.20962318162E+00  0.10170360424E+01 -0.56110238109E+00  0.11803135481E+01  0.00000000000E+00 0.  1.
         11    1    3    3    0    0  0.27940625666E+02 -0.19439130329E+02  0.16497571966E+02  0.37824968363E+02  0.51100000000E-03 0. -1.
        -11    1    3    3    0    0  0.61696690473E+01  0.10006943485E+02  0.29432223895E+01  0.12118840388E+02  0.51100000000E-03 0.  1.
        -12    1    3    3    0    0 -0.34319917895E+02  0.84151508022E+01 -0.18879691975E+02  0.40063877701E+02  0.00000000000E+00 0.  1.
</event>
<event>
 7    1  0.3743571E-015  0.9000756E+02  0.7816164E-02  0.1186339E+00
        -11   -1    0    0    0    0  0.00000000000E+00  0.00000000000E+00  0.45593999997E+02  0.45594000000E+02  0.51100000000E-03 0.  1.
         11   -1    0    0    0    0 -0.00000000000E+00 -0.00000000000E+00 -0.45593999997E+02  0.45594000000E+02  0.51100000000E-03 0. -1.
    9900012    2    1    2    0    0  0.11489333367E+01 -0.18188683915E+00  0.20079579040E+00  0.90007555345E+02  0.89999814275E+02 0.  0.
        -12    1    1    2    0    0 -0.11489333367E+01  0.18188683915E+00 -0.20079579040E+00  0.11804446551E+01  0.00000000000E+00 0.  1.
         11    1    3    3    0    0  0.80964005119E+01 -0.73598091536E+01 -0.12270127312E+01  0.11010179496E+02  0.51100000000E-03 0. -1.
        -11    1    3    3    0    0  0.67945778334E+01  0.40715016612E+02 -0.67932622711E+01  0.41833327362E+02  0.51100000000E-03 0.  1.
         12    1    3    3    0    0 -0.13742045009E+02 -0.33537094298E+02  0.82210707927E+01  0.37164048487E+02  0.00000000000E+00 0. -1.
</event>
<event>
 7    1  0.3743571E-015  0.9000779E+02  0.7816164E-02  0.1186339E+00
        -11   -1    0    0    0    0  0.00000000000E+00  0.00000000000E+00  0.45593999997E+02  0.45594000000E+02  0.51100000000E-03 0. -1.
         11   -1    0    0    0    0 -0.00000000000E+00 -0.00000000000E+00 -0.45593999997E+02  0.45594000000E+02  0.51100000000E-03 0.  1.
    9900012    2    1    2    0    0 -0.90853639993E+00 -0.74686536474E+00  0.98224058635E-01  0.90007790600E+02  0.90000052636E+02 0.  0.
        -12    1    1    2    0    0  0.90853639993E+00  0.74686536474E+00 -0.98224058635E-01  0.11802094004E+01  0.00000000000E+00 0.  1.
         11    1    3    3    0    0  0.17059231280E+02  0.35916852520E+02  0.26763452543E+01  0.39852233200E+02  0.51100000000E-03 0. -1.
        -11    1    3    3    0    0 -0.16874497341E+02 -0.63623514766E+01  0.53578089409E+01  0.18813141517E+02  0.51100000000E-03 0.  1.
        -12    1    3    3    0    0 -0.10932703386E+01 -0.30301366408E+02 -0.79359301365E+01  0.31342415883E+02  0.00000000000E+00 0.  1.
</event>
<event>
 7    1  0.3743571E-015  0.9000849E+02  0.7816164E-02  0.1186338E+00
        -11   -1    0    0    0    0  0.00000000000E+00  0.00000000000E+00  0.45593999997E+02  0.45594000000E+02  0.51100000000E-03 0.  1.
         11   -1    0    0    0    0 -0.00000000000E+00 -0.00000000000E+00 -0.45593999997E+02  0.45594000000E+02  0.51100000000E-03 0. -1.
    9900012    2    1    2    0    0  0.50841560778E+00 -0.91122540938E+00 -0.54992931672E+00  0.90008491445E+02  0.90000762729E+02 0.  0.
        -12    1    1    2    0    0 -0.50841560778E+00  0.91122540938E+00  0.54992931672E+00  0.11795085546E+01  0.00000000000E+00 0.  1.
         11    1    3    3    0    0 -0.76491827004E+01  0.46643823600E+01 -0.35805236289E+02  0.36909096504E+02  0.51100000000E-03 0. -1.
        -11    1    3    3    0    0 -0.12464143121E+02 -0.54780440728E+01  0.17092800833E+01  0.13721715245E+02  0.51100000000E-03 0.  1.
        -12    1    3    3    0    0  0.20621741429E+02 -0.97563696607E-01  0.33546026889E+02  0.39377679696E+02  0.00000000000E+00 0.  1.
</event>
<event>
 7    1  0.3743571E-015  0.9000776E+02  0.7816164E-02  0.1186339E+00
        -11   -1    0    0    0    0  0.00000000000E+00  0.00000000000E+00  0.45593999997E+02  0.45594000000E+02  0.51100000000E-03 0.  1.
         11   -1    0    0    0    0 -0.00000000000E+00 -0.00000000000E+00 -0.45593999997E+02  0.45594000000E+02  0.51100000000E-03 0. -1.
    9900012    2    1    2    0    0 -0.57415183093E+00  0.50708205050E+00 -0.89787510036E+00  0.90007761792E+02  0.90000023448E+02 0.  0.
        -12    1    1    2    0    0  0.57415183093E+00 -0.50708205050E+00  0.89787510036E+00  0.11802382076E+01  0.00000000000E+00 0.  1.
         11    1    3    3    0    0  0.31782723214E+02  0.13986879352E+02  0.91815483090E+01  0.35917615713E+02  0.51100000000E-03 0. -1.
        -11    1    3    3    0    0  0.82525433276E+01  0.15732234951E+01  0.28834938483E+01  0.88822317339E+01  0.51100000000E-03 0.  1.
        -12    1    3    3    0    0 -0.40609418373E+02 -0.15053020796E+02 -0.12962917258E+02  0.45207914346E+02  0.00000000000E+00 0.  1.
</event>
<event>
 7    1  0.3743571E-015  0.9000775E+02  0.7816164E-02  0.1186339E+00
        -11   -1    0    0    0    0  0.00000000000E+00  0.00000000000E+00  0.45593999997E+02  0.45594000000E+02  0.51100000000E-03 0. -1.
         11   -1    0    0    0    0 -0.00000000000E+00 -0.00000000000E+00 -0.45593999997E+02  0.45594000000E+02  0.51100000000E-03 0.  1.
    9900012    2    1    2    0    0  0.60943663710E+00  0.58689004207E+00  0.82288549401E+00  0.90007748555E+02  0.90000010036E+02 0.  0.
        -12    1    1    2    0    0 -0.60943663710E+00 -0.58689004207E+00 -0.82288549401E+00  0.11802514446E+01  0.00000000000E+00 0.  1.
         11    1    3    3    0    0  0.11399321190E+01 -0.56527959682E+01 -0.88482878577E+01  0.10561521944E+02  0.51100000000E-03 0. -1.
        -11    1    3    3    0    0  0.60693863160E+01  0.13541569195E+02 -0.32719769231E+02  0.35927633450E+02  0.51100000000E-03 0.  1.
         12    1    3    3    0    0 -0.65998817979E+01 -0.73018831848E+01  0.42390942582E+02  0.43518593162E+02  0.00000000000E+00 0. -1.
</event>
<event>
 7    1  0.3743571E-015  0.9000772E+02  0.7816164E-02  0.1186339E+00
        -11   -1    0    0    0    0  0.00000000000E+00  0.00000000000E+00  0.45593999997E+02  0.45594000000E+02  0.51100000000E-03 0.  1.
         11   -1    0    0    0    0 -0.00000000000E+00 -0.00000000000E+00 -0.45593999997E+02  0.45594000000E+02  0.51100000000E-03 0. -1.
    9900012    2    1    2    0    0 -0.32316266889E+00  0.28578813557E+00 -0.10986132638E+01  0.90007720341E+02  0.89999981450E+02 0.  0.
        -12    1    1    2    0    0  0.32316266889E+00 -0.28578813557E+00  0.10986132638E+01  0.11802796586E+01  0.00000000000E+00 0.  1.
         11    1    3    3    0    0 -0.56895728034E+01  0.28819928848E+02 -0.22469313317E+02  0.36984180114E+02  0.51100000000E-03 0. -1.
        -11    1    3    3    0    0  0.34408762902E+01  0.13518131670E+01 -0.93904120602E+01  0.10091920898E+02  0.51100000000E-03 0.  1.
        -12    1    3    3    0    0  0.19255338443E+01 -0.29885953880E+02  0.30761112113E+02  0.42931619330E+02  0.00000000000E+00 0.  1.
</event>
<event>
 7    1  0.3743571E-015  0.9000771E+02  0.7816164E-02  0.1186339E+00
        -11   -1    0    0    0    0  0.00000000000E+00  0.00000000000E+00  0.45593999997E+02  0.45594000000E+02  0.51100000000E-03 0.  1.
         11   -1    0    0    0    0 -0.00000000000E+00 -0.00000000000E+00 -0.45593999997E+02  0.45594000000E+02  0.51100000000E-03 0. -1.
    9900012    2    1    2    0    0  0.79245299766E-01  0.56616451654E+00 -0.10326015364E+01  0.90007708506E+02  0.89999969458E+02 0.  0.
        -12    1    1    2    0    0 -0.79245299766E-01 -0.56616451654E+00  0.10326015364E+01  0.11802914938E+01  0.00000000000E+00 0.  1.
         11    1    3    3    0    0 -0.19867285460E+02 -0.32646801138E+02  0.18042185263E+01  0.38259349979E+02  0.51100000000E-03 0. -1.
        -11    1    3    3    0    0 -0.84292592493E+01  0.18643660920E+01 -0.38496823834E+01  0.94524244049E+01  0.51100000000E-03 0.  1.
        -12    1    3    3    0    0  0.28375790009E+02  0.31348599562E+02  0.10128623207E+01  0.42295934122E+02  0.00000000000E+00 0.  1.
</event>
<event>
 7    1  0.3743571E-015  0.9000776E+02  0.7816164E-02  0.1186339E+00
        -11   -1    0    0    0    0  0.00000000000E+00  0.00000000000E+00  0.45593999997E+02  0.45594000000E+02  0.51100000000E-03 0. -1.
         11   -1    0    0    0    0 -0.00000000000E+00 -0.00000000000E+00 -0.45593999997E+02  0.45594000000E+02  0.51100000000E-03 0.  1.
    9900012    2    1    2    0    0  0.57238688563E+00  0.89143865441E+00  0.52026449405E+00  0.90007760717E+02  0.90000022358E+02 0.  0.
        -12    1    1    2    0    0 -0.57238688563E+00 -0.89143865441E+00 -0.52026449405E+00  0.11802392830E+01  0.00000000000E+00 0.  1.
         11    1    3    3    0    0 -0.35154342526E+01 -0.64688118652E+00 -0.82496583980E+01  0.89907506471E+01  0.51100000000E-03 0. -1.
        -11    1    3    3    0    0  0.34867652024E+02 -0.79328575733E+01 -0.17167949610E+02  0.39666382253E+02  0.51100000000E-03 0.  1.
         12    1    3    3    0    0 -0.30779830886E+02  0.94711774142E+01  0.25937872502E+02  0.41350627817E+02  0.00000000000E+00 0. -1.
</event>
<event>
 7    1  0.3743571E-015  0.9000778E+02  0.7816164E-02  0.1186339E+00
        -11   -1    0    0    0    0  0.00000000000E+00  0.00000000000E+00  0.45593999997E+02  0.45594000000E+02  0.51100000000E-03 0. -1.
         11   -1    0    0    0    0 -0.00000000000E+00 -0.00000000000E+00 -0.45593999997E+02  0.45594000000E+02  0.51100000000E-03 0.  1.
    9900012    2    1    2    0    0  0.90299430519E+00 -0.75989234097E+00  0.95821408634E-02  0.90007776757E+02  0.90000038611E+02 0.  0.
        -12    1    1    2    0    0 -0.90299430519E+00  0.75989234097E+00 -0.95821408634E-02  0.11802232426E+01  0.00000000000E+00 0.  1.
         11    1    3    3    0    0  0.89738308361E+00  0.60838678109E+01 -0.12457710152E+01  0.62746067305E+01  0.51100000000E-03 0. -1.
        -11    1    3    3    0    0  0.30339362353E+02  0.15387572368E+02 -0.21053340083E+02  0.40006217270E+02  0.51100000000E-03 0.  1.
         12    1    3    3    0    0 -0.30333751132E+02 -0.22231332520E+02  0.22308693239E+02  0.43726952756E+02  0.00000000000E+00 0. -1.
</event>
<event>
 7    1  0.3743571E-015  0.9000772E+02  0.7816164E-02  0.1186339E+00
        -11   -1    0    0    0    0  0.00000000000E+00  0.00000000000E+00  0.45593999997E+02  0.45594000000E+02  0.51100000000E-03 0. -1.
         11   -1    0    0    0    0 -0.00000000000E+00 -0.00000000000E+00 -0.45593999997E+02  0.45594000000E+02  0.51100000000E-03 0.  1.
    9900012    2    1    2    0    0 -0.46561358405E+00 -0.10530629319E+01 -0.25946171805E+00  0.90007721248E+02  0.89999982369E+02 0.  0.
        -12    1    1    2    0    0  0.46561358405E+00  0.10530629319E+01  0.25946171805E+00  0.11802787516E+01  0.00000000000E+00 0.  1.
         11    1    3    3    0    0  0.37838637821E+01 -0.14608842083E+01  0.32159338081E+01  0.51762958098E+01  0.51100000000E-03 0. -1.
        -11    1    3    3    0    0  0.11023071609E+02 -0.10952823505E+02 -0.40402143158E+02  0.43287476508E+02  0.51100000000E-03 0.  1.
         12    1    3    3    0    0 -0.15272548975E+02  0.11360644781E+02  0.36926747632E+02  0.41543948930E+02  0.00000000000E+00 0. -1.
</event>
<event>
 7    1  0.3743571E-015  0.9000776E+02  0.7816164E-02  0.1186339E+00
        -11   -1    0    0    0    0  0.00000000000E+00  0.00000000000E+00  0.45593999997E+02  0.45594000000E+02  0.51100000000E-03 0. -1.
         11   -1    0    0    0    0 -0.00000000000E+00 -0.00000000000E+00 -0.45593999997E+02  0.45594000000E+02  0.51100000000E-03 0.  1.
    9900012    2    1    2    0    0 -0.50792122959E+00 -0.89244069717E+00  0.58182560309E+00  0.90007764682E+02  0.90000026376E+02 0.  0.
        -12    1    1    2    0    0  0.50792122959E+00  0.89244069717E+00 -0.58182560309E+00  0.11802353180E+01  0.00000000000E+00 0.  1.
         11    1    3    3    0    0  0.80354289365E+01 -0.62482555502E+01 -0.88760824594E+01  0.13505319533E+02  0.51100000000E-03 0. -1.
        -11    1    3    3    0    0 -0.26507525269E+02  0.18079962379E+02 -0.21421117388E+02  0.38579764202E+02  0.51100000000E-03 0.  1.
         12    1    3    3    0    0  0.17964175103E+02 -0.12724147526E+02  0.30879025451E+02  0.37922680946E+02  0.00000000000E+00 0. -1.
</event>
<event>
 7    1  0.3743571E-015  0.9000775E+02  0.7816164E-02  0.1186339E+00
        -11   -1    0    0    0    0  0.00000000000E+00  0.00000000000E+00  0.45593999997E+02  0.45594000000E+02  0.51100000000E-03 0.  1.
         11   -1    0    0    0    0 -0.00000000000E+00 -0.00000000000E+00 -0.45593999997E+02  0.45594000000E+02  0.51100000000E-03 0. -1.
    9900012    2    1    2    0    0  0.67411663007E+00 -0.92386638220E+00 -0.29161188471E+00  0.90007745869E+02  0.90000007314E+02 0.  0.
        -12    1    1    2    0    0 -0.67411663007E+00  0.92386638220E+00  0.29161188471E+00  0.11802541313E+01  0.00000000000E+00 0.  1.
         11    1    3    3    0    0 -0.20959562791E+02 -0.31340594674E+02 -0.97998019138E+01  0.38956029889E+02  0.51100000000E-03 0. -1.
        -11    1    3    3    0    0 -0.61655022688E+01  0.51885208091E+01  0.10817312114E+02  0.13488825303E+02  0.51100000000E-03 0.  1.
        -12    1    3    3    0    0  0.27799181690E+02  0.25228207482E+02 -0.13091220853E+01  0.37562890677E+02  0.00000000000E+00 0.  1.
</event>
<event>
 7    1  0.3743571E-015  0.9000775E+02  0.7816164E-02  0.1186339E+00
        -11   -1    0    0    0    0  0.00000000000E+00  0.00000000000E+00  0.45593999997E+02  0.45594000000E+02  0.51100000000E-03 0.  1.
         11   -1    0    0    0    0 -0.00000000000E+00 -0.00000000000E+00 -0.45593999997E+02  0.45594000000E+02  0.51100000000E-03 0. -1.
    9900012    2    1    2    0    0  0.90744261195E+00  0.64916628572E+00 -0.38487905728E+00  0.90007745430E+02  0.90000006870E+02 0.  0.
        -12    1    1    2    0    0 -0.90744261195E+00 -0.64916628572E+00  0.38487905728E+00  0.11802545697E+01  0.00000000000E+00 0.  1.
         11    1    3    3    0    0 -0.17374422516E+01  0.11621955547E+02 -0.25599121343E+01  0.12026708058E+02  0.51100000000E-03 0. -1.
        -11    1    3    3    0    0  0.13879450551E+02  0.21326332828E+02  0.25940485815E+02  0.36336764084E+02  0.51100000000E-03 0.  1.
         12    1    3    3    0    0 -0.11234565688E+02 -0.32299122089E+02 -0.23765452738E+02  0.41644273289E+02  0.00000000000E+00 0. -1.
</event>
<event>
 7    1  0.3743571E-015  0.9000776E+02  0.7816164E-02  0.1186339E+00
        -11   -1    0    0    0    0  0.00000000000E+00  0.00000000000E+00  0.45593999997E+02  0.45594000000E+02  0.51100000000E-03 0.  1.
         11   -1    0    0    0    0 -0.00000000000E+00 -0.00000000000E+00 -0.45593999997E+02  0.45594000000E+02  0.51100000000E-03 0. -1.
    9900012    2    1    2    0    0 -0.83416498042E+00  0.32916957413E+00 -0.76732290071E+00  0.90007759238E+02  0.90000020860E+02 0.  0.
        -12    1    1    2    0    0  0.83416498042E+00 -0.32916957413E+00  0.76732290071E+00  0.11802407623E+01  0.00000000000E+00 0.  1.
         11    1    3    3    0    0 -0.14917262638E+02 -0.36373848648E+02 -0.11764893382E+02  0.41036499688E+02  0.51100000000E-03 0. -1.
        -11    1    3    3    0    0 -0.76833675127E+01  0.53960793975E+01  0.40699499635E+00  0.93977366630E+01  0.51100000000E-03 0.  1.
        -12    1    3    3    0    0  0.21766465170E+02  0.31306938824E+02  0.10590575485E+02  0.39573522887E+02  0.00000000000E+00 0.  1.
</event>
<event>
 7    1  0.5599773E-015  0.9000779E+02  0.7816164E-02  0.1186339E+00
        -11   -1    0    0    0    0  0.00000000000E+00  0.00000000000E+00  0.45593999997E+02  0.45594000000E+02  0.51100000000E-03 0. -1.
         11   -1    0    0    0    0 -0.00000000000E+00 -0.00000000000E+00 -0.45593999997E+02  0.45594000000E+02  0.51100000000E-03 0.  1.
    9900012    2    1    2    0    0 -0.16510149136E+00  0.37851280809E+00  0.11056107539E+01  0.90007785787E+02  0.90000047760E+02 0.  0.
        -12    1    1    2    0    0  0.16510149136E+00 -0.37851280809E+00 -0.11056107539E+01  0.11802142126E+01  0.00000000000E+00 0.  1.
         11    1    3    3    0    0  0.60727486755E+00 -0.19352956559E+02  0.31112001048E+02  0.36645085889E+02  0.51100000000E-03 0. -1.
        -11    1    3    3    0    0  0.50639035771E+01 -0.68439416794E+01  0.43310797458E+01  0.95520107399E+01  0.51100000000E-03 0.  1.
        -12    1    3    3    0    0 -0.58362799360E+01  0.26575411047E+02 -0.34337470040E+02  0.43810689158E+02  0.00000000000E+00 0.  1.
</event>
<event>
 7    1  0.3743571E-015  0.9000776E+02  0.7816164E-02  0.1186339E+00
        -11   -1    0    0    0    0  0.00000000000E+00  0.00000000000E+00  0.45593999997E+02  0.45594000000E+02  0.51100000000E-03 0. -1.
         11   -1    0    0    0    0 -0.00000000000E+00 -0.00000000000E+00 -0.45593999997E+02  0.45594000000E+02  0.51100000000E-03 0.  1.
    9900012    2    1    2    0    0  0.11070495862E+01 -0.38572623704E+00  0.13643397385E+00  0.90007763691E+02  0.90000025372E+02 0.  0.
        -12    1    1    2    0    0 -0.11070495862E+01  0.38572623704E+00 -0.13643397385E+00  0.11802363092E+01  0.00000000000E+00 0.  1.
         11    1    3    3    0    0  0.36042242675E+00 -0.46480896176E+01  0.81533496181E+01  0.93921111405E+01  0.51100000000E-03 0. -1.
        -11    1    3    3    0    0  0.22640163783E+02 -0.26871429059E+02 -0.20351548256E+02  0.40605864508E+02  0.51100000000E-03 0.  1.
         12    1    3    3    0    0 -0.21893536624E+02  0.31133792439E+02  0.12334632611E+02  0.40009788042E+02  0.00000000000E+00 0. -1.
</event>
<event>
 7    1  0.3743571E-015  0.9000786E+02  0.7816164E-02  0.1186339E+00
        -11   -1    0    0    0    0  0.00000000000E+00  0.00000000000E+00  0.45593999997E+02  0.45594000000E+02  0.51100000000E-03 0.  1.
         11   -1    0    0    0    0 -0.00000000000E+00 -0.00000000000E+00 -0.45593999997E+02  0.45594000000E+02  0.51100000000E-03 0. -1.
    9900012    2    1    2    0    0 -0.41034311209E+00 -0.35673383952E+00 -0.10474247374E+01  0.90007856330E+02  0.90000119233E+02 0.  0.
        -12    1    1    2    0    0  0.41034311209E+00  0.35673383952E+00  0.10474247374E+01  0.11801436702E+01  0.00000000000E+00 0.  1.
         11    1    3    3    0    0  0.98738348642E+01 -0.93407277316E+01 -0.32323500317E+01  0.13971037774E+02  0.51100000000E-03 0. -1.
        -11    1    3    3    0    0 -0.42621959216E+02  0.25642911435E+01 -0.23179339704E+01  0.42761896761E+02  0.51100000000E-03 0.  1.
         12    1    3    3    0    0  0.32337781240E+02  0.64197027486E+01  0.45028592648E+01  0.33274921795E+02  0.00000000000E+00 0. -1.
</event>
<event>
 7    1  0.3743571E-015  0.9000766E+02  0.7816164E-02  0.1186339E+00
        -11   -1    0    0    0    0  0.00000000000E+00  0.00000000000E+00  0.45593999997E+02  0.45594000000E+02  0.51100000000E-03 0.  1.
         11   -1    0    0    0    0 -0.00000000000E+00 -0.00000000000E+00 -0.45593999997E+02  0.45594000000E+02  0.51100000000E-03 0. -1.
    9900012    2    1    2    0    0  0.13071011385E+00  0.10596841663E+01  0.50318284962E+00  0.90007657403E+02  0.89999917681E+02 0.  0.
        -12    1    1    2    0    0 -0.13071011385E+00 -0.10596841663E+01 -0.50318284962E+00  0.11803425970E+01  0.00000000000E+00 0.  1.
         11    1    3    3    0    0 -0.55293253800E+00 -0.17364306392E+01 -0.10570272150E+02  0.10726209924E+02  0.51100000000E-03 0. -1.
        -11    1    3    3    0    0 -0.18752298334E+02 -0.11693106509E+02 -0.26537721727E+02  0.34534448126E+02  0.51100000000E-03 0.  1.
         12    1    3    3    0    0  0.19435940985E+02  0.14489221315E+02  0.37611176727E+02  0.44746999353E+02  0.00000000000E+00 0. -1.
</event>
<event>
 7    1  0.3743571E-015  0.9000776E+02  0.7816164E-02  0.1186339E+00
        -11   -1    0    0    0    0  0.00000000000E+00  0.00000000000E+00  0.45593999997E+02  0.45594000000E+02  0.51100000000E-03 0.  1.
         11   -1    0    0    0    0 -0.00000000000E+00 -0.00000000000E+00 -0.45593999997E+02  0.45594000000E+02  0.51100000000E-03 0. -1.
    9900012    2    1    2    0    0  0.26436930132E+00 -0.78850304968E+00 -0.83746007100E+00  0.90007759534E+02  0.90000021160E+02 0.  0.
        -12    1    1    2    0    0 -0.26436930132E+00  0.78850304968E+00  0.83746007100E+00  0.11802404659E+01  0.00000000000E+00 0.  1.
         11    1    3    3    0    0 -0.38027675238E+01  0.10735446655E+02 -0.38639342592E+01  0.12026672189E+02  0.51100000000E-03 0. -1.
        -11    1    3    3    0    0 -0.18760603127E+02  0.23951254198E+02  0.15289138473E+02  0.34049677867E+02  0.51100000000E-03 0.  1.
         12    1    3    3    0    0  0.22827739953E+02 -0.35475203903E+02 -0.12262664285E+02  0.43931409477E+02  0.00000000000E+00 0. -1.
</event>
<event>
 7    1  0.3743571E-015  0.9000774E+02  0.7816164E-02  0.1186339E+00
        -11   -1    0    0    0    0  0.00000000000E+00  0.00000000000E+00  0.45593999997E+02  0.45594000000E+02  0.51100000000E-03 0.  1.
         11   -1    0    0    0    0 -0.00000000000E+00 -0.00000000000E+00 -0.45593999997E+02  0.45594000000E+02  0.51100000000E-03 0. -1.
    9900012    2    1    2    0    0  0.16783871447E+00 -0.29084460939E+00 -0.11314802254E+01  0.90007742434E+02  0.90000003834E+02 0.  0.
        -12    1    1    2    0    0 -0.16783871447E+00  0.29084460939E+00  0.11314802254E+01  0.11802575657E+01  0.00000000000E+00 0.  1.
         11    1    3    3    0    0  0.28072483728E+02  0.33964795661E+01 -0.26822121516E+02  0.38974692032E+02  0.51100000000E-03 0. -1.
        -11    1    3    3    0    0 -0.30319999755E+01  0.11383497298E+02 -0.64577584948E+00  0.11798053284E+02  0.51100000000E-03 0.  1.
        -12    1    3    3    0    0 -0.24872645038E+02 -0.15070821474E+02  0.26336417140E+02  0.39234997118E+02  0.00000000000E+00 0.  1.
</event>
<event>
 7    1  0.3743571E-015  0.9000752E+02  0.7816164E-02  0.1186339E+00
        -11   -1    0    0    0    0  0.00000000000E+00  0.00000000000E+00  0.45593999997E+02  0.45594000000E+02  0.51100000000E-03 0.  1.
         11   -1    0    0    0    0 -0.00000000000E+00 -0.00000000000E+00 -0.45593999997E+02  0.45594000000E+02  0.51100000000E-03 0. -1.
    9900012    2    1    2    0    0 -0.49814748396E+00 -0.32190073232E+00 -0.10206633299E+01  0.90007523558E+02  0.89999782069E+02 0.  0.
        -12    1    1    2    0    0  0.49814748396E+00  0.32190073232E+00  0.10206633299E+01  0.11804764421E+01  0.00000000000E+00 0.  1.
         11    1    3    3    0    0  0.26377164553E+02  0.24609753119E+02  0.10834764515E+01  0.36091116357E+02  0.51100000000E-03 0. -1.
        -11    1    3    3    0    0 -0.78469732667E+00  0.10115654597E+02  0.38206198285E+00  0.10153235417E+02  0.51100000000E-03 0.  1.
        -12    1    3    3    0    0 -0.26090614710E+02 -0.35047308448E+02 -0.24862017642E+01  0.43763171784E+02  0.00000000000E+00 0.  1.
</event>
<event>
 7    1  0.3743571E-015  0.9000775E+02  0.7816164E-02  0.1186339E+00
        -11   -1    0    0    0    0  0.00000000000E+00  0.00000000000E+00  0.45593999997E+02  0.45594000000E+02  0.51100000000E-03 0. -1.
         11   -1    0    0    0    0 -0.00000000000E+00 -0.00000000000E+00 -0.45593999997E+02  0.45594000000E+02  0.51100000000E-03 0.  1.
    9900012    2    1    2    0    0  0.86237536893E+00 -0.79177325955E+00 -0.14964230750E+00  0.90007750454E+02  0.90000011960E+02 0.  0.
        -12    1    1    2    0    0 -0.86237536893E+00  0.79177325955E+00  0.14964230750E+00  0.11802495464E+01  0.00000000000E+00 0.  1.
         11    1    3    3    0    0  0.35198852949E+02  0.16637678440E+02 -0.46918012262E+00  0.38935738378E+02  0.51100000000E-03 0. -1.
        -11    1    3    3    0    0  0.11254914222E+01 -0.68791093217E+00 -0.10348053694E+02  0.10431786420E+02  0.51100000000E-03 0.  1.
        -12    1    3    3    0    0 -0.35461969002E+02 -0.16741540767E+02  0.10667591509E+02  0.40640225656E+02  0.00000000000E+00 0.  1.
</event>
<event>
 7    1  0.3743571E-015  0.9000783E+02  0.7816164E-02  0.1186339E+00
        -11   -1    0    0    0    0  0.00000000000E+00  0.00000000000E+00  0.45593999997E+02  0.45594000000E+02  0.51100000000E-03 0. -1.
         11   -1    0    0    0    0 -0.00000000000E+00 -0.00000000000E+00 -0.45593999997E+02  0.45594000000E+02  0.51100000000E-03 0.  1.
    9900012    2    1    2    0    0  0.56077317874E+00  0.10071822191E+01  0.25283748013E+00  0.90007826550E+02  0.90000089061E+02 0.  0.
        -12    1    1    2    0    0 -0.56077317874E+00 -0.10071822191E+01 -0.25283748013E+00  0.11801734499E+01  0.00000000000E+00 0.  1.
         11    1    3    3    0    0  0.26620043629E+02 -0.32518813562E+02  0.96613472442E+00  0.42036096094E+02  0.51100000000E-03 0. -1.
        -11    1    3    3    0    0 -0.90055008471E+01 -0.84907088109E+00 -0.30022624692E+01  0.95306635164E+01  0.51100000000E-03 0.  1.
        -12    1    3    3    0    0 -0.17053769603E+02  0.34375066662E+02  0.22889652249E+01  0.38441066940E+02  0.00000000000E+00 0.  1.
</event>
<event>
 7    1  0.3743571E-015  0.9000777E+02  0.7816164E-02  0.1186339E+00
        -11   -1    0    0    0    0  0.00000000000E+00  0.00000000000E+00  0.45593999997E+02  0.45594000000E+02  0.51100000000E-03 0.  1.
         11   -1    0    0    0    0 -0.00000000000E+00 -0.00000000000E+00 -0.45593999997E+02  0.45594000000E+02  0.51100000000E-03 0. -1.
    9900012    2    1    2    0    0  0.76730038950E+00  0.61462200901E+00 -0.65302695209E+00  0.90007765150E+02  0.90000026850E+02 0.  0.
        -12    1    1    2    0    0 -0.76730038950E+00 -0.61462200901E+00  0.65302695209E+00  0.11802348503E+01  0.00000000000E+00 0.  1.
         11    1    3    3    0    0  0.30495934863E+02  0.11803810337E+02 -0.97890135747E+01  0.34134392754E+02  0.51100000000E-03 0. -1.
        -11    1    3    3    0    0  0.26868098690E+01  0.10513771863E+02  0.12695501422E+02  0.16701320387E+02  0.51100000000E-03 0.  1.
        -12    1    3    3    0    0 -0.32415444342E+02 -0.21702960191E+02 -0.35595147995E+01  0.39172052009E+02  0.00000000000E+00 0.  1.
</event>
<event>
 7    1  0.3743571E-015  0.9000774E+02  0.7816164E-02  0.1186339E+00
        -11   -1    0    0    0    0  0.00000000000E+00  0.00000000000E+00  0.45593999997E+02  0.45594000000E+02  0.51100000000E-03 0. -1.
         11   -1    0    0    0    0 -0.00000000000E+00 -0.00000000000E+00 -0.45593999997E+02  0.45594000000E+02  0.51100000000E-03 0.  1.
    9900012    2    1    2    0    0  0.10914225589E+01  0.40883580265E+00  0.18618927932E+00  0.90007738858E+02  0.90000000211E+02 0.  0.
        -12    1    1    2    0    0 -0.10914225589E+01 -0.40883580265E+00 -0.18618927932E+00  0.11802611420E+01  0.00000000000E+00 0.  1.
         11    1    3    3    0    0  0.33647830065E+02 -0.22162413523E+02  0.12803441289E+01  0.40311143901E+02  0.51100000000E-03 0. -1.
        -11    1    3    3    0    0  0.54664381967E+00 -0.52260189215E+01 -0.36453773530E+01  0.63952223996E+01  0.51100000000E-03 0.  1.
        -12    1    3    3    0    0 -0.33103051326E+02  0.27797268247E+02  0.25512225034E+01  0.43301372557E+02  0.00000000000E+00 0.  1.
</event>
<event>
 7    1  0.3743571E-015  0.9000778E+02  0.7816164E-02  0.1186339E+00
        -11   -1    0    0    0    0  0.00000000000E+00  0.00000000000E+00  0.45593999997E+02  0.45594000000E+02  0.51100000000E-03 0.  1.
         11   -1    0    0    0    0 -0.00000000000E+00 -0.00000000000E+00 -0.45593999997E+02  0.45594000000E+02  0.51100000000E-03 0. -1.
    9900012    2    1    2    0    0  0.56473848316E+00 -0.10335277127E+01  0.76301271237E-01  0.90007775034E+02  0.90000036864E+02 0.  0.
        -12    1    1    2    0    0 -0.56473848316E+00  0.10335277127E+01 -0.76301271237E-01  0.11802249663E+01  0.00000000000E+00 0.  1.
         11    1    3    3    0    0  0.40919126333E+01  0.95820692841E+01  0.31377236445E+01  0.10881411246E+02  0.51100000000E-03 0. -1.
        -11    1    3    3    0    0  0.23701878604E+02  0.93889211037E+01  0.24624605159E+02  0.35444351714E+02  0.51100000000E-03 0.  1.
         12    1    3    3    0    0 -0.27229052755E+02 -0.20004518101E+02 -0.27686027533E+02  0.43682012075E+02  0.00000000000E+00 0. -1.
</event>
<event>
 7    1  0.3743571E-015  0.9000773E+02  0.7816164E-02  0.1186339E+00
        -11   -1    0    0    0    0  0.00000000000E+00  0.00000000000E+00  0.45593999997E+02  0.45594000000E+02  0.51100000000E-03 0.  1.
         11   -1    0    0    0    0 -0.00000000000E+00 -0.00000000000E+00 -0.45593999997E+02  0.45594000000E+02  0.51100000000E-03 0. -1.
    9900012    2    1    2    0    0 -0.89434739755E+00 -0.13565149228E+00 -0.75814531003E+00  0.90007727614E+02  0.89999988818E+02 0.  0.
        -12    1    1    2    0    0  0.89434739755E+00  0.13565149228E+00  0.75814531003E+00  0.11802723863E+01  0.00000000000E+00 0.  1.
         11    1    3    3    0    0 -0.40009416613E+02 -0.80677519864E+00  0.65696936441E+00  0.40022942332E+02  0.51100000000E-03 0. -1.
        -11    1    3    3    0    0  0.76980522378E+00 -0.43472146815E+01  0.89222297064E+01  0.99547505626E+01  0.51100000000E-03 0.  1.
        -12    1    3    3    0    0  0.38345263991E+02  0.50183383878E+01 -0.10337344381E+02  0.40030034719E+02  0.00000000000E+00 0.  1.
</event>
<event>
 7    1  0.3743571E-015  0.9000753E+02  0.7816164E-02  0.1186339E+00
        -11   -1    0    0    0    0  0.00000000000E+00  0.00000000000E+00  0.45593999997E+02  0.45594000000E+02  0.51100000000E-03 0.  1.
         11   -1    0    0    0    0 -0.00000000000E+00 -0.00000000000E+00 -0.45593999997E+02  0.45594000000E+02  0.51100000000E-03 0. -1.
    9900012    2    1    2    0    0 -0.38178076205E+00  0.11072271735E+01 -0.14762882842E+00  0.90007532790E+02  0.89999791422E+02 0.  0.
        -12    1    1    2    0    0  0.38178076205E+00 -0.11072271735E+01  0.14762882842E+00  0.11804672104E+01  0.00000000000E+00 0.  1.
         11    1    3    3    0    0  0.49928348783E+01 -0.11164388033E+02  0.27518716521E+02  0.30113978806E+02  0.51100000000E-03 0. -1.
        -11    1    3    3    0    0  0.21883398981E+02  0.34381832050E+01 -0.35347932593E+01  0.22432097948E+02  0.51100000000E-03 0.  1.
         12    1    3    3    0    0 -0.27258014621E+02  0.88334320019E+01 -0.24131552090E+02  0.37461456036E+02  0.00000000000E+00 0. -1.
</event>
<event>
 7    1  0.3743571E-015  0.9000769E+02  0.7816164E-02  0.1186339E+00
        -11   -1    0    0    0    0  0.00000000000E+00  0.00000000000E+00  0.45593999997E+02  0.45594000000E+02  0.51100000000E-03 0.  1.
         11   -1    0    0    0    0 -0.00000000000E+00 -0.00000000000E+00 -0.45593999997E+02  0.45594000000E+02  0.51100000000E-03 0. -1.
    9900012    2    1    2    0    0 -0.11621090504E+01  0.16548397768E-01  0.20578877301E+00  0.90007694822E+02  0.89999955593E+02 0.  0.
        -12    1    1    2    0    0  0.11621090504E+01 -0.16548397768E-01 -0.20578877301E+00  0.11803051782E+01  0.00000000000E+00 0.  1.
         11    1    3    3    0    0 -0.55264096526E+01  0.90850172875E+00 -0.40244616394E+01  0.68965839941E+01  0.51100000000E-03 0. -1.
        -11    1    3    3    0    0 -0.28075020793E+01 -0.36902897952E+02 -0.16967196930E+02  0.40713532359E+02  0.51100000000E-03 0.  1.
         12    1    3    3    0    0  0.71718026815E+01  0.36010944621E+02  0.21197447342E+02  0.42397578469E+02  0.00000000000E+00 0. -1.
</event>
<event>
 7    1  0.3743571E-015  0.9000771E+02  0.7816164E-02  0.1186339E+00
        -11   -1    0    0    0    0  0.00000000000E+00  0.00000000000E+00  0.45593999997E+02  0.45594000000E+02  0.51100000000E-03 0. -1.
         11   -1    0    0    0    0 -0.00000000000E+00 -0.00000000000E+00 -0.45593999997E+02  0.45594000000E+02  0.51100000000E-03 0.  1.
    9900012    2    1    2    0    0  0.75325323996E+00 -0.81218482486E+00 -0.40748857072E+00  0.90007711235E+02  0.89999972223E+02 0.  0.
        -12    1    1    2    0    0 -0.75325323996E+00  0.81218482486E+00  0.40748857072E+00  0.11802887649E+01  0.00000000000E+00 0.  1.
         11    1    3    3    0    0 -0.57765740991E+01  0.88137569137E+01  0.35177107624E+01  0.11109698849E+02  0.51100000000E-03 0. -1.
        -11    1    3    3    0    0  0.50978265375E+01 -0.19038766504E+02 -0.38383744009E+02  0.43148282351E+02  0.51100000000E-03 0.  1.
         12    1    3    3    0    0  0.14320008016E+01  0.94128247652E+01  0.34458544676E+02  0.35749730035E+02  0.00000000000E+00 0. -1.
</event>
<event>
 7    1  0.3743571E-015  0.9000776E+02  0.7816164E-02  0.1186339E+00
        -11   -1    0    0    0    0  0.00000000000E+00  0.00000000000E+00  0.45593999997E+02  0.45594000000E+02  0.51100000000E-03 0.  1.
         11   -1    0    0    0    0 -0.00000000000E+00 -0.00000000000E+00 -0.45593999997E+02  0.45594000000E+02  0.51100000000E-03 0. -1.
    9900012    2    1    2    0    0  0.70300448334E+00 -0.69487628475E+00 -0.64490490839E+00  0.90007758205E+02  0.90000019813E+02 0.  0.
        -12    1    1    2    0    0 -0.70300448334E+00  0.69487628475E+00  0.64490490839E+00  0.11802417954E+01  0.00000000000E+00 0.  1.
         11    1    3    3    0    0  0.33141351320E+01  0.89958424713E+01  0.32015215039E+01  0.10107344540E+02  0.51100000000E-03 0. -1.
        -11    1    3    3    0    0  0.27571006869E+02  0.38953271034E+01 -0.27564473914E+02  0.39180788857E+02  0.51100000000E-03 0.  1.
         12    1    3    3    0    0 -0.30182137518E+02 -0.13586045859E+02  0.23718047502E+02  0.40719624808E+02  0.00000000000E+00 0. -1.
</event>
<event>
 7    1  0.3743571E-015  0.9000775E+02  0.7816164E-02  0.1186339E+00
        -11   -1    0    0    0    0  0.00000000000E+00  0.00000000000E+00  0.45593999997E+02  0.45594000000E+02  0.51100000000E-03 0. -1.
         11   -1    0    0    0    0 -0.00000000000E+00 -0.00000000000E+00 -0.45593999997E+02  0.45594000000E+02  0.51100000000E-03 0.  1.
    9900012    2    1    2    0    0 -0.11514805332E+01  0.18200287370E+00 -0.18424742553E+00  0.90007754442E+02  0.90000016000E+02 0.  0.
        -12    1    1    2    0    0  0.11514805332E+01 -0.18200287370E+00  0.18424742553E+00  0.11802455584E+01  0.00000000000E+00 0.  1.
         11    1    3    3    0    0  0.76999377621E+01 -0.31906358496E+01  0.46029714921E+01  0.95213730882E+01  0.51100000000E-03 0. -1.
        -11    1    3    3    0    0  0.22032186410E+02  0.30063480002E+02 -0.11743845570E+02  0.39078740728E+02  0.51100000000E-03 0.  1.
         12    1    3    3    0    0 -0.30883604706E+02 -0.26690841279E+02  0.69566266519E+01  0.41407640625E+02  0.00000000000E+00 0. -1.
</event>
<event>
 7    1  0.3743571E-015  0.9000771E+02  0.7816164E-02  0.1186339E+00
        -11   -1    0    0    0    0  0.00000000000E+00  0.00000000000E+00  0.45593999997E+02  0.45594000000E+02  0.51100000000E-03 0.  1.
         11   -1    0    0    0    0 -0.00000000000E+00 -0.00000000000E+00 -0.45593999997E+02  0.45594000000E+02  0.51100000000E-03 0. -1.
    9900012    2    1    2    0    0  0.31913540279E+00 -0.11319668392E+01  0.99459475539E-01  0.90007708291E+02  0.89999969241E+02 0.  0.
        -12    1    1    2    0    0 -0.31913540279E+00  0.11319668392E+01 -0.99459475539E-01  0.11802917087E+01  0.00000000000E+00 0.  1.
         11    1    3    3    0    0 -0.34992585329E+02 -0.52561532402E+01 -0.28997649181E+01  0.35503757713E+02  0.51100000000E-03 0. -1.
        -11    1    3    3    0    0 -0.93673437774E+01 -0.10689581036E+01  0.62836186166E-01  0.94283481861E+01  0.51100000000E-03 0.  1.
        -12    1    3    3    0    0  0.44679064510E+02  0.51931445047E+01  0.29363882075E+01  0.45075602392E+02  0.00000000000E+00 0.  1.
</event>
<event>
 7    1  0.3743571E-015  0.9000779E+02  0.7816164E-02  0.1186339E+00
        -11   -1    0    0    0    0  0.00000000000E+00  0.00000000000E+00  0.45593999997E+02  0.45594000000E+02  0.51100000000E-03 0. -1.
         11   -1    0    0    0    0 -0.00000000000E+00 -0.00000000000E+00 -0.45593999997E+02  0.45594000000E+02  0.51100000000E-03 0.  1.
    9900012    2    1    2    0    0 -0.10542158168E+00  0.11597554285E+01  0.19167846084E+00  0.90007793664E+02  0.90000055740E+02 0.  0.
        -12    1    1    2    0    0  0.10542158168E+00 -0.11597554285E+01 -0.19167846084E+00  0.11802063363E+01  0.00000000000E+00 0.  1.
         11    1    3    3    0    0 -0.13599435031E+02 -0.32532603111E+02 -0.21715147668E+00  0.35261339359E+02  0.51100000000E-03 0. -1.
        -11    1    3    3    0    0  0.81205194981E+01 -0.86169555806E+01  0.22728559019E+01  0.12056559817E+02  0.51100000000E-03 0.  1.
        -12    1    3    3    0    0  0.53734939513E+01  0.42309314121E+02 -0.18640259644E+01  0.42689894488E+02  0.00000000000E+00 0.  1.
</event>
<event>
 7    1  0.3743571E-015  0.9000768E+02  0.7816164E-02  0.1186339E+00
        -11   -1    0    0    0    0  0.00000000000E+00  0.00000000000E+00  0.45593999997E+02  0.45594000000E+02  0.51100000000E-03 0. -1.
         11   -1    0    0    0    0 -0.00000000000E+00 -0.00000000000E+00 -0.45593999997E+02  0.45594000000E+02  0.51100000000E-03 0.  1.
    9900012    2    1    2    0    0 -0.41067658758E+00 -0.10417154141E+01  0.37325432472E+00  0.90007684341E+02  0.89999944974E+02 0.  0.
        -12    1    1    2    0    0  0.41067658758E+00  0.10417154141E+01 -0.37325432472E+00  0.11803156588E+01  0.00000000000E+00 0.  1.
         11    1    3    3    0    0 -0.16121046615E+02 -0.46855098575E+01  0.29448005504E+02  0.33897303359E+02  0.51100000000E-03 0. -1.
        -11    1    3    3    0    0 -0.46888952794E+01  0.49650985453E+01  0.99427673763E+01  0.12062195732E+02  0.51100000000E-03 0.  1.
        -12    1    3    3    0    0  0.20399265307E+02 -0.13213041019E+01 -0.39017518556E+02  0.44048185250E+02  0.00000000000E+00 0.  1.
</event>
<event>
 7    1  0.3743571E-015  0.9000775E+02  0.7816164E-02  0.1186339E+00
        -11   -1    0    0    0    0  0.00000000000E+00  0.00000000000E+00  0.45593999997E+02  0.45594000000E+02  0.51100000000E-03 0.  1.
         11   -1    0    0    0    0 -0.00000000000E+00 -0.00000000000E+00 -0.45593999997E+02  0.45594000000E+02  0.51100000000E-03 0. -1.
    9900012    2    1    2    0    0  0.72218368179E+00 -0.84272470068E+00  0.40157379945E+00  0.90007747608E+02  0.90000009077E+02 0.  0.
        -12    1    1    2    0    0 -0.72218368179E+00  0.84272470068E+00 -0.40157379945E+00  0.11802523916E+01  0.00000000000E+00 0.  1.
         11    1    3    3    0    0 -0.16290481000E+01  0.90283528845E+01 -0.77513655907E+00  0.92068339001E+01  0.51100000000E-03 0. -1.
        -11    1    3    3    0    0  0.36943249093E+02 -0.65620970480E+01  0.18654835742E+02  0.41903074684E+02  0.51100000000E-03 0.  1.
         12    1    3    3    0    0 -0.34592017311E+02 -0.33089805371E+01 -0.17478125383E+02  0.38897839024E+02  0.00000000000E+00 0. -1.
</event>
<event>
 7    1  0.3743571E-015  0.9000771E+02  0.7816164E-02  0.1186339E+00
        -11   -1    0    0    0    0  0.00000000000E+00  0.00000000000E+00  0.45593999997E+02  0.45594000000E+02  0.51100000000E-03 0. -1.
         11   -1    0    0    0    0 -0.00000000000E+00 -0.00000000000E+00 -0.45593999997E+02  0.45594000000E+02  0.51100000000E-03 0.  1.
    9900012    2    1    2    0    0  0.89264131728E+00 -0.14474426744E+00  0.75850375836E+00  0.90007708775E+02  0.89999969731E+02 0.  0.
        -12    1    1    2    0    0 -0.89264131728E+00  0.14474426744E+00 -0.75850375836E+00  0.11802912250E+01  0.00000000000E+00 0.  1.
         11    1    3    3    0    0 -0.12338395010E+01  0.63298844614E+01  0.11781393558E+02  0.13430972848E+02  0.51100000000E-03 0. -1.
        -11    1    3    3    0    0 -0.20888756412E+02  0.15897914516E+02  0.19174258827E+02  0.32507476559E+02  0.51100000000E-03 0.  1.
         12    1    3    3    0    0  0.23015237231E+02 -0.22372543245E+02 -0.30197148627E+02  0.44069259368E+02  0.00000000000E+00 0. -1.
</event>
<event>
 7    1  0.3743571E-015  0.9000777E+02  0.7816164E-02  0.1186339E+00
        -11   -1    0    0    0    0  0.00000000000E+00  0.00000000000E+00  0.45593999997E+02  0.45594000000E+02  0.51100000000E-03 0.  1.
         11   -1    0    0    0    0 -0.00000000000E+00 -0.00000000000E+00 -0.45593999997E+02  0.45594000000E+02  0.51100000000E-03 0. -1.
    9900012    2    1    2    0    0 -0.68708349487E-01  0.45492062609E+00 -0.10868623337E+01  0.90007769791E+02  0.90000031552E+02 0.  0.
        -12    1    1    2    0    0  0.68708349487E-01 -0.45492062609E+00  0.10868623337E+01  0.11802302088E+01  0.00000000000E+00 0.  1.
         11    1    3    3    0    0 -0.15257108745E+02  0.31591160673E+02  0.98888540188E+01  0.36449557391E+02  0.51100000000E-03 0. -1.
        -11    1    3    3    0    0 -0.81809677877E+01  0.48156231716E+01 -0.11053229306E+01  0.95572066796E+01  0.51100000000E-03 0.  1.
        -12    1    3    3    0    0  0.23369368183E+02 -0.35951863218E+02 -0.98703934219E+01  0.44001005721E+02  0.00000000000E+00 0.  1.
</event>
<event>
 7    1  0.3743571E-015  0.9000768E+02  0.7816164E-02  0.1186339E+00
        -11   -1    0    0    0    0  0.00000000000E+00  0.00000000000E+00  0.45593999997E+02  0.45594000000E+02  0.51100000000E-03 0.  1.
         11   -1    0    0    0    0 -0.00000000000E+00 -0.00000000000E+00 -0.45593999997E+02  0.45594000000E+02  0.51100000000E-03 0. -1.
    9900012    2    1    2    0    0  0.23259440908E+00  0.10088453019E+01 -0.56682564635E+00  0.90007677876E+02  0.89999938424E+02 0.  0.
        -12    1    1    2    0    0 -0.23259440908E+00 -0.10088453019E+01  0.56682564635E+00  0.11803221237E+01  0.00000000000E+00 0.  1.
         11    1    3    3    0    0 -0.26410611712E+01 -0.72938291696E+01  0.55877596571E+01  0.95602409128E+01  0.51100000000E-03 0. -1.
        -11    1    3    3    0    0  0.32548423501E+02 -0.11853131749E+02  0.16135898010E+02  0.38213398299E+02  0.51100000000E-03 0.  1.
         12    1    3    3    0    0 -0.29674767921E+02  0.20155806221E+02 -0.22290483313E+02  0.42234038665E+02  0.00000000000E+00 0. -1.
</event>
<event>
 7    1  0.3743571E-015  0.9000783E+02  0.7816164E-02  0.1186339E+00
        -11   -1    0    0    0    0  0.00000000000E+00  0.00000000000E+00  0.45593999997E+02  0.45594000000E+02  0.51100000000E-03 0. -1.
         11   -1    0    0    0    0 -0.00000000000E+00 -0.00000000000E+00 -0.45593999997E+02  0.45594000000E+02  0.51100000000E-03 0.  1.
    9900012    2    1    2    0    0 -0.11755361063E+01 -0.76780193103E-01  0.70904313004E-01  0.90007827234E+02  0.90000089754E+02 0.  0.
        -12    1    1    2    0    0  0.11755361063E+01  0.76780193103E-01 -0.70904313004E-01  0.11801727657E+01  0.00000000000E+00 0.  1.
         11    1    3    3    0    0  0.70825122438E+01  0.20858268474E+01 -0.63184970425E+01  0.97178216930E+01  0.51100000000E-03 0. -1.
        -11    1    3    3    0    0  0.32019889383E+02 -0.15789028243E+02 -0.55386304469E+01  0.36128149087E+02  0.51100000000E-03 0.  1.
         12    1    3    3    0    0 -0.40277937733E+02  0.13626421202E+02  0.11928031802E+02  0.44161856454E+02  0.00000000000E+00 0. -1.
</event>
<event>
 7    1  0.3743571E-015  0.9000757E+02  0.7816164E-02  0.1186339E+00
        -11   -1    0    0    0    0  0.00000000000E+00  0.00000000000E+00  0.45593999997E+02  0.45594000000E+02  0.51100000000E-03 0. -1.
         11   -1    0    0    0    0 -0.00000000000E+00 -0.00000000000E+00 -0.45593999997E+02  0.45594000000E+02  0.51100000000E-03 0.  1.
    9900012    2    1    2    0    0 -0.71861169899E+00  0.93512528652E+00  0.50483379766E-01  0.90007571837E+02  0.89999830986E+02 0.  0.
        -12    1    1    2    0    0  0.71861169899E+00 -0.93512528652E+00 -0.50483379766E-01  0.11804281626E+01  0.00000000000E+00 0.  1.
         11    1    3    3    0    0  0.15923270378E+02 -0.29176963008E+02  0.15236730743E+02  0.36565060835E+02  0.51100000000E-03 0. -1.
        -11    1    3    3    0    0  0.23210275585E+01 -0.81601061191E+01 -0.17085925629E+01  0.86541198055E+01  0.51100000000E-03 0.  1.
        -12    1    3    3    0    0 -0.18962909636E+02  0.38272194413E+02 -0.13477654801E+02  0.44788391197E+02  0.00000000000E+00 0.  1.
</event>
<event>
 7    1  0.3743571E-015  0.9000777E+02  0.7816164E-02  0.1186339E+00
        -11   -1    0    0    0    0  0.00000000000E+00  0.00000000000E+00  0.45593999997E+02  0.45594000000E+02  0.51100000000E-03 0.  1.
         11   -1    0    0    0    0 -0.00000000000E+00 -0.00000000000E+00 -0.45593999997E+02  0.45594000000E+02  0.51100000000E-03 0. -1.
    9900012    2    1    2    0    0  0.10954474038E+01 -0.39358328451E+00  0.19500101779E+00  0.90007771966E+02  0.90000033755E+02 0.  0.
        -12    1    1    2    0    0 -0.10954474038E+01  0.39358328451E+00 -0.19500101779E+00  0.11802280345E+01  0.00000000000E+00 0.  1.
         11    1    3    3    0    0  0.47389034714E+01 -0.64264404374E+01 -0.26565904823E+01  0.84150945365E+01  0.51100000000E-03 0. -1.
        -11    1    3    3    0    0 -0.26039213544E+02 -0.20464077490E+02  0.24055170408E+02  0.40932509489E+02  0.51100000000E-03 0.  1.
         12    1    3    3    0    0  0.22395757476E+02  0.26496934643E+02 -0.21203578908E+02  0.40660167940E+02  0.00000000000E+00 0. -1.
</event>
<event>
 7    1  0.3793468E-015  0.9000772E+02  0.7816164E-02  0.1186339E+00
        -11   -1    0    0    0    0  0.00000000000E+00  0.00000000000E+00  0.45593999997E+02  0.45594000000E+02  0.51100000000E-03 0. -1.
         11   -1    0    0    0    0 -0.00000000000E+00 -0.00000000000E+00 -0.45593999997E+02  0.45594000000E+02  0.51100000000E-03 0.  1.
    9900012    2    1    2    0    0 -0.74251686440E+00 -0.79166643534E+00  0.46367829235E+00  0.90007718424E+02  0.89999979508E+02 0.  0.
        -12    1    1    2    0    0  0.74251686440E+00  0.79166643534E+00 -0.46367829235E+00  0.11802815755E+01  0.00000000000E+00 0.  1.
         11    1    3    3    0    0  0.70594767625E+01  0.57487643294E+00 -0.62585578558E+01  0.94517851102E+01  0.51100000000E-03 0. -1.
        -11    1    3    3    0    0  0.31101314393E+02  0.97381216034E+01  0.19683694535E+02  0.38073226816E+02  0.51100000000E-03 0.  1.
         12    1    3    3    0    0 -0.38903308020E+02 -0.11104664472E+02 -0.12961458387E+02  0.42482706499E+02  0.00000000000E+00 0. -1.
</event>
<event>
 7    1  0.3743571E-015  0.9000772E+02  0.7816164E-02  0.1186339E+00
        -11   -1    0    0    0    0  0.00000000000E+00  0.00000000000E+00  0.45593999997E+02  0.45594000000E+02  0.51100000000E-03 0.  1.
         11   -1    0    0    0    0 -0.00000000000E+00 -0.00000000000E+00 -0.45593999997E+02  0.45594000000E+02  0.51100000000E-03 0. -1.
    9900012    2    1    2    0    0 -0.10223527547E+01  0.73032749170E-01 -0.58525363362E+00  0.90007720053E+02  0.89999981158E+02 0.  0.
        -12    1    1    2    0    0  0.10223527547E+01 -0.73032749170E-01  0.58525363362E+00  0.11802799470E+01  0.00000000000E+00 0.  1.
         11    1    3    3    0    0  0.24617441819E+02 -0.81713383513E+01 -0.25283138668E+02  0.36221903778E+02  0.51100000000E-03 0. -1.
        -11    1    3    3    0    0 -0.11839272646E+02 -0.70801134290E+01 -0.73844902458E+01  0.15646951122E+02  0.51100000000E-03 0.  1.
        -12    1    3    3    0    0 -0.13800521928E+02  0.15324484529E+02  0.32082375280E+02  0.38138865153E+02  0.00000000000E+00 0.  1.
</event>
<event>
 7    1  0.3743571E-015  0.9000774E+02  0.7816164E-02  0.1186339E+00
        -11   -1    0    0    0    0  0.00000000000E+00  0.00000000000E+00  0.45593999997E+02  0.45594000000E+02  0.51100000000E-03 0. -1.
         11   -1    0    0    0    0 -0.00000000000E+00 -0.00000000000E+00 -0.45593999997E+02  0.45594000000E+02  0.51100000000E-03 0.  1.
    9900012    2    1    2    0    0  0.25847207078E+00 -0.14943944769E+00 -0.11418757925E+01  0.90007737196E+02  0.89999998527E+02 0.  0.
        -12    1    1    2    0    0 -0.25847207078E+00  0.14943944769E+00  0.11418757925E+01  0.11802628035E+01  0.00000000000E+00 0.  1.
         11    1    3    3    0    0 -0.24014627275E+02  0.25060394137E+02  0.15209477772E+02  0.37895301712E+02  0.51100000000E-03 0. -1.
        -11    1    3    3    0    0 -0.75632297262E+01 -0.55586358254E+01  0.31774041068E+01  0.99094285027E+01  0.51100000000E-03 0.  1.
        -12    1    3    3    0    0  0.31836329072E+02 -0.19651197759E+02 -0.19528757671E+02  0.42203006982E+02  0.00000000000E+00 0.  1.
</event>
<event>
 7    1  0.3743571E-015  0.9000777E+02  0.7816164E-02  0.1186339E+00
        -11   -1    0    0    0    0  0.00000000000E+00  0.00000000000E+00  0.45593999997E+02  0.45594000000E+02  0.51100000000E-03 0.  1.
         11   -1    0    0    0    0 -0.00000000000E+00 -0.00000000000E+00 -0.45593999997E+02  0.45594000000E+02  0.51100000000E-03 0. -1.
    9900012    2    1    2    0    0  0.24082511156E+00 -0.86038905725E+00 -0.77114929519E+00  0.90007772353E+02  0.90000034148E+02 0.  0.
        -12    1    1    2    0    0 -0.24082511156E+00  0.86038905725E+00  0.77114929519E+00  0.11802276474E+01  0.00000000000E+00 0.  1.
         11    1    3    3    0    0 -0.27343686804E+02 -0.24683225610E+02  0.13315395932E+02  0.39169357968E+02  0.51100000000E-03 0. -1.
        -11    1    3    3    0    0 -0.10648247388E+01  0.78156942158E+01  0.80360046535E+01  0.11260386266E+02  0.51100000000E-03 0.  1.
        -12    1    3    3    0    0  0.28649336655E+02  0.16007142337E+02 -0.22122549880E+02  0.39578028119E+02  0.00000000000E+00 0.  1.
</event>
<event>
 7    1  0.3743571E-015  0.9000776E+02  0.7816164E-02  0.1186339E+00
        -11   -1    0    0    0    0  0.00000000000E+00  0.00000000000E+00  0.45593999997E+02  0.45594000000E+02  0.51100000000E-03 0. -1.
         11   -1    0    0    0    0 -0.00000000000E+00 -0.00000000000E+00 -0.45593999997E+02  0.45594000000E+02  0.51100000000E-03 0.  1.
    9900012    2    1    2    0    0  0.96217428919E+00 -0.56722226169E+00  0.38138127327E+00  0.90007757596E+02  0.90000019196E+02 0.  0.
        -12    1    1    2    0    0 -0.96217428919E+00  0.56722226169E+00 -0.38138127327E+00  0.11802424041E+01  0.00000000000E+00 0.  1.
         11    1    3    3    0    0  0.18644157846E+01 -0.51936176370E+00 -0.98274707196E+01  0.10016235014E+02  0.51100000000E-03 0. -1.
        -11    1    3    3    0    0  0.17024652898E+02  0.20666614896E+02 -0.24143506820E+02  0.36053525478E+02  0.51100000000E-03 0.  1.
         12    1    3    3    0    0 -0.17926894393E+02 -0.20714475394E+02  0.34352358813E+02  0.43937997103E+02  0.00000000000E+00 0. -1.
</event>
<event>
 7    1  0.3743571E-015  0.9000776E+02  0.7816164E-02  0.1186339E+00
        -11   -1    0    0    0    0  0.00000000000E+00  0.00000000000E+00  0.45593999997E+02  0.45594000000E+02  0.51100000000E-03 0.  1.
         11   -1    0    0    0    0 -0.00000000000E+00 -0.00000000000E+00 -0.45593999997E+02  0.45594000000E+02  0.51100000000E-03 0. -1.
    9900012    2    1    2    0    0  0.43305282914E+00 -0.40078174819E+00 -0.10221597963E+01  0.90007757901E+02  0.90000019506E+02 0.  0.
        -12    1    1    2    0    0 -0.43305282914E+00  0.40078174819E+00  0.10221597963E+01  0.11802420987E+01  0.00000000000E+00 0.  1.
         11    1    3    3    0    0  0.93857150376E+01 -0.40822639906E+02 -0.81037252713E+01  0.42664387247E+02  0.51100000000E-03 0. -1.
        -11    1    3    3    0    0  0.41672075621E+00  0.49438059980E+01  0.93438297478E+01  0.10579320798E+02  0.51100000000E-03 0.  1.
        -12    1    3    3    0    0 -0.93693829647E+01  0.35478052160E+02 -0.22622642728E+01  0.36764049856E+02  0.00000000000E+00 0.  1.
</event>
<event>
 7    1  0.3743571E-015  0.9000767E+02  0.7816164E-02  0.1186339E+00
        -11   -1    0    0    0    0  0.00000000000E+00  0.00000000000E+00  0.45593999997E+02  0.45594000000E+02  0.51100000000E-03 0.  1.
         11   -1    0    0    0    0 -0.00000000000E+00 -0.00000000000E+00 -0.45593999997E+02  0.45594000000E+02  0.51100000000E-03 0. -1.
    9900012    2    1    2    0    0 -0.44476337101E+00 -0.32400611533E+00 -0.10442164705E+01  0.90007668497E+02  0.89999928921E+02 0.  0.
        -12    1    1    2    0    0  0.44476337101E+00  0.32400611533E+00  0.10442164705E+01  0.11803315027E+01  0.00000000000E+00 0.  1.
         11    1    3    3    0    0 -0.97359602662E+01 -0.27663266883E+01  0.21378967548E+00  0.10123595801E+02  0.51100000000E-03 0. -1.
        -11    1    3    3    0    0  0.39523445748E+01  0.40136162058E+02  0.69879723222E+01  0.40931214125E+02  0.51100000000E-03 0.  1.
         12    1    3    3    0    0  0.53388523204E+01 -0.37693841485E+02 -0.82459784682E+01  0.38952858571E+02  0.00000000000E+00 0. -1.
</event>
<event>
 7    1  0.3743571E-015  0.9000736E+02  0.7816164E-02  0.1186340E+00
        -11   -1    0    0    0    0  0.00000000000E+00  0.00000000000E+00  0.45593999997E+02  0.45594000000E+02  0.51100000000E-03 0.  1.
         11   -1    0    0    0    0 -0.00000000000E+00 -0.00000000000E+00 -0.45593999997E+02  0.45594000000E+02  0.51100000000E-03 0. -1.
    9900012    2    1    2    0    0  0.37963547891E+00 -0.76504761136E+00  0.81516324138E+00  0.90007359473E+02  0.89999615817E+02 0.  0.
        -12    1    1    2    0    0 -0.37963547891E+00  0.76504761136E+00 -0.81516324138E+00  0.11806405272E+01  0.00000000000E+00 0.  1.
         11    1    3    3    0    0  0.33571924371E+00  0.80955912334E+01  0.69695691924E+01  0.10687665780E+02  0.51100000000E-03 0. -1.
        -11    1    3    3    0    0 -0.11265325316E+02 -0.30362291921E+02  0.24208952619E+02  0.40433274816E+02  0.51100000000E-03 0.  1.
         12    1    3    3    0    0  0.11309241551E+02  0.21501653076E+02 -0.30363358570E+02  0.38886418877E+02  0.00000000000E+00 0. -1.
</event>
<event>
 7    1  0.3743571E-015  0.9000778E+02  0.7816164E-02  0.1186339E+00
        -11   -1    0    0    0    0  0.00000000000E+00  0.00000000000E+00  0.45593999997E+02  0.45594000000E+02  0.51100000000E-03 0.  1.
         11   -1    0    0    0    0 -0.00000000000E+00 -0.00000000000E+00 -0.45593999997E+02  0.45594000000E+02  0.51100000000E-03 0. -1.
    9900012    2    1    2    0    0 -0.55665410795E-01 -0.95020434897E+00 -0.69781092298E+00  0.90007776705E+02  0.90000038557E+02 0.  0.
        -12    1    1    2    0    0  0.55665410795E-01  0.95020434897E+00  0.69781092298E+00  0.11802232954E+01  0.00000000000E+00 0.  1.
         11    1    3    3    0    0  0.43438927778E+01  0.68640154672E+01 -0.36325187844E+02  0.37222350610E+02  0.51100000000E-03 0. -1.
        -11    1    3    3    0    0 -0.10586519491E+01  0.64008049282E+01 -0.58976496511E+01  0.87677431159E+01  0.51100000000E-03 0.  1.
        -12    1    3    3    0    0 -0.33409062395E+01 -0.14215024744E+02  0.41525026572E+02  0.44017682978E+02  0.00000000000E+00 0.  1.
</event>
<event>
 7    1  0.3743571E-015  0.9000780E+02  0.7816164E-02  0.1186339E+00
        -11   -1    0    0    0    0  0.00000000000E+00  0.00000000000E+00  0.45593999997E+02  0.45594000000E+02  0.51100000000E-03 0.  1.
         11   -1    0    0    0    0 -0.00000000000E+00 -0.00000000000E+00 -0.45593999997E+02  0.45594000000E+02  0.51100000000E-03 0. -1.
    9900012    2    1    2    0    0 -0.50175596248E+00 -0.10681776771E+01 -0.10469164105E-01  0.90007799933E+02  0.90000062092E+02 0.  0.
        -12    1    1    2    0    0  0.50175596248E+00  0.10681776771E+01  0.10469164105E-01  0.11802000674E+01  0.00000000000E+00 0.  1.
         11    1    3    3    0    0 -0.10783077250E+02 -0.28732940837E+01 -0.15144974632E+01  0.11261628510E+02  0.51100000000E-03 0. -1.
        -11    1    3    3    0    0 -0.49805925300E+01 -0.36687422690E+02  0.41394504999E+01  0.37254641809E+02  0.51100000000E-03 0.  1.
         12    1    3    3    0    0  0.15261913818E+02  0.38492539097E+02 -0.26354222008E+01  0.41491529614E+02  0.00000000000E+00 0. -1.
</event>
<event>
 7    1  0.3743571E-015  0.9000789E+02  0.7816164E-02  0.1186339E+00
        -11   -1    0    0    0    0  0.00000000000E+00  0.00000000000E+00  0.45593999997E+02  0.45594000000E+02  0.51100000000E-03 0. -1.
         11   -1    0    0    0    0 -0.00000000000E+00 -0.00000000000E+00 -0.45593999997E+02  0.45594000000E+02  0.51100000000E-03 0.  1.
    9900012    2    1    2    0    0  0.35972877748E+00 -0.15079918257E+00  0.11137810714E+01  0.90007892606E+02  0.90000155988E+02 0.  0.
        -12    1    1    2    0    0 -0.35972877748E+00  0.15079918257E+00 -0.11137810714E+01  0.11801073942E+01  0.00000000000E+00 0.  1.
         11    1    3    3    0    0 -0.22429091737E+01  0.29969471833E+02 -0.18088555195E+02  0.35076996919E+02  0.51100000000E-03 0. -1.
        -11    1    3    3    0    0 -0.47794502450E+01  0.90950660602E+01 -0.77852202731E+00  0.10303856952E+02  0.51100000000E-03 0.  1.
        -12    1    3    3    0    0  0.73820881962E+01 -0.39215337076E+02  0.19980858294E+02  0.44627038735E+02  0.00000000000E+00 0.  1.
</event>
<event>
 7    1  0.3743571E-015  0.9000759E+02  0.7816164E-02  0.1186339E+00
        -11   -1    0    0    0    0  0.00000000000E+00  0.00000000000E+00  0.45593999997E+02  0.45594000000E+02  0.51100000000E-03 0. -1.
         11   -1    0    0    0    0 -0.00000000000E+00 -0.00000000000E+00 -0.45593999997E+02  0.45594000000E+02  0.51100000000E-03 0.  1.
    9900012    2    1    2    0    0  0.85608660254E+00  0.60748135254E-01  0.81042783399E+00  0.90007589952E+02  0.89999849339E+02 0.  0.
        -12    1    1    2    0    0 -0.85608660254E+00 -0.60748135254E-01 -0.81042783399E+00  0.11804100479E+01  0.00000000000E+00 0.  1.
         11    1    3    3    0    0  0.16244375110E+01 -0.11315433501E+02  0.85512917091E+00  0.11463379899E+02  0.51100000000E-03 0. -1.
        -11    1    3    3    0    0 -0.20966262403E+02 -0.70738453811E+00 -0.32360727027E+02  0.38565544285E+02  0.51100000000E-03 0.  1.
         12    1    3    3    0    0  0.20197911495E+02  0.12083566174E+02  0.32316025690E+02  0.39978665768E+02  0.00000000000E+00 0. -1.
</event>
<event>
 7    1  0.3743571E-015  0.9000777E+02  0.7816164E-02  0.1186339E+00
        -11   -1    0    0    0    0  0.00000000000E+00  0.00000000000E+00  0.45593999997E+02  0.45594000000E+02  0.51100000000E-03 0. -1.
         11   -1    0    0    0    0 -0.00000000000E+00 -0.00000000000E+00 -0.45593999997E+02  0.45594000000E+02  0.51100000000E-03 0.  1.
    9900012    2    1    2    0    0 -0.27199549670E+00 -0.63286376645E+00  0.95835037411E+00  0.90007773947E+02  0.90000035763E+02 0.  0.
        -12    1    1    2    0    0  0.27199549670E+00  0.63286376645E+00 -0.95835037411E+00  0.11802260532E+01  0.00000000000E+00 0.  1.
         11    1    3    3    0    0  0.21417754817E+02  0.32971945465E+02  0.56869883210E+01  0.39726706956E+02  0.51100000000E-03 0. -1.
        -11    1    3    3    0    0 -0.92769604637E+01  0.32472141067E+01  0.36814011767E+01  0.10495671002E+02  0.51100000000E-03 0.  1.
        -12    1    3    3    0    0 -0.12412789850E+02 -0.36852023338E+02 -0.84100391236E+01  0.39785395989E+02  0.00000000000E+00 0.  1.
</event>
<event>
 7    1  0.3743571E-015  0.9000774E+02  0.7816164E-02  0.1186339E+00
        -11   -1    0    0    0    0  0.00000000000E+00  0.00000000000E+00  0.45593999997E+02  0.45594000000E+02  0.51100000000E-03 0.  1.
         11   -1    0    0    0    0 -0.00000000000E+00 -0.00000000000E+00 -0.45593999997E+02  0.45594000000E+02  0.51100000000E-03 0. -1.
    9900012    2    1    2    0    0 -0.86438516281E+00 -0.38260491568E+00 -0.70673505973E+00  0.90007736184E+02  0.89999997501E+02 0.  0.
        -12    1    1    2    0    0  0.86438516281E+00  0.38260491568E+00  0.70673505973E+00  0.11802638162E+01  0.00000000000E+00 0.  1.
         11    1    3    3    0    0  0.25745987157E+02  0.14782107963E+02 -0.14951678896E+02  0.33240326000E+02  0.51100000000E-03 0. -1.
        -11    1    3    3    0    0  0.58136883107E+01  0.31796914627E+01 -0.10233306699E+02  0.12191389413E+02  0.51100000000E-03 0.  1.
        -12    1    3    3    0    0 -0.32424060631E+02 -0.18344404341E+02  0.24478250536E+02  0.44576020770E+02  0.00000000000E+00 0.  1.
</event>
<event>
 7    1  0.3743571E-015  0.9000773E+02  0.7816164E-02  0.1186339E+00
        -11   -1    0    0    0    0  0.00000000000E+00  0.00000000000E+00  0.45593999997E+02  0.45594000000E+02  0.51100000000E-03 0.  1.
         11   -1    0    0    0    0 -0.00000000000E+00 -0.00000000000E+00 -0.45593999997E+02  0.45594000000E+02  0.51100000000E-03 0. -1.
    9900012    2    1    2    0    0  0.97917778693E+00  0.65282717857E+00 -0.89743657863E-01  0.90007734611E+02  0.89999995908E+02 0.  0.
        -12    1    1    2    0    0 -0.97917778693E+00 -0.65282717857E+00  0.89743657863E-01  0.11802653886E+01  0.00000000000E+00 0.  1.
         11    1    3    3    0    0 -0.46230951888E+01  0.37623965025E+02 -0.85524615200E+00  0.37916582119E+02  0.51100000000E-03 0. -1.
        -11    1    3    3    0    0  0.66432412037E+01  0.60394597188E+01 -0.98707751796E+00  0.90322782106E+01  0.51100000000E-03 0.  1.
        -12    1    3    3    0    0 -0.10409682280E+01 -0.43010597565E+02  0.17525800121E+01  0.43058874282E+02  0.00000000000E+00 0.  1.
</event>
<event>
 7    1  0.3743571E-015  0.9000778E+02  0.7816164E-02  0.1186339E+00
        -11   -1    0    0    0    0  0.00000000000E+00  0.00000000000E+00  0.45593999997E+02  0.45594000000E+02  0.51100000000E-03 0. -1.
         11   -1    0    0    0    0 -0.00000000000E+00 -0.00000000000E+00 -0.45593999997E+02  0.45594000000E+02  0.51100000000E-03 0.  1.
    9900012    2    1    2    0    0 -0.95822224215E+00 -0.51346988541E+00  0.45943886957E+00  0.90007777452E+02  0.90000039314E+02 0.  0.
        -12    1    1    2    0    0  0.95822224215E+00  0.51346988541E+00 -0.45943886957E+00  0.11802225483E+01  0.00000000000E+00 0.  1.
         11    1    3    3    0    0  0.38829485024E+00  0.14501160446E+02  0.37733725717E+02  0.40426086676E+02  0.51100000000E-03 0. -1.
        -11    1    3    3    0    0  0.93726865792E+01 -0.35270999637E+01 -0.10163239836E+01  0.10065813557E+02  0.51100000000E-03 0.  1.
        -12    1    3    3    0    0 -0.10719203672E+02 -0.11487530368E+02 -0.36257962864E+02  0.39515877219E+02  0.00000000000E+00 0.  1.
</event>
<event>
 7    1  0.3743571E-015  0.9000762E+02  0.7816164E-02  0.1186339E+00
        -11   -1    0    0    0    0  0.00000000000E+00  0.00000000000E+00  0.45593999997E+02  0.45594000000E+02  0.51100000000E-03 0.  1.
         11   -1    0    0    0    0 -0.00000000000E+00 -0.00000000000E+00 -0.45593999997E+02  0.45594000000E+02  0.51100000000E-03 0. -1.
    9900012    2    1    2    0    0  0.32900846292E+00  0.64458416884E+00 -0.93250919593E+00  0.90007615012E+02  0.89999874730E+02 0.  0.
        -12    1    1    2    0    0 -0.32900846292E+00 -0.64458416884E+00  0.93250919593E+00  0.11803849880E+01  0.00000000000E+00 0.  1.
         11    1    3    3    0    0  0.26065809205E+01 -0.30854774017E+01  0.88390909767E+01  0.97182284624E+01  0.51100000000E-03 0. -1.
        -11    1    3    3    0    0 -0.86522695703E+01  0.36706559392E+02  0.12796625908E+02  0.39824451108E+02  0.51100000000E-03 0.  1.
         12    1    3    3    0    0  0.63746971127E+01 -0.32976497822E+02 -0.22568226081E+02  0.40464935442E+02  0.00000000000E+00 0. -1.
</event>
<event>
 7    1  0.4017599E-015  0.9000780E+02  0.7816164E-02  0.1186339E+00
        -11   -1    0    0    0    0  0.00000000000E+00  0.00000000000E+00  0.45593999997E+02  0.45594000000E+02  0.51100000000E-03 0.  1.
         11   -1    0    0    0    0 -0.00000000000E+00 -0.00000000000E+00 -0.45593999997E+02  0.45594000000E+02  0.51100000000E-03 0. -1.
    9900012    2    1    2    0    0  0.86733434951E+00 -0.10221260103E+00 -0.79382130214E+00  0.90007801479E+02  0.90000063658E+02 0.  0.
        -12    1    1    2    0    0 -0.86733434951E+00  0.10221260103E+00  0.79382130214E+00  0.11801985212E+01  0.00000000000E+00 0.  1.
         11    1    3    3    0    0  0.51091935883E+00 -0.35763011084E+01  0.84448309623E+01  0.91851041612E+01  0.51100000000E-03 0. -1.
        -11    1    3    3    0    0  0.28918685442E+02 -0.16567876266E+02  0.16763882365E+02  0.37307005292E+02  0.51100000000E-03 0.  1.
         12    1    3    3    0    0 -0.28562270451E+02  0.20041964773E+02 -0.26002534630E+02  0.43515692026E+02  0.00000000000E+00 0. -1.
</event>
<event>
 7    1  0.3743571E-015  0.9000766E+02  0.7816164E-02  0.1186339E+00
        -11   -1    0    0    0    0  0.00000000000E+00  0.00000000000E+00  0.45593999997E+02  0.45594000000E+02  0.51100000000E-03 0.  1.
         11   -1    0    0    0    0 -0.00000000000E+00 -0.00000000000E+00 -0.45593999997E+02  0.45594000000E+02  0.51100000000E-03 0. -1.
    9900012    2    1    2    0    0  0.81629078528E+00 -0.61642956925E+00  0.58897044114E+00  0.90007660117E+02  0.89999920430E+02 0.  0.
        -12    1    1    2    0    0 -0.81629078528E+00  0.61642956925E+00 -0.58897044114E+00  0.11803398835E+01  0.00000000000E+00 0.  1.
         11    1    3    3    0    0 -0.18038914173E+01 -0.29677312109E+01 -0.17799047797E+02  0.18134705829E+02  0.51100000000E-03 0. -1.
        -11    1    3    3    0    0  0.14447734169E+02 -0.76811917295E+01 -0.22684307268E+02  0.27969903924E+02  0.51100000000E-03 0.  1.
        -12    1    3    3    0    0 -0.11827551967E+02  0.10032493371E+02  0.41072325506E+02  0.43903050364E+02  0.00000000000E+00 0.  1.
</event>
<event>
 7    1  0.3743571E-015  0.9000778E+02  0.7816164E-02  0.1186339E+00
        -11   -1    0    0    0    0  0.00000000000E+00  0.00000000000E+00  0.45593999997E+02  0.45594000000E+02  0.51100000000E-03 0.  1.
         11   -1    0    0    0    0 -0.00000000000E+00 -0.00000000000E+00 -0.45593999997E+02  0.45594000000E+02  0.51100000000E-03 0. -1.
    9900012    2    1    2    0    0 -0.17017167333E+00  0.37981701513E+00 -0.11044042946E+01  0.90007776204E+02  0.90000038050E+02 0.  0.
        -12    1    1    2    0    0  0.17017167333E+00 -0.37981701513E+00  0.11044042946E+01  0.11802237963E+01  0.00000000000E+00 0.  1.
         11    1    3    3    0    0  0.10172008994E+02 -0.25906712614E+01  0.25334999728E+01  0.10798146459E+02  0.51100000000E-03 0. -1.
        -11    1    3    3    0    0 -0.17883202607E+02 -0.35429423544E+02  0.16465460232E+01  0.39721078815E+02  0.51100000000E-03 0.  1.
         12    1    3    3    0    0  0.75410219395E+01  0.38399911820E+02 -0.52844502906E+01  0.39488550930E+02  0.00000000000E+00 0. -1.
</event>
<event>
 7    1  0.3743571E-015  0.9000771E+02  0.7816164E-02  0.1186339E+00
        -11   -1    0    0    0    0  0.00000000000E+00  0.00000000000E+00  0.45593999997E+02  0.45594000000E+02  0.51100000000E-03 0.  1.
         11   -1    0    0    0    0 -0.00000000000E+00 -0.00000000000E+00 -0.45593999997E+02  0.45594000000E+02  0.51100000000E-03 0. -1.
    9900012    2    1    2    0    0 -0.60913722205E+00  0.20347133735E+00 -0.99026678869E+00  0.90007713148E+02  0.89999974161E+02 0.  0.
        -12    1    1    2    0    0  0.60913722205E+00 -0.20347133735E+00  0.99026678869E+00  0.11802868521E+01  0.00000000000E+00 0.  1.
         11    1    3    3    0    0 -0.35316061111E+02 -0.48970968868E+01  0.14437193216E+02  0.38466066585E+02  0.51100000000E-03 0. -1.
        -11    1    3    3    0    0  0.44083431813E+01  0.10464197145E+02  0.71133780814E+01  0.13398994719E+02  0.51100000000E-03 0.  1.
        -12    1    3    3    0    0  0.30298580707E+02 -0.53636289206E+01 -0.22540838086E+02  0.38142651844E+02  0.00000000000E+00 0.  1.
</event>
<event>
 7    1  0.3743571E-015  0.9000775E+02  0.7816164E-02  0.1186339E+00
        -11   -1    0    0    0    0  0.00000000000E+00  0.00000000000E+00  0.45593999997E+02  0.45594000000E+02  0.51100000000E-03 0. -1.
         11   -1    0    0    0    0 -0.00000000000E+00 -0.00000000000E+00 -0.45593999997E+02  0.45594000000E+02  0.51100000000E-03 0.  1.
    9900012    2    1    2    0    0  0.95124206708E+00  0.46944633973E+00 -0.51744396607E+00  0.90007750198E+02  0.90000011701E+02 0.  0.
        -12    1    1    2    0    0 -0.95124206708E+00 -0.46944633973E+00  0.51744396607E+00  0.11802498016E+01  0.00000000000E+00 0.  1.
         11    1    3    3    0    0 -0.74958650128E+01 -0.10864626623E+02 -0.80398384962E+01  0.15455326177E+02  0.51100000000E-03 0. -1.
        -11    1    3    3    0    0 -0.28280887282E+02 -0.11880939039E+02  0.44210706418E+01  0.30992114542E+02  0.51100000000E-03 0.  1.
         12    1    3    3    0    0  0.36727994362E+02  0.23215012002E+02  0.31013238883E+01  0.43560309479E+02  0.00000000000E+00 0. -1.
</event>
<event>
 7    1  0.3743571E-015  0.9000746E+02  0.7816164E-02  0.1186340E+00
        -11   -1    0    0    0    0  0.00000000000E+00  0.00000000000E+00  0.45593999997E+02  0.45594000000E+02  0.51100000000E-03 0.  1.
         11   -1    0    0    0    0 -0.00000000000E+00 -0.00000000000E+00 -0.45593999997E+02  0.45594000000E+02  0.51100000000E-03 0. -1.
    9900012    2    1    2    0    0 -0.34027901469E+00 -0.50676755981E+00 -0.10104754860E+01  0.90007464581E+02  0.89999722313E+02 0.  0.
        -12    1    1    2    0    0  0.34027901469E+00  0.50676755981E+00  0.10104754860E+01  0.11805354189E+01  0.00000000000E+00 0.  1.
         11    1    3    3    0    0  0.26327691005E+00  0.38560227619E+01 -0.57130359668E+01  0.68976087516E+01  0.51100000000E-03 0. -1.
        -11    1    3    3    0    0 -0.23175406000E+02  0.28901843170E+02  0.17432336362E+02  0.40942671300E+02  0.51100000000E-03 0.  1.
         12    1    3    3    0    0  0.22571850075E+02 -0.33264633492E+02 -0.12729775881E+02  0.42167184529E+02  0.00000000000E+00 0. -1.
</event>
<event>
 7    1  0.3743571E-015  0.9000772E+02  0.7816164E-02  0.1186339E+00
        -11   -1    0    0    0    0  0.00000000000E+00  0.00000000000E+00  0.45593999997E+02  0.45594000000E+02  0.51100000000E-03 0. -1.
         11   -1    0    0    0    0 -0.00000000000E+00 -0.00000000000E+00 -0.45593999997E+02  0.45594000000E+02  0.51100000000E-03 0.  1.
    9900012    2    1    2    0    0 -0.66640278165E+00  0.93966063072E+00 -0.25690693948E+00  0.90007722090E+02  0.89999983222E+02 0.  0.
        -12    1    1    2    0    0  0.66640278165E+00 -0.93966063072E+00  0.25690693948E+00  0.11802779096E+01  0.00000000000E+00 0.  1.
         11    1    3    3    0    0 -0.42550263910E+01 -0.30021218046E+02  0.29614502215E+02  0.42383930023E+02  0.51100000000E-03 0. -1.
        -11    1    3    3    0    0  0.12654349790E+01  0.52979470132E+01  0.27103162232E+01  0.60840268352E+01  0.51100000000E-03 0.  1.
        -12    1    3    3    0    0  0.23231886303E+01  0.25662931663E+02 -0.32581725377E+02  0.41539765232E+02  0.00000000000E+00 0.  1.
</event>
<event>
 7    1  0.3743571E-015  0.9000770E+02  0.7816164E-02  0.1186339E+00
        -11   -1    0    0    0    0  0.00000000000E+00  0.00000000000E+00  0.45593999997E+02  0.45594000000E+02  0.51100000000E-03 0.  1.
         11   -1    0    0    0    0 -0.00000000000E+00 -0.00000000000E+00 -0.45593999997E+02  0.45594000000E+02  0.51100000000E-03 0. -1.
    9900012    2    1    2    0    0 -0.24113148891E+00  0.10563577107E+01 -0.46804227411E+00  0.90007703606E+02  0.89999964493E+02 0.  0.
        -12    1    1    2    0    0  0.24113148891E+00 -0.10563577107E+01  0.46804227411E+00  0.11802963943E+01  0.00000000000E+00 0.  1.
         11    1    3    3    0    0  0.68014540058E+01  0.82363044452E+01  0.18019973582E+01  0.10832528894E+02  0.51100000000E-03 0. -1.
        -11    1    3    3    0    0  0.54713552820E+01  0.27350963842E+02  0.21680298082E+02  0.35327698437E+02  0.51100000000E-03 0.  1.
         12    1    3    3    0    0 -0.12513940777E+02 -0.34530910576E+02 -0.23950337714E+02  0.43847476274E+02  0.00000000000E+00 0. -1.
</event>
<event>
 7    1  0.3743571E-015  0.9000775E+02  0.7816164E-02  0.1186339E+00
        -11   -1    0    0    0    0  0.00000000000E+00  0.00000000000E+00  0.45593999997E+02  0.45594000000E+02  0.51100000000E-03 0.  1.
         11   -1    0    0    0    0 -0.00000000000E+00 -0.00000000000E+00 -0.45593999997E+02  0.45594000000E+02  0.51100000000E-03 0. -1.
    9900012    2    1    2    0    0  0.93504363947E+00  0.67764652452E+00 -0.24388808007E+00  0.90007748834E+02  0.90000010318E+02 0.  0.
        -12    1    1    2    0    0 -0.93504363947E+00 -0.67764652452E+00  0.24388808007E+00  0.11802511663E+01  0.00000000000E+00 0.  1.
         11    1    3    3    0    0 -0.89399751561E+01 -0.71332844873E+01  0.76763296180E+01  0.13774358062E+02  0.51100000000E-03 0. -1.
        -11    1    3    3    0    0 -0.17234708498E+02 -0.26749649322E+02 -0.16532259446E+01  0.31863961965E+02  0.51100000000E-03 0.  1.
         12    1    3    3    0    0  0.27109727293E+02  0.34560580334E+02 -0.62669917534E+01  0.44369428806E+02  0.00000000000E+00 0. -1.
</event>
<event>
 7    1  0.3743571E-015  0.9000771E+02  0.7816164E-02  0.1186339E+00
        -11   -1    0    0    0    0  0.00000000000E+00  0.00000000000E+00  0.45593999997E+02  0.45594000000E+02  0.51100000000E-03 0.  1.
         11   -1    0    0    0    0 -0.00000000000E+00 -0.00000000000E+00 -0.45593999997E+02  0.45594000000E+02  0.51100000000E-03 0. -1.
    9900012    2    1    2    0    0 -0.73512382414E+00 -0.32616653247E+00 -0.86387659557E+00  0.90007714265E+02  0.89999975293E+02 0.  0.
        -12    1    1    2    0    0  0.73512382414E+00  0.32616653247E+00  0.86387659557E+00  0.11802857349E+01  0.00000000000E+00 0.  1.
         11    1    3    3    0    0 -0.27592459377E+02  0.26437929397E+02 -0.53324521108E+01  0.38584232156E+02  0.51100000000E-03 0. -1.
        -11    1    3    3    0    0 -0.46042002808E+01 -0.18193089735E+01 -0.79768913257E+01  0.93882554743E+01  0.51100000000E-03 0.  1.
        -12    1    3    3    0    0  0.31461535834E+02 -0.24944786956E+02  0.12445466841E+02  0.42035226635E+02  0.00000000000E+00 0.  1.
</event>
<event>
 7    1  0.3743571E-015  0.9000785E+02  0.7816164E-02  0.1186339E+00
        -11   -1    0    0    0    0  0.00000000000E+00  0.00000000000E+00  0.45593999997E+02  0.45594000000E+02  0.51100000000E-03 0. -1.
         11   -1    0    0    0    0 -0.00000000000E+00 -0.00000000000E+00 -0.45593999997E+02  0.45594000000E+02  0.51100000000E-03 0.  1.
    9900012    2    1    2    0    0  0.10377957268E+01 -0.32783273662E+00 -0.45635477430E+00  0.90007850029E+02  0.90000112849E+02 0.  0.
        -12    1    1    2    0    0 -0.10377957268E+01  0.32783273662E+00  0.45635477430E+00  0.11801499709E+01  0.00000000000E+00 0.  1.
         11    1    3    3    0    0 -0.22103948579E+01  0.39821215356E+02  0.25606941619E+01  0.39964636777E+02  0.51100000000E-03 0. -1.
        -11    1    3    3    0    0  0.51135154216E+01  0.19393537864E+01 -0.56089203076E+01  0.78338445449E+01  0.51100000000E-03 0.  1.
        -12    1    3    3    0    0 -0.18653248368E+01 -0.42088401879E+02  0.25918713714E+01  0.42209368707E+02  0.00000000000E+00 0.  1.
</event>
<event>
 7    1  0.3743571E-015  0.9000769E+02  0.7816164E-02  0.1186339E+00
        -11   -1    0    0    0    0  0.00000000000E+00  0.00000000000E+00  0.45593999997E+02  0.45594000000E+02  0.51100000000E-03 0.  1.
         11   -1    0    0    0    0 -0.00000000000E+00 -0.00000000000E+00 -0.45593999997E+02  0.45594000000E+02  0.51100000000E-03 0. -1.
    9900012    2    1    2    0    0  0.29675477239E+00  0.79232022551E+00 -0.82298534593E+00  0.90007686646E+02  0.89999947309E+02 0.  0.
        -12    1    1    2    0    0 -0.29675477239E+00 -0.79232022551E+00  0.82298534593E+00  0.11803133543E+01  0.00000000000E+00 0.  1.
         11    1    3    3    0    0  0.60023626433E+01  0.74595152764E+01  0.71986163321E+00  0.96016106197E+01  0.51100000000E-03 0. -1.
        -11    1    3    3    0    0 -0.27392505672E+02  0.19199157628E+02  0.21292546287E+02  0.39652610863E+02  0.51100000000E-03 0.  1.
         12    1    3    3    0    0  0.21686897801E+02 -0.25866352679E+02 -0.22835393266E+02  0.40753465163E+02  0.00000000000E+00 0. -1.
</event>
<event>
 7    1  0.3743571E-015  0.9000758E+02  0.7816164E-02  0.1186339E+00
        -11   -1    0    0    0    0  0.00000000000E+00  0.00000000000E+00  0.45593999997E+02  0.45594000000E+02  0.51100000000E-03 0.  1.
         11   -1    0    0    0    0 -0.00000000000E+00 -0.00000000000E+00 -0.45593999997E+02  0.45594000000E+02  0.51100000000E-03 0. -1.
    9900012    2    1    2    0    0 -0.80300134193E+00  0.49841768577E+00 -0.70722317539E+00  0.90007578057E+02  0.89999837287E+02 0.  0.
        -12    1    1    2    0    0  0.80300134193E+00 -0.49841768577E+00  0.70722317539E+00  0.11804219434E+01  0.00000000000E+00 0.  1.
         11    1    3    3    0    0  0.89870710522E+01 -0.27424266835E+02 -0.20633455177E+02  0.35476715326E+02  0.51100000000E-03 0. -1.
        -11    1    3    3    0    0  0.63139510019E+01 -0.84649070219E+01  0.14525440687E+01  0.10659761380E+02  0.51100000000E-03 0.  1.
        -12    1    3    3    0    0 -0.16104023396E+02  0.36387591543E+02  0.18473687933E+02  0.43871101350E+02  0.00000000000E+00 0.  1.
</event>
<event>
 7    1  0.3743571E-015  0.9000775E+02  0.7816164E-02  0.1186339E+00
        -11   -1    0    0    0    0  0.00000000000E+00  0.00000000000E+00  0.45593999997E+02  0.45594000000E+02  0.51100000000E-03 0. -1.
         11   -1    0    0    0    0 -0.00000000000E+00 -0.00000000000E+00 -0.45593999997E+02  0.45594000000E+02  0.51100000000E-03 0.  1.
    9900012    2    1    2    0    0 -0.52581028135E+00 -0.10507186373E+01  0.11180037641E+00  0.90007751962E+02  0.90000013488E+02 0.  0.
        -12    1    1    2    0    0  0.52581028135E+00  0.10507186373E+01 -0.11180037641E+00  0.11802480379E+01  0.00000000000E+00 0.  1.
         11    1    3    3    0    0  0.43660940020E+00 -0.10586225388E+02  0.36957682900E+02  0.38446444847E+02  0.51100000000E-03 0. -1.
        -11    1    3    3    0    0 -0.25977219076E+01  0.47398641071E+01  0.61960032762E+01  0.82222215807E+01  0.51100000000E-03 0.  1.
        -12    1    3    3    0    0  0.16353022260E+01  0.47956426441E+01 -0.43041885800E+02  0.43339085535E+02  0.00000000000E+00 0.  1.
</event>
<event>
 7    1  0.3743571E-015  0.9000778E+02  0.7816164E-02  0.1186339E+00
        -11   -1    0    0    0    0  0.00000000000E+00  0.00000000000E+00  0.45593999997E+02  0.45594000000E+02  0.51100000000E-03 0.  1.
         11   -1    0    0    0    0 -0.00000000000E+00 -0.00000000000E+00 -0.45593999997E+02  0.45594000000E+02  0.51100000000E-03 0. -1.
    9900012    2    1    2    0    0  0.31340574525E-01 -0.62463955477E+00  0.10008776848E+01  0.90007782670E+02  0.90000044602E+02 0.  0.
        -12    1    1    2    0    0 -0.31340574525E-01  0.62463955477E+00 -0.10008776848E+01  0.11802173296E+01  0.00000000000E+00 0.  1.
         11    1    3    3    0    0  0.27000392269E+02  0.80519683436E+01 -0.22928474530E+02  0.36325890510E+02  0.51100000000E-03 0. -1.
        -11    1    3    3    0    0  0.25280441632E+01 -0.58635928888E+01 -0.79246511430E+01  0.10177073492E+02  0.51100000000E-03 0.  1.
        -12    1    3    3    0    0 -0.29497095857E+02 -0.28130150096E+01  0.31854003357E+02  0.43504818668E+02  0.00000000000E+00 0.  1.
</event>
<event>
 7    1  0.3743571E-015  0.9000776E+02  0.7816164E-02  0.1186339E+00
        -11   -1    0    0    0    0  0.00000000000E+00  0.00000000000E+00  0.45593999997E+02  0.45594000000E+02  0.51100000000E-03 0. -1.
         11   -1    0    0    0    0 -0.00000000000E+00 -0.00000000000E+00 -0.45593999997E+02  0.45594000000E+02  0.51100000000E-03 0.  1.
    9900012    2    1    2    0    0  0.10213740231E+00  0.99839533288E+00  0.62107479532E+00  0.90007763078E+02  0.90000024751E+02 0.  0.
        -12    1    1    2    0    0 -0.10213740231E+00 -0.99839533288E+00 -0.62107479532E+00  0.11802369216E+01  0.00000000000E+00 0.  1.
         11    1    3    3    0    0  0.89707715185E+01 -0.11532735698E+01  0.25458858962E+02  0.27017740125E+02  0.51100000000E-03 0. -1.
        -11    1    3    3    0    0 -0.15941433162E+02 -0.24789948421E+02 -0.83997781507E+01  0.30646812350E+02  0.51100000000E-03 0.  1.
        -12    1    3    3    0    0  0.70727990461E+01  0.26941617324E+02 -0.16438006016E+02  0.32343210603E+02  0.00000000000E+00 0.  1.
</event>
<event>
 7    1  0.3743571E-015  0.9000780E+02  0.7816164E-02  0.1186339E+00
        -11   -1    0    0    0    0  0.00000000000E+00  0.00000000000E+00  0.45593999997E+02  0.45594000000E+02  0.51100000000E-03 0. -1.
         11   -1    0    0    0    0 -0.00000000000E+00 -0.00000000000E+00 -0.45593999997E+02  0.45594000000E+02  0.51100000000E-03 0.  1.
    9900012    2    1    2    0    0  0.30969416733E+00 -0.68346395339E+00 -0.91095636703E+00  0.90007798765E+02  0.90000060909E+02 0.  0.
        -12    1    1    2    0    0 -0.30969416733E+00  0.68346395339E+00  0.91095636703E+00  0.11802012352E+01  0.00000000000E+00 0.  1.
         11    1    3    3    0    0  0.16425553227E+01 -0.59424360298E+01  0.63314036985E+01  0.88372624161E+01  0.51100000000E-03 0. -1.
        -11    1    3    3    0    0 -0.12459634692E+02 -0.35675224372E+02  0.16684366516E+01  0.37825227187E+02  0.51100000000E-03 0.  1.
         12    1    3    3    0    0  0.11126773537E+02  0.40934196448E+02 -0.89107967171E+01  0.43345309162E+02  0.00000000000E+00 0. -1.
</event>
<event>
 7    1  0.4264312E-015  0.9000770E+02  0.7816164E-02  0.1186339E+00
        -11   -1    0    0    0    0  0.00000000000E+00  0.00000000000E+00  0.45593999997E+02  0.45594000000E+02  0.51100000000E-03 0. -1.
         11   -1    0    0    0    0 -0.00000000000E+00 -0.00000000000E+00 -0.45593999997E+02  0.45594000000E+02  0.51100000000E-03 0.  1.
    9900012    2    1    2    0    0  0.86345683343E+00 -0.36057512568E-01  0.80390301558E+00  0.90007695842E+02  0.89999956627E+02 0.  0.
        -12    1    1    2    0    0 -0.86345683343E+00  0.36057512568E-01 -0.80390301558E+00  0.11803041582E+01  0.00000000000E+00 0.  1.
         11    1    3    3    0    0 -0.24429333777E+02  0.11704232568E+01  0.30690231771E+02  0.39243503486E+02  0.51100000000E-03 0. -1.
        -11    1    3    3    0    0 -0.57007856887E+01  0.65514924103E+01 -0.36412980673E+01  0.94170091933E+01  0.51100000000E-03 0.  1.
        -12    1    3    3    0    0  0.30993576299E+02 -0.77579731797E+01 -0.26245030688E+02  0.41347183163E+02  0.00000000000E+00 0.  1.
</event>
<event>
 7    1  0.3743571E-015  0.9000733E+02  0.7816164E-02  0.1186340E+00
        -11   -1    0    0    0    0  0.00000000000E+00  0.00000000000E+00  0.45593999997E+02  0.45594000000E+02  0.51100000000E-03 0.  1.
         11   -1    0    0    0    0 -0.00000000000E+00 -0.00000000000E+00 -0.45593999997E+02  0.45594000000E+02  0.51100000000E-03 0. -1.
    9900012    2    1    2    0    0  0.10016440946E+01  0.29836579426E-01  0.62434195200E+00  0.90007329010E+02  0.89999584952E+02 0.  0.
        -12    1    1    2    0    0 -0.10016440946E+01 -0.29836579426E-01 -0.62434195200E+00  0.11806709901E+01  0.00000000000E+00 0.  1.
         11    1    3    3    0    0  0.84996031290E+01 -0.99028856952E+00 -0.12711433715E+01  0.86509959272E+01  0.51100000000E-03 0. -1.
        -11    1    3    3    0    0 -0.25065108724E+02 -0.23951770629E+02  0.25272420151E+02  0.42902706350E+02  0.51100000000E-03 0.  1.
         12    1    3    3    0    0  0.17567149690E+02  0.24971895778E+02 -0.23376934827E+02  0.38453626733E+02  0.00000000000E+00 0. -1.
</event>
<event>
 7    1  0.3743571E-015  0.9000775E+02  0.7816164E-02  0.1186339E+00
        -11   -1    0    0    0    0  0.00000000000E+00  0.00000000000E+00  0.45593999997E+02  0.45594000000E+02  0.51100000000E-03 0. -1.
         11   -1    0    0    0    0 -0.00000000000E+00 -0.00000000000E+00 -0.45593999997E+02  0.45594000000E+02  0.51100000000E-03 0.  1.
    9900012    2    1    2    0    0  0.41273071052E+00 -0.75632558140E+00  0.80660215536E+00  0.90007753390E+02  0.90000014934E+02 0.  0.
        -12    1    1    2    0    0 -0.41273071052E+00  0.75632558140E+00 -0.80660215536E+00  0.11802466105E+01  0.00000000000E+00 0.  1.
         11    1    3    3    0    0  0.79619557101E+01 -0.19322303479E+01 -0.30674329118E+01  0.87484511644E+01  0.51100000000E-03 0. -1.
        -11    1    3    3    0    0  0.11697544090E+02 -0.17891179244E+02 -0.30654018707E+02  0.37371054248E+02  0.51100000000E-03 0.  1.
         12    1    3    3    0    0 -0.19246769090E+02  0.19067084010E+02  0.34528053774E+02  0.43888247977E+02  0.00000000000E+00 0. -1.
</event>
<event>
 7    1  0.3743571E-015  0.9000771E+02  0.7816164E-02  0.1186339E+00
        -11   -1    0    0    0    0  0.00000000000E+00  0.00000000000E+00  0.45593999997E+02  0.45594000000E+02  0.51100000000E-03 0. -1.
         11   -1    0    0    0    0 -0.00000000000E+00 -0.00000000000E+00 -0.45593999997E+02  0.45594000000E+02  0.51100000000E-03 0.  1.
    9900012    2    1    2    0    0  0.33944506149E+00 -0.67928084853E+00  0.90357360377E+00  0.90007707376E+02  0.89999968313E+02 0.  0.
        -12    1    1    2    0    0 -0.33944506149E+00  0.67928084853E+00 -0.90357360377E+00  0.11802926241E+01  0.00000000000E+00 0.  1.
         11    1    3    3    0    0 -0.37041783799E+02  0.57518267789E+01  0.29160981734E+01  0.37598947952E+02  0.51100000000E-03 0. -1.
        -11    1    3    3    0    0 -0.39496676810E+01 -0.37145282873E-01  0.84237030983E+01  0.93037642227E+01  0.51100000000E-03 0.  1.
        -12    1    3    3    0    0  0.41330896541E+02 -0.63939623446E+01 -0.10436227668E+02  0.43104995201E+02  0.00000000000E+00 0.  1.
</event>
<event>
 7    1  0.3743571E-015  0.9000750E+02  0.7816164E-02  0.1186340E+00
        -11   -1    0    0    0    0  0.00000000000E+00  0.00000000000E+00  0.45593999997E+02  0.45594000000E+02  0.51100000000E-03 0.  1.
         11   -1    0    0    0    0 -0.00000000000E+00 -0.00000000000E+00 -0.45593999997E+02  0.45594000000E+02  0.51100000000E-03 0. -1.
    9900012    2    1    2    0    0 -0.13805385395E+00 -0.38519011637E-01 -0.11717619498E+01  0.90007504914E+02  0.89999763179E+02 0.  0.
        -12    1    1    2    0    0  0.13805385395E+00  0.38519011637E-01  0.11717619498E+01  0.11804950859E+01  0.00000000000E+00 0.  1.
         11    1    3    3    0    0  0.38101704345E+02 -0.16188850129E+00  0.21881111667E+01  0.38164825594E+02  0.51100000000E-03 0. -1.
        -11    1    3    3    0    0 -0.17700855870E+00  0.11718726899E+02  0.12510493308E+01  0.11786645700E+02  0.51100000000E-03 0.  1.
        -12    1    3    3    0    0 -0.38062749640E+02 -0.11595357409E+02 -0.46109224473E+01  0.40056033621E+02  0.00000000000E+00 0.  1.
</event>
<event>
 7    1  0.3743571E-015  0.9000755E+02  0.7816164E-02  0.1186339E+00
        -11   -1    0    0    0    0  0.00000000000E+00  0.00000000000E+00  0.45593999997E+02  0.45594000000E+02  0.51100000000E-03 0.  1.
         11   -1    0    0    0    0 -0.00000000000E+00 -0.00000000000E+00 -0.45593999997E+02  0.45594000000E+02  0.51100000000E-03 0. -1.
    9900012    2    1    2    0    0  0.55899315598E+00 -0.10048738224E+01 -0.26687265119E+00  0.90007548493E+02  0.89999807333E+02 0.  0.
        -12    1    1    2    0    0 -0.55899315598E+00  0.10048738224E+01  0.26687265119E+00  0.11804515066E+01  0.00000000000E+00 0.  1.
         11    1    3    3    0    0 -0.31599624978E+01 -0.13977703752E+02 -0.29941765358E+02  0.33194440471E+02  0.51100000000E-03 0. -1.
        -11    1    3    3    0    0  0.98189843782E+01 -0.11789582693E+02 -0.27221574994E+01  0.15582581815E+02  0.51100000000E-03 0.  1.
        -12    1    3    3    0    0 -0.61000287245E+01  0.24762412623E+02  0.32397050206E+02  0.41230526208E+02  0.00000000000E+00 0.  1.
</event>
<event>
 7    1  0.3743571E-015  0.9000775E+02  0.7816164E-02  0.1186339E+00
        -11   -1    0    0    0    0  0.00000000000E+00  0.00000000000E+00  0.45593999997E+02  0.45594000000E+02  0.51100000000E-03 0. -1.
         11   -1    0    0    0    0 -0.00000000000E+00 -0.00000000000E+00 -0.45593999997E+02  0.45594000000E+02  0.51100000000E-03 0.  1.
    9900012    2    1    2    0    0  0.29942286950E+00 -0.11400675412E+01 -0.59855636282E-01  0.90007749709E+02  0.90000011205E+02 0.  0.
        -12    1    1    2    0    0 -0.29942286950E+00  0.11400675412E+01  0.59855636282E-01  0.11802502915E+01  0.00000000000E+00 0.  1.
         11    1    3    3    0    0 -0.23527113295E+02  0.12912888009E+02  0.23620885852E+02  0.35752118615E+02  0.51100000000E-03 0. -1.
        -11    1    3    3    0    0 -0.88067545663E+01 -0.11718217823E+01  0.38273185124E+01  0.96736993718E+01  0.51100000000E-03 0.  1.
        -12    1    3    3    0    0  0.32633290731E+02 -0.12881133768E+02 -0.27508060001E+02  0.44581931722E+02  0.00000000000E+00 0.  1.
</event>
<event>
 7    1  0.3743571E-015  0.9000760E+02  0.7816164E-02  0.1186339E+00
        -11   -1    0    0    0    0  0.00000000000E+00  0.00000000000E+00  0.45593999997E+02  0.45594000000E+02  0.51100000000E-03 0.  1.
         11   -1    0    0    0    0 -0.00000000000E+00 -0.00000000000E+00 -0.45593999997E+02  0.45594000000E+02  0.51100000000E-03 0. -1.
    9900012    2    1    2    0    0  0.95771676747E+00  0.56393988644E+00 -0.39759671256E+00  0.90007604834E+02  0.89999864418E+02 0.  0.
        -12    1    1    2    0    0 -0.95771676747E+00 -0.56393988644E+00  0.39759671256E+00  0.11803951661E+01  0.00000000000E+00 0.  1.
         11    1    3    3    0    0 -0.23268363384E+02 -0.93049340544E+01  0.11691705037E+02  0.27653110119E+02  0.51100000000E-03 0. -1.
        -11    1    3    3    0    0 -0.10110813677E+02  0.13424649037E+02  0.11658697618E+02  0.20454216812E+02  0.51100000000E-03 0.  1.
        -12    1    3    3    0    0  0.34336893829E+02 -0.35557750965E+01 -0.23747999368E+02  0.41900277903E+02  0.00000000000E+00 0.  1.
</event>
<event>
 7    1  0.3743571E-015  0.9000773E+02  0.7816164E-02  0.1186339E+00
        -11   -1    0    0    0    0  0.00000000000E+00  0.00000000000E+00  0.45593999997E+02  0.45594000000E+02  0.51100000000E-03 0. -1.
         11   -1    0    0    0    0 -0.00000000000E+00 -0.00000000000E+00 -0.45593999997E+02  0.45594000000E+02  0.51100000000E-03 0.  1.
    9900012    2    1    2    0    0  0.35028962306E+00 -0.32493165380E+00  0.10792371876E+01  0.90007730409E+02  0.89999991651E+02 0.  0.
        -12    1    1    2    0    0 -0.35028962306E+00  0.32493165380E+00 -0.10792371876E+01  0.11802695907E+01  0.00000000000E+00 0.  1.
         11    1    3    3    0    0  0.12662010069E+01  0.88667048987E+01 -0.18414425816E+01  0.91439943019E+01  0.51100000000E-03 0. -1.
        -11    1    3    3    0    0  0.25217214217E+02  0.22886346929E+02 -0.13110845137E+02  0.36490917077E+02  0.51100000000E-03 0.  1.
         12    1    3    3    0    0 -0.26133125601E+02 -0.32077983482E+02  0.16031524906E+02  0.44372819031E+02  0.00000000000E+00 0. -1.
</event>
<event>
 7    1  0.3743571E-015  0.9000773E+02  0.7816164E-02  0.1186339E+00
        -11   -1    0    0    0    0  0.00000000000E+00  0.00000000000E+00  0.45593999997E+02  0.45594000000E+02  0.51100000000E-03 0. -1.
         11   -1    0    0    0    0 -0.00000000000E+00 -0.00000000000E+00 -0.45593999997E+02  0.45594000000E+02  0.51100000000E-03 0.  1.
    9900012    2    1    2    0    0  0.21405374318E+00 -0.49100769771E+00  0.10517228518E+01  0.90007733707E+02  0.89999994992E+02 0.  0.
        -12    1    1    2    0    0 -0.21405374318E+00  0.49100769771E+00 -0.10517228518E+01  0.11802662925E+01  0.00000000000E+00 0.  1.
         11    1    3    3    0    0 -0.66296077044E+01  0.15794999628E+01  0.36896799911E+02  0.37520932323E+02  0.51100000000E-03 0. -1.
        -11    1    3    3    0    0 -0.66368997359E+01 -0.74730386486E+01  0.34661813998E+01  0.10578712516E+02  0.51100000000E-03 0.  1.
        -12    1    3    3    0    0  0.13480561183E+02  0.54025309880E+01 -0.39311258459E+02  0.41908088868E+02  0.00000000000E+00 0.  1.
</event>
<event>
 7    1  0.3743571E-015  0.9000748E+02  0.7816164E-02  0.1186340E+00
        -11   -1    0    0    0    0  0.00000000000E+00  0.00000000000E+00  0.45593999997E+02  0.45594000000E+02  0.51100000000E-03 0. -1.
         11   -1    0    0    0    0 -0.00000000000E+00 -0.00000000000E+00 -0.45593999997E+02  0.45594000000E+02  0.51100000000E-03 0.  1.
    9900012    2    1    2    0    0  0.38251382619E+00  0.11135723800E+01 -0.85289131694E-01  0.90007477019E+02  0.89999734915E+02 0.  0.
        -12    1    1    2    0    0 -0.38251382619E+00 -0.11135723800E+01  0.85289131694E-01  0.11805229810E+01  0.00000000000E+00 0.  1.
         11    1    3    3    0    0  0.55667637371E+01  0.10740236252E+02  0.33261947209E+02  0.35393483378E+02  0.51100000000E-03 0. -1.
        -11    1    3    3    0    0 -0.84760271328E+01  0.91244135824E+01  0.36740749904E+01  0.12984482526E+02  0.51100000000E-03 0.  1.
        -12    1    3    3    0    0  0.32917772219E+01 -0.18751077455E+02 -0.37021311331E+02  0.41629511115E+02  0.00000000000E+00 0.  1.
</event>
<event>
 7    1  0.3743571E-015  0.9000771E+02  0.7816164E-02  0.1186339E+00
        -11   -1    0    0    0    0  0.00000000000E+00  0.00000000000E+00  0.45593999997E+02  0.45594000000E+02  0.51100000000E-03 0.  1.
         11   -1    0    0    0    0 -0.00000000000E+00 -0.00000000000E+00 -0.45593999997E+02  0.45594000000E+02  0.51100000000E-03 0. -1.
    9900012    2    1    2    0    0  0.10784480202E+01 -0.56826105464E-01 -0.47623778703E+00  0.90007711150E+02  0.89999972138E+02 0.  0.
        -12    1    1    2    0    0 -0.10784480202E+01  0.56826105464E-01  0.47623778703E+00  0.11802888495E+01  0.00000000000E+00 0.  1.
         11    1    3    3    0    0 -0.26144100394E+02 -0.59856201809E+01 -0.27733147023E+02  0.38580682711E+02  0.51100000000E-03 0. -1.
        -11    1    3    3    0    0  0.55334840355E+01 -0.11968476302E+01 -0.77719832510E+01  0.96153842220E+01  0.51100000000E-03 0.  1.
        -12    1    3    3    0    0  0.21689064378E+02  0.71256417057E+01  0.35028892487E+02  0.41811644218E+02  0.00000000000E+00 0.  1.
</event>
<event>
 7    1  0.3743571E-015  0.9000774E+02  0.7816164E-02  0.1186339E+00
        -11   -1    0    0    0    0  0.00000000000E+00  0.00000000000E+00  0.45593999997E+02  0.45594000000E+02  0.51100000000E-03 0. -1.
         11   -1    0    0    0    0 -0.00000000000E+00 -0.00000000000E+00 -0.45593999997E+02  0.45594000000E+02  0.51100000000E-03 0.  1.
    9900012    2    1    2    0    0 -0.67155524552E+00 -0.84290073215E+00  0.48118716203E+00  0.90007741902E+02  0.90000003296E+02 0.  0.
        -12    1    1    2    0    0  0.67155524552E+00  0.84290073215E+00 -0.48118716203E+00  0.11802580976E+01  0.00000000000E+00 0.  1.
         11    1    3    3    0    0  0.14894768104E+01  0.33468310143E+01  0.88153545107E+01  0.95462188545E+01  0.51100000000E-03 0. -1.
        -11    1    3    3    0    0 -0.14191020416E+02 -0.19415927992E+02  0.29428198408E+02  0.38005028379E+02  0.51100000000E-03 0.  1.
         12    1    3    3    0    0  0.12029988360E+02  0.15226196245E+02 -0.37762365757E+02  0.42456494669E+02  0.00000000000E+00 0. -1.
</event>
<event>
 7    1  0.3743571E-015  0.9000776E+02  0.7816164E-02  0.1186339E+00
        -11   -1    0    0    0    0  0.00000000000E+00  0.00000000000E+00  0.45593999997E+02  0.45594000000E+02  0.51100000000E-03 0.  1.
         11   -1    0    0    0    0 -0.00000000000E+00 -0.00000000000E+00 -0.45593999997E+02  0.45594000000E+02  0.51100000000E-03 0. -1.
    9900012    2    1    2    0    0 -0.62981147019E+00  0.99609689618E+00  0.64064741468E-01  0.90007756040E+02  0.90000017619E+02 0.  0.
        -12    1    1    2    0    0  0.62981147019E+00 -0.99609689618E+00 -0.64064741468E-01  0.11802439602E+01  0.00000000000E+00 0.  1.
         11    1    3    3    0    0 -0.39940184453E+02  0.65854550488E+01 -0.57506747108E+01  0.40885899920E+02  0.51100000000E-03 0. -1.
        -11    1    3    3    0    0  0.11513166895E+00 -0.49601513206E+00  0.94192896939E+01  0.94330432476E+01  0.51100000000E-03 0.  1.
        -12    1    3    3    0    0  0.39195241314E+02 -0.50933430205E+01 -0.36045502416E+01  0.39688812873E+02  0.00000000000E+00 0.  1.
</event>
<event>
 7    1  0.3743571E-015  0.9000774E+02  0.7816164E-02  0.1186339E+00
        -11   -1    0    0    0    0  0.00000000000E+00  0.00000000000E+00  0.45593999997E+02  0.45594000000E+02  0.51100000000E-03 0.  1.
         11   -1    0    0    0    0 -0.00000000000E+00 -0.00000000000E+00 -0.45593999997E+02  0.45594000000E+02  0.51100000000E-03 0. -1.
    9900012    2    1    2    0    0  0.45238935282E+00  0.75168616359E+00 -0.78950430102E+00  0.90007743563E+02  0.90000004978E+02 0.  0.
        -12    1    1    2    0    0 -0.45238935282E+00 -0.75168616359E+00  0.78950430102E+00  0.11802564367E+01  0.00000000000E+00 0.  1.
         11    1    3    3    0    0  0.30826733980E+02 -0.16507723347E+02  0.13381878873E+02  0.37441516267E+02  0.51100000000E-03 0. -1.
        -11    1    3    3    0    0  0.66765703855E+01  0.45251027745E+01  0.44237413662E+01  0.91990562108E+01  0.51100000000E-03 0.  1.
        -12    1    3    3    0    0 -0.37050915012E+02  0.12734306736E+02 -0.18595124540E+02  0.43367171085E+02  0.00000000000E+00 0.  1.
</event>
<event>
 7    1  0.3743571E-015  0.9000728E+02  0.7816164E-02  0.1186340E+00
        -11   -1    0    0    0    0  0.00000000000E+00  0.00000000000E+00  0.45593999997E+02  0.45594000000E+02  0.51100000000E-03 0.  1.
         11   -1    0    0    0    0 -0.00000000000E+00 -0.00000000000E+00 -0.45593999997E+02  0.45594000000E+02  0.51100000000E-03 0. -1.
    9900012    2    1    2    0    0  0.94736185309E+00  0.75820004287E-01 -0.70061890164E+00  0.90007275646E+02  0.89999530884E+02 0.  0.
        -12    1    1    2    0    0 -0.94736185309E+00 -0.75820004287E-01  0.70061890164E+00  0.11807243536E+01  0.00000000000E+00 0.  1.
         11    1    3    3    0    0  0.17147261336E+02 -0.35434452511E+02  0.97391260872E+01  0.40552183335E+02  0.51100000000E-03 0. -1.
        -11    1    3    3    0    0 -0.57935511794E+01 -0.42697684661E+01 -0.21257760297E+01  0.75043375465E+01  0.51100000000E-03 0.  1.
        -12    1    3    3    0    0 -0.10406348304E+02  0.39780040981E+02 -0.83139689592E+01  0.41950754765E+02  0.00000000000E+00 0.  1.
</event>
<event>
 7    1  0.3743571E-015  0.9000777E+02  0.7816164E-02  0.1186339E+00
        -11   -1    0    0    0    0  0.00000000000E+00  0.00000000000E+00  0.45593999997E+02  0.45594000000E+02  0.51100000000E-03 0.  1.
         11   -1    0    0    0    0 -0.00000000000E+00 -0.00000000000E+00 -0.45593999997E+02  0.45594000000E+02  0.51100000000E-03 0. -1.
    9900012    2    1    2    0    0 -0.31662570618E+00 -0.44857591785E+00 -0.10447329072E+01  0.90007771616E+02  0.90000033401E+02 0.  0.
        -12    1    1    2    0    0  0.31662570618E+00  0.44857591785E+00  0.10447329072E+01  0.11802283843E+01  0.00000000000E+00 0.  1.
         11    1    3    3    0    0 -0.95651461600E+00  0.72765325970E+01 -0.36432504533E+02  0.37164367796E+02  0.51100000000E-03 0. -1.
        -11    1    3    3    0    0 -0.47998906846E+01 -0.70282063400E+01 -0.64305004946E+01  0.10667050755E+02  0.51100000000E-03 0.  1.
        -12    1    3    3    0    0  0.54397795944E+01 -0.69690217486E+00  0.41818272121E+02  0.42176353065E+02  0.00000000000E+00 0.  1.
</event>
<event>
 7    1  0.3743571E-015  0.9000769E+02  0.7816164E-02  0.1186339E+00
        -11   -1    0    0    0    0  0.00000000000E+00  0.00000000000E+00  0.45593999997E+02  0.45594000000E+02  0.51100000000E-03 0. -1.
         11   -1    0    0    0    0 -0.00000000000E+00 -0.00000000000E+00 -0.45593999997E+02  0.45594000000E+02  0.51100000000E-03 0.  1.
    9900012    2    1    2    0    0  0.26289833536E+00  0.32944131301E-03  0.11506563145E+01  0.90007692584E+02  0.89999953326E+02 0.  0.
        -12    1    1    2    0    0 -0.26289833536E+00 -0.32944131301E-03 -0.11506563145E+01  0.11803074164E+01  0.00000000000E+00 0.  1.
         11    1    3    3    0    0  0.45844287667E+01 -0.65228021762E+01  0.74190343612E+00  0.80071440799E+01  0.51100000000E-03 0. -1.
        -11    1    3    3    0    0 -0.37499989704E+02 -0.10878026649E+02 -0.14537611607E+02  0.41664407389E+02  0.51100000000E-03 0.  1.
         12    1    3    3    0    0  0.33178459273E+02  0.17401158267E+02  0.14946364485E+02  0.40336141115E+02  0.00000000000E+00 0. -1.
</event>
<event>
 7    1  0.3743571E-015  0.9000761E+02  0.7816164E-02  0.1186339E+00
        -11   -1    0    0    0    0  0.00000000000E+00  0.00000000000E+00  0.45593999997E+02  0.45594000000E+02  0.51100000000E-03 0. -1.
         11   -1    0    0    0    0 -0.00000000000E+00 -0.00000000000E+00 -0.45593999997E+02  0.45594000000E+02  0.51100000000E-03 0.  1.
    9900012    2    1    2    0    0 -0.85706703629E+00 -0.63212231254E+00 -0.50910407543E+00  0.90007606217E+02  0.89999865819E+02 0.  0.
        -12    1    1    2    0    0  0.85706703629E+00  0.63212231254E+00  0.50910407543E+00  0.11803937827E+01  0.00000000000E+00 0.  1.
         11    1    3    3    0    0  0.69923266851E+01  0.15973859392E+02 -0.94963573111E+00  0.17463064583E+02  0.51100000000E-03 0. -1.
        -11    1    3    3    0    0 -0.14403781653E+02  0.55004791919E+01 -0.30371081704E+02  0.34060634189E+02  0.51100000000E-03 0.  1.
         12    1    3    3    0    0  0.65543879313E+01 -0.22106460896E+02  0.30811613359E+02  0.38483907446E+02  0.00000000000E+00 0. -1.
</event>
<event>
 7    1  0.3743571E-015  0.9000769E+02  0.7816164E-02  0.1186339E+00
        -11   -1    0    0    0    0  0.00000000000E+00  0.00000000000E+00  0.45593999997E+02  0.45594000000E+02  0.51100000000E-03 0.  1.
         11   -1    0    0    0    0 -0.00000000000E+00 -0.00000000000E+00 -0.45593999997E+02  0.45594000000E+02  0.51100000000E-03 0. -1.
    9900012    2    1    2    0    0  0.70335756184E+00 -0.70312950247E+00 -0.63562573819E+00  0.90007693669E+02  0.89999954425E+02 0.  0.
        -12    1    1    2    0    0 -0.70335756184E+00  0.70312950247E+00  0.63562573819E+00  0.11803063315E+01  0.00000000000E+00 0.  1.
         11    1    3    3    0    0 -0.26442795381E+02 -0.52398267540E+01 -0.97444784014E+01  0.28664125166E+02  0.51100000000E-03 0. -1.
        -11    1    3    3    0    0 -0.12644533555E+02  0.14491830847E+02  0.62674555049E+01  0.20228158317E+02  0.51100000000E-03 0.  1.
        -12    1    3    3    0    0  0.39790686498E+02 -0.99551335957E+01  0.28413971583E+01  0.41115410185E+02  0.00000000000E+00 0.  1.
</event>
<event>
 7    1  0.3743571E-015  0.9000859E+02  0.7816164E-02  0.1186337E+00
        -11   -1    0    0    0    0  0.00000000000E+00  0.00000000000E+00  0.45593999997E+02  0.45594000000E+02  0.51100000000E-03 0.  1.
         11   -1    0    0    0    0 -0.00000000000E+00 -0.00000000000E+00 -0.45593999997E+02  0.45594000000E+02  0.51100000000E-03 0. -1.
    9900012    2    1    2    0    0  0.47604194287E+00  0.20192092573E+00 -0.10600114380E+01  0.90008588180E+02  0.90000860740E+02 0.  0.
        -12    1    1    2    0    0 -0.47604194287E+00 -0.20192092573E+00  0.10600114380E+01  0.11794118197E+01  0.00000000000E+00 0.  1.
         11    1    3    3    0    0  0.27640318704E+01  0.97615639706E+01  0.21291863442E+01  0.10366360889E+02  0.51100000000E-03 0. -1.
        -11    1    3    3    0    0 -0.59614622092E+01  0.20855326778E+02  0.28334819273E+02  0.35683969373E+02  0.51100000000E-03 0.  1.
         12    1    3    3    0    0  0.36734722816E+01 -0.30414969823E+02 -0.31524017056E+02  0.43958257919E+02  0.00000000000E+00 0. -1.
</event>
<event>
 7    1  0.3743571E-015  0.9000847E+02  0.7816164E-02  0.1186338E+00
        -11   -1    0    0    0    0  0.00000000000E+00  0.00000000000E+00  0.45593999997E+02  0.45594000000E+02  0.51100000000E-03 0. -1.
         11   -1    0    0    0    0 -0.00000000000E+00 -0.00000000000E+00 -0.45593999997E+02  0.45594000000E+02  0.51100000000E-03 0.  1.
    9900012    2    1    2    0    0 -0.67314046711E+00  0.78764922940E+00 -0.56372894430E+00  0.90008466313E+02  0.90000737265E+02 0.  0.
        -12    1    1    2    0    0  0.67314046711E+00 -0.78764922940E+00  0.56372894430E+00  0.11795336874E+01  0.00000000000E+00 0.  1.
         11    1    3    3    0    0 -0.37314218866E+02 -0.12114762351E+02  0.90173425078E+01  0.40254575673E+02  0.51100000000E-03 0. -1.
        -11    1    3    3    0    0  0.46363168227E+01 -0.77044340553E+01  0.32851926794E+01  0.95732036955E+01  0.51100000000E-03 0.  1.
        -12    1    3    3    0    0  0.32004761577E+02  0.20606845636E+02 -0.12866264132E+02  0.40180686944E+02  0.00000000000E+00 0.  1.
</event>
<event>
 7    1  0.3743571E-015  0.9000786E+02  0.7816164E-02  0.1186339E+00
        -11   -1    0    0    0    0  0.00000000000E+00  0.00000000000E+00  0.45593999997E+02  0.45594000000E+02  0.51100000000E-03 0. -1.
         11   -1    0    0    0    0 -0.00000000000E+00 -0.00000000000E+00 -0.45593999997E+02  0.45594000000E+02  0.51100000000E-03 0.  1.
    9900012    2    1    2    0    0 -0.25172590340E+00  0.12587386409E+00  0.11460874273E+01  0.90007861639E+02  0.90000124613E+02 0.  0.
        -12    1    1    2    0    0  0.25172590340E+00 -0.12587386409E+00 -0.11460874273E+01  0.11801383610E+01  0.00000000000E+00 0.  1.
         11    1    3    3    0    0 -0.38092519241E+01  0.16803960635E+01 -0.81381738831E+01  0.91413349990E+01  0.51100000000E-03 0. -1.
        -11    1    3    3    0    0 -0.15065557536E+02  0.33865666423E+02 -0.68960556875E+01  0.37701591086E+02  0.51100000000E-03 0.  1.
         12    1    3    3    0    0  0.18623083557E+02 -0.35420188622E+02  0.16180316998E+02  0.43164935554E+02  0.00000000000E+00 0. -1.
</event>
<event>
 7    1  0.3743571E-015  0.9000778E+02  0.7816164E-02  0.1186339E+00
        -11   -1    0    0    0    0  0.00000000000E+00  0.00000000000E+00  0.45593999997E+02  0.45594000000E+02  0.51100000000E-03 0. -1.
         11   -1    0    0    0    0 -0.00000000000E+00 -0.00000000000E+00 -0.45593999997E+02  0.45594000000E+02  0.51100000000E-03 0.  1.
    9900012    2    1    2    0    0 -0.87345211858E+00 -0.65907920150E+00  0.44229414632E+00  0.90007776246E+02  0.90000038093E+02 0.  0.
        -12    1    1    2    0    0  0.87345211858E+00  0.65907920150E+00 -0.44229414632E+00  0.11802237539E+01  0.00000000000E+00 0.  1.
         11    1    3    3    0    0 -0.16713272209E-01  0.33699838549E+02  0.11928197291E+02  0.35748584425E+02  0.51100000000E-03 0. -1.
        -11    1    3    3    0    0 -0.11650672113E+01  0.92355663869E+01 -0.34599844147E+01  0.99309899056E+01  0.51100000000E-03 0.  1.
        -12    1    3    3    0    0  0.30832836496E+00 -0.43594484137E+02 -0.80259187300E+01  0.44328201915E+02  0.00000000000E+00 0.  1.
</event>
<event>
 7    1  0.3743571E-015  0.9000765E+02  0.7816164E-02  0.1186339E+00
        -11   -1    0    0    0    0  0.00000000000E+00  0.00000000000E+00  0.45593999997E+02  0.45594000000E+02  0.51100000000E-03 0. -1.
         11   -1    0    0    0    0 -0.00000000000E+00 -0.00000000000E+00 -0.45593999997E+02  0.45594000000E+02  0.51100000000E-03 0.  1.
    9900012    2    1    2    0    0 -0.13242705149E+00 -0.61025356609E+00  0.10016412845E+01  0.90007647679E+02  0.89999907828E+02 0.  0.
        -12    1    1    2    0    0  0.13242705149E+00  0.61025356609E+00 -0.10016412845E+01  0.11803523210E+01  0.00000000000E+00 0.  1.
         11    1    3    3    0    0 -0.59306641946E+01  0.23780283439E+01 -0.13879485612E+02  0.15279656989E+02  0.51100000000E-03 0. -1.
        -11    1    3    3    0    0 -0.26141705137E+02 -0.15482285566E+02 -0.10408124528E+02  0.32115712203E+02  0.51100000000E-03 0.  1.
         12    1    3    3    0    0  0.31939942280E+02  0.12494003656E+02  0.25289251425E+02  0.42612278487E+02  0.00000000000E+00 0. -1.
</event>
<event>
 7    1  0.3743571E-015  0.9000778E+02  0.7816164E-02  0.1186339E+00
        -11   -1    0    0    0    0  0.00000000000E+00  0.00000000000E+00  0.45593999997E+02  0.45594000000E+02  0.51100000000E-03 0.  1.
         11   -1    0    0    0    0 -0.00000000000E+00 -0.00000000000E+00 -0.45593999997E+02  0.45594000000E+02  0.51100000000E-03 0. -1.
    9900012    2    1    2    0    0  0.27843439600E+00 -0.11267753392E+01 -0.21394460811E+00  0.90007779396E+02  0.90000041284E+02 0.  0.
        -12    1    1    2    0    0 -0.27843439600E+00  0.11267753392E+01  0.21394460811E+00  0.11802206037E+01  0.00000000000E+00 0.  1.
         11    1    3    3    0    0 -0.22845790922E+02  0.32927922333E+02  0.80198243805E+01  0.40871699443E+02  0.51100000000E-03 0. -1.
        -11    1    3    3    0    0 -0.54325639878E+01 -0.37521034668E+01 -0.26947237175E+01  0.71310986588E+01  0.51100000000E-03 0.  1.
        -12    1    3    3    0    0  0.28556789306E+02 -0.30302594205E+02 -0.55390452711E+01  0.42004981294E+02  0.00000000000E+00 0.  1.
</event>
<event>
 7    1  0.3743571E-015  0.9000771E+02  0.7816164E-02  0.1186339E+00
        -11   -1    0    0    0    0  0.00000000000E+00  0.00000000000E+00  0.45593999997E+02  0.45594000000E+02  0.51100000000E-03 0. -1.
         11   -1    0    0    0    0 -0.00000000000E+00 -0.00000000000E+00 -0.45593999997E+02  0.45594000000E+02  0.51100000000E-03 0.  1.
    9900012    2    1    2    0    0 -0.29089913319E+00  0.12693536461E+00  0.11368201160E+01  0.90007705601E+02  0.89999966515E+02 0.  0.
        -12    1    1    2    0    0  0.29089913319E+00 -0.12693536461E+00 -0.11368201160E+01  0.11802943991E+01  0.00000000000E+00 0.  1.
         11    1    3    3    0    0 -0.13844701820E+01 -0.11812777824E+02  0.33171166252E+02  0.35238966335E+02  0.51100000000E-03 0. -1.
        -11    1    3    3    0    0 -0.15038480645E+01 -0.86478374673E+01  0.65542413921E+01  0.10954667149E+02  0.51100000000E-03 0.  1.
        -12    1    3    3    0    0  0.25974191133E+01  0.20587550656E+02 -0.38588587528E+02  0.43814072117E+02  0.00000000000E+00 0.  1.
</event>
<event>
 7    1  0.3743571E-015  0.9000784E+02  0.7816164E-02  0.1186339E+00
        -11   -1    0    0    0    0  0.00000000000E+00  0.00000000000E+00  0.45593999997E+02  0.45594000000E+02  0.51100000000E-03 0.  1.
         11   -1    0    0    0    0 -0.00000000000E+00 -0.00000000000E+00 -0.45593999997E+02  0.45594000000E+02  0.51100000000E-03 0. -1.
    9900012    2    1    2    0    0 -0.31238036723E+00 -0.54584749075E+00 -0.99862460030E+00  0.90007838117E+02  0.90000100780E+02 0.  0.
        -12    1    1    2    0    0  0.31238036723E+00  0.54584749075E+00  0.99862460030E+00  0.11801618827E+01  0.00000000000E+00 0.  1.
         11    1    3    3    0    0  0.29149054498E+02  0.87718466452E+01  0.22779999152E+02  0.38020271347E+02  0.51100000000E-03 0. -1.
        -11    1    3    3    0    0  0.30091390747E+01 -0.82461384120E+01  0.36134999087E+01  0.94926865814E+01  0.51100000000E-03 0.  1.
        -12    1    3    3    0    0 -0.32470573940E+02 -0.10715557240E+01 -0.27392123661E+02  0.42494880189E+02  0.00000000000E+00 0.  1.
</event>
<event>
 7    1  0.3743571E-015  0.9000723E+02  0.7816164E-02  0.1186340E+00
        -11   -1    0    0    0    0  0.00000000000E+00  0.00000000000E+00  0.45593999997E+02  0.45594000000E+02  0.51100000000E-03 0. -1.
         11   -1    0    0    0    0 -0.00000000000E+00 -0.00000000000E+00 -0.45593999997E+02  0.45594000000E+02  0.51100000000E-03 0.  1.
    9900012    2    1    2    0    0  0.76813181660E+00  0.11389563820E+00  0.88950619944E+00  0.90007229073E+02  0.89999483695E+02 0.  0.
        -12    1    1    2    0    0 -0.76813181660E+00 -0.11389563820E+00 -0.88950619944E+00  0.11807709274E+01  0.00000000000E+00 0.  1.
         11    1    3    3    0    0  0.76143315954E+01 -0.26071960568E+02 -0.32593088647E+02  0.42426814650E+02  0.51100000000E-03 0. -1.
        -11    1    3    3    0    0 -0.29754402634E+01  0.95731939748E+01  0.24432919521E-01  0.10024963086E+02  0.51100000000E-03 0.  1.
        -12    1    3    3    0    0 -0.38707595154E+01  0.16612662231E+02  0.33458161927E+02  0.37555451337E+02  0.00000000000E+00 0.  1.
</event>
<event>
 7    1  0.3743571E-015  0.9000776E+02  0.7816164E-02  0.1186339E+00
        -11   -1    0    0    0    0  0.00000000000E+00  0.00000000000E+00  0.45593999997E+02  0.45594000000E+02  0.51100000000E-03 0.  1.
         11   -1    0    0    0    0 -0.00000000000E+00 -0.00000000000E+00 -0.45593999997E+02  0.45594000000E+02  0.51100000000E-03 0. -1.
    9900012    2    1    2    0    0  0.93715971216E+00 -0.53945622603E+00 -0.47294676982E+00  0.90007762739E+02  0.90000024407E+02 0.  0.
        -12    1    1    2    0    0 -0.93715971216E+00  0.53945622603E+00  0.47294676982E+00  0.11802372613E+01  0.00000000000E+00 0.  1.
         11    1    3    3    0    0 -0.25050935997E+02 -0.22367873790E+02 -0.22287134138E+02  0.40306172239E+02  0.51100000000E-03 0. -1.
        -11    1    3    3    0    0  0.62223447244E+00 -0.51700168471E+01  0.91931240833E+01  0.10565499544E+02  0.51100000000E-03 0.  1.
        -12    1    3    3    0    0  0.25365861237E+02  0.26998434411E+02  0.12621063284E+02  0.39136090956E+02  0.00000000000E+00 0.  1.
</event>
<event>
 7    1  0.3743571E-015  0.9000775E+02  0.7816164E-02  0.1186339E+00
        -11   -1    0    0    0    0  0.00000000000E+00  0.00000000000E+00  0.45593999997E+02  0.45594000000E+02  0.51100000000E-03 0.  1.
         11   -1    0    0    0    0 -0.00000000000E+00 -0.00000000000E+00 -0.45593999997E+02  0.45594000000E+02  0.51100000000E-03 0. -1.
    9900012    2    1    2    0    0 -0.52456642295E+00  0.73762403110E+00 -0.75744307828E+00  0.90007754619E+02  0.90000016180E+02 0.  0.
        -12    1    1    2    0    0  0.52456642295E+00 -0.73762403110E+00  0.75744307828E+00  0.11802453813E+01  0.00000000000E+00 0.  1.
         11    1    3    3    0    0 -0.92204849957E+01 -0.11348302041E+02 -0.36972521206E+02  0.39758881113E+02  0.51100000000E-03 0. -1.
        -11    1    3    3    0    0 -0.83376047792E+01 -0.40165838939E+01  0.32685049852E+01  0.98148726294E+01  0.51100000000E-03 0.  1.
        -12    1    3    3    0    0  0.17033523352E+02  0.16102509966E+02  0.32946573143E+02  0.40434000876E+02  0.00000000000E+00 0.  1.
</event>
<event>
 7    1  0.3743571E-015  0.9000780E+02  0.7816164E-02  0.1186339E+00
        -11   -1    0    0    0    0  0.00000000000E+00  0.00000000000E+00  0.45593999997E+02  0.45594000000E+02  0.51100000000E-03 0. -1.
         11   -1    0    0    0    0 -0.00000000000E+00 -0.00000000000E+00 -0.45593999997E+02  0.45594000000E+02  0.51100000000E-03 0.  1.
    9900012    2    1    2    0    0 -0.15292332849E+00  0.88784058741E+00  0.76237414006E+00  0.90007804769E+02  0.90000066992E+02 0.  0.
        -12    1    1    2    0    0  0.15292332849E+00 -0.88784058741E+00 -0.76237414006E+00  0.11801952307E+01  0.00000000000E+00 0.  1.
         11    1    3    3    0    0  0.49443171320E+01  0.73310046232E+01  0.88165793843E+01  0.12486872026E+02  0.51100000000E-03 0. -1.
        -11    1    3    3    0    0  0.30464591349E+02 -0.14538622504E+02 -0.19886137662E+02  0.39178072206E+02  0.51100000000E-03 0.  1.
         12    1    3    3    0    0 -0.35561831810E+02  0.80954584687E+01  0.11831932418E+02  0.38342860538E+02  0.00000000000E+00 0. -1.
</event>
<event>
 7    1  0.3743571E-015  0.9000784E+02  0.7816164E-02  0.1186339E+00
        -11   -1    0    0    0    0  0.00000000000E+00  0.00000000000E+00  0.45593999997E+02  0.45594000000E+02  0.51100000000E-03 0.  1.
         11   -1    0    0    0    0 -0.00000000000E+00 -0.00000000000E+00 -0.45593999997E+02  0.45594000000E+02  0.51100000000E-03 0. -1.
    9900012    2    1    2    0    0 -0.14397727720E+00 -0.86421215649E+00 -0.79068124197E+00  0.90007843682E+02  0.90000106419E+02 0.  0.
        -12    1    1    2    0    0  0.14397727720E+00  0.86421215649E+00  0.79068124197E+00  0.11801563177E+01  0.00000000000E+00 0.  1.
         11    1    3    3    0    0  0.22644040932E+02  0.28061229048E+02 -0.88878061525E+01  0.37137289398E+02  0.51100000000E-03 0. -1.
        -11    1    3    3    0    0  0.95059173348E+01 -0.20498707922E+01 -0.13207928025E+01  0.98137112516E+01  0.51100000000E-03 0.  1.
        -12    1    3    3    0    0 -0.32293935544E+02 -0.26875570412E+02  0.94179177130E+01  0.43056843032E+02  0.00000000000E+00 0.  1.
</event>
<event>
 7    1  0.3743571E-015  0.9000765E+02  0.7816164E-02  0.1186339E+00
        -11   -1    0    0    0    0  0.00000000000E+00  0.00000000000E+00  0.45593999997E+02  0.45594000000E+02  0.51100000000E-03 0. -1.
         11   -1    0    0    0    0 -0.00000000000E+00 -0.00000000000E+00 -0.45593999997E+02  0.45594000000E+02  0.51100000000E-03 0.  1.
    9900012    2    1    2    0    0 -0.11001112788E+01 -0.42505062992E+00  0.48141241392E-01  0.90007648170E+02  0.89999908326E+02 0.  0.
        -12    1    1    2    0    0  0.11001112788E+01  0.42505062992E+00 -0.48141241392E-01  0.11803518301E+01  0.00000000000E+00 0.  1.
         11    1    3    3    0    0 -0.51301096111E+01 -0.38784254219E+00 -0.85638876583E+01  0.99904263445E+01  0.51100000000E-03 0. -1.
        -11    1    3    3    0    0 -0.29391638023E+02 -0.21023117288E+02 -0.83075710337E+01  0.37079045065E+02  0.51100000000E-03 0.  1.
         12    1    3    3    0    0  0.33421636355E+02  0.20985909200E+02  0.16919599933E+02  0.42938176761E+02  0.00000000000E+00 0. -1.
</event>
<event>
 7    1  0.3743571E-015  0.9000772E+02  0.7816164E-02  0.1186339E+00
        -11   -1    0    0    0    0  0.00000000000E+00  0.00000000000E+00  0.45593999997E+02  0.45594000000E+02  0.51100000000E-03 0. -1.
         11   -1    0    0    0    0 -0.00000000000E+00 -0.00000000000E+00 -0.45593999997E+02  0.45594000000E+02  0.51100000000E-03 0.  1.
    9900012    2    1    2    0    0 -0.83384615282E+00 -0.66025496974E+00 -0.51168290272E+00  0.90007722310E+02  0.89999983445E+02 0.  0.
        -12    1    1    2    0    0  0.83384615282E+00  0.66025496974E+00  0.51168290272E+00  0.11802776896E+01  0.00000000000E+00 0.  1.
         11    1    3    3    0    0  0.34122221778E+00  0.76665842510E+01 -0.54802544016E+01  0.94300654954E+01  0.51100000000E-03 0. -1.
        -11    1    3    3    0    0  0.22914587044E+02  0.27358778884E+02 -0.58997045459E+01  0.36171640762E+02  0.51100000000E-03 0.  1.
         12    1    3    3    0    0 -0.24089655414E+02 -0.35685618105E+02  0.10868276045E+02  0.44406016053E+02  0.00000000000E+00 0. -1.
</event>
<event>
 7    1  0.3743571E-015  0.9000774E+02  0.7816164E-02  0.1186339E+00
        -11   -1    0    0    0    0  0.00000000000E+00  0.00000000000E+00  0.45593999997E+02  0.45594000000E+02  0.51100000000E-03 0. -1.
         11   -1    0    0    0    0 -0.00000000000E+00 -0.00000000000E+00 -0.45593999997E+02  0.45594000000E+02  0.51100000000E-03 0.  1.
    9900012    2    1    2    0    0 -0.98986349836E+00 -0.16880975343E+00 -0.62022912379E+00  0.90007741281E+02  0.90000002666E+02 0.  0.
        -12    1    1    2    0    0  0.98986349836E+00  0.16880975343E+00  0.62022912379E+00  0.11802587192E+01  0.00000000000E+00 0.  1.
         11    1    3    3    0    0  0.93060177338E+01 -0.26475490955E+01  0.37065460465E+02  0.38307438469E+02  0.51100000000E-03 0. -1.
        -11    1    3    3    0    0  0.58874169340E+01  0.12275942706E+02 -0.61809748329E+01  0.14952086731E+02  0.51100000000E-03 0.  1.
        -12    1    3    3    0    0 -0.16183298166E+02 -0.97972033636E+01 -0.31504714756E+02  0.36748216081E+02  0.00000000000E+00 0.  1.
</event>
<event>
 7    1  0.3743571E-015  0.9000774E+02  0.7816164E-02  0.1186339E+00
        -11   -1    0    0    0    0  0.00000000000E+00  0.00000000000E+00  0.45593999997E+02  0.45594000000E+02  0.51100000000E-03 0.  1.
         11   -1    0    0    0    0 -0.00000000000E+00 -0.00000000000E+00 -0.45593999997E+02  0.45594000000E+02  0.51100000000E-03 0. -1.
    9900012    2    1    2    0    0 -0.48720180211E+00 -0.40674814795E+00 -0.99509070978E+00  0.90007739362E+02  0.90000000722E+02 0.  0.
        -12    1    1    2    0    0  0.48720180211E+00  0.40674814795E+00  0.99509070978E+00  0.11802606375E+01  0.00000000000E+00 0.  1.
         11    1    3    3    0    0 -0.16620863000E+01  0.85812074538E+01 -0.45917059114E+01  0.98733690132E+01  0.51100000000E-03 0. -1.
        -11    1    3    3    0    0  0.16438978152E+02  0.51170292683E+00  0.37950066938E+02  0.41360723198E+02  0.51100000000E-03 0.  1.
         12    1    3    3    0    0 -0.15264093654E+02 -0.94996585285E+01 -0.34353451736E+02  0.38773647152E+02  0.00000000000E+00 0. -1.
</event>
<event>
 7    1  0.4151380E-015  0.9000780E+02  0.7816164E-02  0.1186339E+00
        -11   -1    0    0    0    0  0.00000000000E+00  0.00000000000E+00  0.45593999997E+02  0.45594000000E+02  0.51100000000E-03 0.  1.
         11   -1    0    0    0    0 -0.00000000000E+00 -0.00000000000E+00 -0.45593999997E+02  0.45594000000E+02  0.51100000000E-03 0. -1.
    9900012    2    1    2    0    0 -0.95868533663E+00 -0.37218677449E-01 -0.68731924206E+00  0.90007800633E+02  0.90000062802E+02 0.  0.
        -12    1    1    2    0    0  0.95868533663E+00  0.37218677449E-01  0.68731924206E+00  0.11801993667E+01  0.00000000000E+00 0.  1.
         11    1    3    3    0    0 -0.41996284715E+01 -0.55691052199E+01  0.65107201015E+01  0.95415558873E+01  0.51100000000E-03 0. -1.
        -11    1    3    3    0    0  0.63082328805E+01 -0.22372540974E+02  0.27387158123E+02  0.35921871081E+02  0.51100000000E-03 0.  1.
         12    1    3    3    0    0 -0.30672897456E+01  0.27904427516E+02 -0.34585197466E+02  0.44544373665E+02  0.00000000000E+00 0. -1.
</event>
<event>
 7    1  0.3743571E-015  0.9000769E+02  0.7816164E-02  0.1186339E+00
        -11   -1    0    0    0    0  0.00000000000E+00  0.00000000000E+00  0.45593999997E+02  0.45594000000E+02  0.51100000000E-03 0. -1.
         11   -1    0    0    0    0 -0.00000000000E+00 -0.00000000000E+00 -0.45593999997E+02  0.45594000000E+02  0.51100000000E-03 0.  1.
    9900012    2    1    2    0    0  0.75671070653E+00  0.88525560180E+00  0.19196752167E+00  0.90007686439E+02  0.89999947100E+02 0.  0.
        -12    1    1    2    0    0 -0.75671070653E+00 -0.88525560180E+00 -0.19196752167E+00  0.11803135614E+01  0.00000000000E+00 0.  1.
         11    1    3    3    0    0  0.26369232100E+02 -0.17247978669E+02  0.22243397777E+02  0.38569390903E+02  0.51100000000E-03 0. -1.
        -11    1    3    3    0    0 -0.48259710476E+01 -0.51388913822E+01  0.61677975512E+01  0.93669593831E+01  0.51100000000E-03 0.  1.
        -12    1    3    3    0    0 -0.20786550345E+02  0.23272125653E+02 -0.28219227807E+02  0.42071336153E+02  0.00000000000E+00 0.  1.
</event>
<event>
 7    1  0.3743571E-015  0.9000776E+02  0.7816164E-02  0.1186339E+00
        -11   -1    0    0    0    0  0.00000000000E+00  0.00000000000E+00  0.45593999997E+02  0.45594000000E+02  0.51100000000E-03 0. -1.
         11   -1    0    0    0    0 -0.00000000000E+00 -0.00000000000E+00 -0.45593999997E+02  0.45594000000E+02  0.51100000000E-03 0.  1.
    9900012    2    1    2    0    0  0.55081638914E+00 -0.47309047320E+00  0.93046185566E+00  0.90007757417E+02  0.90000019015E+02 0.  0.
        -12    1    1    2    0    0 -0.55081638914E+00  0.47309047320E+00 -0.93046185566E+00  0.11802425832E+01  0.00000000000E+00 0.  1.
         11    1    3    3    0    0 -0.26967269384E+02 -0.52092508913E+01 -0.27413866469E+01  0.27602266463E+02  0.51100000000E-03 0. -1.
        -11    1    3    3    0    0 -0.33278909759E+01 -0.10131093528E+02 -0.18683211971E+02  0.21512236616E+02  0.51100000000E-03 0.  1.
        -12    1    3    3    0    0  0.30845976749E+02  0.14867253946E+02  0.22355060474E+02  0.40893254337E+02  0.00000000000E+00 0.  1.
</event>
<event>
 7    1  0.3743571E-015  0.9000775E+02  0.7816164E-02  0.1186339E+00
        -11   -1    0    0    0    0  0.00000000000E+00  0.00000000000E+00  0.45593999997E+02  0.45594000000E+02  0.51100000000E-03 0.  1.
         11   -1    0    0    0    0 -0.00000000000E+00 -0.00000000000E+00 -0.45593999997E+02  0.45594000000E+02  0.51100000000E-03 0. -1.
    9900012    2    1    2    0    0 -0.91325897269E+00 -0.41006453270E+00 -0.62513256314E+00  0.90007751893E+02  0.90000013418E+02 0.  0.
        -12    1    1    2    0    0  0.91325897269E+00  0.41006453270E+00  0.62513256314E+00  0.11802481068E+01  0.00000000000E+00 0.  1.
         11    1    3    3    0    0 -0.11877070331E+02 -0.96271162127E+01 -0.40327678414E+02  0.43128503483E+02  0.51100000000E-03 0. -1.
        -11    1    3    3    0    0 -0.40062239008E+01 -0.33851461426E+01  0.10330655646E+02  0.11585831463E+02  0.51100000000E-03 0.  1.
        -12    1    3    3    0    0  0.14970035259E+02  0.12602197823E+02  0.29371890204E+02  0.35293416947E+02  0.00000000000E+00 0.  1.
</event>
<event>
 7    1  0.3743571E-015  0.9000770E+02  0.7816164E-02  0.1186339E+00
        -11   -1    0    0    0    0  0.00000000000E+00  0.00000000000E+00  0.45593999997E+02  0.45594000000E+02  0.51100000000E-03 0. -1.
         11   -1    0    0    0    0 -0.00000000000E+00 -0.00000000000E+00 -0.45593999997E+02  0.45594000000E+02  0.51100000000E-03 0.  1.
    9900012    2    1    2    0    0 -0.52101553197E+00  0.93290744378E+00 -0.50133337489E+00  0.90007699769E+02  0.89999960606E+02 0.  0.
        -12    1    1    2    0    0  0.52101553197E+00 -0.93290744378E+00  0.50133337489E+00  0.11803002313E+01  0.00000000000E+00 0.  1.
         11    1    3    3    0    0 -0.87169144925E+01  0.46708480044E+01 -0.93710944113E+01  0.13624200163E+02  0.51100000000E-03 0. -1.
        -11    1    3    3    0    0 -0.30376578356E+02 -0.16166429335E+02 -0.18630089567E+01  0.34461003362E+02  0.51100000000E-03 0.  1.
         12    1    3    3    0    0  0.38572477317E+02  0.12428488774E+02  0.10732769993E+02  0.41922496244E+02  0.00000000000E+00 0. -1.
</event>
<event>
 7    1  0.3743571E-015  0.9000772E+02  0.7816164E-02  0.1186339E+00
        -11   -1    0    0    0    0  0.00000000000E+00  0.00000000000E+00  0.45593999997E+02  0.45594000000E+02  0.51100000000E-03 0.  1.
         11   -1    0    0    0    0 -0.00000000000E+00 -0.00000000000E+00 -0.45593999997E+02  0.45594000000E+02  0.51100000000E-03 0. -1.
    9900012    2    1    2    0    0  0.32339845997E+00  0.33032566980E+00  0.10859796466E+01  0.90007723166E+02  0.89999984312E+02 0.  0.
        -12    1    1    2    0    0 -0.32339845997E+00 -0.33032566980E+00 -0.10859796466E+01  0.11802768340E+01  0.00000000000E+00 0.  1.
         11    1    3    3    0    0  0.35457480080E+02 -0.62527786152E+01 -0.11212143731E+02  0.37709976151E+02  0.51100000000E-03 0. -1.
        -11    1    3    3    0    0  0.66879865530E+01 -0.38621669550E+01  0.20095838019E+01  0.79802208640E+01  0.51100000000E-03 0.  1.
        -12    1    3    3    0    0 -0.41822068173E+02  0.10445271240E+02  0.10288539575E+02  0.44317526151E+02  0.00000000000E+00 0.  1.
</event>
<event>
 7    1  0.3743571E-015  0.9000776E+02  0.7816164E-02  0.1186339E+00
        -11   -1    0    0    0    0  0.00000000000E+00  0.00000000000E+00  0.45593999997E+02  0.45594000000E+02  0.51100000000E-03 0.  1.
         11   -1    0    0    0    0 -0.00000000000E+00 -0.00000000000E+00 -0.45593999997E+02  0.45594000000E+02  0.51100000000E-03 0. -1.
    9900012    2    1    2    0    0 -0.10158111567E+01  0.21922537245E+00  0.55948730175E+00  0.90007763536E+02  0.90000025215E+02 0.  0.
        -12    1    1    2    0    0  0.10158111567E+01 -0.21922537245E+00 -0.55948730175E+00  0.11802364640E+01  0.00000000000E+00 0.  1.
         11    1    3    3    0    0 -0.36047780807E+01 -0.73340184835E+01  0.21073903738E+01  0.84393925478E+01  0.51100000000E-03 0. -1.
        -11    1    3    3    0    0  0.39649537192E+02  0.96452916799E+00  0.12199076050E+02  0.41494982501E+02  0.51100000000E-03 0.  1.
         12    1    3    3    0    0 -0.37060570268E+02  0.65887146879E+01 -0.13746979122E+02  0.40073388487E+02  0.00000000000E+00 0. -1.
</event>
<event>
 7    1  0.3743571E-015  0.9000822E+02  0.7816164E-02  0.1186338E+00
        -11   -1    0    0    0    0  0.00000000000E+00  0.00000000000E+00  0.45593999997E+02  0.45594000000E+02  0.51100000000E-03 0. -1.
         11   -1    0    0    0    0 -0.00000000000E+00 -0.00000000000E+00 -0.45593999997E+02  0.45594000000E+02  0.51100000000E-03 0.  1.
    9900012    2    1    2    0    0 -0.71498561438E+00 -0.32511782772E+00  0.88032173166E+00  0.90008223588E+02  0.90000491338E+02 0.  0.
        -12    1    1    2    0    0  0.71498561438E+00  0.32511782772E+00 -0.88032173166E+00  0.11797764118E+01  0.00000000000E+00 0.  1.
         11    1    3    3    0    0 -0.92497874929E+00 -0.24734017863E+02  0.26079310790E+02  0.35954939533E+02  0.51100000000E-03 0. -1.
        -11    1    3    3    0    0  0.15691569178E+01 -0.32322433675E+01  0.92158692976E+01  0.98915063459E+01  0.51100000000E-03 0.  1.
        -12    1    3    3    0    0 -0.13591637829E+01  0.27641143402E+02 -0.34414858356E+02  0.44161777709E+02  0.00000000000E+00 0.  1.
</event>
<event>
 7    1  0.3743571E-015  0.9000784E+02  0.7816164E-02  0.1186339E+00
        -11   -1    0    0    0    0  0.00000000000E+00  0.00000000000E+00  0.45593999997E+02  0.45594000000E+02  0.51100000000E-03 0. -1.
         11   -1    0    0    0    0 -0.00000000000E+00 -0.00000000000E+00 -0.45593999997E+02  0.45594000000E+02  0.51100000000E-03 0.  1.
    9900012    2    1    2    0    0 -0.37101709556E+00 -0.64296545937E+00  0.91745701490E+00  0.90007836604E+02  0.90000099247E+02 0.  0.
        -12    1    1    2    0    0  0.37101709556E+00  0.64296545937E+00 -0.91745701490E+00  0.11801633960E+01  0.00000000000E+00 0.  1.
         11    1    3    3    0    0  0.24085834391E+01  0.12550262732E+01  0.10984898790E+02  0.11315669084E+02  0.51100000000E-03 0. -1.
        -11    1    3    3    0    0 -0.58691295275E+01  0.15424261947E+02  0.30385625680E+02  0.34578039075E+02  0.51100000000E-03 0.  1.
         12    1    3    3    0    0  0.30895289928E+01 -0.17322253680E+02 -0.40453067455E+02  0.44114128445E+02  0.00000000000E+00 0. -1.
</event>
<event>
 7    1  0.3743571E-015  0.9000777E+02  0.7816164E-02  0.1186339E+00
        -11   -1    0    0    0    0  0.00000000000E+00  0.00000000000E+00  0.45593999997E+02  0.45594000000E+02  0.51100000000E-03 0.  1.
         11   -1    0    0    0    0 -0.00000000000E+00 -0.00000000000E+00 -0.45593999997E+02  0.45594000000E+02  0.51100000000E-03 0. -1.
    9900012    2    1    2    0    0  0.22463319113E+00 -0.16828796862E-01 -0.11585343475E+01  0.90007769042E+02  0.90000030794E+02 0.  0.
        -12    1    1    2    0    0 -0.22463319113E+00  0.16828796862E-01  0.11585343475E+01  0.11802309576E+01  0.00000000000E+00 0.  1.
         11    1    3    3    0    0 -0.16628460665E+02  0.22742898981E+02  0.20741438052E+02  0.34985031240E+02  0.51100000000E-03 0. -1.
        -11    1    3    3    0    0  0.45020259042E+01  0.11960152278E+02 -0.10224061250E+02  0.16365967996E+02  0.51100000000E-03 0.  1.
        -12    1    3    3    0    0  0.12351067952E+02 -0.34719880056E+02 -0.11675911150E+02  0.38656769806E+02  0.00000000000E+00 0.  1.
</event>
<event>
 7    1  0.3743571E-015  0.9000771E+02  0.7816164E-02  0.1186339E+00
        -11   -1    0    0    0    0  0.00000000000E+00  0.00000000000E+00  0.45593999997E+02  0.45594000000E+02  0.51100000000E-03 0. -1.
         11   -1    0    0    0    0 -0.00000000000E+00 -0.00000000000E+00 -0.45593999997E+02  0.45594000000E+02  0.51100000000E-03 0.  1.
    9900012    2    1    2    0    0  0.85253047624E-01  0.11132699837E+01  0.38266770167E+00  0.90007714988E+02  0.89999976026E+02 0.  0.
        -12    1    1    2    0    0 -0.85253047624E-01 -0.11132699837E+01 -0.38266770167E+00  0.11802850116E+01  0.00000000000E+00 0.  1.
         11    1    3    3    0    0 -0.19137829827E+02 -0.23128262420E+02  0.20383124147E+02  0.36285600495E+02  0.51100000000E-03 0. -1.
        -11    1    3    3    0    0  0.44922493866E+01 -0.10616896200E+02 -0.15868934694E+01  0.11636881912E+02  0.51100000000E-03 0.  1.
        -12    1    3    3    0    0  0.14730833488E+02  0.34858428604E+02 -0.18413562976E+02  0.42085232582E+02  0.00000000000E+00 0.  1.
</event>
<event>
 7    1  0.3743571E-015  0.9000769E+02  0.7816164E-02  0.1186339E+00
        -11   -1    0    0    0    0  0.00000000000E+00  0.00000000000E+00  0.45593999997E+02  0.45594000000E+02  0.51100000000E-03 0.  1.
         11   -1    0    0    0    0 -0.00000000000E+00 -0.00000000000E+00 -0.45593999997E+02  0.45594000000E+02  0.51100000000E-03 0. -1.
    9900012    2    1    2    0    0 -0.55665726560E+00  0.95212908530E+00  0.42036061259E+00  0.90007694891E+02  0.89999955663E+02 0.  0.
        -12    1    1    2    0    0  0.55665726560E+00 -0.95212908530E+00 -0.42036061259E+00  0.11803051093E+01  0.00000000000E+00 0.  1.
         11    1    3    3    0    0 -0.13147947933E+01 -0.14689670804E+01 -0.91983506200E+01  0.94072421050E+01  0.51100000000E-03 0. -1.
        -11    1    3    3    0    0  0.38130502942E+02  0.13961860772E+02  0.13871942990E+01  0.40629953472E+02  0.51100000000E-03 0.  1.
         12    1    3    3    0    0 -0.37372365415E+02 -0.11540764606E+02  0.82315169336E+01  0.39970499314E+02  0.00000000000E+00 0. -1.
</event>
<event>
 7    1  0.3743571E-015  0.9000778E+02  0.7816164E-02  0.1186339E+00
        -11   -1    0    0    0    0  0.00000000000E+00  0.00000000000E+00  0.45593999997E+02  0.45594000000E+02  0.51100000000E-03 0.  1.
         11   -1    0    0    0    0 -0.00000000000E+00 -0.00000000000E+00 -0.45593999997E+02  0.45594000000E+02  0.51100000000E-03 0. -1.
    9900012    2    1    2    0    0 -0.69969539042E+00  0.37428374228E+00 -0.87364511043E+00  0.90007780640E+02  0.90000042544E+02 0.  0.
        -12    1    1    2    0    0  0.69969539042E+00 -0.37428374228E+00  0.87364511043E+00  0.11802193602E+01  0.00000000000E+00 0.  1.
         11    1    3    3    0    0 -0.44535300917E+01  0.61494963932E+01  0.24535098147E+01  0.79793450132E+01  0.51100000000E-03 0. -1.
        -11    1    3    3    0    0 -0.84177395974E+01 -0.54053100285E+01  0.37818199906E+02  0.39118946315E+02  0.51100000000E-03 0.  1.
         12    1    3    3    0    0  0.12171574299E+02 -0.36990262240E+00 -0.41145354831E+02  0.42909489312E+02  0.00000000000E+00 0. -1.
</event>
<event>
 7    1  0.3743571E-015  0.9000777E+02  0.7816164E-02  0.1186339E+00
        -11   -1    0    0    0    0  0.00000000000E+00  0.00000000000E+00  0.45593999997E+02  0.45594000000E+02  0.51100000000E-03 0. -1.
         11   -1    0    0    0    0 -0.00000000000E+00 -0.00000000000E+00 -0.45593999997E+02  0.45594000000E+02  0.51100000000E-03 0.  1.
    9900012    2    1    2    0    0  0.17784678416E-01 -0.31218019541E+00  0.11380559263E+01  0.90007769488E+02  0.90000031246E+02 0.  0.
        -12    1    1    2    0    0 -0.17784678416E-01  0.31218019541E+00 -0.11380559263E+01  0.11802305116E+01  0.00000000000E+00 0.  1.
         11    1    3    3    0    0 -0.33511865004E+02  0.54806422547E+01  0.19039317923E+02  0.38930427211E+02  0.51100000000E-03 0. -1.
        -11    1    3    3    0    0  0.96255855301E+00  0.66217186842E+00  0.85490622335E+01  0.86285257075E+01  0.51100000000E-03 0.  1.
        -12    1    3    3    0    0  0.32567091130E+02 -0.64549943185E+01 -0.26450324230E+02  0.42448816570E+02  0.00000000000E+00 0.  1.
</event>
<event>
 7    1  0.4619242E-015  0.9000772E+02  0.7816164E-02  0.1186339E+00
        -11   -1    0    0    0    0  0.00000000000E+00  0.00000000000E+00  0.45593999997E+02  0.45594000000E+02  0.51100000000E-03 0.  1.
         11   -1    0    0    0    0 -0.00000000000E+00 -0.00000000000E+00 -0.45593999997E+02  0.45594000000E+02  0.51100000000E-03 0. -1.
    9900012    2    1    2    0    0 -0.74632366606E+00 -0.69945644880E+00  0.58892095772E+00  0.90007717732E+02  0.89999978806E+02 0.  0.
        -12    1    1    2    0    0  0.74632366606E+00  0.69945644880E+00 -0.58892095772E+00  0.11802822682E+01  0.00000000000E+00 0.  1.
         11    1    3    3    0    0  0.51189321962E+01 -0.59593017713E+01  0.59518984968E+01  0.98560560270E+01  0.51100000000E-03 0. -1.
        -11    1    3    3    0    0  0.13312648471E+02 -0.33731729671E+02  0.74777784716E+00  0.36271412543E+02  0.51100000000E-03 0.  1.
         12    1    3    3    0    0 -0.19177904333E+02  0.38991574993E+02 -0.61107553862E+01  0.43880249162E+02  0.00000000000E+00 0. -1.
</event>
<event>
 7    1  0.3743571E-015  0.9000794E+02  0.7816164E-02  0.1186339E+00
        -11   -1    0    0    0    0  0.00000000000E+00  0.00000000000E+00  0.45593999997E+02  0.45594000000E+02  0.51100000000E-03 0.  1.
         11   -1    0    0    0    0 -0.00000000000E+00 -0.00000000000E+00 -0.45593999997E+02  0.45594000000E+02  0.51100000000E-03 0. -1.
    9900012    2    1    2    0    0  0.85647377623E+00 -0.20504558262E+00  0.78545793220E+00  0.90007942720E+02  0.90000206764E+02 0.  0.
        -12    1    1    2    0    0 -0.85647377623E+00  0.20504558262E+00 -0.78545793220E+00  0.11800572798E+01  0.00000000000E+00 0.  1.
         11    1    3    3    0    0 -0.23617573286E+02 -0.10805525427E+02 -0.16582086521E+01  0.26024965012E+02  0.51100000000E-03 0. -1.
        -11    1    3    3    0    0 -0.11198931399E+02  0.84697164349E+00  0.20082495526E+02  0.23009564365E+02  0.51100000000E-03 0.  1.
         12    1    3    3    0    0  0.35672978461E+02  0.97535082013E+01 -0.17638828942E+02  0.40973413343E+02  0.00000000000E+00 0. -1.
</event>
<event>
 7    1  0.3743571E-015  0.9000776E+02  0.7816164E-02  0.1186339E+00
        -11   -1    0    0    0    0  0.00000000000E+00  0.00000000000E+00  0.45593999997E+02  0.45594000000E+02  0.51100000000E-03 0.  1.
         11   -1    0    0    0    0 -0.00000000000E+00 -0.00000000000E+00 -0.45593999997E+02  0.45594000000E+02  0.51100000000E-03 0. -1.
    9900012    2    1    2    0    0 -0.49049466005E-01 -0.10466353104E+01 -0.54325236085E+00  0.90007756614E+02  0.90000018201E+02 0.  0.
        -12    1    1    2    0    0  0.49049466005E-01  0.10466353104E+01  0.54325236085E+00  0.11802433862E+01  0.00000000000E+00 0.  1.
         11    1    3    3    0    0 -0.40338156846E+02  0.90098986496E+01 -0.15227234597E+02  0.44047858576E+02  0.51100000000E-03 0. -1.
        -11    1    3    3    0    0  0.65668797426E+01  0.36130752257E-01  0.76175712245E+01  0.10057465218E+02  0.51100000000E-03 0.  1.
        -12    1    3    3    0    0  0.33722227637E+02 -0.10092664712E+02  0.70664110119E+01  0.35902432820E+02  0.00000000000E+00 0.  1.
</event>
<event>
 7    1  0.3743571E-015  0.9000774E+02  0.7816164E-02  0.1186339E+00
        -11   -1    0    0    0    0  0.00000000000E+00  0.00000000000E+00  0.45593999997E+02  0.45594000000E+02  0.51100000000E-03 0.  1.
         11   -1    0    0    0    0 -0.00000000000E+00 -0.00000000000E+00 -0.45593999997E+02  0.45594000000E+02  0.51100000000E-03 0. -1.
    9900012    2    1    2    0    0  0.28134606232E+00  0.63921059942E+00 -0.95145533402E+00  0.90007740262E+02  0.90000001633E+02 0.  0.
        -12    1    1    2    0    0 -0.28134606232E+00 -0.63921059942E+00  0.95145533402E+00  0.11802597383E+01  0.00000000000E+00 0.  1.
         11    1    3    3    0    0  0.73782924485E+01 -0.39041649420E+02 -0.72609850484E+01  0.40390735238E+02  0.51100000000E-03 0. -1.
        -11    1    3    3    0    0 -0.67296750551E+01 -0.16040194334E+01 -0.25812502369E+01  0.73840542886E+01  0.51100000000E-03 0.  1.
        -12    1    3    3    0    0 -0.36727133110E+00  0.41284879453E+02  0.88907799513E+01  0.42232950735E+02  0.00000000000E+00 0.  1.
</event>
<event>
 7    1  0.3743571E-015  0.9000775E+02  0.7816164E-02  0.1186339E+00
        -11   -1    0    0    0    0  0.00000000000E+00  0.00000000000E+00  0.45593999997E+02  0.45594000000E+02  0.51100000000E-03 0. -1.
         11   -1    0    0    0    0 -0.00000000000E+00 -0.00000000000E+00 -0.45593999997E+02  0.45594000000E+02  0.51100000000E-03 0.  1.
    9900012    2    1    2    0    0 -0.33753981462E+00  0.11276442549E+01 -0.86422921582E-01  0.90007752732E+02  0.90000014268E+02 0.  0.
        -12    1    1    2    0    0  0.33753981462E+00 -0.11276442549E+01  0.86422921582E-01  0.11802472679E+01  0.00000000000E+00 0.  1.
         11    1    3    3    0    0  0.87593041796E+01 -0.72055751377E+01 -0.80294170283E+00  0.11370595341E+02  0.51100000000E-03 0. -1.
        -11    1    3    3    0    0  0.26758514863E+02  0.33547322429E+00 -0.22683627377E+02  0.35081014968E+02  0.51100000000E-03 0.  1.
         12    1    3    3    0    0 -0.35855358857E+02  0.79977461684E+01  0.23400146158E+02  0.43556142423E+02  0.00000000000E+00 0. -1.
</event>
<event>
 7    1  0.3743571E-015  0.9000897E+02  0.7816164E-02  0.1186337E+00
        -11   -1    0    0    0    0  0.00000000000E+00  0.00000000000E+00  0.45593999997E+02  0.45594000000E+02  0.51100000000E-03 0.  1.
         11   -1    0    0    0    0 -0.00000000000E+00 -0.00000000000E+00 -0.45593999997E+02  0.45594000000E+02  0.51100000000E-03 0. -1.
    9900012    2    1    2    0    0  0.11253157864E+01 -0.82002444126E-01  0.34212389734E+00  0.90008971255E+02  0.90001248867E+02 0.  0.
        -12    1    1    2    0    0 -0.11253157864E+01  0.82002444126E-01 -0.34212389734E+00  0.11790287448E+01  0.00000000000E+00 0.  1.
         11    1    3    3    0    0  0.13711086986E+02  0.25930559698E+02  0.16914062213E+02  0.33859612127E+02  0.51100000000E-03 0. -1.
        -11    1    3    3    0    0  0.89984549230E+00  0.32009074546E+01  0.12408527555E+02  0.12846286887E+02  0.51100000000E-03 0.  1.
        -12    1    3    3    0    0 -0.13485616692E+02 -0.29213469596E+02 -0.28980465871E+02  0.43303072241E+02  0.00000000000E+00 0.  1.
</event>
<event>
 7    1  0.3743571E-015  0.9000775E+02  0.7816164E-02  0.1186339E+00
        -11   -1    0    0    0    0  0.00000000000E+00  0.00000000000E+00  0.45593999997E+02  0.45594000000E+02  0.51100000000E-03 0. -1.
         11   -1    0    0    0    0 -0.00000000000E+00 -0.00000000000E+00 -0.45593999997E+02  0.45594000000E+02  0.51100000000E-03 0.  1.
    9900012    2    1    2    0    0 -0.47257091695E+00 -0.85129088661E+00  0.66706302787E+00  0.90007748955E+02  0.90000010442E+02 0.  0.
        -12    1    1    2    0    0  0.47257091695E+00  0.85129088661E+00 -0.66706302787E+00  0.11802510446E+01  0.00000000000E+00 0.  1.
         11    1    3    3    0    0 -0.11447968678E+01 -0.11749885832E+02 -0.38843206557E+01  0.12428126333E+02  0.51100000000E-03 0. -1.
        -11    1    3    3    0    0 -0.28180215158E+02 -0.18583018005E+02  0.11675970439E+02  0.35718081842E+02  0.51100000000E-03 0.  1.
         12    1    3    3    0    0  0.28852441108E+02  0.29481612950E+02 -0.71245867552E+01  0.41861540780E+02  0.00000000000E+00 0. -1.
</event>
<event>
 7    1  0.3743571E-015  0.9000770E+02  0.7816164E-02  0.1186339E+00
        -11   -1    0    0    0    0  0.00000000000E+00  0.00000000000E+00  0.45593999997E+02  0.45594000000E+02  0.51100000000E-03 0. -1.
         11   -1    0    0    0    0 -0.00000000000E+00 -0.00000000000E+00 -0.45593999997E+02  0.45594000000E+02  0.51100000000E-03 0.  1.
    9900012    2    1    2    0    0  0.12987995866E+00  0.11439301613E+01  0.26013396340E+00  0.90007697201E+02  0.89999958004E+02 0.  0.
        -12    1    1    2    0    0 -0.12987995866E+00 -0.11439301613E+01 -0.26013396340E+00  0.11803027986E+01  0.00000000000E+00 0.  1.
         11    1    3    3    0    0  0.22936313134E+01  0.62370010681E+01  0.55126369936E+01  0.86342396196E+01  0.51100000000E-03 0. -1.
        -11    1    3    3    0    0 -0.14933786887E+02  0.27996669578E+02 -0.25344097080E+02  0.40609786448E+02  0.51100000000E-03 0.  1.
         12    1    3    3    0    0  0.12770035532E+02 -0.33089740485E+02  0.20091594050E+02  0.40763671134E+02  0.00000000000E+00 0. -1.
</event>
<event>
 7    1  0.3743571E-015  0.9000726E+02  0.7816164E-02  0.1186340E+00
        -11   -1    0    0    0    0  0.00000000000E+00  0.00000000000E+00  0.45593999997E+02  0.45594000000E+02  0.51100000000E-03 0. -1.
         11   -1    0    0    0    0 -0.00000000000E+00 -0.00000000000E+00 -0.45593999997E+02  0.45594000000E+02  0.51100000000E-03 0.  1.
    9900012    2    1    2    0    0  0.10565429612E+00  0.92550405040E-01  0.11723541927E+01  0.90007261773E+02  0.89999516827E+02 0.  0.
        -12    1    1    2    0    0 -0.10565429612E+00 -0.92550405040E-01 -0.11723541927E+01  0.11807382271E+01  0.00000000000E+00 0.  1.
         11    1    3    3    0    0  0.25264832791E+02 -0.27587072741E+02 -0.40914847142E+01  0.37631085632E+02  0.51100000000E-03 0. -1.
        -11    1    3    3    0    0  0.46054141786E+01  0.47105554208E+00 -0.85718671574E+01  0.97421065436E+01  0.51100000000E-03 0.  1.
        -12    1    3    3    0    0 -0.29764592674E+02  0.27208567604E+02  0.13835706064E+02  0.42634069597E+02  0.00000000000E+00 0.  1.
</event>
<event>
 7    1  0.3743571E-015  0.9000812E+02  0.7816164E-02  0.1186338E+00
        -11   -1    0    0    0    0  0.00000000000E+00  0.00000000000E+00  0.45593999997E+02  0.45594000000E+02  0.51100000000E-03 0. -1.
         11   -1    0    0    0    0 -0.00000000000E+00 -0.00000000000E+00 -0.45593999997E+02  0.45594000000E+02  0.51100000000E-03 0.  1.
    9900012    2    1    2    0    0  0.22936105531E-01  0.51609580532E+00  0.10607735737E+01  0.90008118006E+02  0.90000384363E+02 0.  0.
        -12    1    1    2    0    0 -0.22936105531E-01 -0.51609580532E+00 -0.10607735737E+01  0.11798819941E+01  0.00000000000E+00 0.  1.
         11    1    3    3    0    0 -0.37941114014E+01 -0.17317665025E+01  0.49696523566E+01  0.64878148364E+01  0.51100000000E-03 0. -1.
        -11    1    3    3    0    0 -0.28584759405E+02  0.21329620644E+01 -0.30315113085E+02  0.41721026821E+02  0.51100000000E-03 0.  1.
         12    1    3    3    0    0  0.32401806912E+02  0.11490024341E+00  0.26406234302E+02  0.41799276348E+02  0.00000000000E+00 0. -1.
</event>
<event>
 7    1  0.3743571E-015  0.9000773E+02  0.7816164E-02  0.1186339E+00
        -11   -1    0    0    0    0  0.00000000000E+00  0.00000000000E+00  0.45593999997E+02  0.45594000000E+02  0.51100000000E-03 0.  1.
         11   -1    0    0    0    0 -0.00000000000E+00 -0.00000000000E+00 -0.45593999997E+02  0.45594000000E+02  0.51100000000E-03 0. -1.
    9900012    2    1    2    0    0  0.11530810877E+01  0.73108269917E-01 -0.24103168342E+00  0.90007730079E+02  0.89999991316E+02 0.  0.
        -12    1    1    2    0    0 -0.11530810877E+01 -0.73108269917E-01  0.24103168342E+00  0.11802699210E+01  0.00000000000E+00 0.  1.
         11    1    3    3    0    0 -0.31802484240E+01  0.89688780266E+01  0.23591621338E+01  0.98041011485E+01  0.51100000000E-03 0. -1.
        -11    1    3    3    0    0 -0.37154443793E+02 -0.26637316978E+01 -0.73967201102E+01  0.37977093474E+02  0.51100000000E-03 0.  1.
         12    1    3    3    0    0  0.41487773305E+02 -0.62320380589E+01  0.47965262929E+01  0.42226535456E+02  0.00000000000E+00 0. -1.
</event>
<event>
 7    1  0.3743571E-015  0.9000775E+02  0.7816164E-02  0.1186339E+00
        -11   -1    0    0    0    0  0.00000000000E+00  0.00000000000E+00  0.45593999997E+02  0.45594000000E+02  0.51100000000E-03 0.  1.
         11   -1    0    0    0    0 -0.00000000000E+00 -0.00000000000E+00 -0.45593999997E+02  0.45594000000E+02  0.51100000000E-03 0. -1.
    9900012    2    1    2    0    0 -0.50921158167E+00  0.93618182755E+00 -0.50720369327E+00  0.90007750689E+02  0.90000012198E+02 0.  0.
        -12    1    1    2    0    0  0.50921158167E+00 -0.93618182755E+00  0.50720369327E+00  0.11802493108E+01  0.00000000000E+00 0.  1.
         11    1    3    3    0    0  0.28838634701E+02  0.16813037120E+02 -0.14518757183E+02  0.36402463914E+02  0.51100000000E-03 0. -1.
        -11    1    3    3    0    0 -0.63855750392E+01 -0.44115609122E+01 -0.13755198493E+02  0.15793762190E+02  0.51100000000E-03 0.  1.
        -12    1    3    3    0    0 -0.22962271243E+02 -0.11465294381E+02  0.27766751982E+02  0.37811524586E+02  0.00000000000E+00 0.  1.
</event>
<event>
 7    1  0.3743571E-015  0.9000759E+02  0.7816164E-02  0.1186339E+00
        -11   -1    0    0    0    0  0.00000000000E+00  0.00000000000E+00  0.45593999997E+02  0.45594000000E+02  0.51100000000E-03 0. -1.
         11   -1    0    0    0    0 -0.00000000000E+00 -0.00000000000E+00 -0.45593999997E+02  0.45594000000E+02  0.51100000000E-03 0.  1.
    9900012    2    1    2    0    0  0.87140263425E-01 -0.11172743458E+01  0.37077192812E+00  0.90007590236E+02  0.89999849627E+02 0.  0.
        -12    1    1    2    0    0 -0.87140263425E-01  0.11172743458E+01 -0.37077192812E+00  0.11804097644E+01  0.00000000000E+00 0.  1.
         11    1    3    3    0    0 -0.34768886746E+02 -0.20504855113E+02  0.14146888399E+02  0.42772175773E+02  0.51100000000E-03 0. -1.
        -11    1    3    3    0    0  0.25794781003E+01  0.21329087827E+01 -0.98774935420E+01  0.10429184344E+02  0.51100000000E-03 0.  1.
        -12    1    3    3    0    0  0.32276548909E+02  0.17254671984E+02 -0.38986229288E+01  0.36806230118E+02  0.00000000000E+00 0.  1.
</event>
<event>
 7    1  0.3743571E-015  0.9000773E+02  0.7816164E-02  0.1186339E+00
        -11   -1    0    0    0    0  0.00000000000E+00  0.00000000000E+00  0.45593999997E+02  0.45594000000E+02  0.51100000000E-03 0. -1.
         11   -1    0    0    0    0 -0.00000000000E+00 -0.00000000000E+00 -0.45593999997E+02  0.45594000000E+02  0.51100000000E-03 0.  1.
    9900012    2    1    2    0    0  0.11717967059E+01 -0.45677392135E-01  0.13360668749E+00  0.90007726857E+02  0.89999988052E+02 0.  0.
        -12    1    1    2    0    0 -0.11717967059E+01  0.45677392135E-01 -0.13360668749E+00  0.11802731426E+01  0.00000000000E+00 0.  1.
         11    1    3    3    0    0 -0.27807822244E+02 -0.19446282276E+02  0.81418868268E+01  0.34895890784E+02  0.51100000000E-03 0. -1.
        -11    1    3    3    0    0 -0.60627951991E+01 -0.76017115556E+01  0.15658063288E+01  0.98486168532E+01  0.51100000000E-03 0.  1.
        -12    1    3    3    0    0  0.35042414149E+02  0.27002316439E+02 -0.95740864681E+01  0.45263219220E+02  0.00000000000E+00 0.  1.
</event>
<event>
 7    1  0.3743571E-015  0.9000777E+02  0.7816164E-02  0.1186339E+00
        -11   -1    0    0    0    0  0.00000000000E+00  0.00000000000E+00  0.45593999997E+02  0.45594000000E+02  0.51100000000E-03 0.  1.
         11   -1    0    0    0    0 -0.00000000000E+00 -0.00000000000E+00 -0.45593999997E+02  0.45594000000E+02  0.51100000000E-03 0. -1.
    9900012    2    1    2    0    0  0.11669576080E+01  0.11237602543E+00  0.13611165621E+00  0.90007769170E+02  0.90000030923E+02 0.  0.
        -12    1    1    2    0    0 -0.11669576080E+01 -0.11237602543E+00 -0.13611165621E+00  0.11802308304E+01  0.00000000000E+00 0.  1.
         11    1    3    3    0    0  0.33313781188E+02  0.28801297955E+02 -0.92266533796E+01  0.44993931966E+02  0.51100000000E-03 0. -1.
        -11    1    3    3    0    0 -0.73481573713E+01 -0.72710208898E+01 -0.16014437751E+01  0.10460773583E+02  0.51100000000E-03 0.  1.
        -12    1    3    3    0    0 -0.24798666209E+02 -0.21417901040E+02  0.10964208811E+02  0.34553063620E+02  0.00000000000E+00 0.  1.
</event>
<event>
 7    1  0.3743571E-015  0.9000780E+02  0.7816164E-02  0.1186339E+00
        -11   -1    0    0    0    0  0.00000000000E+00  0.00000000000E+00  0.45593999997E+02  0.45594000000E+02  0.51100000000E-03 0. -1.
         11   -1    0    0    0    0 -0.00000000000E+00 -0.00000000000E+00 -0.45593999997E+02  0.45594000000E+02  0.51100000000E-03 0.  1.
    9900012    2    1    2    0    0  0.55915845564E+00  0.27120474978E+00 -0.10033271958E+01  0.90007798468E+02  0.90000060608E+02 0.  0.
        -12    1    1    2    0    0 -0.55915845564E+00 -0.27120474978E+00  0.10033271958E+01  0.11802015323E+01  0.00000000000E+00 0.  1.
         11    1    3    3    0    0 -0.63456190729E+01 -0.14549536260E+01  0.38622146598E+01  0.75697076437E+01  0.51100000000E-03 0. -1.
        -11    1    3    3    0    0 -0.20264370826E+02  0.20786114484E+02 -0.29284505627E+02  0.41234567421E+02  0.51100000000E-03 0.  1.
         12    1    3    3    0    0  0.27169148355E+02 -0.19059956108E+02  0.24418963771E+02  0.41203523403E+02  0.00000000000E+00 0. -1.
</event>
<event>
 7    1  0.3743571E-015  0.9000778E+02  0.7816164E-02  0.1186339E+00
        -11   -1    0    0    0    0  0.00000000000E+00  0.00000000000E+00  0.45593999997E+02  0.45594000000E+02  0.51100000000E-03 0. -1.
         11   -1    0    0    0    0 -0.00000000000E+00 -0.00000000000E+00 -0.45593999997E+02  0.45594000000E+02  0.51100000000E-03 0.  1.
    9900012    2    1    2    0    0 -0.71239735996E+00  0.72882259923E-01  0.93813388534E+00  0.90007780949E+02  0.90000042857E+02 0.  0.
        -12    1    1    2    0    0  0.71239735996E+00 -0.72882259923E-01 -0.93813388534E+00  0.11802190513E+01  0.00000000000E+00 0.  1.
         11    1    3    3    0    0  0.32722287619E-01  0.97562755409E+01 -0.12058673551E+02  0.15511208568E+02  0.51100000000E-03 0. -1.
        -11    1    3    3    0    0  0.47553693724E+01 -0.33802533988E+02 -0.14869778381E+02  0.37233521875E+02  0.51100000000E-03 0.  1.
         12    1    3    3    0    0 -0.55004890200E+01  0.24119140707E+02  0.27866585817E+02  0.37263050506E+02  0.00000000000E+00 0. -1.
</event>
<event>
 7    1  0.3743571E-015  0.9000821E+02  0.7816164E-02  0.1186338E+00
        -11   -1    0    0    0    0  0.00000000000E+00  0.00000000000E+00  0.45593999997E+02  0.45594000000E+02  0.51100000000E-03 0. -1.
         11   -1    0    0    0    0 -0.00000000000E+00 -0.00000000000E+00 -0.45593999997E+02  0.45594000000E+02  0.51100000000E-03 0.  1.
    9900012    2    1    2    0    0  0.97001640722E-01  0.70143618757E+00  0.94365317282E+00  0.90008210462E+02  0.90000478039E+02 0.  0.
        -12    1    1    2    0    0 -0.97001640722E-01 -0.70143618757E+00 -0.94365317282E+00  0.11797895381E+01  0.00000000000E+00 0.  1.
         11    1    3    3    0    0 -0.13910661682E+02  0.31977144950E+02  0.25890257061E+02  0.43432127723E+02  0.51100000000E-03 0. -1.
        -11    1    3    3    0    0  0.60198799485E+01 -0.86472965153E+01 -0.19199544360E+02  0.21900620893E+02  0.51100000000E-03 0.  1.
        -12    1    3    3    0    0  0.79877833746E+01 -0.22628412247E+02 -0.57470595283E+01  0.24675461846E+02  0.00000000000E+00 0.  1.
</event>
<event>
 7    1  0.3743571E-015  0.9000791E+02  0.7816164E-02  0.1186339E+00
        -11   -1    0    0    0    0  0.00000000000E+00  0.00000000000E+00  0.45593999997E+02  0.45594000000E+02  0.51100000000E-03 0. -1.
         11   -1    0    0    0    0 -0.00000000000E+00 -0.00000000000E+00 -0.45593999997E+02  0.45594000000E+02  0.51100000000E-03 0.  1.
    9900012    2    1    2    0    0  0.71913383254E+00  0.82582960986E+00  0.43984191882E+00  0.90007911475E+02  0.90000175106E+02 0.  0.
        -12    1    1    2    0    0 -0.71913383254E+00 -0.82582960986E+00 -0.43984191882E+00  0.11800885251E+01  0.00000000000E+00 0.  1.
         11    1    3    3    0    0  0.19408093454E+01 -0.71651462460E+01 -0.99396456158E+01  0.12405749347E+02  0.51100000000E-03 0. -1.
        -11    1    3    3    0    0  0.20227171256E+02 -0.67901301562E+01 -0.25509538424E+02  0.33256290765E+02  0.51100000000E-03 0.  1.
         12    1    3    3    0    0 -0.21448846769E+02  0.14781106012E+02  0.35889025958E+02  0.44345871363E+02  0.00000000000E+00 0. -1.
</event>
<event>
 7    1  0.3743571E-015  0.9000754E+02  0.7816164E-02  0.1186339E+00
        -11   -1    0    0    0    0  0.00000000000E+00  0.00000000000E+00  0.45593999997E+02  0.45594000000E+02  0.51100000000E-03 0.  1.
         11   -1    0    0    0    0 -0.00000000000E+00 -0.00000000000E+00 -0.45593999997E+02  0.45594000000E+02  0.51100000000E-03 0. -1.
    9900012    2    1    2    0    0 -0.87780780597E+00 -0.55109733235E-01  0.78733272861E+00  0.90007543964E+02  0.89999802744E+02 0.  0.
        -12    1    1    2    0    0  0.87780780597E+00  0.55109733235E-01 -0.78733272861E+00  0.11804560358E+01  0.00000000000E+00 0.  1.
         11    1    3    3    0    0  0.42065570079E+00 -0.14671115374E+02 -0.28863826981E+01  0.14958268044E+02  0.51100000000E-03 0. -1.
        -11    1    3    3    0    0 -0.23355227492E+02 -0.19312842424E+02  0.13850766965E+02  0.33321108617E+02  0.51100000000E-03 0.  1.
        -12    1    3    3    0    0  0.22056763985E+02  0.33928848065E+02 -0.10177051538E+02  0.41728167303E+02  0.00000000000E+00 0.  1.
</event>
<event>
 7    1  0.3743571E-015  0.9000784E+02  0.7816164E-02  0.1186339E+00
        -11   -1    0    0    0    0  0.00000000000E+00  0.00000000000E+00  0.45593999997E+02  0.45594000000E+02  0.51100000000E-03 0.  1.
         11   -1    0    0    0    0 -0.00000000000E+00 -0.00000000000E+00 -0.45593999997E+02  0.45594000000E+02  0.51100000000E-03 0. -1.
    9900012    2    1    2    0    0  0.10631284762E+01  0.51198836404E+00  0.20016453091E-01  0.90007841155E+02  0.90000103858E+02 0.  0.
        -12    1    1    2    0    0 -0.10631284762E+01 -0.51198836404E+00 -0.20016453091E-01  0.11801588453E+01  0.00000000000E+00 0.  1.
         11    1    3    3    0    0  0.23357224344E+01  0.26403993912E+02  0.31652066395E+02  0.41285346082E+02  0.51100000000E-03 0. -1.
        -11    1    3    3    0    0  0.14413595684E+01 -0.97567364385E+01  0.30925913586E+01  0.10336128139E+02  0.51100000000E-03 0.  1.
        -12    1    3    3    0    0 -0.27139535267E+01 -0.16135269109E+02 -0.34724641300E+02  0.38386366934E+02  0.00000000000E+00 0.  1.
</event>
<event>
 7    1  0.3743571E-015  0.9000765E+02  0.7816164E-02  0.1186339E+00
        -11   -1    0    0    0    0  0.00000000000E+00  0.00000000000E+00  0.45593999997E+02  0.45594000000E+02  0.51100000000E-03 0. -1.
         11   -1    0    0    0    0 -0.00000000000E+00 -0.00000000000E+00 -0.45593999997E+02  0.45594000000E+02  0.51100000000E-03 0.  1.
    9900012    2    1    2    0    0  0.14095970102E+00  0.11413940351E+01  0.26564971071E+00  0.90007652700E+02  0.89999912915E+02 0.  0.
        -12    1    1    2    0    0 -0.14095970102E+00 -0.11413940351E+01 -0.26564971071E+00  0.11803473004E+01  0.00000000000E+00 0.  1.
         11    1    3    3    0    0  0.21201017833E+02 -0.32653098360E+02  0.16532063916E+02  0.42296774431E+02  0.51100000000E-03 0. -1.
        -11    1    3    3    0    0 -0.23554548264E+01  0.23189591785E+01 -0.10041663519E+02  0.10571695493E+02  0.51100000000E-03 0.  1.
        -12    1    3    3    0    0 -0.18704603306E+02  0.31475533217E+02 -0.62247506863E+01  0.37139182775E+02  0.00000000000E+00 0.  1.
</event>
<event>
 7    1  0.3743571E-015  0.9000778E+02  0.7816164E-02  0.1186339E+00
        -11   -1    0    0    0    0  0.00000000000E+00  0.00000000000E+00  0.45593999997E+02  0.45594000000E+02  0.51100000000E-03 0.  1.
         11   -1    0    0    0    0 -0.00000000000E+00 -0.00000000000E+00 -0.45593999997E+02  0.45594000000E+02  0.51100000000E-03 0. -1.
    9900012    2    1    2    0    0  0.53021952562E+00 -0.71295212734E+00 -0.77684719894E+00  0.90007777541E+02  0.90000039405E+02 0.  0.
        -12    1    1    2    0    0 -0.53021952562E+00  0.71295212734E+00  0.77684719894E+00  0.11802224586E+01  0.00000000000E+00 0.  1.
         11    1    3    3    0    0  0.40582543205E+00  0.14493865503E+02  0.31184703811E+01  0.14831105464E+02  0.51100000000E-03 0. -1.
        -11    1    3    3    0    0  0.33829607420E+02 -0.13414648898E+02  0.11377431457E+02  0.38129268156E+02  0.51100000000E-03 0.  1.
         12    1    3    3    0    0 -0.33705213327E+02 -0.17921687320E+01 -0.15272749037E+02  0.37047403922E+02  0.00000000000E+00 0. -1.
</event>
<event>
 7    1  0.3743571E-015  0.9000654E+02  0.7816164E-02  0.1186341E+00
        -11   -1    0    0    0    0  0.00000000000E+00  0.00000000000E+00  0.45593999997E+02  0.45594000000E+02  0.51100000000E-03 0.  1.
         11   -1    0    0    0    0 -0.00000000000E+00 -0.00000000000E+00 -0.45593999997E+02  0.45594000000E+02  0.51100000000E-03 0. -1.
    9900012    2    1    2    0    0 -0.19380860177E+00  0.35564102830E+00 -0.11098654147E+01  0.90006541768E+02  0.89998787311E+02 0.  0.
        -12    1    1    2    0    0  0.19380860177E+00 -0.35564102830E+00  0.11098654147E+01  0.11814582320E+01  0.00000000000E+00 0.  1.
         11    1    3    3    0    0 -0.48810867836E+01  0.32889995646E+01 -0.69630990711E+01  0.91174160407E+01  0.51100000000E-03 0. -1.
        -11    1    3    3    0    0  0.36147890310E+02 -0.10181617869E+02 -0.17112260783E+02  0.41269417075E+02  0.51100000000E-03 0.  1.
         12    1    3    3    0    0 -0.31460612128E+02  0.72482593326E+01  0.22965494440E+02  0.39619708653E+02  0.00000000000E+00 0. -1.
</event>
<event>
 7    1  0.3743571E-015  0.9000780E+02  0.7816164E-02  0.1186339E+00
        -11   -1    0    0    0    0  0.00000000000E+00  0.00000000000E+00  0.45593999997E+02  0.45594000000E+02  0.51100000000E-03 0.  1.
         11   -1    0    0    0    0 -0.00000000000E+00 -0.00000000000E+00 -0.45593999997E+02  0.45594000000E+02  0.51100000000E-03 0. -1.
    9900012    2    1    2    0    0  0.29279452893E+00  0.70856584072E+00  0.89726416544E+00  0.90007797827E+02  0.90000059958E+02 0.  0.
        -12    1    1    2    0    0 -0.29279452893E+00 -0.70856584072E+00 -0.89726416544E+00  0.11802021731E+01  0.00000000000E+00 0.  1.
         11    1    3    3    0    0  0.17304196730E+02  0.27590407722E+02 -0.86778909155E+01  0.33704177986E+02  0.51100000000E-03 0. -1.
        -11    1    3    3    0    0 -0.29540454087E+01  0.12174798778E+02  0.77969042656E+01  0.14756145362E+02  0.51100000000E-03 0.  1.
        -12    1    3    3    0    0 -0.14057356792E+02 -0.39056640659E+02  0.17782508154E+01  0.41547474478E+02  0.00000000000E+00 0.  1.
</event>
<event>
 7    1  0.3743571E-015  0.9000767E+02  0.7816164E-02  0.1186339E+00
        -11   -1    0    0    0    0  0.00000000000E+00  0.00000000000E+00  0.45593999997E+02  0.45594000000E+02  0.51100000000E-03 0.  1.
         11   -1    0    0    0    0 -0.00000000000E+00 -0.00000000000E+00 -0.45593999997E+02  0.45594000000E+02  0.51100000000E-03 0. -1.
    9900012    2    1    2    0    0  0.37881509263E+00  0.33958898756E+00 -0.10650629583E+01  0.90007669258E+02  0.89999929692E+02 0.  0.
        -12    1    1    2    0    0 -0.37881509263E+00 -0.33958898756E+00  0.10650629583E+01  0.11803307418E+01  0.00000000000E+00 0.  1.
         11    1    3    3    0    0 -0.18754301392E+02  0.33896089179E+02 -0.10216442010E+02  0.40063005004E+02  0.51100000000E-03 0. -1.
        -11    1    3    3    0    0 -0.80525699567E+01 -0.44326434337E+01  0.27399160057E+01  0.95916291994E+01  0.51100000000E-03 0.  1.
        -12    1    3    3    0    0  0.27185686441E+02 -0.29123856758E+02  0.64114630460E+01  0.40353035055E+02  0.00000000000E+00 0.  1.
</event>
<event>
 7    1  0.3743571E-015  0.9000773E+02  0.7816164E-02  0.1186339E+00
        -11   -1    0    0    0    0  0.00000000000E+00  0.00000000000E+00  0.45593999997E+02  0.45594000000E+02  0.51100000000E-03 0.  1.
         11   -1    0    0    0    0 -0.00000000000E+00 -0.00000000000E+00 -0.45593999997E+02  0.45594000000E+02  0.51100000000E-03 0. -1.
    9900012    2    1    2    0    0  0.10599876999E+01  0.49152472977E+00 -0.16694372159E+00  0.90007728552E+02  0.89999989769E+02 0.  0.
        -12    1    1    2    0    0 -0.10599876999E+01 -0.49152472977E+00  0.16694372159E+00  0.11802714477E+01  0.00000000000E+00 0.  1.
         11    1    3    3    0    0  0.60499227698E+01 -0.64938358789E+01  0.50469400127E+01  0.10209949740E+02  0.51100000000E-03 0. -1.
        -11    1    3    3    0    0  0.30766543110E+02 -0.99018519252E+01 -0.19505910414E+02  0.37750594536E+02  0.51100000000E-03 0.  1.
         12    1    3    3    0    0 -0.35756478180E+02  0.16887212534E+02  0.14292026680E+02  0.42047184276E+02  0.00000000000E+00 0. -1.
</event>
<event>
 7    1  0.3743571E-015  0.9000782E+02  0.7816164E-02  0.1186339E+00
        -11   -1    0    0    0    0  0.00000000000E+00  0.00000000000E+00  0.45593999997E+02  0.45594000000E+02  0.51100000000E-03 0.  1.
         11   -1    0    0    0    0 -0.00000000000E+00 -0.00000000000E+00 -0.45593999997E+02  0.45594000000E+02  0.51100000000E-03 0. -1.
    9900012    2    1    2    0    0 -0.71098073518E+00  0.76404174859E+00 -0.55098093841E+00  0.90007816373E+02  0.90000078749E+02 0.  0.
        -12    1    1    2    0    0  0.71098073518E+00 -0.76404174859E+00  0.55098093841E+00  0.11801836272E+01  0.00000000000E+00 0.  1.
         11    1    3    3    0    0 -0.54448594086E+01 -0.34146983830E+02  0.16485815957E+01  0.34617637415E+02  0.51100000000E-03 0. -1.
        -11    1    3    3    0    0 -0.18706078178E+02  0.19280381359E+02  0.18495667149E+01  0.26927149189E+02  0.51100000000E-03 0.  1.
         12    1    3    3    0    0  0.23439956852E+02  0.15630644219E+02 -0.40491292490E+01  0.28463029768E+02  0.00000000000E+00 0. -1.
</event>
<event>
 7    1  0.3743571E-015  0.9000767E+02  0.7816164E-02  0.1186339E+00
        -11   -1    0    0    0    0  0.00000000000E+00  0.00000000000E+00  0.45593999997E+02  0.45594000000E+02  0.51100000000E-03 0.  1.
         11   -1    0    0    0    0 -0.00000000000E+00 -0.00000000000E+00 -0.45593999997E+02  0.45594000000E+02  0.51100000000E-03 0. -1.
    9900012    2    1    2    0    0 -0.22165788700E+00  0.84947666976E+00 -0.78893978726E+00  0.90007674274E+02  0.89999934774E+02 0.  0.
        -12    1    1    2    0    0  0.22165788700E+00 -0.84947666976E+00  0.78893978726E+00  0.11803257259E+01  0.00000000000E+00 0.  1.
         11    1    3    3    0    0  0.15859790428E+02 -0.20389256707E+02 -0.22196544681E+02  0.34057911526E+02  0.51100000000E-03 0. -1.
        -11    1    3    3    0    0 -0.90568366106E+00 -0.11147223959E+02 -0.42167379870E+01  0.11952478588E+02  0.51100000000E-03 0.  1.
        -12    1    3    3    0    0 -0.15175764654E+02  0.32385957336E+02  0.25624342880E+02  0.43997284160E+02  0.00000000000E+00 0.  1.
</event>
<event>
 7    1  0.3743571E-015  0.9000768E+02  0.7816164E-02  0.1186339E+00
        -11   -1    0    0    0    0  0.00000000000E+00  0.00000000000E+00  0.45593999997E+02  0.45594000000E+02  0.51100000000E-03 0.  1.
         11   -1    0    0    0    0 -0.00000000000E+00 -0.00000000000E+00 -0.45593999997E+02  0.45594000000E+02  0.51100000000E-03 0. -1.
    9900012    2    1    2    0    0 -0.10481137090E+01 -0.52330632308E+00 -0.14407857897E+00  0.90007682038E+02  0.89999942641E+02 0.  0.
        -12    1    1    2    0    0  0.10481137090E+01  0.52330632308E+00  0.14407857897E+00  0.11803179621E+01  0.00000000000E+00 0.  1.
         11    1    3    3    0    0  0.29967568183E+02 -0.10749949419E+02  0.95805705168E+01  0.33247614757E+02  0.51100000000E-03 0. -1.
        -11    1    3    3    0    0  0.11089929724E+02 -0.11381563600E+01 -0.67808231048E+01  0.13048429155E+02  0.51100000000E-03 0.  1.
        -12    1    3    3    0    0 -0.42105611616E+02  0.11364799456E+02 -0.29438259909E+01  0.43711638126E+02  0.00000000000E+00 0.  1.
</event>
<event>
 7    1  0.3743571E-015  0.9000756E+02  0.7816164E-02  0.1186339E+00
        -11   -1    0    0    0    0  0.00000000000E+00  0.00000000000E+00  0.45593999997E+02  0.45594000000E+02  0.51100000000E-03 0. -1.
         11   -1    0    0    0    0 -0.00000000000E+00 -0.00000000000E+00 -0.45593999997E+02  0.45594000000E+02  0.51100000000E-03 0.  1.
    9900012    2    1    2    0    0 -0.58313602993E+00  0.10234108091E+01  0.77642388366E-01  0.90007557009E+02  0.89999815962E+02 0.  0.
        -12    1    1    2    0    0  0.58313602993E+00 -0.10234108091E+01 -0.77642388366E-01  0.11804429906E+01  0.00000000000E+00 0.  1.
         11    1    3    3    0    0  0.32984465314E+02  0.21396206337E+02  0.48799985158E+01  0.39618013370E+02  0.51100000000E-03 0. -1.
        -11    1    3    3    0    0 -0.97229896604E+00  0.56202086741E+01 -0.65213358718E+01  0.86637135591E+01  0.51100000000E-03 0.  1.
        -12    1    3    3    0    0 -0.32595302377E+02 -0.25993004202E+02  0.17189797444E+01  0.41725830080E+02  0.00000000000E+00 0.  1.
</event>
<event>
 7    1  0.3743571E-015  0.9000805E+02  0.7816164E-02  0.1186338E+00
        -11   -1    0    0    0    0  0.00000000000E+00  0.00000000000E+00  0.45593999997E+02  0.45594000000E+02  0.51100000000E-03 0.  1.
         11   -1    0    0    0    0 -0.00000000000E+00 -0.00000000000E+00 -0.45593999997E+02  0.45594000000E+02  0.51100000000E-03 0. -1.
    9900012    2    1    2    0    0 -0.58375573491E+00  0.26329638361E-01 -0.10250960415E+01  0.90008048347E+02  0.90000313785E+02 0.  0.
        -12    1    1    2    0    0  0.58375573491E+00 -0.26329638361E-01  0.10250960415E+01  0.11799516525E+01  0.00000000000E+00 0.  1.
         11    1    3    3    0    0 -0.30031864958E+02  0.43188691985E+01 -0.22814081280E+02  0.37961136033E+02  0.51100000000E-03 0. -1.
        -11    1    3    3    0    0 -0.26946349755E+01  0.98906747287E+01 -0.79414724360E+00  0.10281885739E+02  0.51100000000E-03 0.  1.
        -12    1    3    3    0    0  0.32142744198E+02 -0.14183214289E+02  0.22583132482E+02  0.41765026576E+02  0.00000000000E+00 0.  1.
</event>
<event>
 7    1  0.3743571E-015  0.9000827E+02  0.7816164E-02  0.1186338E+00
        -11   -1    0    0    0    0  0.00000000000E+00  0.00000000000E+00  0.45593999997E+02  0.45594000000E+02  0.51100000000E-03 0.  1.
         11   -1    0    0    0    0 -0.00000000000E+00 -0.00000000000E+00 -0.45593999997E+02  0.45594000000E+02  0.51100000000E-03 0. -1.
    9900012    2    1    2    0    0 -0.44035701108E+00 -0.32102107215E+00 -0.10463218741E+01  0.90008271942E+02  0.90000540330E+02 0.  0.
        -12    1    1    2    0    0  0.44035701108E+00  0.32102107215E+00  0.10463218741E+01  0.11797280577E+01  0.00000000000E+00 0.  1.
         11    1    3    3    0    0  0.56898808885E+00  0.23438365346E+01  0.90959907576E+01  0.94103328989E+01  0.51100000000E-03 0. -1.
        -11    1    3    3    0    0 -0.13455737059E+02  0.25450874544E+02  0.21913120161E+02  0.36179949009E+02  0.51100000000E-03 0.  1.
         12    1    3    3    0    0  0.12446391959E+02 -0.28115732151E+02 -0.32055432793E+02  0.44417990034E+02  0.00000000000E+00 0. -1.
</event>
<event>
 7    1  0.3743571E-015  0.9000776E+02  0.7816164E-02  0.1186339E+00
        -11   -1    0    0    0    0  0.00000000000E+00  0.00000000000E+00  0.45593999997E+02  0.45594000000E+02  0.51100000000E-03 0.  1.
         11   -1    0    0    0    0 -0.00000000000E+00 -0.00000000000E+00 -0.45593999997E+02  0.45594000000E+02  0.51100000000E-03 0. -1.
    9900012    2    1    2    0    0  0.37906802881E+00 -0.91142555031E+00 -0.64697718809E+00  0.90007759098E+02  0.90000020718E+02 0.  0.
        -12    1    1    2    0    0 -0.37906802881E+00  0.91142555031E+00  0.64697718809E+00  0.11802409017E+01  0.00000000000E+00 0.  1.
         11    1    3    3    0    0 -0.88648066075E+01 -0.97625360294E+00  0.96551938086E+00  0.89705125395E+01  0.51100000000E-03 0. -1.
        -11    1    3    3    0    0 -0.57487609553E+01 -0.38613609626E+02  0.37080184725E+01  0.39214901532E+02  0.51100000000E-03 0.  1.
         12    1    3    3    0    0  0.14992635592E+02  0.38678437679E+02 -0.53205150415E+01  0.41822345027E+02  0.00000000000E+00 0. -1.
</event>
<event>
 7    1  0.3743571E-015  0.9000769E+02  0.7816164E-02  0.1186339E+00
        -11   -1    0    0    0    0  0.00000000000E+00  0.00000000000E+00  0.45593999997E+02  0.45594000000E+02  0.51100000000E-03 0.  1.
         11   -1    0    0    0    0 -0.00000000000E+00 -0.00000000000E+00 -0.45593999997E+02  0.45594000000E+02  0.51100000000E-03 0. -1.
    9900012    2    1    2    0    0 -0.95207347876E+00  0.18113251824E+00 -0.67369807503E+00  0.90007694110E+02  0.89999954872E+02 0.  0.
        -12    1    1    2    0    0  0.95207347876E+00 -0.18113251824E+00  0.67369807503E+00  0.11803058902E+01  0.00000000000E+00 0.  1.
         11    1    3    3    0    0 -0.30219350789E+01 -0.31936035568E+01 -0.83824078072E+01  0.94655140487E+01  0.51100000000E-03 0. -1.
        -11    1    3    3    0    0 -0.43520923258E+01 -0.37380543596E+02 -0.34806485375E+01  0.37793659013E+02  0.51100000000E-03 0.  1.
         12    1    3    3    0    0  0.64219539259E+01  0.40755279671E+02  0.11189358270E+02  0.42748521048E+02  0.00000000000E+00 0. -1.
</event>
<event>
 7    1  0.3743571E-015  0.9000776E+02  0.7816164E-02  0.1186339E+00
        -11   -1    0    0    0    0  0.00000000000E+00  0.00000000000E+00  0.45593999997E+02  0.45594000000E+02  0.51100000000E-03 0.  1.
         11   -1    0    0    0    0 -0.00000000000E+00 -0.00000000000E+00 -0.45593999997E+02  0.45594000000E+02  0.51100000000E-03 0. -1.
    9900012    2    1    2    0    0 -0.63276831288E+00 -0.47292608968E+00 -0.87687905789E+00  0.90007757776E+02  0.90000019379E+02 0.  0.
        -12    1    1    2    0    0  0.63276831288E+00  0.47292608968E+00  0.87687905789E+00  0.11802422235E+01  0.00000000000E+00 0.  1.
         11    1    3    3    0    0  0.23494604979E+02 -0.14067304886E+02 -0.61523528123E+01  0.28066652370E+02  0.51100000000E-03 0. -1.
        -11    1    3    3    0    0  0.34110033813E+01 -0.18846167174E+02  0.21728491665E+01  0.19275223345E+02  0.51100000000E-03 0.  1.
        -12    1    3    3    0    0 -0.27538376673E+02  0.32440545971E+02  0.31026245879E+01  0.42665882061E+02  0.00000000000E+00 0.  1.
</event>
<event>
 7    1  0.3743571E-015  0.9000772E+02  0.7816164E-02  0.1186339E+00
        -11   -1    0    0    0    0  0.00000000000E+00  0.00000000000E+00  0.45593999997E+02  0.45594000000E+02  0.51100000000E-03 0. -1.
         11   -1    0    0    0    0 -0.00000000000E+00 -0.00000000000E+00 -0.45593999997E+02  0.45594000000E+02  0.51100000000E-03 0.  1.
    9900012    2    1    2    0    0 -0.87708051739E+00  0.30394318300E+00 -0.72897349400E+00  0.90007722894E+02  0.89999984036E+02 0.  0.
        -12    1    1    2    0    0  0.87708051739E+00 -0.30394318300E+00  0.72897349400E+00  0.11802771062E+01  0.00000000000E+00 0.  1.
         11    1    3    3    0    0  0.38227799812E+01  0.36423055643E+02 -0.14178398071E+02  0.39271867810E+02  0.51100000000E-03 0. -1.
        -11    1    3    3    0    0 -0.28864145347E+01  0.43186530500E+01  0.84924091106E+01  0.99550572974E+01  0.51100000000E-03 0.  1.
        -12    1    3    3    0    0 -0.18134459639E+01 -0.40437765510E+02  0.49570154666E+01  0.40780797786E+02  0.00000000000E+00 0.  1.
</event>
<event>
 7    1  0.3743571E-015  0.9000777E+02  0.7816164E-02  0.1186339E+00
        -11   -1    0    0    0    0  0.00000000000E+00  0.00000000000E+00  0.45593999997E+02  0.45594000000E+02  0.51100000000E-03 0.  1.
         11   -1    0    0    0    0 -0.00000000000E+00 -0.00000000000E+00 -0.45593999997E+02  0.45594000000E+02  0.51100000000E-03 0. -1.
    9900012    2    1    2    0    0 -0.10927160299E+01 -0.14573952517E+00 -0.42150705960E+00  0.90007772678E+02  0.90000034477E+02 0.  0.
        -12    1    1    2    0    0  0.10927160299E+01  0.14573952517E+00  0.42150705960E+00  0.11802273224E+01  0.00000000000E+00 0.  1.
         11    1    3    3    0    0 -0.20482025538E+02  0.28909318206E+02 -0.89438936208E+01  0.36541145065E+02  0.51100000000E-03 0. -1.
        -11    1    3    3    0    0 -0.61062536048E+01  0.33042012292E+01 -0.66028720298E+01  0.95813359273E+01  0.51100000000E-03 0.  1.
        -12    1    3    3    0    0  0.25495563113E+02 -0.32359258960E+02  0.15125258591E+02  0.43885291686E+02  0.00000000000E+00 0.  1.
</event>
<event>
 7    1  0.3743571E-015  0.9000778E+02  0.7816164E-02  0.1186339E+00
        -11   -1    0    0    0    0  0.00000000000E+00  0.00000000000E+00  0.45593999997E+02  0.45594000000E+02  0.51100000000E-03 0. -1.
         11   -1    0    0    0    0 -0.00000000000E+00 -0.00000000000E+00 -0.45593999997E+02  0.45594000000E+02  0.51100000000E-03 0.  1.
    9900012    2    1    2    0    0 -0.11180212439E+01  0.14270841031E+00 -0.35012420484E+00  0.90007777923E+02  0.90000039792E+02 0.  0.
        -12    1    1    2    0    0  0.11180212439E+01 -0.14270841031E+00  0.35012420484E+00  0.11802220770E+01  0.00000000000E+00 0.  1.
         11    1    3    3    0    0  0.12357084771E+02 -0.26760879226E+02 -0.24883331085E+02  0.38574892963E+02  0.51100000000E-03 0. -1.
        -11    1    3    3    0    0  0.32683800365E+01 -0.67447947422E+01  0.26941852593E+01  0.79644961328E+01  0.51100000000E-03 0.  1.
        -12    1    3    3    0    0 -0.16743486051E+02  0.33648382379E+02  0.21839021621E+02  0.43468388827E+02  0.00000000000E+00 0.  1.
</event>
<event>
 7    1  0.3743571E-015  0.9000772E+02  0.7816164E-02  0.1186339E+00
        -11   -1    0    0    0    0  0.00000000000E+00  0.00000000000E+00  0.45593999997E+02  0.45594000000E+02  0.51100000000E-03 0.  1.
         11   -1    0    0    0    0 -0.00000000000E+00 -0.00000000000E+00 -0.45593999997E+02  0.45594000000E+02  0.51100000000E-03 0. -1.
    9900012    2    1    2    0    0  0.10389040418E+01 -0.28593689488E+00 -0.48163489842E+00  0.90007723045E+02  0.89999984189E+02 0.  0.
        -12    1    1    2    0    0 -0.10389040418E+01  0.28593689488E+00  0.48163489842E+00  0.11802769553E+01  0.00000000000E+00 0.  1.
         11    1    3    3    0    0 -0.65150003010E+00 -0.39364149648E+02 -0.10640680892E+02  0.40782163011E+02  0.51100000000E-03 0. -1.
        -11    1    3    3    0    0  0.61367873845E+01 -0.21426838461E+01 -0.15478652122E+00  0.65019391412E+01  0.51100000000E-03 0.  1.
        -12    1    3    3    0    0 -0.44463833126E+01  0.41220896599E+02  0.10313832515E+02  0.42723620892E+02  0.00000000000E+00 0.  1.
</event>
<event>
 7    1  0.3743571E-015  0.9000773E+02  0.7816164E-02  0.1186339E+00
        -11   -1    0    0    0    0  0.00000000000E+00  0.00000000000E+00  0.45593999997E+02  0.45594000000E+02  0.51100000000E-03 0. -1.
         11   -1    0    0    0    0 -0.00000000000E+00 -0.00000000000E+00 -0.45593999997E+02  0.45594000000E+02  0.51100000000E-03 0.  1.
    9900012    2    1    2    0    0 -0.10969390100E+01 -0.32871230369E+00  0.28585114479E+00  0.90007729757E+02  0.89999990990E+02 0.  0.
        -12    1    1    2    0    0  0.10969390100E+01  0.32871230369E+00 -0.28585114479E+00  0.11802702433E+01  0.00000000000E+00 0.  1.
         11    1    3    3    0    0 -0.38537408040E+01  0.45626034169E+00  0.42507717336E+02  0.42684488108E+02  0.51100000000E-03 0. -1.
        -11    1    3    3    0    0 -0.20408801497E+01 -0.70554432930E+01 -0.41391911809E+01  0.84307399283E+01  0.51100000000E-03 0.  1.
        -12    1    3    3    0    0  0.47976819438E+01  0.62704706476E+01 -0.38082675010E+02  0.38892501721E+02  0.00000000000E+00 0.  1.
</event>
<event>
 7    1  0.3743571E-015  0.9000774E+02  0.7816164E-02  0.1186339E+00
        -11   -1    0    0    0    0  0.00000000000E+00  0.00000000000E+00  0.45593999997E+02  0.45594000000E+02  0.51100000000E-03 0. -1.
         11   -1    0    0    0    0 -0.00000000000E+00 -0.00000000000E+00 -0.45593999997E+02  0.45594000000E+02  0.51100000000E-03 0.  1.
    9900012    2    1    2    0    0 -0.37265109966E+00  0.85319447430E+00  0.72540001840E+00  0.90007739503E+02  0.90000000865E+02 0.  0.
        -12    1    1    2    0    0  0.37265109966E+00 -0.85319447430E+00 -0.72540001840E+00  0.11802604966E+01  0.00000000000E+00 0.  1.
         11    1    3    3    0    0 -0.39235829629E+01  0.26636072046E+02  0.32252775806E+02  0.42013288193E+02  0.51100000000E-03 0. -1.
        -11    1    3    3    0    0  0.61379266441E+01 -0.46312629842E+01  0.22902994311E+01  0.80229802482E+01  0.51100000000E-03 0.  1.
        -12    1    3    3    0    0 -0.25869947808E+01 -0.21151614588E+02 -0.33817675219E+02  0.39971471062E+02  0.00000000000E+00 0.  1.
</event>
<event>
 7    1  0.3743571E-015  0.9000658E+02  0.7816164E-02  0.1186341E+00
        -11   -1    0    0    0    0  0.00000000000E+00  0.00000000000E+00  0.45593999997E+02  0.45594000000E+02  0.51100000000E-03 0.  1.
         11   -1    0    0    0    0 -0.00000000000E+00 -0.00000000000E+00 -0.45593999997E+02  0.45594000000E+02  0.51100000000E-03 0. -1.
    9900012    2    1    2    0    0 -0.54918552982E+00  0.23993803990E+00 -0.10181244370E+01  0.90006580355E+02  0.89998826408E+02 0.  0.
        -12    1    1    2    0    0  0.54918552982E+00 -0.23993803990E+00  0.10181244370E+01  0.11814196454E+01  0.00000000000E+00 0.  1.
         11    1    3    3    0    0  0.27212413745E+00  0.35098501496E+02 -0.77366872246E+01  0.35942108845E+02  0.51100000000E-03 0. -1.
        -11    1    3    3    0    0 -0.42612514701E+01  0.86592819861E+01  0.35966678506E+01  0.10299390686E+02  0.51100000000E-03 0.  1.
        -12    1    3    3    0    0  0.34399418028E+01 -0.43517845442E+02  0.31218949369E+01  0.43765080824E+02  0.00000000000E+00 0.  1.
</event>
<event>
 7    1  0.3743571E-015  0.9000774E+02  0.7816164E-02  0.1186339E+00
        -11   -1    0    0    0    0  0.00000000000E+00  0.00000000000E+00  0.45593999997E+02  0.45594000000E+02  0.51100000000E-03 0.  1.
         11   -1    0    0    0    0 -0.00000000000E+00 -0.00000000000E+00 -0.45593999997E+02  0.45594000000E+02  0.51100000000E-03 0. -1.
    9900012    2    1    2    0    0 -0.11048595322E+00  0.58400243142E+00 -0.10196796020E+01  0.90007740505E+02  0.90000001879E+02 0.  0.
        -12    1    1    2    0    0  0.11048595322E+00 -0.58400243142E+00  0.10196796020E+01  0.11802594954E+01  0.00000000000E+00 0.  1.
         11    1    3    3    0    0 -0.36589851741E+01  0.30039586387E+01 -0.67152762484E+01  0.82162567730E+01  0.51100000000E-03 0. -1.
        -11    1    3    3    0    0 -0.24087512724E+02  0.28787773123E+02 -0.70685682126E+01  0.38195664773E+02  0.51100000000E-03 0.  1.
         12    1    3    3    0    0  0.27636011944E+02 -0.31207729330E+02  0.12764164859E+02  0.43595818959E+02  0.00000000000E+00 0. -1.
</event>
<event>
 7    1  0.3743571E-015  0.9000744E+02  0.7816164E-02  0.1186340E+00
        -11   -1    0    0    0    0  0.00000000000E+00  0.00000000000E+00  0.45593999997E+02  0.45594000000E+02  0.51100000000E-03 0.  1.
         11   -1    0    0    0    0 -0.00000000000E+00 -0.00000000000E+00 -0.45593999997E+02  0.45594000000E+02  0.51100000000E-03 0. -1.
    9900012    2    1    2    0    0 -0.92679194676E+00  0.38932834554E+00  0.61903203065E+00  0.90007440587E+02  0.89999698002E+02 0.  0.
        -12    1    1    2    0    0  0.92679194676E+00 -0.38932834554E+00 -0.61903203065E+00  0.11805594132E+01  0.00000000000E+00 0.  1.
         11    1    3    3    0    0  0.23956608180E+02  0.23822492127E+02  0.13108591495E+02  0.36239003544E+02  0.51100000000E-03 0. -1.
        -11    1    3    3    0    0  0.47531358943E+01 -0.14543445419E+01  0.95671282338E+01  0.10781343227E+02  0.51100000000E-03 0.  1.
        -12    1    3    3    0    0 -0.29636536021E+02 -0.21978819240E+02 -0.22056687698E+02  0.42987093816E+02  0.00000000000E+00 0.  1.
</event>
<event>
 7    1  0.3743571E-015  0.9000775E+02  0.7816164E-02  0.1186339E+00
        -11   -1    0    0    0    0  0.00000000000E+00  0.00000000000E+00  0.45593999997E+02  0.45594000000E+02  0.51100000000E-03 0.  1.
         11   -1    0    0    0    0 -0.00000000000E+00 -0.00000000000E+00 -0.45593999997E+02  0.45594000000E+02  0.51100000000E-03 0. -1.
    9900012    2    1    2    0    0  0.11735433286E+00  0.94127673423E+00 -0.70230053337E+00  0.90007745803E+02  0.90000007248E+02 0.  0.
        -12    1    1    2    0    0 -0.11735433286E+00 -0.94127673423E+00  0.70230053337E+00  0.11802541968E+01  0.00000000000E+00 0.  1.
         11    1    3    3    0    0 -0.92777654377E+01 -0.10972740992E+02  0.28514018399E+01  0.14649521122E+02  0.51100000000E-03 0. -1.
        -11    1    3    3    0    0  0.13970329173E+02  0.33901557754E+02  0.20860114399E+02  0.42185662118E+02  0.51100000000E-03 0.  1.
         12    1    3    3    0    0 -0.45752094020E+01 -0.21987540028E+02 -0.24413816773E+02  0.33172562563E+02  0.00000000000E+00 0. -1.
</event>
<event>
 7    1  0.3743571E-015  0.9000786E+02  0.7816164E-02  0.1186339E+00
        -11   -1    0    0    0    0  0.00000000000E+00  0.00000000000E+00  0.45593999997E+02  0.45594000000E+02  0.51100000000E-03 0.  1.
         11   -1    0    0    0    0 -0.00000000000E+00 -0.00000000000E+00 -0.45593999997E+02  0.45594000000E+02  0.51100000000E-03 0. -1.
    9900012    2    1    2    0    0  0.95546416361E+00 -0.38490783119E+00 -0.57590998747E+00  0.90007856737E+02  0.90000119646E+02 0.  0.
        -12    1    1    2    0    0 -0.95546416361E+00  0.38490783119E+00  0.57590998747E+00  0.11801432625E+01  0.00000000000E+00 0.  1.
         11    1    3    3    0    0 -0.74322505370E+01  0.47413792400E+01  0.18706102973E+01  0.90121145292E+01  0.51100000000E-03 0. -1.
        -11    1    3    3    0    0 -0.25613002185E+02  0.20597282241E+02 -0.15594436307E+02  0.36379394726E+02  0.51100000000E-03 0.  1.
         12    1    3    3    0    0  0.34000716886E+02 -0.25723569312E+02  0.13147916022E+02  0.44616347482E+02  0.00000000000E+00 0. -1.
</event>
<event>
 7    1  0.3743571E-015  0.9000774E+02  0.7816164E-02  0.1186339E+00
        -11   -1    0    0    0    0  0.00000000000E+00  0.00000000000E+00  0.45593999997E+02  0.45594000000E+02  0.51100000000E-03 0.  1.
         11   -1    0    0    0    0 -0.00000000000E+00 -0.00000000000E+00 -0.45593999997E+02  0.45594000000E+02  0.51100000000E-03 0. -1.
    9900012    2    1    2    0    0 -0.47871100724E+00  0.88726757843E+00 -0.61367722666E+00  0.90007742518E+02  0.90000003920E+02 0.  0.
        -12    1    1    2    0    0  0.47871100724E+00 -0.88726757843E+00  0.61367722666E+00  0.11802574815E+01  0.00000000000E+00 0.  1.
         11    1    3    3    0    0  0.81940038872E+01 -0.59463478948E+01  0.66209785154E+01  0.12097028964E+02  0.51100000000E-03 0. -1.
        -11    1    3    3    0    0  0.25813534039E+02  0.26601092572E+02  0.19331348459E+01  0.37117296186E+02  0.51100000000E-03 0.  1.
         12    1    3    3    0    0 -0.34486248933E+02 -0.19767477099E+02 -0.91677905880E+01  0.40793417368E+02  0.00000000000E+00 0. -1.
</event>
<event>
 7    1  0.3743571E-015  0.9000773E+02  0.7816164E-02  0.1186339E+00
        -11   -1    0    0    0    0  0.00000000000E+00  0.00000000000E+00  0.45593999997E+02  0.45594000000E+02  0.51100000000E-03 0. -1.
         11   -1    0    0    0    0 -0.00000000000E+00 -0.00000000000E+00 -0.45593999997E+02  0.45594000000E+02  0.51100000000E-03 0.  1.
    9900012    2    1    2    0    0  0.51632500571E+00  0.97517482849E+00 -0.41891561221E+00  0.90007725563E+02  0.89999986740E+02 0.  0.
        -12    1    1    2    0    0 -0.51632500571E+00 -0.97517482849E+00  0.41891561221E+00  0.11802744375E+01  0.00000000000E+00 0.  1.
         11    1    3    3    0    0 -0.88033253810E+01  0.31566014687E+02  0.23899083266E+02  0.40559561169E+02  0.51100000000E-03 0. -1.
        -11    1    3    3    0    0  0.80837478483E+01  0.87812455986E+00  0.20366427524E+01  0.83824814929E+01  0.51100000000E-03 0.  1.
        -12    1    3    3    0    0  0.12359025384E+01 -0.31468964418E+02 -0.26354641631E+02  0.41065682901E+02  0.00000000000E+00 0.  1.
</event>
<event>
 7    1  0.3743571E-015  0.9000770E+02  0.7816164E-02  0.1186339E+00
        -11   -1    0    0    0    0  0.00000000000E+00  0.00000000000E+00  0.45593999997E+02  0.45594000000E+02  0.51100000000E-03 0.  1.
         11   -1    0    0    0    0 -0.00000000000E+00 -0.00000000000E+00 -0.45593999997E+02  0.45594000000E+02  0.51100000000E-03 0. -1.
    9900012    2    1    2    0    0  0.46287695202E+00 -0.91239415724E+00 -0.58855644765E+00  0.90007696284E+02  0.89999957075E+02 0.  0.
        -12    1    1    2    0    0 -0.46287695202E+00  0.91239415724E+00  0.58855644765E+00  0.11803037164E+01  0.00000000000E+00 0.  1.
         11    1    3    3    0    0  0.70339232297E+01  0.32873976141E+01  0.65387746308E+01  0.10150794698E+02  0.51100000000E-03 0. -1.
        -11    1    3    3    0    0  0.25753155754E+02 -0.22164883768E+02  0.14581664204E+02  0.36974748612E+02  0.51100000000E-03 0.  1.
         12    1    3    3    0    0 -0.32324202032E+02  0.17965091996E+02 -0.21708995282E+02  0.42882152973E+02  0.00000000000E+00 0. -1.
</event>
<event>
 7    1  0.3743571E-015  0.9000780E+02  0.7816164E-02  0.1186339E+00
        -11   -1    0    0    0    0  0.00000000000E+00  0.00000000000E+00  0.45593999997E+02  0.45594000000E+02  0.51100000000E-03 0. -1.
         11   -1    0    0    0    0 -0.00000000000E+00 -0.00000000000E+00 -0.45593999997E+02  0.45594000000E+02  0.51100000000E-03 0.  1.
    9900012    2    1    2    0    0 -0.18697617762E+00  0.97130271553E+00  0.64380468819E+00  0.90007799368E+02  0.90000061519E+02 0.  0.
        -12    1    1    2    0    0  0.18697617762E+00 -0.97130271553E+00 -0.64380468819E+00  0.11802006324E+01  0.00000000000E+00 0.  1.
         11    1    3    3    0    0 -0.13781702596E+02 -0.16796283361E+02  0.28110074281E+02  0.35527830465E+02  0.51100000000E-03 0. -1.
        -11    1    3    3    0    0 -0.62585216899E+01  0.30740546597E+00  0.80513313563E+01  0.10202329574E+02  0.51100000000E-03 0.  1.
        -12    1    3    3    0    0  0.19853248108E+02  0.17460180611E+02 -0.35517600949E+02  0.44277639329E+02  0.00000000000E+00 0.  1.
</event>
<event>
 7    1  0.3743571E-015  0.9000778E+02  0.7816164E-02  0.1186339E+00
        -11   -1    0    0    0    0  0.00000000000E+00  0.00000000000E+00  0.45593999997E+02  0.45594000000E+02  0.51100000000E-03 0.  1.
         11   -1    0    0    0    0 -0.00000000000E+00 -0.00000000000E+00 -0.45593999997E+02  0.45594000000E+02  0.51100000000E-03 0. -1.
    9900012    2    1    2    0    0  0.45901319233E+00  0.41883286608E+00 -0.10033980801E+01  0.90007778924E+02  0.90000040806E+02 0.  0.
        -12    1    1    2    0    0 -0.45901319233E+00 -0.41883286608E+00  0.10033980801E+01  0.11802210758E+01  0.00000000000E+00 0.  1.
         11    1    3    3    0    0 -0.32110354282E+01  0.16896022675E+02 -0.14883190779E+00  0.17199083753E+02  0.51100000000E-03 0. -1.
        -11    1    3    3    0    0 -0.25219288482E+02 -0.49481217580E+01 -0.23109493625E+02  0.34562192007E+02  0.51100000000E-03 0.  1.
         12    1    3    3    0    0  0.28889337103E+02 -0.11529068050E+02  0.22254927453E+02  0.38246503164E+02  0.00000000000E+00 0. -1.
</event>
<event>
 7    1  0.3743571E-015  0.9000767E+02  0.7816164E-02  0.1186339E+00
        -11   -1    0    0    0    0  0.00000000000E+00  0.00000000000E+00  0.45593999997E+02  0.45594000000E+02  0.51100000000E-03 0. -1.
         11   -1    0    0    0    0 -0.00000000000E+00 -0.00000000000E+00 -0.45593999997E+02  0.45594000000E+02  0.51100000000E-03 0.  1.
    9900012    2    1    2    0    0 -0.86503175119E+00  0.45813741308E+00  0.65954507639E+00  0.90007673974E+02  0.89999934470E+02 0.  0.
        -12    1    1    2    0    0  0.86503175119E+00 -0.45813741308E+00 -0.65954507639E+00  0.11803260260E+01  0.00000000000E+00 0.  1.
         11    1    3    3    0    0  0.46997937926E+01 -0.30158900560E+02  0.26399137148E+02  0.40355443091E+02  0.51100000000E-03 0. -1.
        -11    1    3    3    0    0 -0.10083741774E+02  0.42450878694E+01  0.19881710033E+01  0.11120046915E+02  0.51100000000E-03 0.  1.
        -12    1    3    3    0    0  0.45189162305E+01  0.26371950104E+02 -0.27727763075E+02  0.38532183968E+02  0.00000000000E+00 0.  1.
</event>
<event>
 7    1  0.3743571E-015  0.9000783E+02  0.7816164E-02  0.1186339E+00
        -11   -1    0    0    0    0  0.00000000000E+00  0.00000000000E+00  0.45593999997E+02  0.45594000000E+02  0.51100000000E-03 0.  1.
         11   -1    0    0    0    0 -0.00000000000E+00 -0.00000000000E+00 -0.45593999997E+02  0.45594000000E+02  0.51100000000E-03 0. -1.
    9900012    2    1    2    0    0  0.47260898824E+00  0.68682557423E+00 -0.83528933102E+00  0.90007831838E+02  0.90000094418E+02 0.  0.
        -12    1    1    2    0    0 -0.47260898824E+00 -0.68682557423E+00  0.83528933102E+00  0.11801681625E+01  0.00000000000E+00 0.  1.
         11    1    3    3    0    0 -0.17345880797E+02  0.33291697039E+02 -0.68155965205E+01  0.38153230906E+02  0.51100000000E-03 0. -1.
        -11    1    3    3    0    0  0.81808703529E+01 -0.49925700681E+01  0.17875116931E+02  0.20282312520E+02  0.51100000000E-03 0.  1.
        -12    1    3    3    0    0  0.96376194319E+01 -0.27612301397E+02 -0.11894809741E+02  0.31572288411E+02  0.00000000000E+00 0.  1.
</event>
<event>
 7    1  0.4799186E-015  0.9000773E+02  0.7816164E-02  0.1186339E+00
        -11   -1    0    0    0    0  0.00000000000E+00  0.00000000000E+00  0.45593999997E+02  0.45594000000E+02  0.51100000000E-03 0. -1.
         11   -1    0    0    0    0 -0.00000000000E+00 -0.00000000000E+00 -0.45593999997E+02  0.45594000000E+02  0.51100000000E-03 0.  1.
    9900012    2    1    2    0    0  0.68661368650E-01 -0.55041664999E+00  0.10418064868E+01  0.90007731544E+02  0.89999992800E+02 0.  0.
        -12    1    1    2    0    0 -0.68661368650E-01  0.55041664999E+00 -0.10418064868E+01  0.11802684559E+01  0.00000000000E+00 0.  1.
         11    1    3    3    0    0 -0.58132283272E+01 -0.34883722343E+02  0.14036883867E+02  0.38048676942E+02  0.51100000000E-03 0. -1.
        -11    1    3    3    0    0 -0.96276846521E+01 -0.13483234206E+01  0.25681332102E+01  0.10055127859E+02  0.51100000000E-03 0.  1.
        -12    1    3    3    0    0  0.15509574348E+02  0.35681629113E+02 -0.15563210591E+02  0.41903926743E+02  0.00000000000E+00 0.  1.
</event>
<event>
 7    1  0.3743571E-015  0.9000765E+02  0.7816164E-02  0.1186339E+00
        -11   -1    0    0    0    0  0.00000000000E+00  0.00000000000E+00  0.45593999997E+02  0.45594000000E+02  0.51100000000E-03 0.  1.
         11   -1    0    0    0    0 -0.00000000000E+00 -0.00000000000E+00 -0.45593999997E+02  0.45594000000E+02  0.51100000000E-03 0. -1.
    9900012    2    1    2    0    0  0.10290485612E+01 -0.40443239564E+00 -0.41317474704E+00  0.90007652646E+02  0.89999912861E+02 0.  0.
        -12    1    1    2    0    0 -0.10290485612E+01  0.40443239564E+00  0.41317474704E+00  0.11803473537E+01  0.00000000000E+00 0.  1.
         11    1    3    3    0    0 -0.86978541892E+01 -0.91876931029E+00 -0.24065921214E+01  0.90713003722E+01  0.51100000000E-03 0. -1.
        -11    1    3    3    0    0 -0.54833456420E+01  0.39034247662E+02 -0.82762937535E+00  0.39426191049E+02  0.51100000000E-03 0.  1.
         12    1    3    3    0    0  0.15210248392E+02 -0.38519910748E+02  0.28210467497E+01  0.41510161225E+02  0.00000000000E+00 0. -1.
</event>
<event>
 7    1  0.3743571E-015  0.9000771E+02  0.7816164E-02  0.1186339E+00
        -11   -1    0    0    0    0  0.00000000000E+00  0.00000000000E+00  0.45593999997E+02  0.45594000000E+02  0.51100000000E-03 0.  1.
         11   -1    0    0    0    0 -0.00000000000E+00 -0.00000000000E+00 -0.45593999997E+02  0.45594000000E+02  0.51100000000E-03 0. -1.
    9900012    2    1    2    0    0 -0.10760896232E+01  0.11966231515E+00  0.46988423538E+00  0.90007712263E+02  0.89999973265E+02 0.  0.
        -12    1    1    2    0    0  0.10760896232E+01 -0.11966231515E+00 -0.46988423538E+00  0.11802877368E+01  0.00000000000E+00 0.  1.
         11    1    3    3    0    0 -0.22318827817E+02 -0.13036366853E+02 -0.32678022248E+02  0.41664494166E+02  0.51100000000E-03 0. -1.
        -11    1    3    3    0    0 -0.49173526712E+01  0.64991449519E+01  0.66704648103E+01  0.10531587888E+02  0.51100000000E-03 0.  1.
        -12    1    3    3    0    0  0.26160090865E+02  0.66568842163E+01  0.26477441673E+02  0.37811630209E+02  0.00000000000E+00 0.  1.
</event>
<event>
 7    1  0.3743571E-015  0.9000770E+02  0.7816164E-02  0.1186339E+00
        -11   -1    0    0    0    0  0.00000000000E+00  0.00000000000E+00  0.45593999997E+02  0.45594000000E+02  0.51100000000E-03 0. -1.
         11   -1    0    0    0    0 -0.00000000000E+00 -0.00000000000E+00 -0.45593999997E+02  0.45594000000E+02  0.51100000000E-03 0.  1.
    9900012    2    1    2    0    0 -0.48263664528E-02  0.96686323106E+00  0.67694236975E+00  0.90007703947E+02  0.89999964839E+02 0.  0.
        -12    1    1    2    0    0  0.48263664528E-02 -0.96686323106E+00 -0.67694236975E+00  0.11802960533E+01  0.00000000000E+00 0.  1.
         11    1    3    3    0    0 -0.35183167167E+01  0.95927806235E+01  0.43003597291E+01  0.11085715433E+02  0.51100000000E-03 0. -1.
        -11    1    3    3    0    0  0.65626409713E+01  0.33628856319E+02  0.75997628902E+01  0.35095934666E+02  0.51100000000E-03 0.  1.
         12    1    3    3    0    0 -0.30491506210E+01 -0.42254773711E+02 -0.11223180250E+02  0.43826053847E+02  0.00000000000E+00 0. -1.
</event>
<event>
 7    1  0.3809875E-015  0.9000780E+02  0.7816164E-02  0.1186339E+00
        -11   -1    0    0    0    0  0.00000000000E+00  0.00000000000E+00  0.45593999997E+02  0.45594000000E+02  0.51100000000E-03 0. -1.
         11   -1    0    0    0    0 -0.00000000000E+00 -0.00000000000E+00 -0.45593999997E+02  0.45594000000E+02  0.51100000000E-03 0.  1.
    9900012    2    1    2    0    0  0.10680792590E+01  0.14588657203E+00  0.48040457505E+00  0.90007803088E+02  0.90000065289E+02 0.  0.
        -12    1    1    2    0    0 -0.10680792590E+01 -0.14588657203E+00 -0.48040457505E+00  0.11801969120E+01  0.00000000000E+00 0.  1.
         11    1    3    3    0    0 -0.42017774186E+01  0.37337126766E+01  0.79491290342E+01  0.97357175642E+01  0.51100000000E-03 0. -1.
        -11    1    3    3    0    0  0.48295061546E+01  0.15400946662E+02 -0.39702766624E+02  0.42858172683E+02  0.51100000000E-03 0.  1.
         12    1    3    3    0    0  0.44035052290E+00 -0.18988772767E+02  0.32234042165E+02  0.37413912841E+02  0.00000000000E+00 0. -1.
</event>
<event>
 7    1  0.3743571E-015  0.9000773E+02  0.7816164E-02  0.1186339E+00
        -11   -1    0    0    0    0  0.00000000000E+00  0.00000000000E+00  0.45593999997E+02  0.45594000000E+02  0.51100000000E-03 0.  1.
         11   -1    0    0    0    0 -0.00000000000E+00 -0.00000000000E+00 -0.45593999997E+02  0.45594000000E+02  0.51100000000E-03 0. -1.
    9900012    2    1    2    0    0 -0.89447963025E+00 -0.58198121288E+00 -0.50422116877E+00  0.90007730993E+02  0.89999992242E+02 0.  0.
        -12    1    1    2    0    0  0.89447963025E+00  0.58198121288E+00  0.50422116877E+00  0.11802690067E+01  0.00000000000E+00 0.  1.
         11    1    3    3    0    0  0.14779354581E+02  0.30426330595E+02 -0.13438714665E+02  0.36397664313E+02  0.51100000000E-03 0. -1.
        -11    1    3    3    0    0 -0.21996272420E+01  0.92821936673E+01  0.21423996605E+01  0.97768786352E+01  0.51100000000E-03 0.  1.
        -12    1    3    3    0    0 -0.13474206970E+02 -0.40290505475E+02  0.10792093836E+02  0.43833188046E+02  0.00000000000E+00 0.  1.
</event>
<event>
 7    1  0.3743571E-015  0.9000775E+02  0.7816164E-02  0.1186339E+00
        -11   -1    0    0    0    0  0.00000000000E+00  0.00000000000E+00  0.45593999997E+02  0.45594000000E+02  0.51100000000E-03 0. -1.
         11   -1    0    0    0    0 -0.00000000000E+00 -0.00000000000E+00 -0.45593999997E+02  0.45594000000E+02  0.51100000000E-03 0.  1.
    9900012    2    1    2    0    0  0.39529224990E+00 -0.42540033682E+00  0.10275010318E+01  0.90007754356E+02  0.90000015914E+02 0.  0.
        -12    1    1    2    0    0 -0.39529224990E+00  0.42540033682E+00 -0.10275010318E+01  0.11802456438E+01  0.00000000000E+00 0.  1.
         11    1    3    3    0    0 -0.27951797857E+02 -0.56595825807E+01  0.11247523725E+02  0.30656820915E+02  0.51100000000E-03 0. -1.
        -11    1    3    3    0    0  0.26560589727E+02  0.13896774458E+02  0.14352357532E+02  0.33235153587E+02  0.51100000000E-03 0.  1.
        -12    1    3    3    0    0  0.17865003797E+01 -0.86625922138E+01 -0.24572380225E+02  0.26115779854E+02  0.00000000000E+00 0.  1.
</event>
<event>
 7    1  0.3743571E-015  0.9000775E+02  0.7816164E-02  0.1186339E+00
        -11   -1    0    0    0    0  0.00000000000E+00  0.00000000000E+00  0.45593999997E+02  0.45594000000E+02  0.51100000000E-03 0.  1.
         11   -1    0    0    0    0 -0.00000000000E+00 -0.00000000000E+00 -0.45593999997E+02  0.45594000000E+02  0.51100000000E-03 0. -1.
    9900012    2    1    2    0    0  0.11748811501E+00  0.36824695893E+00 -0.11151622961E+01  0.90007747389E+02  0.90000008854E+02 0.  0.
        -12    1    1    2    0    0 -0.11748811501E+00 -0.36824695893E+00  0.11151622961E+01  0.11802526114E+01  0.00000000000E+00 0.  1.
         11    1    3    3    0    0 -0.75763305889E+01 -0.77344756811E+00 -0.62258255054E+01  0.98366615179E+01  0.51100000000E-03 0. -1.
        -11    1    3    3    0    0  0.22108412343E+02 -0.11932230894E+02 -0.30545633595E+02  0.39549914821E+02  0.51100000000E-03 0.  1.
         12    1    3    3    0    0 -0.14414593639E+02  0.13073925421E+02  0.35656296804E+02  0.40621171050E+02  0.00000000000E+00 0. -1.
</event>
<event>
 7    1  0.3743571E-015  0.9000652E+02  0.7816164E-02  0.1186341E+00
        -11   -1    0    0    0    0  0.00000000000E+00  0.00000000000E+00  0.45593999997E+02  0.45594000000E+02  0.51100000000E-03 0.  1.
         11   -1    0    0    0    0 -0.00000000000E+00 -0.00000000000E+00 -0.45593999997E+02  0.45594000000E+02  0.51100000000E-03 0. -1.
    9900012    2    1    2    0    0 -0.76554314052E+00 -0.60389784601E+00 -0.66718837726E+00  0.90006522434E+02  0.89998767722E+02 0.  0.
        -12    1    1    2    0    0  0.76554314052E+00  0.60389784601E+00  0.66718837726E+00  0.11814775661E+01  0.00000000000E+00 0.  1.
         11    1    3    3    0    0 -0.18436710164E+02  0.14058805878E+02 -0.31440613698E+02  0.39065003448E+02  0.51100000000E-03 0. -1.
        -11    1    3    3    0    0  0.78192028575E+00  0.81876069009E+01 -0.10352195437E+01  0.82897518576E+01  0.51100000000E-03 0.  1.
        -12    1    3    3    0    0  0.16889246738E+02 -0.22850310625E+02  0.31808644865E+02  0.42651767128E+02  0.00000000000E+00 0.  1.
</event>
<event>
 7    1  0.3743571E-015  0.9000780E+02  0.7816164E-02  0.1186339E+00
        -11   -1    0    0    0    0  0.00000000000E+00  0.00000000000E+00  0.45593999997E+02  0.45594000000E+02  0.51100000000E-03 0. -1.
         11   -1    0    0    0    0 -0.00000000000E+00 -0.00000000000E+00 -0.45593999997E+02  0.45594000000E+02  0.51100000000E-03 0.  1.
    9900012    2    1    2    0    0  0.62816749121E+00  0.64729672966E+00  0.76110205549E+00  0.90007803494E+02  0.90000065700E+02 0.  0.
        -12    1    1    2    0    0 -0.62816749121E+00 -0.64729672966E+00 -0.76110205549E+00  0.11801965057E+01  0.00000000000E+00 0.  1.
         11    1    3    3    0    0 -0.68520073127E+01 -0.55336741809E+01  0.45552462670E+01  0.99157361284E+01  0.51100000000E-03 0. -1.
        -11    1    3    3    0    0  0.85071759839E+01 -0.16301388835E+02  0.32526320172E+02  0.37364004407E+02  0.51100000000E-03 0.  1.
         12    1    3    3    0    0 -0.10270011800E+01  0.22482359745E+02 -0.36320464384E+02  0.42728062958E+02  0.00000000000E+00 0. -1.
</event>
<event>
 7    1  0.3743571E-015  0.9000772E+02  0.7816164E-02  0.1186339E+00
        -11   -1    0    0    0    0  0.00000000000E+00  0.00000000000E+00  0.45593999997E+02  0.45594000000E+02  0.51100000000E-03 0. -1.
         11   -1    0    0    0    0 -0.00000000000E+00 -0.00000000000E+00 -0.45593999997E+02  0.45594000000E+02  0.51100000000E-03 0.  1.
    9900012    2    1    2    0    0 -0.10157631567E+01 -0.57512714636E+00 -0.17466301202E+00  0.90007723256E+02  0.89999984403E+02 0.  0.
        -12    1    1    2    0    0  0.10157631567E+01  0.57512714636E+00  0.17466301202E+00  0.11802767442E+01  0.00000000000E+00 0.  1.
         11    1    3    3    0    0 -0.70210727162E+01  0.46508300813E+01  0.13016652747E+01  0.85217378087E+01  0.51100000000E-03 0. -1.
        -11    1    3    3    0    0 -0.16726726972E+02 -0.29890568898E+02 -0.23338703288E+02  0.41447853692E+02  0.51100000000E-03 0.  1.
         12    1    3    3    0    0  0.22732036532E+02  0.24664611671E+02  0.21862375001E+02  0.40038131755E+02  0.00000000000E+00 0. -1.
</event>
<event>
 7    1  0.3743571E-015  0.9000779E+02  0.7816164E-02  0.1186339E+00
        -11   -1    0    0    0    0  0.00000000000E+00  0.00000000000E+00  0.45593999997E+02  0.45594000000E+02  0.51100000000E-03 0. -1.
         11   -1    0    0    0    0 -0.00000000000E+00 -0.00000000000E+00 -0.45593999997E+02  0.45594000000E+02  0.51100000000E-03 0.  1.
    9900012    2    1    2    0    0  0.54270956157E-01 -0.28188253769E+00  0.11447655884E+01  0.90007791817E+02  0.90000053869E+02 0.  0.
        -12    1    1    2    0    0 -0.54270956157E-01  0.28188253769E+00 -0.11447655884E+01  0.11802081825E+01  0.00000000000E+00 0.  1.
         11    1    3    3    0    0 -0.87306331349E+01  0.43254616362E+01  0.22129678524E+01  0.99915364324E+01  0.51100000000E-03 0. -1.
        -11    1    3    3    0    0 -0.32924337518E+02 -0.16045556816E+02  0.18150179306E+01  0.36671053774E+02  0.51100000000E-03 0.  1.
         12    1    3    3    0    0  0.41709241609E+02  0.11438212642E+02 -0.28832201946E+01  0.43345201611E+02  0.00000000000E+00 0. -1.
</event>
<event>
 7    1  0.3743571E-015  0.9000767E+02  0.7816164E-02  0.1186339E+00
        -11   -1    0    0    0    0  0.00000000000E+00  0.00000000000E+00  0.45593999997E+02  0.45594000000E+02  0.51100000000E-03 0.  1.
         11   -1    0    0    0    0 -0.00000000000E+00 -0.00000000000E+00 -0.45593999997E+02  0.45594000000E+02  0.51100000000E-03 0. -1.
    9900012    2    1    2    0    0 -0.36442487764E+00 -0.10998736054E+01  0.22503321610E+00  0.90007674881E+02  0.89999935389E+02 0.  0.
        -12    1    1    2    0    0  0.36442487764E+00  0.10998736054E+01 -0.22503321610E+00  0.11803251194E+01  0.00000000000E+00 0.  1.
         11    1    3    3    0    0 -0.76532912153E+01 -0.54723862079E+01  0.29722089256E+00  0.94131938127E+01  0.51100000000E-03 0. -1.
        -11    1    3    3    0    0 -0.26131681170E+02 -0.80843051369E+01  0.24952154924E+02  0.37024732084E+02  0.51100000000E-03 0.  1.
         12    1    3    3    0    0  0.33420547507E+02  0.12456817739E+02 -0.25024342601E+02  0.43569748983E+02  0.00000000000E+00 0. -1.
</event>
<event>
 7    1  0.3743571E-015  0.9000761E+02  0.7816164E-02  0.1186339E+00
        -11   -1    0    0    0    0  0.00000000000E+00  0.00000000000E+00  0.45593999997E+02  0.45594000000E+02  0.51100000000E-03 0. -1.
         11   -1    0    0    0    0 -0.00000000000E+00 -0.00000000000E+00 -0.45593999997E+02  0.45594000000E+02  0.51100000000E-03 0.  1.
    9900012    2    1    2    0    0  0.11394775555E+01  0.20963916884E-01  0.30736505854E+00  0.90007609444E+02  0.89999869089E+02 0.  0.
        -12    1    1    2    0    0 -0.11394775555E+01 -0.20963916884E-01 -0.30736505854E+00  0.11803905560E+01  0.00000000000E+00 0.  1.
         11    1    3    3    0    0 -0.31391160631E+01  0.22179967001E+01 -0.80112997441E+01  0.88856335098E+01  0.51100000000E-03 0. -1.
        -11    1    3    3    0    0  0.39626356219E+00  0.30308753461E+02 -0.21242227753E+02  0.37013643448E+02  0.51100000000E-03 0.  1.
         12    1    3    3    0    0  0.38823300565E+01 -0.32505786244E+02  0.29560892556E+02  0.44108332486E+02  0.00000000000E+00 0. -1.
</event>
<event>
 7    1  0.3743571E-015  0.9000779E+02  0.7816164E-02  0.1186339E+00
        -11   -1    0    0    0    0  0.00000000000E+00  0.00000000000E+00  0.45593999997E+02  0.45594000000E+02  0.51100000000E-03 0.  1.
         11   -1    0    0    0    0 -0.00000000000E+00 -0.00000000000E+00 -0.45593999997E+02  0.45594000000E+02  0.51100000000E-03 0. -1.
    9900012    2    1    2    0    0 -0.10374587220E+01  0.91929541261E-01  0.55508995258E+00  0.90007789639E+02  0.90000051662E+02 0.  0.
        -12    1    1    2    0    0  0.10374587220E+01 -0.91929541261E-01 -0.55508995258E+00  0.11802103608E+01  0.00000000000E+00 0.  1.
         11    1    3    3    0    0  0.60942521733E+01  0.16446931561E+02 -0.30805026832E+02  0.35448429383E+02  0.51100000000E-03 0. -1.
        -11    1    3    3    0    0  0.93257164535E+00  0.30657072635E+01 -0.87241792491E+01  0.92940601855E+01  0.51100000000E-03 0.  1.
        -12    1    3    3    0    0 -0.80642825407E+01 -0.19420709283E+02  0.40084296034E+02  0.45265300071E+02  0.00000000000E+00 0.  1.
</event>
<event>
 7    1  0.3743571E-015  0.9000774E+02  0.7816164E-02  0.1186339E+00
        -11   -1    0    0    0    0  0.00000000000E+00  0.00000000000E+00  0.45593999997E+02  0.45594000000E+02  0.51100000000E-03 0.  1.
         11   -1    0    0    0    0 -0.00000000000E+00 -0.00000000000E+00 -0.45593999997E+02  0.45594000000E+02  0.51100000000E-03 0. -1.
    9900012    2    1    2    0    0 -0.49388663163E+00 -0.87788612852E+00  0.61514437407E+00  0.90007741274E+02  0.90000002659E+02 0.  0.
        -12    1    1    2    0    0  0.49388663163E+00  0.87788612852E+00 -0.61514437407E+00  0.11802587261E+01  0.00000000000E+00 0.  1.
         11    1    3    3    0    0  0.23220414401E+02 -0.45146529865E+01 -0.26302990528E+02  0.35375373461E+02  0.51100000000E-03 0. -1.
        -11    1    3    3    0    0 -0.30755745833E+01  0.10856499262E+02 -0.77189363188E+01  0.13671309864E+02  0.51100000000E-03 0.  1.
        -12    1    3    3    0    0 -0.20638726449E+02 -0.72197324044E+01  0.34637071221E+02  0.40961057948E+02  0.00000000000E+00 0.  1.
</event>
<event>
 7    1  0.3743571E-015  0.9000817E+02  0.7816164E-02  0.1186338E+00
        -11   -1    0    0    0    0  0.00000000000E+00  0.00000000000E+00  0.45593999997E+02  0.45594000000E+02  0.51100000000E-03 0. -1.
         11   -1    0    0    0    0 -0.00000000000E+00 -0.00000000000E+00 -0.45593999997E+02  0.45594000000E+02  0.51100000000E-03 0.  1.
    9900012    2    1    2    0    0 -0.82871709125E+00  0.60443429608E+00  0.58300535461E+00  0.90008166080E+02  0.90000433071E+02 0.  0.
        -12    1    1    2    0    0  0.82871709125E+00 -0.60443429608E+00 -0.58300535461E+00  0.11798339201E+01  0.00000000000E+00 0.  1.
         11    1    3    3    0    0  0.28952024088E+01  0.22202802479E+00  0.16075457366E+02  0.16335599873E+02  0.51100000000E-03 0. -1.
        -11    1    3    3    0    0 -0.17608140887E+02  0.23801118650E+02  0.14668884200E+02  0.33041126471E+02  0.51100000000E-03 0.  1.
         12    1    3    3    0    0  0.13884221387E+02 -0.23418712379E+02 -0.30161336211E+02  0.40631439736E+02  0.00000000000E+00 0. -1.
</event>
<event>
 7    1  0.3743571E-015  0.9000767E+02  0.7816164E-02  0.1186339E+00
        -11   -1    0    0    0    0  0.00000000000E+00  0.00000000000E+00  0.45593999997E+02  0.45594000000E+02  0.51100000000E-03 0.  1.
         11   -1    0    0    0    0 -0.00000000000E+00 -0.00000000000E+00 -0.45593999997E+02  0.45594000000E+02  0.51100000000E-03 0. -1.
    9900012    2    1    2    0    0 -0.55541560108E+00  0.23363087034E+00 -0.10149450049E+01  0.90007668167E+02  0.89999928587E+02 0.  0.
        -12    1    1    2    0    0  0.55541560108E+00 -0.23363087034E+00  0.10149450049E+01  0.11803318332E+01  0.00000000000E+00 0.  1.
         11    1    3    3    0    0 -0.18016165896E+02  0.22886279468E+02 -0.22604938449E+02  0.36869326872E+02  0.51100000000E-03 0. -1.
        -11    1    3    3    0    0 -0.65329963946E+00  0.10622551151E+02  0.40226404872E+01  0.11377479076E+02  0.51100000000E-03 0.  1.
        -12    1    3    3    0    0  0.18114049934E+02 -0.33275199748E+02  0.17567352957E+02  0.41760862219E+02  0.00000000000E+00 0.  1.
</event>
<event>
 7    1  0.3743571E-015  0.9000773E+02  0.7816164E-02  0.1186339E+00
        -11   -1    0    0    0    0  0.00000000000E+00  0.00000000000E+00  0.45593999997E+02  0.45594000000E+02  0.51100000000E-03 0. -1.
         11   -1    0    0    0    0 -0.00000000000E+00 -0.00000000000E+00 -0.45593999997E+02  0.45594000000E+02  0.51100000000E-03 0.  1.
    9900012    2    1    2    0    0 -0.28158480118E+00  0.58530576048E+00 -0.98547617609E+00  0.90007730485E+02  0.89999991728E+02 0.  0.
        -12    1    1    2    0    0  0.28158480118E+00 -0.58530576048E+00  0.98547617609E+00  0.11802695146E+01  0.00000000000E+00 0.  1.
         11    1    3    3    0    0  0.60954394466E+01  0.12283119284E+02  0.20703771945E+01  0.13867799515E+02  0.51100000000E-03 0. -1.
        -11    1    3    3    0    0 -0.15630412243E+01 -0.78329959092E+01 -0.38928738406E+02  0.39739723162E+02  0.51100000000E-03 0.  1.
         12    1    3    3    0    0 -0.48139830235E+01 -0.38648176145E+01  0.35872885036E+02  0.36400207809E+02  0.00000000000E+00 0. -1.
</event>
<event>
 7    1  0.3743571E-015  0.9000795E+02  0.7816164E-02  0.1186339E+00
        -11   -1    0    0    0    0  0.00000000000E+00  0.00000000000E+00  0.45593999997E+02  0.45594000000E+02  0.51100000000E-03 0. -1.
         11   -1    0    0    0    0 -0.00000000000E+00 -0.00000000000E+00 -0.45593999997E+02  0.45594000000E+02  0.51100000000E-03 0.  1.
    9900012    2    1    2    0    0  0.76122988716E+00  0.78140089899E+00  0.44996665865E+00  0.90007945637E+02  0.90000209719E+02 0.  0.
        -12    1    1    2    0    0 -0.76122988716E+00 -0.78140089899E+00 -0.44996665865E+00  0.11800543631E+01  0.00000000000E+00 0.  1.
         11    1    3    3    0    0 -0.26001609510E+02  0.19254822131E+02  0.21396462898E+02  0.38789695761E+02  0.51100000000E-03 0. -1.
        -11    1    3    3    0    0  0.44528719146E+01  0.46493089932E+01  0.63614229981E+01  0.90505162960E+01  0.51100000000E-03 0.  1.
        -12    1    3    3    0    0  0.22309967483E+02 -0.23122730225E+02 -0.27307919238E+02  0.42167733580E+02  0.00000000000E+00 0.  1.
</event>
<event>
 7    1  0.3743571E-015  0.9000773E+02  0.7816164E-02  0.1186339E+00
        -11   -1    0    0    0    0  0.00000000000E+00  0.00000000000E+00  0.45593999997E+02  0.45594000000E+02  0.51100000000E-03 0. -1.
         11   -1    0    0    0    0 -0.00000000000E+00 -0.00000000000E+00 -0.45593999997E+02  0.45594000000E+02  0.51100000000E-03 0.  1.
    9900012    2    1    2    0    0 -0.12093546111E-01  0.95545246463E+00  0.69282152007E+00  0.90007729978E+02  0.89999991214E+02 0.  0.
        -12    1    1    2    0    0  0.12093546111E-01 -0.95545246463E+00 -0.69282152007E+00  0.11802700219E+01  0.00000000000E+00 0.  1.
         11    1    3    3    0    0 -0.96422833141E+01  0.72210870215E+01  0.24290148506E+01  0.12288931552E+02  0.51100000000E-03 0. -1.
        -11    1    3    3    0    0 -0.29230949304E+02  0.12848539002E+02 -0.10344581095E+02  0.33564024044E+02  0.51100000000E-03 0.  1.
         12    1    3    3    0    0  0.38861139072E+02 -0.19114173559E+02  0.86083877645E+01  0.44154774382E+02  0.00000000000E+00 0. -1.
</event>
<event>
 7    1  0.4247701E-015  0.9000772E+02  0.7816164E-02  0.1186339E+00
        -11   -1    0    0    0    0  0.00000000000E+00  0.00000000000E+00  0.45593999997E+02  0.45594000000E+02  0.51100000000E-03 0.  1.
         11   -1    0    0    0    0 -0.00000000000E+00 -0.00000000000E+00 -0.45593999997E+02  0.45594000000E+02  0.51100000000E-03 0. -1.
    9900012    2    1    2    0    0  0.24644089434E+00  0.64011856717E+00 -0.96050516632E+00  0.90007722461E+02  0.89999983598E+02 0.  0.
        -12    1    1    2    0    0 -0.24644089434E+00 -0.64011856717E+00  0.96050516632E+00  0.11802775390E+01  0.00000000000E+00 0.  1.
         11    1    3    3    0    0 -0.51166652835E+01  0.74041416118E+01  0.43906986136E+01  0.10013980787E+02  0.51100000000E-03 0. -1.
        -11    1    3    3    0    0  0.20339516330E+02  0.43782673111E+01  0.32039771689E+02  0.38202252804E+02  0.51100000000E-03 0.  1.
         12    1    3    3    0    0 -0.14976410152E+02 -0.11142290356E+02 -0.37390975469E+02  0.41791488869E+02  0.00000000000E+00 0. -1.
</event>
<event>
 7    1  0.3743571E-015  0.9000772E+02  0.7816164E-02  0.1186339E+00
        -11   -1    0    0    0    0  0.00000000000E+00  0.00000000000E+00  0.45593999997E+02  0.45594000000E+02  0.51100000000E-03 0. -1.
         11   -1    0    0    0    0 -0.00000000000E+00 -0.00000000000E+00 -0.45593999997E+02  0.45594000000E+02  0.51100000000E-03 0.  1.
    9900012    2    1    2    0    0 -0.98355740955E+00 -0.63653224872E+00 -0.14320467641E+00  0.90007717805E+02  0.89999978880E+02 0.  0.
        -12    1    1    2    0    0  0.98355740955E+00  0.63653224872E+00  0.14320467641E+00  0.11802821954E+01  0.00000000000E+00 0.  1.
         11    1    3    3    0    0 -0.72773854565E+01 -0.20287587570E+02 -0.32482896544E+02  0.38983138876E+02  0.51100000000E-03 0. -1.
        -11    1    3    3    0    0  0.35955532446E+01 -0.66069327317E+01 -0.19318355654E+01  0.77660512597E+01  0.51100000000E-03 0.  1.
        -12    1    3    3    0    0  0.26982748024E+01  0.26257988053E+02  0.34271527433E+02  0.43258527669E+02  0.00000000000E+00 0.  1.
</event>
<event>
 7    1  0.3743571E-015  0.9000785E+02  0.7816164E-02  0.1186339E+00
        -11   -1    0    0    0    0  0.00000000000E+00  0.00000000000E+00  0.45593999997E+02  0.45594000000E+02  0.51100000000E-03 0.  1.
         11   -1    0    0    0    0 -0.00000000000E+00 -0.00000000000E+00 -0.45593999997E+02  0.45594000000E+02  0.51100000000E-03 0. -1.
    9900012    2    1    2    0    0 -0.21785038588E+00  0.68633430097E+00 -0.93501265056E+00  0.90007846527E+02  0.90000109301E+02 0.  0.
        -12    1    1    2    0    0  0.21785038588E+00 -0.68633430097E+00  0.93501265056E+00  0.11801534731E+01  0.00000000000E+00 0.  1.
         11    1    3    3    0    0  0.97522748840E+01 -0.32573842442E+01 -0.16226396858E+01  0.10409148733E+02  0.51100000000E-03 0. -1.
        -11    1    3    3    0    0  0.16847701820E+02  0.25622726294E+02  0.23168425618E+02  0.38433645484E+02  0.51100000000E-03 0.  1.
         12    1    3    3    0    0 -0.26817827090E+02 -0.21679007748E+02 -0.22480798583E+02  0.41165052310E+02  0.00000000000E+00 0. -1.
</event>
<event>
 7    1  0.3743571E-015  0.9000780E+02  0.7816164E-02  0.1186339E+00
        -11   -1    0    0    0    0  0.00000000000E+00  0.00000000000E+00  0.45593999997E+02  0.45594000000E+02  0.51100000000E-03 0.  1.
         11   -1    0    0    0    0 -0.00000000000E+00 -0.00000000000E+00 -0.45593999997E+02  0.45594000000E+02  0.51100000000E-03 0. -1.
    9900012    2    1    2    0    0 -0.11259452249E+01  0.23463282098E+00 -0.26470144197E+00  0.90007799990E+02  0.90000062150E+02 0.  0.
        -12    1    1    2    0    0  0.11259452249E+01 -0.23463282098E+00  0.26470144197E+00  0.11802000100E+01  0.00000000000E+00 0.  1.
         11    1    3    3    0    0 -0.14491751397E+02  0.33230736003E+02  0.12249655377E+02  0.38266783650E+02  0.51100000000E-03 0. -1.
        -11    1    3    3    0    0 -0.80696322159E+01  0.14366112895E+01 -0.70567917011E+01  0.10815781316E+02  0.51100000000E-03 0.  1.
        -12    1    3    3    0    0  0.21435438388E+02 -0.34432714471E+02 -0.54575651179E+01  0.40925235024E+02  0.00000000000E+00 0.  1.
</event>
<event>
 7    1  0.3743571E-015  0.9000783E+02  0.7816164E-02  0.1186339E+00
        -11   -1    0    0    0    0  0.00000000000E+00  0.00000000000E+00  0.45593999997E+02  0.45594000000E+02  0.51100000000E-03 0. -1.
         11   -1    0    0    0    0 -0.00000000000E+00 -0.00000000000E+00 -0.45593999997E+02  0.45594000000E+02  0.51100000000E-03 0.  1.
    9900012    2    1    2    0    0 -0.32622704911E+00  0.37386450996E+00  0.10707917175E+01  0.90007833206E+02  0.90000095804E+02 0.  0.
        -12    1    1    2    0    0  0.32622704911E+00 -0.37386450996E+00 -0.10707917175E+01  0.11801667940E+01  0.00000000000E+00 0.  1.
         11    1    3    3    0    0 -0.21155733087E+00 -0.32881016144E+01  0.99088576064E+01  0.10442309517E+02  0.51100000000E-03 0. -1.
        -11    1    3    3    0    0  0.36534744919E+02  0.14751338375E+02  0.29256010689E+01  0.39508843466E+02  0.51100000000E-03 0.  1.
         12    1    3    3    0    0 -0.36649414637E+02 -0.11089372251E+02 -0.11763666958E+02  0.40056680223E+02  0.00000000000E+00 0. -1.
</event>
<event>
 7    1  0.3743571E-015  0.9000806E+02  0.7816164E-02  0.1186338E+00
        -11   -1    0    0    0    0  0.00000000000E+00  0.00000000000E+00  0.45593999997E+02  0.45594000000E+02  0.51100000000E-03 0.  1.
         11   -1    0    0    0    0 -0.00000000000E+00 -0.00000000000E+00 -0.45593999997E+02  0.45594000000E+02  0.51100000000E-03 0. -1.
    9900012    2    1    2    0    0  0.10740833831E+01 -0.47707470228E+00 -0.10487707942E+00  0.90008061617E+02  0.90000327230E+02 0.  0.
        -12    1    1    2    0    0 -0.10740833831E+01  0.47707470228E+00  0.10487707942E+00  0.11799383828E+01  0.00000000000E+00 0.  1.
         11    1    3    3    0    0  0.14835857877E+01  0.10927276357E+02 -0.10564212863E+02  0.15271181652E+02  0.51100000000E-03 0. -1.
        -11    1    3    3    0    0  0.12535436673E+02  0.20465453119E+02  0.27373872672E+02  0.36404681695E+02  0.51100000000E-03 0.  1.
         12    1    3    3    0    0 -0.12944939078E+02 -0.31869804178E+02 -0.16914536889E+02  0.38332198270E+02  0.00000000000E+00 0. -1.
</event>
<event>
 7    1  0.3743571E-015  0.9000741E+02  0.7816164E-02  0.1186340E+00
        -11   -1    0    0    0    0  0.00000000000E+00  0.00000000000E+00  0.45593999997E+02  0.45594000000E+02  0.51100000000E-03 0. -1.
         11   -1    0    0    0    0 -0.00000000000E+00 -0.00000000000E+00 -0.45593999997E+02  0.45594000000E+02  0.51100000000E-03 0.  1.
    9900012    2    1    2    0    0 -0.86866933862E+00 -0.44397698028E+00  0.66490320532E+00  0.90007407669E+02  0.89999664650E+02 0.  0.
        -12    1    1    2    0    0  0.86866933862E+00  0.44397698028E+00 -0.66490320532E+00  0.11805923307E+01  0.00000000000E+00 0.  1.
         11    1    3    3    0    0 -0.75732346027E+00 -0.20852062235E+02 -0.32880586219E+02  0.38942457404E+02  0.51100000000E-03 0. -1.
        -11    1    3    3    0    0 -0.51304333849E+01 -0.72625166273E+01  0.26306867847E+01  0.92728640504E+01  0.51100000000E-03 0.  1.
        -12    1    3    3    0    0  0.50190875065E+01  0.27670601882E+02  0.30914802640E+02  0.41792086215E+02  0.00000000000E+00 0.  1.
</event>
<event>
 7    1  0.3743571E-015  0.9000774E+02  0.7816164E-02  0.1186339E+00
        -11   -1    0    0    0    0  0.00000000000E+00  0.00000000000E+00  0.45593999997E+02  0.45594000000E+02  0.51100000000E-03 0. -1.
         11   -1    0    0    0    0 -0.00000000000E+00 -0.00000000000E+00 -0.45593999997E+02  0.45594000000E+02  0.51100000000E-03 0.  1.
    9900012    2    1    2    0    0  0.43901622085E+00  0.94011262067E+00 -0.56255902551E+00  0.90007737470E+02  0.89999998805E+02 0.  0.
        -12    1    1    2    0    0 -0.43901622085E+00 -0.94011262067E+00  0.56255902551E+00  0.11802625296E+01  0.00000000000E+00 0.  1.
         11    1    3    3    0    0  0.24357186379E+01 -0.34019133888E+02  0.15552369307E+02  0.37484802082E+02  0.51100000000E-03 0. -1.
        -11    1    3    3    0    0 -0.27777535204E+01 -0.63122962370E+01 -0.78059796645E+01  0.10416060541E+02  0.51100000000E-03 0.  1.
        -12    1    3    3    0    0  0.78105110341E+00  0.41271542746E+02 -0.83089486684E+01  0.42106874848E+02  0.00000000000E+00 0.  1.
</event>
<event>
 7    1  0.3743571E-015  0.9000776E+02  0.7816164E-02  0.1186339E+00
        -11   -1    0    0    0    0  0.00000000000E+00  0.00000000000E+00  0.45593999997E+02  0.45594000000E+02  0.51100000000E-03 0. -1.
         11   -1    0    0    0    0 -0.00000000000E+00 -0.00000000000E+00 -0.45593999997E+02  0.45594000000E+02  0.51100000000E-03 0.  1.
    9900012    2    1    2    0    0 -0.94725534443E+00 -0.67799089300E+00 -0.18972836494E+00  0.90007762231E+02  0.90000023893E+02 0.  0.
        -12    1    1    2    0    0  0.94725534443E+00  0.67799089300E+00  0.18972836494E+00  0.11802377688E+01  0.00000000000E+00 0.  1.
         11    1    3    3    0    0 -0.79475953038E+00  0.61277718226E+01 -0.76352881863E+01  0.98223651006E+01  0.51100000000E-03 0. -1.
        -11    1    3    3    0    0 -0.24650735712E+02  0.27275234111E+02 -0.31425638755E+01  0.36898141890E+02  0.51100000000E-03 0.  1.
         12    1    3    3    0    0  0.24498239898E+02 -0.34080996827E+02  0.10588123697E+02  0.43287255240E+02  0.00000000000E+00 0. -1.
</event>
<event>
 7    1  0.3743571E-015  0.9000772E+02  0.7816164E-02  0.1186339E+00
        -11   -1    0    0    0    0  0.00000000000E+00  0.00000000000E+00  0.45593999997E+02  0.45594000000E+02  0.51100000000E-03 0. -1.
         11   -1    0    0    0    0 -0.00000000000E+00 -0.00000000000E+00 -0.45593999997E+02  0.45594000000E+02  0.51100000000E-03 0.  1.
    9900012    2    1    2    0    0  0.47275477664E+00 -0.10518423845E+01  0.25135563336E+00  0.90007724975E+02  0.89999986144E+02 0.  0.
        -12    1    1    2    0    0 -0.47275477664E+00  0.10518423845E+01 -0.25135563336E+00  0.11802750252E+01  0.00000000000E+00 0.  1.
         11    1    3    3    0    0  0.25994291471E+01 -0.92787047162E+01  0.35701101137E+01  0.10276043966E+02  0.51100000000E-03 0. -1.
        -11    1    3    3    0    0 -0.17113861764E+02 -0.18448511315E+02 -0.29984979288E+02  0.39144997348E+02  0.51100000000E-03 0.  1.
         12    1    3    3    0    0  0.14987187393E+02  0.26675373646E+02  0.26666224808E+02  0.40586683661E+02  0.00000000000E+00 0. -1.
</event>
<event>
 7    1  0.3743571E-015  0.9000756E+02  0.7816164E-02  0.1186339E+00
        -11   -1    0    0    0    0  0.00000000000E+00  0.00000000000E+00  0.45593999997E+02  0.45594000000E+02  0.51100000000E-03 0. -1.
         11   -1    0    0    0    0 -0.00000000000E+00 -0.00000000000E+00 -0.45593999997E+02  0.45594000000E+02  0.51100000000E-03 0.  1.
    9900012    2    1    2    0    0  0.32255248043E+00 -0.74597608764E+00  0.85610092430E+00  0.90007563971E+02  0.89999823015E+02 0.  0.
        -12    1    1    2    0    0 -0.32255248043E+00  0.74597608764E+00 -0.85610092430E+00  0.11804360290E+01  0.00000000000E+00 0.  1.
         11    1    3    3    0    0 -0.28379128395E+01  0.79815154635E+01 -0.13409176509E+02  0.15860780350E+02  0.51100000000E-03 0. -1.
        -11    1    3    3    0    0 -0.46695573284E+01 -0.34881445222E+02 -0.11079013826E+02  0.36895318593E+02  0.51100000000E-03 0.  1.
         12    1    3    3    0    0  0.78300226483E+01  0.26153953671E+02  0.25344291260E+02  0.37251465029E+02  0.00000000000E+00 0. -1.
</event>
<event>
 7    1  0.4088173E-015  0.9000770E+02  0.7816164E-02  0.1186339E+00
        -11   -1    0    0    0    0  0.00000000000E+00  0.00000000000E+00  0.45593999997E+02  0.45594000000E+02  0.51100000000E-03 0. -1.
         11   -1    0    0    0    0 -0.00000000000E+00 -0.00000000000E+00 -0.45593999997E+02  0.45594000000E+02  0.51100000000E-03 0.  1.
    9900012    2    1    2    0    0  0.10289419443E+01  0.20434076788E+00  0.54095521537E+00  0.90007699522E+02  0.89999960355E+02 0.  0.
        -12    1    1    2    0    0 -0.10289419443E+01 -0.20434076788E+00 -0.54095521537E+00  0.11803004784E+01  0.00000000000E+00 0.  1.
         11    1    3    3    0    0 -0.10080263986E+02 -0.36707245418E+02  0.67181105531E+01  0.38654451204E+02  0.51100000000E-03 0. -1.
        -11    1    3    3    0    0  0.53804914036E+01 -0.51325768211E+01 -0.48926067334E+01  0.89011591086E+01  0.51100000000E-03 0.  1.
        -12    1    3    3    0    0  0.57287145269E+01  0.42044163007E+02 -0.12845486043E+01  0.42452089209E+02  0.00000000000E+00 0.  1.
</event>
<event>
 7    1  0.3743571E-015  0.9000776E+02  0.7816164E-02  0.1186339E+00
        -11   -1    0    0    0    0  0.00000000000E+00  0.00000000000E+00  0.45593999997E+02  0.45594000000E+02  0.51100000000E-03 0.  1.
         11   -1    0    0    0    0 -0.00000000000E+00 -0.00000000000E+00 -0.45593999997E+02  0.45594000000E+02  0.51100000000E-03 0. -1.
    9900012    2    1    2    0    0 -0.27165109165E+00 -0.95856612026E-01 -0.11445419046E+01  0.90007763169E+02  0.90000024843E+02 0.  0.
        -12    1    1    2    0    0  0.27165109165E+00  0.95856612026E-01  0.11445419046E+01  0.11802368309E+01  0.00000000000E+00 0.  1.
         11    1    3    3    0    0 -0.86197351636E+01 -0.37612281433E+01  0.74563399689E+00  0.94341211437E+01  0.51100000000E-03 0. -1.
        -11    1    3    3    0    0 -0.31082433602E+02  0.15562761495E+02  0.12508566561E+02  0.36942948741E+02  0.51100000000E-03 0.  1.
         12    1    3    3    0    0  0.39430517674E+02 -0.11897389964E+02 -0.14398742463E+02  0.43630693285E+02  0.00000000000E+00 0. -1.
</event>
<event>
 7    1  0.3743571E-015  0.9000778E+02  0.7816164E-02  0.1186339E+00
        -11   -1    0    0    0    0  0.00000000000E+00  0.00000000000E+00  0.45593999997E+02  0.45594000000E+02  0.51100000000E-03 0.  1.
         11   -1    0    0    0    0 -0.00000000000E+00 -0.00000000000E+00 -0.45593999997E+02  0.45594000000E+02  0.51100000000E-03 0. -1.
    9900012    2    1    2    0    0  0.24498683592E+00  0.56285782219E+00 -0.10080158386E+01  0.90007778238E+02  0.90000040110E+02 0.  0.
        -12    1    1    2    0    0 -0.24498683592E+00 -0.56285782219E+00  0.10080158386E+01  0.11802217624E+01  0.00000000000E+00 0.  1.
         11    1    3    3    0    0 -0.87419686706E+01  0.35360036616E+01 -0.75888474125E+00  0.94605097349E+01  0.51100000000E-03 0. -1.
        -11    1    3    3    0    0 -0.19563735441E+02  0.18382610293E+02  0.25138744152E+02  0.36777935823E+02  0.51100000000E-03 0.  1.
         12    1    3    3    0    0  0.28550690947E+02 -0.21355756132E+02 -0.25387875250E+02  0.43769332680E+02  0.00000000000E+00 0. -1.
</event>
<event>
 7    1  0.3743571E-015  0.9000770E+02  0.7816164E-02  0.1186339E+00
        -11   -1    0    0    0    0  0.00000000000E+00  0.00000000000E+00  0.45593999997E+02  0.45594000000E+02  0.51100000000E-03 0. -1.
         11   -1    0    0    0    0 -0.00000000000E+00 -0.00000000000E+00 -0.45593999997E+02  0.45594000000E+02  0.51100000000E-03 0.  1.
    9900012    2    1    2    0    0 -0.71362120420E+00 -0.27132932491E+00 -0.90012684545E+00  0.90007702087E+02  0.89999962954E+02 0.  0.
        -12    1    1    2    0    0  0.71362120420E+00  0.27132932491E+00  0.90012684545E+00  0.11802979130E+01  0.00000000000E+00 0.  1.
         11    1    3    3    0    0  0.58782768668E+01  0.53885277278E+01  0.54637245589E+01  0.96665741767E+01  0.51100000000E-03 0. -1.
        -11    1    3    3    0    0  0.31411298373E+01  0.21793109714E+02 -0.33791956355E+02  0.40332401890E+02  0.51100000000E-03 0.  1.
         12    1    3    3    0    0 -0.97330279084E+01 -0.27452966767E+02  0.27428104951E+02  0.40008726020E+02  0.00000000000E+00 0. -1.
</event>
<event>
 7    1  0.3743571E-015  0.9000769E+02  0.7816164E-02  0.1186339E+00
        -11   -1    0    0    0    0  0.00000000000E+00  0.00000000000E+00  0.45593999997E+02  0.45594000000E+02  0.51100000000E-03 0.  1.
         11   -1    0    0    0    0 -0.00000000000E+00 -0.00000000000E+00 -0.45593999997E+02  0.45594000000E+02  0.51100000000E-03 0. -1.
    9900012    2    1    2    0    0 -0.10868170086E+01  0.25495019119E+00 -0.38334088242E+00  0.90007694513E+02  0.89999955281E+02 0.  0.
        -12    1    1    2    0    0  0.10868170086E+01 -0.25495019119E+00  0.38334088242E+00  0.11803054869E+01  0.00000000000E+00 0.  1.
         11    1    3    3    0    0  0.13075561745E+01 -0.14653631981E-01 -0.93482007761E+01  0.94392147920E+01  0.51100000000E-03 0. -1.
        -11    1    3    3    0    0 -0.25691549033E+02  0.85235147142E+01  0.35278978404E+02  0.44466980022E+02  0.51100000000E-03 0.  1.
         12    1    3    3    0    0  0.23297175850E+02 -0.82539108910E+01 -0.26314118510E+02  0.36101499699E+02  0.00000000000E+00 0. -1.
</event>
<event>
 7    1  0.3743571E-015  0.9000776E+02  0.7816164E-02  0.1186339E+00
        -11   -1    0    0    0    0  0.00000000000E+00  0.00000000000E+00  0.45593999997E+02  0.45594000000E+02  0.51100000000E-03 0. -1.
         11   -1    0    0    0    0 -0.00000000000E+00 -0.00000000000E+00 -0.45593999997E+02  0.45594000000E+02  0.51100000000E-03 0.  1.
    9900012    2    1    2    0    0 -0.60352211020E+00 -0.56214145436E+00  0.84423200156E+00  0.90007758658E+02  0.90000020273E+02 0.  0.
        -12    1    1    2    0    0  0.60352211020E+00  0.56214145436E+00 -0.84423200156E+00  0.11802413417E+01  0.00000000000E+00 0.  1.
         11    1    3    3    0    0  0.11896605068E+01  0.10007632949E+01  0.81230851377E+01  0.82705097612E+01  0.51100000000E-03 0. -1.
        -11    1    3    3    0    0  0.11232726539E+02 -0.26280877174E+02  0.25754189440E+02  0.38472547674E+02  0.51100000000E-03 0.  1.
         12    1    3    3    0    0 -0.13025909156E+02  0.24717972425E+02 -0.33033042576E+02  0.43264701223E+02  0.00000000000E+00 0. -1.
</event>
<event>
 7    1  0.3743571E-015  0.9000782E+02  0.7816164E-02  0.1186339E+00
        -11   -1    0    0    0    0  0.00000000000E+00  0.00000000000E+00  0.45593999997E+02  0.45594000000E+02  0.51100000000E-03 0.  1.
         11   -1    0    0    0    0 -0.00000000000E+00 -0.00000000000E+00 -0.45593999997E+02  0.45594000000E+02  0.51100000000E-03 0. -1.
    9900012    2    1    2    0    0  0.17333486961E+00 -0.10977343732E+01 -0.39718717091E+00  0.90007820615E+02  0.90000083047E+02 0.  0.
        -12    1    1    2    0    0 -0.17333486961E+00  0.10977343732E+01  0.39718717091E+00  0.11801793846E+01  0.00000000000E+00 0.  1.
         11    1    3    3    0    0 -0.57600922741E+00  0.70841686978E+01  0.56379571887E+01  0.90721438642E+01  0.51100000000E-03 0. -1.
        -11    1    3    3    0    0  0.23458501986E+02 -0.16426745106E+02  0.27433780462E+02  0.39657932131E+02  0.51100000000E-03 0.  1.
         12    1    3    3    0    0 -0.22709157889E+02  0.82448420355E+01 -0.33468924822E+02  0.41277744620E+02  0.00000000000E+00 0. -1.
</event>
<event>
 7    1  0.3743571E-015  0.9000773E+02  0.7816164E-02  0.1186339E+00
        -11   -1    0    0    0    0  0.00000000000E+00  0.00000000000E+00  0.45593999997E+02  0.45594000000E+02  0.51100000000E-03 0.  1.
         11   -1    0    0    0    0 -0.00000000000E+00 -0.00000000000E+00 -0.45593999997E+02  0.45594000000E+02  0.51100000000E-03 0. -1.
    9900012    2    1    2    0    0 -0.67196911988E+00  0.22868641436E+00 -0.94297860193E+00  0.90007725194E+02  0.89999986366E+02 0.  0.
        -12    1    1    2    0    0  0.67196911988E+00 -0.22868641436E+00  0.94297860193E+00  0.11802748061E+01  0.00000000000E+00 0.  1.
         11    1    3    3    0    0  0.23445078219E+02  0.31535962683E+02 -0.10103240201E+02  0.40574180187E+02  0.51100000000E-03 0. -1.
        -11    1    3    3    0    0 -0.10049559345E+02  0.96826566843E+00  0.10007228532E+02  0.14215336949E+02  0.51100000000E-03 0.  1.
        -12    1    3    3    0    0 -0.14067487994E+02 -0.32275541937E+02 -0.84696693289E+00  0.35218208058E+02  0.00000000000E+00 0.  1.
</event>
<event>
 7    1  0.3743571E-015  0.9000775E+02  0.7816164E-02  0.1186339E+00
        -11   -1    0    0    0    0  0.00000000000E+00  0.00000000000E+00  0.45593999997E+02  0.45594000000E+02  0.51100000000E-03 0.  1.
         11   -1    0    0    0    0 -0.00000000000E+00 -0.00000000000E+00 -0.45593999997E+02  0.45594000000E+02  0.51100000000E-03 0. -1.
    9900012    2    1    2    0    0 -0.56149506378E+00 -0.99392880308E+00 -0.29969361206E+00  0.90007751114E+02  0.90000012629E+02 0.  0.
        -12    1    1    2    0    0  0.56149506378E+00  0.99392880308E+00  0.29969361206E+00  0.11802488862E+01  0.00000000000E+00 0.  1.
         11    1    3    3    0    0  0.62612441611E+01 -0.31606168325E+02 -0.17425594805E+02  0.36630648496E+02  0.51100000000E-03 0. -1.
        -11    1    3    3    0    0 -0.65999766989E+01  0.17727569373E+02 -0.11392710945E+02  0.22082125605E+02  0.51100000000E-03 0.  1.
        -12    1    3    3    0    0 -0.22276252601E+00  0.12884670149E+02  0.28518612138E+02  0.31294977013E+02  0.00000000000E+00 0.  1.
</event>
<event>
 7    1  0.3743571E-015  0.9000773E+02  0.7816164E-02  0.1186339E+00
        -11   -1    0    0    0    0  0.00000000000E+00  0.00000000000E+00  0.45593999997E+02  0.45594000000E+02  0.51100000000E-03 0.  1.
         11   -1    0    0    0    0 -0.00000000000E+00 -0.00000000000E+00 -0.45593999997E+02  0.45594000000E+02  0.51100000000E-03 0. -1.
    9900012    2    1    2    0    0 -0.81924156077E+00 -0.36398269417E+00 -0.76772783526E+00  0.90007726233E+02  0.89999987419E+02 0.  0.
        -12    1    1    2    0    0  0.81924156077E+00  0.36398269417E+00  0.76772783526E+00  0.11802737672E+01  0.00000000000E+00 0.  1.
         11    1    3    3    0    0 -0.38417606040E+02  0.74181537097E-01 -0.25621058301E+01  0.38503017327E+02  0.51100000000E-03 0. -1.
        -11    1    3    3    0    0 -0.11471694294E+01 -0.11115200518E+02  0.17789573555E+01  0.11314962209E+02  0.51100000000E-03 0.  1.
        -12    1    3    3    0    0  0.38745533909E+02  0.10677036287E+02  0.15420639301E-01  0.40189746697E+02  0.00000000000E+00 0.  1.
</event>
<event>
 7    1  0.3743571E-015  0.9000770E+02  0.7816164E-02  0.1186339E+00
        -11   -1    0    0    0    0  0.00000000000E+00  0.00000000000E+00  0.45593999997E+02  0.45594000000E+02  0.51100000000E-03 0.  1.
         11   -1    0    0    0    0 -0.00000000000E+00 -0.00000000000E+00 -0.45593999997E+02  0.45594000000E+02  0.51100000000E-03 0. -1.
    9900012    2    1    2    0    0 -0.40556693298E+00 -0.95156493889E+00  0.56845137381E+00  0.90007704556E+02  0.89999965456E+02 0.  0.
        -12    1    1    2    0    0  0.40556693298E+00  0.95156493889E+00 -0.56845137381E+00  0.11802954437E+01  0.00000000000E+00 0.  1.
         11    1    3    3    0    0 -0.30205191597E+02 -0.19645201902E+02  0.13401107486E+02  0.38443168955E+02  0.51100000000E-03 0. -1.
        -11    1    3    3    0    0  0.97613721236E+01 -0.50608366106E+01  0.84763281394E+01  0.13883248608E+02  0.51100000000E-03 0.  1.
        -12    1    3    3    0    0  0.20038252540E+02  0.23754473574E+02 -0.21308984251E+02  0.37681286993E+02  0.00000000000E+00 0.  1.
</event>
<event>
 7    1  0.3743571E-015  0.9000757E+02  0.7816164E-02  0.1186339E+00
        -11   -1    0    0    0    0  0.00000000000E+00  0.00000000000E+00  0.45593999997E+02  0.45594000000E+02  0.51100000000E-03 0. -1.
         11   -1    0    0    0    0 -0.00000000000E+00 -0.00000000000E+00 -0.45593999997E+02  0.45594000000E+02  0.51100000000E-03 0.  1.
    9900012    2    1    2    0    0 -0.64764968862E+00 -0.53584435060E+00  0.82875606442E+00  0.90007569612E+02  0.89999828730E+02 0.  0.
        -12    1    1    2    0    0  0.64764968862E+00  0.53584435060E+00 -0.82875606442E+00  0.11804303883E+01  0.00000000000E+00 0.  1.
         11    1    3    3    0    0 -0.84312359251E+00  0.50723321187E+01 -0.79875501955E+01  0.94994930866E+01  0.51100000000E-03 0. -1.
        -11    1    3    3    0    0 -0.25868493156E+02  0.17477022950E+02 -0.18468988252E+02  0.36272976121E+02  0.51100000000E-03 0.  1.
         12    1    3    3    0    0  0.26063967060E+02 -0.23085199419E+02  0.27285294512E+02  0.44235100404E+02  0.00000000000E+00 0. -1.
</event>
<event>
 7    1  0.3743571E-015  0.9000776E+02  0.7816164E-02  0.1186339E+00
        -11   -1    0    0    0    0  0.00000000000E+00  0.00000000000E+00  0.45593999997E+02  0.45594000000E+02  0.51100000000E-03 0.  1.
         11   -1    0    0    0    0 -0.00000000000E+00 -0.00000000000E+00 -0.45593999997E+02  0.45594000000E+02  0.51100000000E-03 0. -1.
    9900012    2    1    2    0    0 -0.10345878122E+01  0.56137542282E+00  0.86336005179E-01  0.90007759257E+02  0.90000020879E+02 0.  0.
        -12    1    1    2    0    0  0.10345878122E+01 -0.56137542282E+00 -0.86336005179E-01  0.11802407434E+01  0.00000000000E+00 0.  1.
         11    1    3    3    0    0  0.32517762697E+01 -0.12668156741E+01  0.42933920082E+01  0.55328189974E+01  0.51100000000E-03 0. -1.
        -11    1    3    3    0    0  0.39308212665E+02  0.52143035813E+01 -0.84525510646E+01  0.40543435529E+02  0.51100000000E-03 0.  1.
         12    1    3    3    0    0 -0.43594576747E+02 -0.33861124844E+01  0.42454950616E+01  0.43931504730E+02  0.00000000000E+00 0. -1.
</event>
<event>
 7    1  0.4510216E-015  0.9000770E+02  0.7816164E-02  0.1186339E+00
        -11   -1    0    0    0    0  0.00000000000E+00  0.00000000000E+00  0.45593999997E+02  0.45594000000E+02  0.51100000000E-03 0. -1.
         11   -1    0    0    0    0 -0.00000000000E+00 -0.00000000000E+00 -0.45593999997E+02  0.45594000000E+02  0.51100000000E-03 0.  1.
    9900012    2    1    2    0    0  0.46594944203E-01 -0.47312430076E+00  0.10803152685E+01  0.90007703947E+02  0.89999964839E+02 0.  0.
        -12    1    1    2    0    0 -0.46594944203E-01  0.47312430076E+00 -0.10803152685E+01  0.11802960528E+01  0.00000000000E+00 0.  1.
         11    1    3    3    0    0 -0.21821411657E+02 -0.16653517627E+02  0.27443504356E+02  0.38815713154E+02  0.51100000000E-03 0. -1.
        -11    1    3    3    0    0 -0.26524975236E+01 -0.83442850351E+01 -0.25371183244E+01  0.91159094726E+01  0.51100000000E-03 0.  1.
        -12    1    3    3    0    0  0.24520504124E+02  0.24524678362E+02 -0.23826070763E+02  0.42076081320E+02  0.00000000000E+00 0.  1.
</event>
<event>
 7    1  0.3743571E-015  0.9000774E+02  0.7816164E-02  0.1186339E+00
        -11   -1    0    0    0    0  0.00000000000E+00  0.00000000000E+00  0.45593999997E+02  0.45594000000E+02  0.51100000000E-03 0.  1.
         11   -1    0    0    0    0 -0.00000000000E+00 -0.00000000000E+00 -0.45593999997E+02  0.45594000000E+02  0.51100000000E-03 0. -1.
    9900012    2    1    2    0    0 -0.12426555503E+00 -0.52927586651E+00 -0.10475850170E+01  0.90007741876E+02  0.90000003269E+02 0.  0.
        -12    1    1    2    0    0  0.12426555503E+00  0.52927586651E+00  0.10475850170E+01  0.11802581238E+01  0.00000000000E+00 0.  1.
         11    1    3    3    0    0  0.24168344539E+02 -0.51753977757E+01 -0.13976296704E+02  0.28394198171E+02  0.51100000000E-03 0. -1.
        -11    1    3    3    0    0  0.14780357684E+02  0.22720690394E+01  0.16545363682E+02  0.22301801062E+02  0.51100000000E-03 0.  1.
         12    1    3    3    0    0 -0.39072967778E+02  0.23740528698E+01 -0.36166519942E+01  0.39311742644E+02  0.00000000000E+00 0. -1.
</event>
<event>
 7    1  0.3743571E-015  0.9000775E+02  0.7816164E-02  0.1186339E+00
        -11   -1    0    0    0    0  0.00000000000E+00  0.00000000000E+00  0.45593999997E+02  0.45594000000E+02  0.51100000000E-03 0.  1.
         11   -1    0    0    0    0 -0.00000000000E+00 -0.00000000000E+00 -0.45593999997E+02  0.45594000000E+02  0.51100000000E-03 0. -1.
    9900012    2    1    2    0    0  0.51807144834E+00  0.84564189023E+00  0.63990748304E+00  0.90007750103E+02  0.90000011605E+02 0.  0.
        -12    1    1    2    0    0 -0.51807144834E+00 -0.84564189023E+00 -0.63990748304E+00  0.11802498968E+01  0.00000000000E+00 0.  1.
         11    1    3    3    0    0 -0.82614817287E+01  0.21799849777E+01 -0.18983354909E+01  0.87526049125E+01  0.51100000000E-03 0. -1.
        -11    1    3    3    0    0 -0.19296930825E+02  0.26160947649E+02 -0.17740889064E+02  0.37033847575E+02  0.51100000000E-03 0.  1.
         12    1    3    3    0    0  0.28076484002E+02 -0.27495290736E+02  0.20279132038E+02  0.44221297616E+02  0.00000000000E+00 0. -1.
</event>
<event>
 7    1  0.3743571E-015  0.9000776E+02  0.7816164E-02  0.1186339E+00
        -11   -1    0    0    0    0  0.00000000000E+00  0.00000000000E+00  0.45593999997E+02  0.45594000000E+02  0.51100000000E-03 0.  1.
         11   -1    0    0    0    0 -0.00000000000E+00 -0.00000000000E+00 -0.45593999997E+02  0.45594000000E+02  0.51100000000E-03 0. -1.
    9900012    2    1    2    0    0  0.87152538739E-01  0.37221805197E+00 -0.11166177869E+01  0.90007755481E+02  0.90000017053E+02 0.  0.
        -12    1    1    2    0    0 -0.87152538739E-01 -0.37221805197E+00  0.11166177869E+01  0.11802445192E+01  0.00000000000E+00 0.  1.
         11    1    3    3    0    0 -0.65550126405E+01 -0.14871222385E+01  0.72724256433E+01  0.99029237232E+01  0.51100000000E-03 0. -1.
        -11    1    3    3    0    0 -0.31170153574E+01 -0.73724821558E+01  0.34367615669E+02  0.35287423892E+02  0.51100000000E-03 0.  1.
         12    1    3    3    0    0  0.97591805366E+01  0.92318224463E+01 -0.42756659100E+02  0.44817407866E+02  0.00000000000E+00 0. -1.
</event>
<event>
 7    1  0.3743571E-015  0.9000803E+02  0.7816164E-02  0.1186338E+00
        -11   -1    0    0    0    0  0.00000000000E+00  0.00000000000E+00  0.45593999997E+02  0.45594000000E+02  0.51100000000E-03 0.  1.
         11   -1    0    0    0    0 -0.00000000000E+00 -0.00000000000E+00 -0.45593999997E+02  0.45594000000E+02  0.51100000000E-03 0. -1.
    9900012    2    1    2    0    0 -0.78797764578E+00 -0.21669963962E+00 -0.85114858831E+00  0.90008033296E+02  0.90000298535E+02 0.  0.
        -12    1    1    2    0    0  0.78797764578E+00  0.21669963962E+00  0.85114858831E+00  0.11799667044E+01  0.00000000000E+00 0.  1.
         11    1    3    3    0    0  0.26886955833E+02  0.24895351639E+02 -0.11000021645E+02  0.38258167803E+02  0.51100000000E-03 0. -1.
        -11    1    3    3    0    0  0.45221764997E+01  0.11293692392E+01  0.90722737428E+01  0.10199593438E+02  0.51100000000E-03 0.  1.
        -12    1    3    3    0    0 -0.32197109978E+02 -0.26241420518E+02  0.10765993140E+01  0.41550272055E+02  0.00000000000E+00 0.  1.
</event>
<event>
 7    1  0.3743571E-015  0.9000771E+02  0.7816164E-02  0.1186339E+00
        -11   -1    0    0    0    0  0.00000000000E+00  0.00000000000E+00  0.45593999997E+02  0.45594000000E+02  0.51100000000E-03 0.  1.
         11   -1    0    0    0    0 -0.00000000000E+00 -0.00000000000E+00 -0.45593999997E+02  0.45594000000E+02  0.51100000000E-03 0. -1.
    9900012    2    1    2    0    0  0.45567536344E+00 -0.10224848415E+01  0.37412700094E+00  0.90007709230E+02  0.89999970192E+02 0.  0.
        -12    1    1    2    0    0 -0.45567536344E+00  0.10224848415E+01 -0.37412700094E+00  0.11802907696E+01  0.00000000000E+00 0.  1.
         11    1    3    3    0    0 -0.73364131393E+00  0.38452374107E+02 -0.82910225298E+01  0.39342907352E+02  0.51100000000E-03 0. -1.
        -11    1    3    3    0    0 -0.83297058034E+01 -0.15129529762E+01 -0.42221559634E+01  0.94604242357E+01  0.51100000000E-03 0.  1.
        -12    1    3    3    0    0  0.95190224808E+01 -0.37961905972E+02  0.12887305494E+02  0.41204377643E+02  0.00000000000E+00 0.  1.
</event>
<event>
 7    1  0.3743571E-015  0.9000771E+02  0.7816164E-02  0.1186339E+00
        -11   -1    0    0    0    0  0.00000000000E+00  0.00000000000E+00  0.45593999997E+02  0.45594000000E+02  0.51100000000E-03 0. -1.
         11   -1    0    0    0    0 -0.00000000000E+00 -0.00000000000E+00 -0.45593999997E+02  0.45594000000E+02  0.51100000000E-03 0.  1.
    9900012    2    1    2    0    0 -0.85373754538E+00 -0.18309234119E-01  0.81479251740E+00  0.90007707718E+02  0.89999968660E+02 0.  0.
        -12    1    1    2    0    0  0.85373754538E+00  0.18309234119E-01 -0.81479251740E+00  0.11802922820E+01  0.00000000000E+00 0.  1.
         11    1    3    3    0    0  0.35451181547E+02  0.15883581359E+02  0.96166255272E+01  0.40019419244E+02  0.51100000000E-03 0. -1.
        -11    1    3    3    0    0 -0.38150966906E+00  0.25079463925E+01  0.63767797459E+01  0.68628467070E+01  0.51100000000E-03 0.  1.
        -12    1    3    3    0    0 -0.35923409423E+02 -0.18409836986E+02 -0.15178612756E+02  0.43125441767E+02  0.00000000000E+00 0.  1.
</event>
<event>
 7    1  0.3743571E-015  0.9000778E+02  0.7816164E-02  0.1186339E+00
        -11   -1    0    0    0    0  0.00000000000E+00  0.00000000000E+00  0.45593999997E+02  0.45594000000E+02  0.51100000000E-03 0. -1.
         11   -1    0    0    0    0 -0.00000000000E+00 -0.00000000000E+00 -0.45593999997E+02  0.45594000000E+02  0.51100000000E-03 0.  1.
    9900012    2    1    2    0    0 -0.53435868761E+00  0.32687257335E+00  0.10002704558E+01  0.90007777194E+02  0.90000039053E+02 0.  0.
        -12    1    1    2    0    0  0.53435868761E+00 -0.32687257335E+00 -0.10002704558E+01  0.11802228056E+01  0.00000000000E+00 0.  1.
         11    1    3    3    0    0 -0.14087185271E+02 -0.11759287912E+02 -0.69768158802E+01  0.19631749824E+02  0.51100000000E-03 0. -1.
        -11    1    3    3    0    0 -0.25547994573E+02 -0.46928544756E+01  0.98640688116E+01  0.27785297616E+02  0.51100000000E-03 0.  1.
         12    1    3    3    0    0  0.39100821156E+02  0.16779014961E+02 -0.18869824757E+01  0.42590729755E+02  0.00000000000E+00 0. -1.
</event>
<event>
 7    1  0.3743571E-015  0.9000788E+02  0.7816164E-02  0.1186339E+00
        -11   -1    0    0    0    0  0.00000000000E+00  0.00000000000E+00  0.45593999997E+02  0.45594000000E+02  0.51100000000E-03 0.  1.
         11   -1    0    0    0    0 -0.00000000000E+00 -0.00000000000E+00 -0.45593999997E+02  0.45594000000E+02  0.51100000000E-03 0. -1.
    9900012    2    1    2    0    0 -0.56345532000E+00 -0.30936037796E+00 -0.98969995806E+00  0.90007876384E+02  0.90000139553E+02 0.  0.
        -12    1    1    2    0    0  0.56345532000E+00  0.30936037796E+00  0.98969995806E+00  0.11801236156E+01  0.00000000000E+00 0.  1.
         11    1    3    3    0    0  0.44286385353E+01 -0.99055643944E+01  0.11765299115E+02  0.16004852664E+02  0.51100000000E-03 0. -1.
        -11    1    3    3    0    0  0.69939816503E+01  0.60720460048E+01  0.28987367667E+02  0.30431119048E+02  0.51100000000E-03 0.  1.
         12    1    3    3    0    0 -0.11986075506E+02  0.35241580117E+01 -0.41742366740E+02  0.43571904673E+02  0.00000000000E+00 0. -1.
</event>
<event>
 7    1  0.3743571E-015  0.9000776E+02  0.7816164E-02  0.1186339E+00
        -11   -1    0    0    0    0  0.00000000000E+00  0.00000000000E+00  0.45593999997E+02  0.45594000000E+02  0.51100000000E-03 0.  1.
         11   -1    0    0    0    0 -0.00000000000E+00 -0.00000000000E+00 -0.45593999997E+02  0.45594000000E+02  0.51100000000E-03 0. -1.
    9900012    2    1    2    0    0 -0.54821163960E+00 -0.10449718265E+01 -0.21448983859E-01  0.90007761813E+02  0.90000023469E+02 0.  0.
        -12    1    1    2    0    0  0.54821163960E+00  0.10449718265E+01  0.21448983859E-01  0.11802381874E+01  0.00000000000E+00 0.  1.
         11    1    3    3    0    0 -0.25080153800E+01  0.14143631624E+02 -0.37391197976E+02  0.40055388439E+02  0.51100000000E-03 0. -1.
        -11    1    3    3    0    0 -0.94853294193E+01  0.68367726422E+00  0.22867223356E+01  0.97810013851E+01  0.51100000000E-03 0.  1.
        -12    1    3    3    0    0  0.11445133160E+02 -0.15872280715E+02  0.35083026656E+02  0.40171371989E+02  0.00000000000E+00 0.  1.
</event>
<event>
 7    1  0.3743571E-015  0.9000773E+02  0.7816164E-02  0.1186339E+00
        -11   -1    0    0    0    0  0.00000000000E+00  0.00000000000E+00  0.45593999997E+02  0.45594000000E+02  0.51100000000E-03 0. -1.
         11   -1    0    0    0    0 -0.00000000000E+00 -0.00000000000E+00 -0.45593999997E+02  0.45594000000E+02  0.51100000000E-03 0.  1.
    9900012    2    1    2    0    0 -0.10853094721E+01 -0.40126656867E+00  0.23262477656E+00  0.90007734862E+02  0.89999996162E+02 0.  0.
        -12    1    1    2    0    0  0.10853094721E+01  0.40126656867E+00 -0.23262477656E+00  0.11802651380E+01  0.00000000000E+00 0.  1.
         11    1    3    3    0    0 -0.55636721890E+01  0.71281964331E+01 -0.21411362403E+01  0.92924753040E+01  0.51100000000E-03 0. -1.
        -11    1    3    3    0    0  0.28375372127E+02 -0.23956146196E+02 -0.21713455191E+02  0.43017819802E+02  0.51100000000E-03 0.  1.
         12    1    3    3    0    0 -0.23897009410E+02  0.16426683194E+02  0.24087216208E+02  0.37697439756E+02  0.00000000000E+00 0. -1.
</event>
<event>
 7    1  0.4873648E-015  0.9000769E+02  0.7816164E-02  0.1186339E+00
        -11   -1    0    0    0    0  0.00000000000E+00  0.00000000000E+00  0.45593999997E+02  0.45594000000E+02  0.51100000000E-03 0. -1.
         11   -1    0    0    0    0 -0.00000000000E+00 -0.00000000000E+00 -0.45593999997E+02  0.45594000000E+02  0.51100000000E-03 0.  1.
    9900012    2    1    2    0    0  0.87717260633E+00 -0.51970475846E+00  0.59464030070E+00  0.90007694148E+02  0.89999954911E+02 0.  0.
        -12    1    1    2    0    0 -0.87717260633E+00  0.51970475846E+00 -0.59464030070E+00  0.11803058521E+01  0.00000000000E+00 0.  1.
         11    1    3    3    0    0  0.34370551822E+02  0.69382387107E+01  0.11462527592E+02  0.36889883817E+02  0.51100000000E-03 0. -1.
        -11    1    3    3    0    0  0.76399697521E+01 -0.40531253753E+01  0.36190325316E+01  0.93751991897E+01  0.51100000000E-03 0.  1.
        -12    1    3    3    0    0 -0.41133348968E+02 -0.34048180939E+01 -0.14486919823E+02  0.43742611142E+02  0.00000000000E+00 0.  1.
</event>
<event>
 7    1  0.3743571E-015  0.9000773E+02  0.7816164E-02  0.1186339E+00
        -11   -1    0    0    0    0  0.00000000000E+00  0.00000000000E+00  0.45593999997E+02  0.45594000000E+02  0.51100000000E-03 0. -1.
         11   -1    0    0    0    0 -0.00000000000E+00 -0.00000000000E+00 -0.45593999997E+02  0.45594000000E+02  0.51100000000E-03 0.  1.
    9900012    2    1    2    0    0 -0.14352195595E+00 -0.10900009923E+01 -0.42934406622E+00  0.90007730098E+02  0.89999991335E+02 0.  0.
        -12    1    1    2    0    0  0.14352195595E+00  0.10900009923E+01  0.42934406622E+00  0.11802699023E+01  0.00000000000E+00 0.  1.
         11    1    3    3    0    0 -0.94787882005E+00 -0.42986010664E+01 -0.66052373007E+01  0.79376070351E+01  0.51100000000E-03 0. -1.
        -11    1    3    3    0    0  0.25536340904E+02 -0.28434721924E+01 -0.28936421033E+02  0.38697629170E+02  0.51100000000E-03 0.  1.
         12    1    3    3    0    0 -0.24731984040E+02  0.60520722664E+01  0.35112314267E+02  0.43372493893E+02  0.00000000000E+00 0. -1.
</event>
<event>
 7    1  0.3743571E-015  0.9000667E+02  0.7816164E-02  0.1186341E+00
        -11   -1    0    0    0    0  0.00000000000E+00  0.00000000000E+00  0.45593999997E+02  0.45594000000E+02  0.51100000000E-03 0. -1.
         11   -1    0    0    0    0 -0.00000000000E+00 -0.00000000000E+00 -0.45593999997E+02  0.45594000000E+02  0.51100000000E-03 0.  1.
    9900012    2    1    2    0    0 -0.29058908674E-01 -0.74800292281E+00  0.91389156101E+00  0.90006665764E+02  0.89998912945E+02 0.  0.
        -12    1    1    2    0    0  0.29058908674E-01  0.74800292281E+00 -0.91389156101E+00  0.11813342364E+01  0.00000000000E+00 0.  1.
         11    1    3    3    0    0 -0.48305301080E+01  0.61188642786E+00 -0.78655783289E+01  0.92507161255E+01  0.51100000000E-03 0. -1.
        -11    1    3    3    0    0 -0.31988504190E+02 -0.48801753448E+01 -0.16160978453E+02  0.36169845680E+02  0.51100000000E-03 0.  1.
         12    1    3    3    0    0  0.36789975389E+02  0.35202859942E+01  0.24940448342E+02  0.44586103958E+02  0.00000000000E+00 0. -1.
</event>
<event>
 7    1  0.3743571E-015  0.9000844E+02  0.7816164E-02  0.1186338E+00
        -11   -1    0    0    0    0  0.00000000000E+00  0.00000000000E+00  0.45593999997E+02  0.45594000000E+02  0.51100000000E-03 0.  1.
         11   -1    0    0    0    0 -0.00000000000E+00 -0.00000000000E+00 -0.45593999997E+02  0.45594000000E+02  0.51100000000E-03 0. -1.
    9900012    2    1    2    0    0 -0.26561601634E+00 -0.38053076958E+00 -0.10844414926E+01  0.90008436994E+02  0.90000707559E+02 0.  0.
        -12    1    1    2    0    0  0.26561601634E+00  0.38053076958E+00  0.10844414926E+01  0.11795630062E+01  0.00000000000E+00 0.  1.
         11    1    3    3    0    0 -0.28677750348E+01 -0.40641203960E+00  0.88907706674E+01  0.93506741852E+01  0.51100000000E-03 0. -1.
        -11    1    3    3    0    0 -0.33385532042E+02  0.11334260637E+02 -0.21399556836E+02  0.41243184249E+02  0.51100000000E-03 0.  1.
         12    1    3    3    0    0  0.35987691061E+02 -0.11308379367E+02  0.11424344676E+02  0.39414578560E+02  0.00000000000E+00 0. -1.
</event>
<event>
 7    1  0.3743571E-015  0.9000781E+02  0.7816164E-02  0.1186339E+00
        -11   -1    0    0    0    0  0.00000000000E+00  0.00000000000E+00  0.45593999997E+02  0.45594000000E+02  0.51100000000E-03 0.  1.
         11   -1    0    0    0    0 -0.00000000000E+00 -0.00000000000E+00 -0.45593999997E+02  0.45594000000E+02  0.51100000000E-03 0. -1.
    9900012    2    1    2    0    0  0.69009608369E+00 -0.88743997286E+00 -0.35924568333E+00  0.90007813671E+02  0.90000076011E+02 0.  0.
        -12    1    1    2    0    0 -0.69009608369E+00  0.88743997286E+00  0.35924568333E+00  0.11801863290E+01  0.00000000000E+00 0.  1.
         11    1    3    3    0    0  0.41125175556E+01  0.49043530013E+01 -0.70679456321E+01  0.95352679420E+01  0.51100000000E-03 0. -1.
        -11    1    3    3    0    0  0.94251869514E+01  0.21651178053E+02 -0.26515206685E+02  0.35505828338E+02  0.51100000000E-03 0.  1.
         12    1    3    3    0    0 -0.12847608423E+02 -0.27442971027E+02  0.33223906633E+02  0.44966717392E+02  0.00000000000E+00 0. -1.
</event>
<event>
 7    1  0.3743571E-015  0.9000779E+02  0.7816164E-02  0.1186339E+00
        -11   -1    0    0    0    0  0.00000000000E+00  0.00000000000E+00  0.45593999997E+02  0.45594000000E+02  0.51100000000E-03 0. -1.
         11   -1    0    0    0    0 -0.00000000000E+00 -0.00000000000E+00 -0.45593999997E+02  0.45594000000E+02  0.51100000000E-03 0.  1.
    9900012    2    1    2    0    0  0.81311359524E+00 -0.37996923049E-01  0.85457628635E+00  0.90007788954E+02  0.90000050968E+02 0.  0.
        -12    1    1    2    0    0 -0.81311359524E+00  0.37996923049E-01 -0.85457628635E+00  0.11802110464E+01  0.00000000000E+00 0.  1.
         11    1    3    3    0    0 -0.36215967881E+02  0.41942481131E+01 -0.84756574220E+01  0.37430266040E+02  0.51100000000E-03 0. -1.
        -11    1    3    3    0    0 -0.54012892657E+01  0.54929035028E+01  0.41201480026E+01  0.87362196886E+01  0.51100000000E-03 0.  1.
        -12    1    3    3    0    0  0.42430370742E+02 -0.97251485390E+01  0.52100857057E+01  0.43841303225E+02  0.00000000000E+00 0.  1.
</event>
<event>
 7    1  0.3743571E-015  0.9000773E+02  0.7816164E-02  0.1186339E+00
        -11   -1    0    0    0    0  0.00000000000E+00  0.00000000000E+00  0.45593999997E+02  0.45594000000E+02  0.51100000000E-03 0.  1.
         11   -1    0    0    0    0 -0.00000000000E+00 -0.00000000000E+00 -0.45593999997E+02  0.45594000000E+02  0.51100000000E-03 0. -1.
    9900012    2    1    2    0    0  0.76721586038E+00 -0.74573673333E+00 -0.49827927977E+00  0.90007734906E+02  0.89999996207E+02 0.  0.
        -12    1    1    2    0    0 -0.76721586038E+00  0.74573673333E+00  0.49827927977E+00  0.11802650942E+01  0.00000000000E+00 0.  1.
         11    1    3    3    0    0  0.91161703557E+01  0.86464933795E+01 -0.29822149157E+01  0.12913559377E+02  0.51100000000E-03 0. -1.
        -11    1    3    3    0    0  0.15119727753E+02  0.50767137376E+01  0.32582603912E+02  0.36276786898E+02  0.51100000000E-03 0.  1.
         12    1    3    3    0    0 -0.23468682249E+02 -0.14468943851E+02 -0.30098668276E+02  0.40817388631E+02  0.00000000000E+00 0. -1.
</event>
<event>
 7    1  0.3743571E-015  0.9000748E+02  0.7816164E-02  0.1186340E+00
        -11   -1    0    0    0    0  0.00000000000E+00  0.00000000000E+00  0.45593999997E+02  0.45594000000E+02  0.51100000000E-03 0.  1.
         11   -1    0    0    0    0 -0.00000000000E+00 -0.00000000000E+00 -0.45593999997E+02  0.45594000000E+02  0.51100000000E-03 0. -1.
    9900012    2    1    2    0    0  0.12913040643E+00  0.96977731065E+00 -0.66066916820E+00  0.90007480435E+02  0.89999738376E+02 0.  0.
        -12    1    1    2    0    0 -0.12913040643E+00 -0.96977731065E+00  0.66066916820E+00  0.11805195652E+01  0.00000000000E+00 0.  1.
         11    1    3    3    0    0 -0.27793559707E+02 -0.84341479581E+01 -0.23254075505E+02  0.37207107396E+02  0.51100000000E-03 0. -1.
        -11    1    3    3    0    0 -0.70073079407E+01  0.57461497719E+01 -0.27728886657E+01  0.94767881474E+01  0.51100000000E-03 0.  1.
        -12    1    3    3    0    0  0.34929998054E+02  0.36577754969E+01  0.25366295003E+02  0.43323584891E+02  0.00000000000E+00 0.  1.
</event>
<event>
 7    1  0.3743571E-015  0.9000773E+02  0.7816164E-02  0.1186339E+00
        -11   -1    0    0    0    0  0.00000000000E+00  0.00000000000E+00  0.45593999997E+02  0.45594000000E+02  0.51100000000E-03 0.  1.
         11   -1    0    0    0    0 -0.00000000000E+00 -0.00000000000E+00 -0.45593999997E+02  0.45594000000E+02  0.51100000000E-03 0. -1.
    9900012    2    1    2    0    0 -0.91195134944E+00 -0.73958554631E+00  0.11998709669E+00  0.90007729291E+02  0.89999990517E+02 0.  0.
        -12    1    1    2    0    0  0.91195134944E+00  0.73958554631E+00 -0.11998709669E+00  0.11802707094E+01  0.00000000000E+00 0.  1.
         11    1    3    3    0    0 -0.39309117633E+01  0.32269799883E+01  0.10102173035E+02  0.11310144448E+02  0.51100000000E-03 0. -1.
        -11    1    3    3    0    0  0.73805581407E+00 -0.11451936869E+02  0.33036557442E+02  0.34972928277E+02  0.51100000000E-03 0.  1.
         12    1    3    3    0    0  0.22809045998E+01  0.74853713342E+01 -0.43018743380E+02  0.43724656566E+02  0.00000000000E+00 0. -1.
</event>
<event>
 7    1  0.3743571E-015  0.9000811E+02  0.7816164E-02  0.1186338E+00
        -11   -1    0    0    0    0  0.00000000000E+00  0.00000000000E+00  0.45593999997E+02  0.45594000000E+02  0.51100000000E-03 0.  1.
         11   -1    0    0    0    0 -0.00000000000E+00 -0.00000000000E+00 -0.45593999997E+02  0.45594000000E+02  0.51100000000E-03 0. -1.
    9900012    2    1    2    0    0 -0.97247427716E+00 -0.54222488210E+00 -0.39042266330E+00  0.90008108523E+02  0.90000374754E+02 0.  0.
        -12    1    1    2    0    0  0.97247427716E+00  0.54222488210E+00  0.39042266330E+00  0.11798914774E+01  0.00000000000E+00 0.  1.
         11    1    3    3    0    0  0.12954136816E+01 -0.10906710499E+02  0.82822804315E+01  0.13756111366E+02  0.51100000000E-03 0. -1.
        -11    1    3    3    0    0 -0.17677366761E+01  0.26632177653E+01  0.33361961863E+02  0.33514744836E+02  0.51100000000E-03 0.  1.
         12    1    3    3    0    0 -0.50015128263E+00  0.77012678518E+01 -0.42034664957E+02  0.42737252320E+02  0.00000000000E+00 0. -1.
</event>
<event>
 7    1  0.3743571E-015  0.9000774E+02  0.7816164E-02  0.1186339E+00
        -11   -1    0    0    0    0  0.00000000000E+00  0.00000000000E+00  0.45593999997E+02  0.45594000000E+02  0.51100000000E-03 0. -1.
         11   -1    0    0    0    0 -0.00000000000E+00 -0.00000000000E+00 -0.45593999997E+02  0.45594000000E+02  0.51100000000E-03 0.  1.
    9900012    2    1    2    0    0  0.27172670158E+00  0.93339894535E+00  0.66928652529E+00  0.90007740095E+02  0.90000001464E+02 0.  0.
        -12    1    1    2    0    0 -0.27172670158E+00 -0.93339894535E+00 -0.66928652529E+00  0.11802599055E+01  0.00000000000E+00 0.  1.
         11    1    3    3    0    0 -0.15798908707E+02  0.67920928138E+01  0.39266851366E+01  0.17639639950E+02  0.51100000000E-03 0. -1.
        -11    1    3    3    0    0 -0.84216545645E+01  0.20298087120E+02 -0.22704144125E+02  0.31597701927E+02  0.51100000000E-03 0.  1.
         12    1    3    3    0    0  0.24492289973E+02 -0.26156780988E+02  0.19446745514E+02  0.40770398218E+02  0.00000000000E+00 0. -1.
</event>
<event>
 7    1  0.3743571E-015  0.9000781E+02  0.7816164E-02  0.1186339E+00
        -11   -1    0    0    0    0  0.00000000000E+00  0.00000000000E+00  0.45593999997E+02  0.45594000000E+02  0.51100000000E-03 0. -1.
         11   -1    0    0    0    0 -0.00000000000E+00 -0.00000000000E+00 -0.45593999997E+02  0.45594000000E+02  0.51100000000E-03 0.  1.
    9900012    2    1    2    0    0  0.35640486556E+00  0.62516193594E+00  0.93540960637E+00  0.90007812301E+02  0.90000074623E+02 0.  0.
        -12    1    1    2    0    0 -0.35640486556E+00 -0.62516193594E+00 -0.93540960637E+00  0.11801876995E+01  0.00000000000E+00 0.  1.
         11    1    3    3    0    0  0.17201209115E+01  0.75200993432E+01 -0.20214336421E+01  0.79747667246E+01  0.51100000000E-03 0. -1.
        -11    1    3    3    0    0  0.28348992135E+02  0.22050319850E+02 -0.12108260678E+02  0.37901080954E+02  0.51100000000E-03 0.  1.
         12    1    3    3    0    0 -0.29712708181E+02 -0.28945257257E+02  0.15065103926E+02  0.44131964622E+02  0.00000000000E+00 0. -1.
</event>
<event>
 7    1  0.3743571E-015  0.9000768E+02  0.7816164E-02  0.1186339E+00
        -11   -1    0    0    0    0  0.00000000000E+00  0.00000000000E+00  0.45593999997E+02  0.45594000000E+02  0.51100000000E-03 0. -1.
         11   -1    0    0    0    0 -0.00000000000E+00 -0.00000000000E+00 -0.45593999997E+02  0.45594000000E+02  0.51100000000E-03 0.  1.
    9900012    2    1    2    0    0  0.75408780386E+00  0.15212843429E+00  0.89519462143E+00  0.90007675940E+02  0.89999936462E+02 0.  0.
        -12    1    1    2    0    0 -0.75408780386E+00 -0.15212843429E+00 -0.89519462143E+00  0.11803240600E+01  0.00000000000E+00 0.  1.
         11    1    3    3    0    0 -0.46892213801E+00  0.55507420882E+00 -0.84451823059E+01  0.84763848302E+01  0.51100000000E-03 0. -1.
        -11    1    3    3    0    0 -0.61929398520E+00 -0.22640866182E+02 -0.29225847522E+02  0.36974890266E+02  0.51100000000E-03 0.  1.
         12    1    3    3    0    0  0.18423039271E+01  0.22237920408E+02  0.38566224450E+02  0.44556400844E+02  0.00000000000E+00 0. -1.
</event>
<event>
 7    1  0.3743571E-015  0.9000778E+02  0.7816164E-02  0.1186339E+00
        -11   -1    0    0    0    0  0.00000000000E+00  0.00000000000E+00  0.45593999997E+02  0.45594000000E+02  0.51100000000E-03 0. -1.
         11   -1    0    0    0    0 -0.00000000000E+00 -0.00000000000E+00 -0.45593999997E+02  0.45594000000E+02  0.51100000000E-03 0.  1.
    9900012    2    1    2    0    0  0.39003867601E+00  0.96792264946E+00  0.55128109238E+00  0.90007781687E+02  0.90000043605E+02 0.  0.
        -12    1    1    2    0    0 -0.39003867601E+00 -0.96792264946E+00 -0.55128109238E+00  0.11802183133E+01  0.00000000000E+00 0.  1.
         11    1    3    3    0    0  0.10489549414E+01  0.36381577536E+01 -0.10701493767E+02  0.11351584357E+02  0.51100000000E-03 0. -1.
        -11    1    3    3    0    0  0.17076313228E+02  0.32516677983E+02  0.13643183996E+02  0.39179985839E+02  0.51100000000E-03 0.  1.
         12    1    3    3    0    0 -0.17735229494E+02 -0.35186913087E+02 -0.23904091365E+01  0.39476211491E+02  0.00000000000E+00 0. -1.
</event>
<event>
 7    1  0.3743571E-015  0.9000788E+02  0.7816164E-02  0.1186339E+00
        -11   -1    0    0    0    0  0.00000000000E+00  0.00000000000E+00  0.45593999997E+02  0.45594000000E+02  0.51100000000E-03 0.  1.
         11   -1    0    0    0    0 -0.00000000000E+00 -0.00000000000E+00 -0.45593999997E+02  0.45594000000E+02  0.51100000000E-03 0. -1.
    9900012    2    1    2    0    0  0.63725465327E+00  0.96251340278E+00  0.24524982219E+00  0.90007884320E+02  0.90000147593E+02 0.  0.
        -12    1    1    2    0    0 -0.63725465327E+00 -0.96251340278E+00 -0.24524982219E+00  0.11801156803E+01  0.00000000000E+00 0.  1.
         11    1    3    3    0    0  0.14429394432E+02 -0.33058562607E+02  0.21887813002E+01  0.36136778345E+02  0.51100000000E-03 0. -1.
        -11    1    3    3    0    0  0.66438413737E+00 -0.10789229000E+00  0.13645226094E+02  0.13661816953E+02  0.51100000000E-03 0.  1.
        -12    1    3    3    0    0 -0.14456523916E+02  0.34128968300E+02 -0.15588757572E+02  0.40209289021E+02  0.00000000000E+00 0.  1.
</event>
<event>
 7    1  0.3743571E-015  0.9000779E+02  0.7816164E-02  0.1186339E+00
        -11   -1    0    0    0    0  0.00000000000E+00  0.00000000000E+00  0.45593999997E+02  0.45594000000E+02  0.51100000000E-03 0. -1.
         11   -1    0    0    0    0 -0.00000000000E+00 -0.00000000000E+00 -0.45593999997E+02  0.45594000000E+02  0.51100000000E-03 0.  1.
    9900012    2    1    2    0    0 -0.48919996056E-01 -0.27098360800E-01  0.11788847300E+01  0.90007789555E+02  0.90000051577E+02 0.  0.
        -12    1    1    2    0    0  0.48919996056E-01  0.27098360800E-01 -0.11788847300E+01  0.11802104447E+01  0.00000000000E+00 0.  1.
         11    1    3    3    0    0  0.64884099833E+01  0.81611000253E+01  0.29918304436E+01  0.10846845965E+02  0.51100000000E-03 0. -1.
        -11    1    3    3    0    0  0.19621956928E+01 -0.13668214351E+02 -0.38607163358E+02  0.41002236016E+02  0.51100000000E-03 0.  1.
         12    1    3    3    0    0 -0.84995256721E+01  0.54800159645E+01  0.36794217645E+02  0.38158707574E+02  0.00000000000E+00 0. -1.
</event>
<event>
 7    1  0.3743571E-015  0.9000763E+02  0.7816164E-02  0.1186339E+00
        -11   -1    0    0    0    0  0.00000000000E+00  0.00000000000E+00  0.45593999997E+02  0.45594000000E+02  0.51100000000E-03 0.  1.
         11   -1    0    0    0    0 -0.00000000000E+00 -0.00000000000E+00 -0.45593999997E+02  0.45594000000E+02  0.51100000000E-03 0. -1.
    9900012    2    1    2    0    0 -0.23572699398E+00 -0.61351198633E-01 -0.11549633799E+01  0.90007630738E+02  0.89999890664E+02 0.  0.
        -12    1    1    2    0    0  0.23572699398E+00  0.61351198633E-01  0.11549633799E+01  0.11803692617E+01  0.00000000000E+00 0.  1.
         11    1    3    3    0    0 -0.18869322818E+02  0.25276283796E+02 -0.21639279606E+02  0.38251801111E+02  0.51100000000E-03 0. -1.
        -11    1    3    3    0    0 -0.18777587932E+01  0.74362301777E+01 -0.64328927687E+00  0.76965783759E+01  0.51100000000E-03 0.  1.
        -12    1    3    3    0    0  0.20511354617E+02 -0.32773865172E+02  0.21127605503E+02  0.44059251251E+02  0.00000000000E+00 0.  1.
</event>
<event>
 7    1  0.3743571E-015  0.9000771E+02  0.7816164E-02  0.1186339E+00
        -11   -1    0    0    0    0  0.00000000000E+00  0.00000000000E+00  0.45593999997E+02  0.45594000000E+02  0.51100000000E-03 0. -1.
         11   -1    0    0    0    0 -0.00000000000E+00 -0.00000000000E+00 -0.45593999997E+02  0.45594000000E+02  0.51100000000E-03 0.  1.
    9900012    2    1    2    0    0  0.78976339236E+00  0.57332496720E+00  0.66382425034E+00  0.90007707507E+02  0.89999968446E+02 0.  0.
        -12    1    1    2    0    0 -0.78976339236E+00 -0.57332496720E+00 -0.66382425034E+00  0.11802924931E+01  0.00000000000E+00 0.  1.
         11    1    3    3    0    0  0.15434120271E+02  0.26938011199E+02  0.18458261045E+02  0.36118913564E+02  0.51100000000E-03 0. -1.
        -11    1    3    3    0    0 -0.58385519633E+01  0.10982041243E+02 -0.32627691537E+01  0.12858443984E+02  0.51100000000E-03 0.  1.
        -12    1    3    3    0    0 -0.88058049157E+01 -0.37346727475E+02 -0.14531667641E+02  0.41030349959E+02  0.00000000000E+00 0.  1.
</event>
<event>
 7    1  0.3743571E-015  0.9000790E+02  0.7816164E-02  0.1186339E+00
        -11   -1    0    0    0    0  0.00000000000E+00  0.00000000000E+00  0.45593999997E+02  0.45594000000E+02  0.51100000000E-03 0.  1.
         11   -1    0    0    0    0 -0.00000000000E+00 -0.00000000000E+00 -0.45593999997E+02  0.45594000000E+02  0.51100000000E-03 0. -1.
    9900012    2    1    2    0    0  0.25490948792E+00  0.84371604661E+00 -0.78473161740E+00  0.90007898595E+02  0.90000162056E+02 0.  0.
        -12    1    1    2    0    0 -0.25490948792E+00 -0.84371604661E+00  0.78473161740E+00  0.11801014048E+01  0.00000000000E+00 0.  1.
         11    1    3    3    0    0  0.44204645437E+01  0.46232771528E+01 -0.83219231688E+01  0.10496170916E+02  0.51100000000E-03 0. -1.
        -11    1    3    3    0    0  0.26086020973E+02 -0.28927374689E+02  0.96026226801E+01  0.40118373088E+02  0.51100000000E-03 0.  1.
         12    1    3    3    0    0 -0.30251576029E+02  0.25147813583E+02 -0.20654311287E+01  0.39393354591E+02  0.00000000000E+00 0. -1.
</event>
<event>
 7    1  0.3743571E-015  0.9000771E+02  0.7816164E-02  0.1186339E+00
        -11   -1    0    0    0    0  0.00000000000E+00  0.00000000000E+00  0.45593999997E+02  0.45594000000E+02  0.51100000000E-03 0.  1.
         11   -1    0    0    0    0 -0.00000000000E+00 -0.00000000000E+00 -0.45593999997E+02  0.45594000000E+02  0.51100000000E-03 0. -1.
    9900012    2    1    2    0    0 -0.14151705638E+00  0.10290639623E+01 -0.56043045740E+00  0.90007711047E+02  0.89999972032E+02 0.  0.
        -12    1    1    2    0    0  0.14151705638E+00 -0.10290639623E+01  0.56043045740E+00  0.11802889533E+01  0.00000000000E+00 0.  1.
         11    1    3    3    0    0 -0.15075828929E+01 -0.27476601118E+02 -0.33657640840E+02  0.43474972138E+02  0.51100000000E-03 0. -1.
        -11    1    3    3    0    0  0.66975258876E+01  0.52944982055E+01  0.58768471219E+01  0.10364646478E+02  0.51100000000E-03 0.  1.
        -12    1    3    3    0    0 -0.53314600511E+01  0.23211166875E+02  0.27220363261E+02  0.36168092430E+02  0.00000000000E+00 0.  1.
</event>
<event>
 7    1  0.3743571E-015  0.9000789E+02  0.7816164E-02  0.1186339E+00
        -11   -1    0    0    0    0  0.00000000000E+00  0.00000000000E+00  0.45593999997E+02  0.45594000000E+02  0.51100000000E-03 0. -1.
         11   -1    0    0    0    0 -0.00000000000E+00 -0.00000000000E+00 -0.45593999997E+02  0.45594000000E+02  0.51100000000E-03 0.  1.
    9900012    2    1    2    0    0  0.86374861403E+00 -0.54553440634E+00  0.59074683478E+00  0.90007893530E+02  0.90000156925E+02 0.  0.
        -12    1    1    2    0    0 -0.86374861403E+00  0.54553440634E+00 -0.59074683478E+00  0.11801064696E+01  0.00000000000E+00 0.  1.
         11    1    3    3    0    0  0.38792189473E+01  0.11268355610E+01 -0.65771561255E+01  0.77186191111E+01  0.51100000000E-03 0. -1.
        -11    1    3    3    0    0  0.30364961657E+02 -0.18788107364E+02 -0.14984373943E+02  0.38724092468E+02  0.51100000000E-03 0.  1.
         12    1    3    3    0    0 -0.33380431990E+02  0.17115737397E+02  0.22152276903E+02  0.43565181951E+02  0.00000000000E+00 0. -1.
</event>
<event>
 7    1  0.3743571E-015  0.9000776E+02  0.7816164E-02  0.1186339E+00
        -11   -1    0    0    0    0  0.00000000000E+00  0.00000000000E+00  0.45593999997E+02  0.45594000000E+02  0.51100000000E-03 0. -1.
         11   -1    0    0    0    0 -0.00000000000E+00 -0.00000000000E+00 -0.45593999997E+02  0.45594000000E+02  0.51100000000E-03 0.  1.
    9900012    2    1    2    0    0 -0.86699394026E+00 -0.79668214982E+00  0.81180667354E-01  0.90007757974E+02  0.90000019579E+02 0.  0.
        -12    1    1    2    0    0  0.86699394026E+00  0.79668214982E+00 -0.81180667354E-01  0.11802420265E+01  0.00000000000E+00 0.  1.
         11    1    3    3    0    0  0.12640731768E+02 -0.13683220406E+01 -0.52557201855E+00  0.12725432450E+02  0.51100000000E-03 0. -1.
        -11    1    3    3    0    0  0.62117494997E+01 -0.46253870696E+01 -0.35218273527E+02  0.36059767441E+02  0.51100000000E-03 0.  1.
         12    1    3    3    0    0 -0.19719475208E+02  0.51970269604E+01  0.35825026213E+02  0.41222558083E+02  0.00000000000E+00 0. -1.
</event>
<event>
 7    1  0.3743571E-015  0.9000769E+02  0.7816164E-02  0.1186339E+00
        -11   -1    0    0    0    0  0.00000000000E+00  0.00000000000E+00  0.45593999997E+02  0.45594000000E+02  0.51100000000E-03 0.  1.
         11   -1    0    0    0    0 -0.00000000000E+00 -0.00000000000E+00 -0.45593999997E+02  0.45594000000E+02  0.51100000000E-03 0. -1.
    9900012    2    1    2    0    0 -0.86530412853E+00 -0.37585481028E+00  0.70930521059E+00  0.90007689890E+02  0.89999950597E+02 0.  0.
        -12    1    1    2    0    0  0.86530412853E+00  0.37585481028E+00 -0.70930521059E+00  0.11803101097E+01  0.00000000000E+00 0.  1.
         11    1    3    3    0    0  0.28508890745E+02  0.10614274992E+02 -0.21094135630E+02  0.37018674252E+02  0.51100000000E-03 0. -1.
        -11    1    3    3    0    0  0.14079461562E+01  0.10002289793E+02  0.59849799749E+00  0.10118612236E+02  0.51100000000E-03 0.  1.
        -12    1    3    3    0    0 -0.30782141030E+02 -0.20992419595E+02  0.21204942843E+02  0.42870403402E+02  0.00000000000E+00 0.  1.
</event>
<event>
 7    1  0.3743571E-015  0.9000763E+02  0.7816164E-02  0.1186339E+00
        -11   -1    0    0    0    0  0.00000000000E+00  0.00000000000E+00  0.45593999997E+02  0.45594000000E+02  0.51100000000E-03 0. -1.
         11   -1    0    0    0    0 -0.00000000000E+00 -0.00000000000E+00 -0.45593999997E+02  0.45594000000E+02  0.51100000000E-03 0.  1.
    9900012    2    1    2    0    0 -0.89432604266E-01 -0.78639613292E+00  0.87570198663E+00  0.90007630974E+02  0.89999890903E+02 0.  0.
        -12    1    1    2    0    0  0.89432604266E-01  0.78639613292E+00 -0.87570198663E+00  0.11803690262E+01  0.00000000000E+00 0.  1.
         11    1    3    3    0    0  0.42087311081E+01 -0.14369613310E+02  0.19831056293E+02  0.24848943603E+02  0.51100000000E-03 0. -1.
        -11    1    3    3    0    0 -0.23406599557E+02 -0.37578984204E+01 -0.29010615519E+02  0.37464736973E+02  0.51100000000E-03 0.  1.
         12    1    3    3    0    0  0.19108435845E+02  0.17341115598E+02  0.10055261213E+02  0.27693950398E+02  0.00000000000E+00 0. -1.
</event>
<event>
 7    1  0.3743571E-015  0.9000789E+02  0.7816164E-02  0.1186339E+00
        -11   -1    0    0    0    0  0.00000000000E+00  0.00000000000E+00  0.45593999997E+02  0.45594000000E+02  0.51100000000E-03 0. -1.
         11   -1    0    0    0    0 -0.00000000000E+00 -0.00000000000E+00 -0.45593999997E+02  0.45594000000E+02  0.51100000000E-03 0.  1.
    9900012    2    1    2    0    0  0.93270568732E+00 -0.32191502382E+00 -0.64737296542E+00  0.90007889438E+02  0.90000152779E+02 0.  0.
        -12    1    1    2    0    0 -0.93270568732E+00  0.32191502382E+00  0.64737296542E+00  0.11801105618E+01  0.00000000000E+00 0.  1.
         11    1    3    3    0    0 -0.55420312811E+01 -0.33369933067E+02  0.20205661933E+02  0.39402224785E+02  0.51100000000E-03 0. -1.
        -11    1    3    3    0    0  0.42964347004E+01  0.19302040411E+01  0.72325962137E+01  0.86310768173E+01  0.51100000000E-03 0.  1.
        -12    1    3    3    0    0  0.21783022680E+01  0.31117814002E+02 -0.28085631112E+02  0.41974587836E+02  0.00000000000E+00 0.  1.
</event>
<event>
 7    1  0.3743571E-015  0.9000767E+02  0.7816164E-02  0.1186339E+00
        -11   -1    0    0    0    0  0.00000000000E+00  0.00000000000E+00  0.45593999997E+02  0.45594000000E+02  0.51100000000E-03 0.  1.
         11   -1    0    0    0    0 -0.00000000000E+00 -0.00000000000E+00 -0.45593999997E+02  0.45594000000E+02  0.51100000000E-03 0. -1.
    9900012    2    1    2    0    0  0.18181701560E+00 -0.23749320267E+00 -0.11418055840E+01  0.90007669351E+02  0.89999929787E+02 0.  0.
        -12    1    1    2    0    0 -0.18181701560E+00  0.23749320267E+00  0.11418055840E+01  0.11803306486E+01  0.00000000000E+00 0.  1.
         11    1    3    3    0    0 -0.15471168875E+01 -0.10269004656E+02  0.26782050571E+02  0.28724976246E+02  0.51100000000E-03 0. -1.
        -11    1    3    3    0    0  0.15223490989E+02 -0.15689096917E+02 -0.13299945709E+01  0.21901400087E+02  0.51100000000E-03 0.  1.
         12    1    3    3    0    0 -0.13494557086E+02  0.25720608370E+02 -0.26593861584E+02  0.39381293018E+02  0.00000000000E+00 0. -1.
</event>
<event>
 7    1  0.3743571E-015  0.9000781E+02  0.7816164E-02  0.1186339E+00
        -11   -1    0    0    0    0  0.00000000000E+00  0.00000000000E+00  0.45593999997E+02  0.45594000000E+02  0.51100000000E-03 0. -1.
         11   -1    0    0    0    0 -0.00000000000E+00 -0.00000000000E+00 -0.45593999997E+02  0.45594000000E+02  0.51100000000E-03 0.  1.
    9900012    2    1    2    0    0  0.48374754545E+00  0.78610649312E+00  0.73544679199E+00  0.90007806334E+02  0.90000068577E+02 0.  0.
        -12    1    1    2    0    0 -0.48374754545E+00 -0.78610649312E+00 -0.73544679199E+00  0.11801936664E+01  0.00000000000E+00 0.  1.
         11    1    3    3    0    0 -0.53715976879E+01  0.31958308598E+02 -0.10240677420E+02  0.33986159307E+02  0.51100000000E-03 0. -1.
        -11    1    3    3    0    0  0.61909491193E+01  0.80198418822E+01 -0.75841326378E+01  0.12655622582E+02  0.51100000000E-03 0.  1.
        -12    1    3    3    0    0 -0.33560388599E+00 -0.39192043987E+02  0.18560256850E+02  0.43366024445E+02  0.00000000000E+00 0.  1.
</event>
<event>
 7    1  0.3743571E-015  0.9000776E+02  0.7816164E-02  0.1186339E+00
        -11   -1    0    0    0    0  0.00000000000E+00  0.00000000000E+00  0.45593999997E+02  0.45594000000E+02  0.51100000000E-03 0. -1.
         11   -1    0    0    0    0 -0.00000000000E+00 -0.00000000000E+00 -0.45593999997E+02  0.45594000000E+02  0.51100000000E-03 0.  1.
    9900012    2    1    2    0    0 -0.36165152053E+00 -0.41406540691E+00  0.10443755769E+01  0.90007761749E+02  0.90000023404E+02 0.  0.
        -12    1    1    2    0    0  0.36165152053E+00  0.41406540691E+00 -0.10443755769E+01  0.11802382510E+01  0.00000000000E+00 0.  1.
         11    1    3    3    0    0  0.18596690195E+01 -0.17985722534E+02 -0.31790251093E+02  0.36572730944E+02  0.51100000000E-03 0. -1.
        -11    1    3    3    0    0  0.33074284601E+01  0.28172491946E+00 -0.80468896949E+01  0.87046473778E+01  0.51100000000E-03 0.  1.
        -12    1    3    3    0    0 -0.55287490001E+01  0.17289932207E+02  0.40881516365E+02  0.44730383427E+02  0.00000000000E+00 0.  1.
</event>
<event>
 7    1  0.3953028E-015  0.9000772E+02  0.7816164E-02  0.1186339E+00
        -11   -1    0    0    0    0  0.00000000000E+00  0.00000000000E+00  0.45593999997E+02  0.45594000000E+02  0.51100000000E-03 0. -1.
         11   -1    0    0    0    0 -0.00000000000E+00 -0.00000000000E+00 -0.45593999997E+02  0.45594000000E+02  0.51100000000E-03 0.  1.
    9900012    2    1    2    0    0 -0.24031872523E-01  0.54823362164E+00  0.10449555242E+01  0.90007716270E+02  0.89999977325E+02 0.  0.
        -12    1    1    2    0    0  0.24031872523E-01 -0.54823362164E+00 -0.10449555242E+01  0.11802837296E+01  0.00000000000E+00 0.  1.
         11    1    3    3    0    0  0.90926066969E+01  0.29837607718E+01 -0.11447673336E+01  0.96378844876E+01  0.51100000000E-03 0. -1.
        -11    1    3    3    0    0  0.28753582584E+01  0.38643491843E+01 -0.37821890580E+02  0.38127369264E+02  0.51100000000E-03 0.  1.
         12    1    3    3    0    0 -0.11991996828E+02 -0.62998763344E+01  0.40011613438E+02  0.42242462518E+02  0.00000000000E+00 0. -1.
</event>
<event>
 7    1  0.3743571E-015  0.9000772E+02  0.7816164E-02  0.1186339E+00
        -11   -1    0    0    0    0  0.00000000000E+00  0.00000000000E+00  0.45593999997E+02  0.45594000000E+02  0.51100000000E-03 0.  1.
         11   -1    0    0    0    0 -0.00000000000E+00 -0.00000000000E+00 -0.45593999997E+02  0.45594000000E+02  0.51100000000E-03 0. -1.
    9900012    2    1    2    0    0 -0.48998268811E+00  0.54032042992E+00 -0.92791593546E+00  0.90007721565E+02  0.89999982689E+02 0.  0.
        -12    1    1    2    0    0  0.48998268811E+00 -0.54032042992E+00  0.92791593546E+00  0.11802784353E+01  0.00000000000E+00 0.  1.
         11    1    3    3    0    0  0.15348259523E+02 -0.26948389935E+02 -0.18645033300E+02  0.36185937289E+02  0.51100000000E-03 0. -1.
        -11    1    3    3    0    0 -0.20884208653E+01 -0.89506898654E+01 -0.30498260851E+01  0.96838933383E+01  0.51100000000E-03 0.  1.
        -12    1    3    3    0    0 -0.13749821346E+02  0.36439400230E+02  0.20766943449E+02  0.44137890937E+02  0.00000000000E+00 0.  1.
</event>
<event>
 7    1  0.3743571E-015  0.9000775E+02  0.7816164E-02  0.1186339E+00
        -11   -1    0    0    0    0  0.00000000000E+00  0.00000000000E+00  0.45593999997E+02  0.45594000000E+02  0.51100000000E-03 0.  1.
         11   -1    0    0    0    0 -0.00000000000E+00 -0.00000000000E+00 -0.45593999997E+02  0.45594000000E+02  0.51100000000E-03 0. -1.
    9900012    2    1    2    0    0 -0.47827262030E+00  0.74296263521E+00 -0.78245942839E+00  0.90007753867E+02  0.90000015418E+02 0.  0.
        -12    1    1    2    0    0  0.47827262030E+00 -0.74296263521E+00  0.78245942839E+00  0.11802461327E+01  0.00000000000E+00 0.  1.
         11    1    3    3    0    0  0.37566982700E+02 -0.10751732800E+01 -0.16210054504E+02  0.40929207836E+02  0.51100000000E-03 0. -1.
        -11    1    3    3    0    0  0.99351258960E+00 -0.15167447631E+01  0.92349134675E+01  0.94112278134E+01  0.51100000000E-03 0.  1.
        -12    1    3    3    0    0 -0.39038767910E+02  0.33348806783E+01  0.61926816085E+01  0.39667318218E+02  0.00000000000E+00 0.  1.
</event>
<event>
 7    1  0.3743571E-015  0.9000784E+02  0.7816164E-02  0.1186339E+00
        -11   -1    0    0    0    0  0.00000000000E+00  0.00000000000E+00  0.45593999997E+02  0.45594000000E+02  0.51100000000E-03 0.  1.
         11   -1    0    0    0    0 -0.00000000000E+00 -0.00000000000E+00 -0.45593999997E+02  0.45594000000E+02  0.51100000000E-03 0. -1.
    9900012    2    1    2    0    0 -0.42235674201E+00  0.21968649724E-01 -0.11017800375E+01  0.90007835990E+02  0.90000098625E+02 0.  0.
        -12    1    1    2    0    0  0.42235674201E+00 -0.21968649724E-01  0.11017800375E+01  0.11801640099E+01  0.00000000000E+00 0.  1.
         11    1    3    3    0    0  0.17665386208E+01  0.32121427245E+02  0.17407893594E+02  0.36577882752E+02  0.51100000000E-03 0. -1.
        -11    1    3    3    0    0  0.15702187792E+01  0.34227581817E+01  0.80699993144E+01  0.89053775766E+01  0.51100000000E-03 0.  1.
        -12    1    3    3    0    0 -0.37591141420E+01 -0.35522216777E+02 -0.26579672946E+02  0.44524575661E+02  0.00000000000E+00 0.  1.
</event>
<event>
 7    1  0.3743571E-015  0.9000775E+02  0.7816164E-02  0.1186339E+00
        -11   -1    0    0    0    0  0.00000000000E+00  0.00000000000E+00  0.45593999997E+02  0.45594000000E+02  0.51100000000E-03 0. -1.
         11   -1    0    0    0    0 -0.00000000000E+00 -0.00000000000E+00 -0.45593999997E+02  0.45594000000E+02  0.51100000000E-03 0.  1.
    9900012    2    1    2    0    0 -0.69582298251E+00 -0.92796251282E+00 -0.21842868667E+00  0.90007747849E+02  0.90000009321E+02 0.  0.
        -12    1    1    2    0    0  0.69582298251E+00  0.92796251282E+00  0.21842868667E+00  0.11802521507E+01  0.00000000000E+00 0.  1.
         11    1    3    3    0    0  0.65626421295E+01 -0.42853608630E+01 -0.85206034664E+01  0.11577273994E+02  0.51100000000E-03 0. -1.
        -11    1    3    3    0    0  0.20390765207E+02 -0.18570564341E+01 -0.26620111846E+02  0.33583661493E+02  0.51100000000E-03 0.  1.
         12    1    3    3    0    0 -0.27649230319E+02  0.52144547843E+01  0.34922286625E+02  0.44846812362E+02  0.00000000000E+00 0. -1.
</event>
<event>
 7    1  0.3743571E-015  0.9000767E+02  0.7816164E-02  0.1186339E+00
        -11   -1    0    0    0    0  0.00000000000E+00  0.00000000000E+00  0.45593999997E+02  0.45594000000E+02  0.51100000000E-03 0.  1.
         11   -1    0    0    0    0 -0.00000000000E+00 -0.00000000000E+00 -0.45593999997E+02  0.45594000000E+02  0.51100000000E-03 0. -1.
    9900012    2    1    2    0    0 -0.67574094545E+00  0.44576852826E+00 -0.85897780767E+00  0.90007670266E+02  0.89999930714E+02 0.  0.
        -12    1    1    2    0    0  0.67574094545E+00 -0.44576852826E+00  0.85897780767E+00  0.11803297337E+01  0.00000000000E+00 0.  1.
         11    1    3    3    0    0  0.91753630855E+01 -0.19679863085E+02 -0.60962717926E+01  0.22553244308E+02  0.51100000000E-03 0. -1.
        -11    1    3    3    0    0  0.49335294174E+01 -0.21743671050E+02  0.58358084179E+01  0.23047420754E+02  0.51100000000E-03 0.  1.
        -12    1    3    3    0    0 -0.14784633448E+02  0.41869302663E+02 -0.59851443302E+00  0.44407005205E+02  0.00000000000E+00 0.  1.
</event>
<event>
 7    1  0.3743571E-015  0.9000787E+02  0.7816164E-02  0.1186339E+00
        -11   -1    0    0    0    0  0.00000000000E+00  0.00000000000E+00  0.45593999997E+02  0.45594000000E+02  0.51100000000E-03 0. -1.
         11   -1    0    0    0    0 -0.00000000000E+00 -0.00000000000E+00 -0.45593999997E+02  0.45594000000E+02  0.51100000000E-03 0.  1.
    9900012    2    1    2    0    0  0.98524566723E+00 -0.40821087290E+00  0.50533090766E+00  0.90007870995E+02  0.90000134092E+02 0.  0.
        -12    1    1    2    0    0 -0.98524566723E+00  0.40821087290E+00 -0.50533090766E+00  0.11801290047E+01  0.00000000000E+00 0.  1.
         11    1    3    3    0    0 -0.23418793392E+01  0.30292836651E+02  0.14393880257E+02  0.33620293579E+02  0.51100000000E-03 0. -1.
        -11    1    3    3    0    0  0.17274604776E+01  0.56536992358E+01  0.10870159142E+02  0.12373713864E+02  0.51100000000E-03 0.  1.
        -12    1    3    3    0    0  0.15996645288E+01 -0.36354746760E+02 -0.24758708492E+02  0.44013863552E+02  0.00000000000E+00 0.  1.
</event>
<event>
 7    1  0.3743571E-015  0.9000780E+02  0.7816164E-02  0.1186339E+00
        -11   -1    0    0    0    0  0.00000000000E+00  0.00000000000E+00  0.45593999997E+02  0.45594000000E+02  0.51100000000E-03 0. -1.
         11   -1    0    0    0    0 -0.00000000000E+00 -0.00000000000E+00 -0.45593999997E+02  0.45594000000E+02  0.51100000000E-03 0.  1.
    9900012    2    1    2    0    0 -0.97540577088E+00 -0.65936348184E+00  0.81888731221E-01  0.90007795618E+02  0.90000057720E+02 0.  0.
        -12    1    1    2    0    0  0.97540577088E+00  0.65936348184E+00 -0.81888731221E-01  0.11802043820E+01  0.00000000000E+00 0.  1.
         11    1    3    3    0    0  0.31067081230E+02 -0.15834167782E+02  0.86953823298E+01  0.35937363282E+02  0.51100000000E-03 0. -1.
        -11    1    3    3    0    0  0.85296318304E+01 -0.26304750791E+01 -0.29600877626E+01  0.94040490283E+01  0.51100000000E-03 0.  1.
        -12    1    3    3    0    0 -0.40572118832E+02  0.17805279379E+02 -0.56534058360E+01  0.44666383308E+02  0.00000000000E+00 0.  1.
</event>
<event>
 7    1  0.3743571E-015  0.9000777E+02  0.7816164E-02  0.1186339E+00
        -11   -1    0    0    0    0  0.00000000000E+00  0.00000000000E+00  0.45593999997E+02  0.45594000000E+02  0.51100000000E-03 0. -1.
         11   -1    0    0    0    0 -0.00000000000E+00 -0.00000000000E+00 -0.45593999997E+02  0.45594000000E+02  0.51100000000E-03 0.  1.
    9900012    2    1    2    0    0  0.42000854971E+00 -0.10879563264E+01 -0.18137022136E+00  0.90007766418E+02  0.90000028135E+02 0.  0.
        -12    1    1    2    0    0 -0.42000854971E+00  0.10879563264E+01  0.18137022136E+00  0.11802335816E+01  0.00000000000E+00 0.  1.
         11    1    3    3    0    0  0.37761769022E+01  0.19994145689E+02  0.29360565310E+02  0.35722096375E+02  0.51100000000E-03 0. -1.
        -11    1    3    3    0    0  0.81313678464E+01 -0.41228519044E+01  0.76004429700E+01  0.11869447522E+02  0.51100000000E-03 0.  1.
        -12    1    3    3    0    0 -0.11487536199E+02 -0.16959250111E+02 -0.37142378501E+02  0.42416222521E+02  0.00000000000E+00 0.  1.
</event>
<event>
 7    1  0.4637966E-015  0.9000767E+02  0.7816164E-02  0.1186339E+00
        -11   -1    0    0    0    0  0.00000000000E+00  0.00000000000E+00  0.45593999997E+02  0.45594000000E+02  0.51100000000E-03 0.  1.
         11   -1    0    0    0    0 -0.00000000000E+00 -0.00000000000E+00 -0.45593999997E+02  0.45594000000E+02  0.51100000000E-03 0. -1.
    9900012    2    1    2    0    0 -0.23482815250E-01  0.10988685840E+01  0.43023930636E+00  0.90007673999E+02  0.89999934496E+02 0.  0.
        -12    1    1    2    0    0  0.23482815250E-01 -0.10988685840E+01 -0.43023930636E+00  0.11803260009E+01  0.00000000000E+00 0.  1.
         11    1    3    3    0    0 -0.50624528356E+01  0.71350955719E+01  0.29547123273E+01  0.92340859175E+01  0.51100000000E-03 0. -1.
        -11    1    3    3    0    0  0.95860014358E+00  0.32043692483E+02 -0.20926897841E+02  0.38283837265E+02  0.51100000000E-03 0.  1.
         12    1    3    3    0    0  0.40803698768E+01 -0.38079919471E+02  0.18402424820E+02  0.42489750817E+02  0.00000000000E+00 0. -1.
</event>
<event>
 7    1  0.3743571E-015  0.9000778E+02  0.7816164E-02  0.1186339E+00
        -11   -1    0    0    0    0  0.00000000000E+00  0.00000000000E+00  0.45593999997E+02  0.45594000000E+02  0.51100000000E-03 0.  1.
         11   -1    0    0    0    0 -0.00000000000E+00 -0.00000000000E+00 -0.45593999997E+02  0.45594000000E+02  0.51100000000E-03 0. -1.
    9900012    2    1    2    0    0 -0.94020111638E+00 -0.75038718822E-01 -0.70944467111E+00  0.90007779389E+02  0.90000041277E+02 0.  0.
        -12    1    1    2    0    0  0.94020111638E+00  0.75038718822E-01  0.70944467111E+00  0.11802206107E+01  0.00000000000E+00 0.  1.
         11    1    3    3    0    0 -0.46814775074E+01 -0.11232081350E+02  0.19303417644E+01  0.12320799596E+02  0.51100000000E-03 0. -1.
        -11    1    3    3    0    0 -0.20015436186E+02 -0.18976475301E+02  0.19133416531E+02  0.33568019438E+02  0.51100000000E-03 0.  1.
         12    1    3    3    0    0  0.23756712577E+02  0.30133517932E+02 -0.21773202966E+02  0.44118960355E+02  0.00000000000E+00 0. -1.
</event>
<event>
 7    1  0.3743571E-015  0.9000769E+02  0.7816164E-02  0.1186339E+00
        -11   -1    0    0    0    0  0.00000000000E+00  0.00000000000E+00  0.45593999997E+02  0.45594000000E+02  0.51100000000E-03 0.  1.
         11   -1    0    0    0    0 -0.00000000000E+00 -0.00000000000E+00 -0.45593999997E+02  0.45594000000E+02  0.51100000000E-03 0. -1.
    9900012    2    1    2    0    0  0.83271415948E+00  0.17116461441E+00 -0.81879121621E+00  0.90007691035E+02  0.89999951757E+02 0.  0.
        -12    1    1    2    0    0 -0.83271415948E+00 -0.17116461441E+00  0.81879121621E+00  0.11803089648E+01  0.00000000000E+00 0.  1.
         11    1    3    3    0    0  0.10281773672E+02  0.26535751778E+02 -0.25628399377E+02  0.38297204168E+02  0.51100000000E-03 0. -1.
        -11    1    3    3    0    0 -0.30786998875E+00 -0.41291042233E+01 -0.91842384360E+01  0.10074448944E+02  0.51100000000E-03 0.  1.
        -12    1    3    3    0    0 -0.91411895237E+01 -0.22235482940E+02  0.33993846597E+02  0.41636037923E+02  0.00000000000E+00 0.  1.
</event>
<event>
 7    1  0.3743571E-015  0.9000766E+02  0.7816164E-02  0.1186339E+00
        -11   -1    0    0    0    0  0.00000000000E+00  0.00000000000E+00  0.45593999997E+02  0.45594000000E+02  0.51100000000E-03 0. -1.
         11   -1    0    0    0    0 -0.00000000000E+00 -0.00000000000E+00 -0.45593999997E+02  0.45594000000E+02  0.51100000000E-03 0.  1.
    9900012    2    1    2    0    0  0.21121759918E+00 -0.39964755661E+00  0.10903564846E+01  0.90007657547E+02  0.89999917826E+02 0.  0.
        -12    1    1    2    0    0 -0.21121759918E+00  0.39964755661E+00 -0.10903564846E+01  0.11803424533E+01  0.00000000000E+00 0.  1.
         11    1    3    3    0    0 -0.81514415750E+01  0.21524842871E+02  0.20299303275E+02  0.30689193115E+02  0.51100000000E-03 0. -1.
        -11    1    3    3    0    0  0.18101964509E+00 -0.17791369222E+02  0.15390647568E+02  0.23525254935E+02  0.51100000000E-03 0.  1.
        -12    1    3    3    0    0  0.81816395291E+01 -0.41331212053E+01 -0.34599594359E+02  0.35793209496E+02  0.00000000000E+00 0.  1.
</event>
<event>
 7    1  0.3743571E-015  0.9000755E+02  0.7816164E-02  0.1186339E+00
        -11   -1    0    0    0    0  0.00000000000E+00  0.00000000000E+00  0.45593999997E+02  0.45594000000E+02  0.51100000000E-03 0.  1.
         11   -1    0    0    0    0 -0.00000000000E+00 -0.00000000000E+00 -0.45593999997E+02  0.45594000000E+02  0.51100000000E-03 0. -1.
    9900012    2    1    2    0    0  0.53453231730E+00  0.80632928695E+00 -0.67644233126E+00  0.90007548415E+02  0.89999807254E+02 0.  0.
        -12    1    1    2    0    0 -0.53453231730E+00 -0.80632928695E+00  0.67644233126E+00  0.11804515851E+01  0.00000000000E+00 0.  1.
         11    1    3    3    0    0 -0.95054803370E+01 -0.42726628980E+01 -0.31235264271E+02  0.32927975021E+02  0.51100000000E-03 0. -1.
        -11    1    3    3    0    0 -0.11862425870E+02 -0.77227524834E+01 -0.35283966138E+01  0.14587927761E+02  0.51100000000E-03 0.  1.
        -12    1    3    3    0    0  0.21902438524E+02  0.12801744668E+02  0.34087218553E+02  0.42491645633E+02  0.00000000000E+00 0.  1.
</event>
<event>
 7    1  0.3743571E-015  0.9000775E+02  0.7816164E-02  0.1186339E+00
        -11   -1    0    0    0    0  0.00000000000E+00  0.00000000000E+00  0.45593999997E+02  0.45594000000E+02  0.51100000000E-03 0.  1.
         11   -1    0    0    0    0 -0.00000000000E+00 -0.00000000000E+00 -0.45593999997E+02  0.45594000000E+02  0.51100000000E-03 0. -1.
    9900012    2    1    2    0    0 -0.31543473179E+00 -0.11343808661E+01 -0.81657212423E-01  0.90007751331E+02  0.90000012849E+02 0.  0.
        -12    1    1    2    0    0  0.31543473179E+00  0.11343808661E+01  0.81657212423E-01  0.11802486686E+01  0.00000000000E+00 0.  1.
         11    1    3    3    0    0 -0.45028050192E+01 -0.34400432415E+01 -0.85296048677E+01  0.10240278805E+02  0.51100000000E-03 0. -1.
        -11    1    3    3    0    0  0.13610586542E+02  0.32897863617E+02  0.25219263330E+02  0.43629448080E+02  0.51100000000E-03 0.  1.
         12    1    3    3    0    0 -0.94232162545E+01 -0.30592201242E+02 -0.16771315675E+02  0.36138024446E+02  0.00000000000E+00 0. -1.
</event>
<event>
 7    1  0.3743571E-015  0.9000777E+02  0.7816164E-02  0.1186339E+00
        -11   -1    0    0    0    0  0.00000000000E+00  0.00000000000E+00  0.45593999997E+02  0.45594000000E+02  0.51100000000E-03 0. -1.
         11   -1    0    0    0    0 -0.00000000000E+00 -0.00000000000E+00 -0.45593999997E+02  0.45594000000E+02  0.51100000000E-03 0.  1.
    9900012    2    1    2    0    0  0.57787121394E-01  0.29423054996E+00  0.11415049676E+01  0.90007769277E+02  0.90000031032E+02 0.  0.
        -12    1    1    2    0    0 -0.57787121394E-01 -0.29423054996E+00 -0.11415049676E+01  0.11802307228E+01  0.00000000000E+00 0.  1.
         11    1    3    3    0    0  0.12573280048E+02  0.10617723986E+01 -0.73534660631E+01  0.14604389586E+02  0.51100000000E-03 0. -1.
        -11    1    3    3    0    0 -0.81642827534E+01 -0.37202093778E+02  0.20029387678E+01  0.38140045337E+02  0.51100000000E-03 0.  1.
         12    1    3    3    0    0 -0.43512101728E+01  0.36434551929E+02  0.64920322629E+01  0.37263334354E+02  0.00000000000E+00 0. -1.
</event>
<event>
 7    1  0.3743571E-015  0.9000822E+02  0.7816164E-02  0.1186338E+00
        -11   -1    0    0    0    0  0.00000000000E+00  0.00000000000E+00  0.45593999997E+02  0.45594000000E+02  0.51100000000E-03 0. -1.
         11   -1    0    0    0    0 -0.00000000000E+00 -0.00000000000E+00 -0.45593999997E+02  0.45594000000E+02  0.51100000000E-03 0.  1.
    9900012    2    1    2    0    0  0.72401279813E+00 -0.64274849398E+00  0.67421433928E+00  0.90008218184E+02  0.90000485863E+02 0.  0.
        -12    1    1    2    0    0 -0.72401279813E+00  0.64274849398E+00 -0.67421433928E+00  0.11797818161E+01  0.00000000000E+00 0.  1.
         11    1    3    3    0    0  0.12489033369E+02 -0.33914172499E+02 -0.16724334147E+02  0.39822737271E+02  0.51100000000E-03 0. -1.
        -11    1    3    3    0    0  0.55964434819E+01  0.70841395822E+00  0.11507842673E+02  0.12816102107E+02  0.51100000000E-03 0.  1.
        -12    1    3    3    0    0 -0.17361464053E+02  0.32563010047E+02  0.58907058133E+01  0.37369378806E+02  0.00000000000E+00 0.  1.
</event>
<event>
 7    1  0.3743571E-015  0.9000754E+02  0.7816164E-02  0.1186339E+00
        -11   -1    0    0    0    0  0.00000000000E+00  0.00000000000E+00  0.45593999997E+02  0.45594000000E+02  0.51100000000E-03 0.  1.
         11   -1    0    0    0    0 -0.00000000000E+00 -0.00000000000E+00 -0.45593999997E+02  0.45594000000E+02  0.51100000000E-03 0. -1.
    9900012    2    1    2    0    0  0.11747611006E+01  0.17677497479E-01  0.11447635183E+00  0.90007542050E+02  0.89999800804E+02 0.  0.
        -12    1    1    2    0    0 -0.11747611006E+01 -0.17677497479E-01 -0.11447635183E+00  0.11804579503E+01  0.00000000000E+00 0.  1.
         11    1    3    3    0    0  0.21971031235E+02  0.32433928679E+02 -0.10127458595E+02  0.40462962830E+02  0.51100000000E-03 0. -1.
        -11    1    3    3    0    0 -0.62497190857E+01  0.16324410197E+01  0.10719925814E+02  0.12515616727E+02  0.51100000000E-03 0.  1.
        -12    1    3    3    0    0 -0.14546551049E+02 -0.34048692201E+02 -0.47799086765E+00  0.37028962493E+02  0.00000000000E+00 0.  1.
</event>
<event>
 7    1  0.3869789E-015  0.9000773E+02  0.7816164E-02  0.1186339E+00
        -11   -1    0    0    0    0  0.00000000000E+00  0.00000000000E+00  0.45593999997E+02  0.45594000000E+02  0.51100000000E-03 0. -1.
         11   -1    0    0    0    0 -0.00000000000E+00 -0.00000000000E+00 -0.45593999997E+02  0.45594000000E+02  0.51100000000E-03 0.  1.
    9900012    2    1    2    0    0  0.11667724205E+01 -0.60762615204E-01 -0.16728704718E+00  0.90007730991E+02  0.89999992240E+02 0.  0.
        -12    1    1    2    0    0 -0.11667724205E+01  0.60762615204E-01  0.16728704718E+00  0.11802690086E+01  0.00000000000E+00 0.  1.
         11    1    3    3    0    0  0.48064042373E+01  0.24793061977E+00  0.82358872750E+01  0.95390162360E+01  0.51100000000E-03 0. -1.
        -11    1    3    3    0    0  0.30149401000E+02  0.22513817925E+01 -0.28098837038E+02  0.41274686477E+02  0.51100000000E-03 0.  1.
         12    1    3    3    0    0 -0.33789032817E+02 -0.25600750275E+01  0.19695662716E+02  0.39194028278E+02  0.00000000000E+00 0. -1.
</event>
<event>
 7    1  0.3743571E-015  0.9000702E+02  0.7816164E-02  0.1186340E+00
        -11   -1    0    0    0    0  0.00000000000E+00  0.00000000000E+00  0.45593999997E+02  0.45594000000E+02  0.51100000000E-03 0.  1.
         11   -1    0    0    0    0 -0.00000000000E+00 -0.00000000000E+00 -0.45593999997E+02  0.45594000000E+02  0.51100000000E-03 0. -1.
    9900012    2    1    2    0    0 -0.43264151346E-01 -0.44830013223E+00 -0.10917280072E+01  0.90007019544E+02  0.89999271399E+02 0.  0.
        -12    1    1    2    0    0  0.43264151346E-01  0.44830013223E+00  0.10917280072E+01  0.11809804558E+01  0.00000000000E+00 0.  1.
         11    1    3    3    0    0  0.69901148644E+01  0.22710106558E+01 -0.71092266950E+01  0.10225473078E+02  0.51100000000E-03 0. -1.
        -11    1    3    3    0    0 -0.23353179506E+02  0.30367862291E+02 -0.99519595898E+01  0.39580545134E+02  0.51100000000E-03 0.  1.
         12    1    3    3    0    0  0.16319800490E+02 -0.33087173079E+02  0.15969458278E+02  0.40201001332E+02  0.00000000000E+00 0. -1.
</event>
<event>
 7    1  0.3743571E-015  0.9000774E+02  0.7816164E-02  0.1186339E+00
        -11   -1    0    0    0    0  0.00000000000E+00  0.00000000000E+00  0.45593999997E+02  0.45594000000E+02  0.51100000000E-03 0.  1.
         11   -1    0    0    0    0 -0.00000000000E+00 -0.00000000000E+00 -0.45593999997E+02  0.45594000000E+02  0.51100000000E-03 0. -1.
    9900012    2    1    2    0    0  0.56413963121E-01  0.98055044371E+00 -0.65448099040E+00  0.90007742793E+02  0.90000004198E+02 0.  0.
        -12    1    1    2    0    0 -0.56413963121E-01 -0.98055044371E+00  0.65448099040E+00  0.11802572070E+01  0.00000000000E+00 0.  1.
         11    1    3    3    0    0 -0.35452273358E+02 -0.17860029406E+02 -0.56497739746E+01  0.40096936078E+02  0.51100000000E-03 0. -1.
        -11    1    3    3    0    0  0.41980488965E+01 -0.17101040371E+01 -0.88805187811E+01  0.99705408298E+01  0.51100000000E-03 0.  1.
        -12    1    3    3    0    0  0.31310638425E+02  0.20550683887E+02  0.13875811765E+02  0.39940265885E+02  0.00000000000E+00 0.  1.
</event>
<event>
 7    1  0.3743571E-015  0.9000769E+02  0.7816164E-02  0.1186339E+00
        -11   -1    0    0    0    0  0.00000000000E+00  0.00000000000E+00  0.45593999997E+02  0.45594000000E+02  0.51100000000E-03 0. -1.
         11   -1    0    0    0    0 -0.00000000000E+00 -0.00000000000E+00 -0.45593999997E+02  0.45594000000E+02  0.51100000000E-03 0.  1.
    9900012    2    1    2    0    0 -0.27429472811E+00 -0.23176846679E+00  0.11243518446E+01  0.90007694408E+02  0.89999955174E+02 0.  0.
        -12    1    1    2    0    0  0.27429472811E+00  0.23176846679E+00 -0.11243518446E+01  0.11803055920E+01  0.00000000000E+00 0.  1.
         11    1    3    3    0    0 -0.18209655418E+02 -0.20526809888E+02 -0.22116116984E+02  0.35242929864E+02  0.51100000000E-03 0. -1.
        -11    1    3    3    0    0 -0.78430054363E+01 -0.68364997039E+01 -0.54859920790E+00  0.10418801458E+02  0.51100000000E-03 0.  1.
        -12    1    3    3    0    0  0.25778366126E+02  0.27131541125E+02  0.23789068037E+02  0.44345963086E+02  0.00000000000E+00 0.  1.
</event>
<event>
 7    1  0.3743571E-015  0.9000783E+02  0.7816164E-02  0.1186339E+00
        -11   -1    0    0    0    0  0.00000000000E+00  0.00000000000E+00  0.45593999997E+02  0.45594000000E+02  0.51100000000E-03 0. -1.
         11   -1    0    0    0    0 -0.00000000000E+00 -0.00000000000E+00 -0.45593999997E+02  0.45594000000E+02  0.51100000000E-03 0.  1.
    9900012    2    1    2    0    0 -0.85255158305E+00  0.71815999373E-01  0.81288860205E+00  0.90007834919E+02  0.90000097540E+02 0.  0.
        -12    1    1    2    0    0  0.85255158305E+00 -0.71815999373E-01 -0.81288860205E+00  0.11801650812E+01  0.00000000000E+00 0.  1.
         11    1    3    3    0    0  0.84995113671E+01 -0.57068450023E+01 -0.42828308503E+01  0.11097405720E+02  0.51100000000E-03 0. -1.
        -11    1    3    3    0    0  0.22888446740E+02 -0.24120277927E+02 -0.54444349795E+01  0.33694371547E+02  0.51100000000E-03 0.  1.
         12    1    3    3    0    0 -0.32240509690E+02  0.29898938929E+02  0.10540154432E+02  0.45216057652E+02  0.00000000000E+00 0. -1.
</event>
<event>
 7    1  0.3743571E-015  0.9000775E+02  0.7816164E-02  0.1186339E+00
        -11   -1    0    0    0    0  0.00000000000E+00  0.00000000000E+00  0.45593999997E+02  0.45594000000E+02  0.51100000000E-03 0. -1.
         11   -1    0    0    0    0 -0.00000000000E+00 -0.00000000000E+00 -0.45593999997E+02  0.45594000000E+02  0.51100000000E-03 0.  1.
    9900012    2    1    2    0    0 -0.47118635065E+00 -0.10731837433E+01  0.13877465099E+00  0.90007746499E+02  0.90000007952E+02 0.  0.
        -12    1    1    2    0    0  0.47118635065E+00  0.10731837433E+01 -0.13877465099E+00  0.11802535014E+01  0.00000000000E+00 0.  1.
         11    1    3    3    0    0  0.15790794903E+02 -0.18656140315E+02 -0.19198367264E+02  0.31080187918E+02  0.51100000000E-03 0. -1.
        -11    1    3    3    0    0  0.11082051642E+02  0.27394526824E+01 -0.10725245547E+02  0.15663567981E+02  0.51100000000E-03 0.  1.
        -12    1    3    3    0    0 -0.27344032896E+02  0.14843503890E+02  0.30062387462E+02  0.43263990600E+02  0.00000000000E+00 0.  1.
</event>
<event>
 7    1  0.3743571E-015  0.9000757E+02  0.7816164E-02  0.1186339E+00
        -11   -1    0    0    0    0  0.00000000000E+00  0.00000000000E+00  0.45593999997E+02  0.45594000000E+02  0.51100000000E-03 0. -1.
         11   -1    0    0    0    0 -0.00000000000E+00 -0.00000000000E+00 -0.45593999997E+02  0.45594000000E+02  0.51100000000E-03 0.  1.
    9900012    2    1    2    0    0 -0.11176031338E+01  0.38948981371E-01 -0.37797578087E+00  0.90007568097E+02  0.89999827195E+02 0.  0.
        -12    1    1    2    0    0  0.11176031338E+01 -0.38948981371E-01  0.37797578087E+00  0.11804319035E+01  0.00000000000E+00 0.  1.
         11    1    3    3    0    0  0.13649372937E+02  0.12849739612E+02  0.31618849134E+02  0.36758302606E+02  0.51100000000E-03 0. -1.
        -11    1    3    3    0    0 -0.55217910030E+01  0.24696987508E+01  0.76576406831E+01  0.97585372312E+01  0.51100000000E-03 0.  1.
        -12    1    3    3    0    0 -0.92451850673E+01 -0.15280489381E+02 -0.39654465598E+02  0.43490728259E+02  0.00000000000E+00 0.  1.
</event>
<event>
 7    1  0.3743571E-015  0.9000782E+02  0.7816164E-02  0.1186339E+00
        -11   -1    0    0    0    0  0.00000000000E+00  0.00000000000E+00  0.45593999997E+02  0.45594000000E+02  0.51100000000E-03 0. -1.
         11   -1    0    0    0    0 -0.00000000000E+00 -0.00000000000E+00 -0.45593999997E+02  0.45594000000E+02  0.51100000000E-03 0.  1.
    9900012    2    1    2    0    0 -0.75464996570E+00  0.51914435363E+00  0.74418879262E+00  0.90007820188E+02  0.90000082614E+02 0.  0.
        -12    1    1    2    0    0  0.75464996570E+00 -0.51914435363E+00 -0.74418879262E+00  0.11801798124E+01  0.00000000000E+00 0.  1.
         11    1    3    3    0    0  0.10922298543E+01  0.79447473925E+01  0.66706183593E+01  0.10431161332E+02  0.51100000000E-03 0. -1.
        -11    1    3    3    0    0 -0.33586042336E+02 -0.91436165759E+01  0.18565094461E+02  0.39449850399E+02  0.51100000000E-03 0.  1.
         12    1    3    3    0    0  0.31739162516E+02  0.17180135370E+01 -0.24491524028E+02  0.40126808457E+02  0.00000000000E+00 0. -1.
</event>
<event>
 7    1  0.4743131E-015  0.9000771E+02  0.7816164E-02  0.1186339E+00
        -11   -1    0    0    0    0  0.00000000000E+00  0.00000000000E+00  0.45593999997E+02  0.45594000000E+02  0.51100000000E-03 0. -1.
         11   -1    0    0    0    0 -0.00000000000E+00 -0.00000000000E+00 -0.45593999997E+02  0.45594000000E+02  0.51100000000E-03 0.  1.
    9900012    2    1    2    0    0  0.17643448562E+00  0.65743379364E+00  0.96423154244E+00  0.90007707329E+02  0.89999968266E+02 0.  0.
        -12    1    1    2    0    0 -0.17643448562E+00 -0.65743379364E+00 -0.96423154244E+00  0.11802926706E+01  0.00000000000E+00 0.  1.
         11    1    3    3    0    0  0.17664186579E+02  0.23907469014E+01  0.33050274189E+02  0.37550762742E+02  0.51100000000E-03 0. -1.
        -11    1    3    3    0    0  0.74214926473E+01  0.55575733760E+01  0.21276629241E+01  0.95127348709E+01  0.51100000000E-03 0.  1.
        -12    1    3    3    0    0 -0.24909244741E+02 -0.72908864838E+01 -0.34213705571E+02  0.42944209717E+02  0.00000000000E+00 0.  1.
</event>
<event>
 7    1  0.3743571E-015  0.9000774E+02  0.7816164E-02  0.1186339E+00
        -11   -1    0    0    0    0  0.00000000000E+00  0.00000000000E+00  0.45593999997E+02  0.45594000000E+02  0.51100000000E-03 0.  1.
         11   -1    0    0    0    0 -0.00000000000E+00 -0.00000000000E+00 -0.45593999997E+02  0.45594000000E+02  0.51100000000E-03 0. -1.
    9900012    2    1    2    0    0 -0.45229450639E+00 -0.75133776954E+00  0.78989063415E+00  0.90007743257E+02  0.90000004668E+02 0.  0.
        -12    1    1    2    0    0  0.45229450639E+00  0.75133776954E+00 -0.78989063415E+00  0.11802567426E+01  0.00000000000E+00 0.  1.
         11    1    3    3    0    0 -0.54979312868E+01 -0.81742033616E+01  0.83940004900E+00  0.98868317339E+01  0.51100000000E-03 0. -1.
        -11    1    3    3    0    0 -0.53239175225E+01 -0.16884610732E+02  0.33213806805E+02  0.37637629310E+02  0.51100000000E-03 0.  1.
         12    1    3    3    0    0  0.10369554303E+02  0.24307476324E+02 -0.33263316220E+02  0.42483282213E+02  0.00000000000E+00 0. -1.
</event>
<event>
 7    1  0.3743571E-015  0.9000773E+02  0.7816164E-02  0.1186339E+00
        -11   -1    0    0    0    0  0.00000000000E+00  0.00000000000E+00  0.45593999997E+02  0.45594000000E+02  0.51100000000E-03 0. -1.
         11   -1    0    0    0    0 -0.00000000000E+00 -0.00000000000E+00 -0.45593999997E+02  0.45594000000E+02  0.51100000000E-03 0.  1.
    9900012    2    1    2    0    0  0.53719911603E+00  0.40776682539E+00  0.96859986187E+00  0.90007727842E+02  0.89999989050E+02 0.  0.
        -12    1    1    2    0    0 -0.53719911603E+00 -0.40776682539E+00 -0.96859986187E+00  0.11802721578E+01  0.00000000000E+00 0.  1.
         11    1    3    3    0    0  0.29347673015E+02  0.10599542896E+02 -0.16607135472E+02  0.35347321961E+02  0.51100000000E-03 0. -1.
        -11    1    3    3    0    0 -0.90199207816E+01  0.61585383063E+01 -0.11509453050E+02  0.15866760058E+02  0.51100000000E-03 0.  1.
        -12    1    3    3    0    0 -0.19790553117E+02 -0.16350314377E+02  0.29085188384E+02  0.38793645823E+02  0.00000000000E+00 0.  1.
</event>
<event>
 7    1  0.3743571E-015  0.9000810E+02  0.7816164E-02  0.1186338E+00
        -11   -1    0    0    0    0  0.00000000000E+00  0.00000000000E+00  0.45593999997E+02  0.45594000000E+02  0.51100000000E-03 0.  1.
         11   -1    0    0    0    0 -0.00000000000E+00 -0.00000000000E+00 -0.45593999997E+02  0.45594000000E+02  0.51100000000E-03 0. -1.
    9900012    2    1    2    0    0 -0.76330339819E+00  0.21153306461E+00 -0.87451681086E+00  0.90008102561E+02  0.90000368714E+02 0.  0.
        -12    1    1    2    0    0  0.76330339819E+00 -0.21153306461E+00  0.87451681086E+00  0.11798974394E+01  0.00000000000E+00 0.  1.
         11    1    3    3    0    0 -0.13368206845E+02 -0.23309138008E+02 -0.32057101052E+02  0.41829207464E+02  0.51100000000E-03 0. -1.
        -11    1    3    3    0    0 -0.43965216530E+01  0.74174843293E+01 -0.66570477429E+00  0.86482159738E+01  0.51100000000E-03 0.  1.
        -12    1    3    3    0    0  0.17001425100E+02  0.16103186743E+02  0.31848289016E+02  0.39530679123E+02  0.00000000000E+00 0.  1.
</event>
<event>
 7    1  0.3743571E-015  0.9000763E+02  0.7816164E-02  0.1186339E+00
        -11   -1    0    0    0    0  0.00000000000E+00  0.00000000000E+00  0.45593999997E+02  0.45594000000E+02  0.51100000000E-03 0.  1.
         11   -1    0    0    0    0 -0.00000000000E+00 -0.00000000000E+00 -0.45593999997E+02  0.45594000000E+02  0.51100000000E-03 0. -1.
    9900012    2    1    2    0    0  0.11705555938E+01 -0.12774084067E+00 -0.82215266099E-01  0.90007628249E+02  0.89999888142E+02 0.  0.
        -12    1    1    2    0    0 -0.11705555938E+01  0.12774084067E+00  0.82215266099E-01  0.11803717510E+01  0.00000000000E+00 0.  1.
         11    1    3    3    0    0  0.52827046391E+00 -0.55343761563E+01  0.69469121552E+01  0.88976388933E+01  0.51100000000E-03 0. -1.
        -11    1    3    3    0    0  0.35198293905E+02 -0.15742538166E+02  0.49184447013E+01  0.38870792381E+02  0.51100000000E-03 0.  1.
         12    1    3    3    0    0 -0.34556008776E+02  0.21149173482E+02 -0.11947572123E+02  0.42239196975E+02  0.00000000000E+00 0. -1.
</event>
<event>
 7    1  0.3743571E-015  0.9000776E+02  0.7816164E-02  0.1186339E+00
        -11   -1    0    0    0    0  0.00000000000E+00  0.00000000000E+00  0.45593999997E+02  0.45594000000E+02  0.51100000000E-03 0.  1.
         11   -1    0    0    0    0 -0.00000000000E+00 -0.00000000000E+00 -0.45593999997E+02  0.45594000000E+02  0.51100000000E-03 0. -1.
    9900012    2    1    2    0    0 -0.38709816443E+00 -0.30766717942E+00 -0.10716630758E+01  0.90007760266E+02  0.90000021901E+02 0.  0.
        -12    1    1    2    0    0  0.38709816443E+00  0.30766717942E+00  0.10716630758E+01  0.11802397342E+01  0.00000000000E+00 0.  1.
         11    1    3    3    0    0 -0.78272224742E+01  0.94241233744E+00  0.57574472979E+01  0.97622616398E+01  0.51100000000E-03 0. -1.
        -11    1    3    3    0    0  0.15552417316E+02  0.11153540634E+02  0.32777992103E+02  0.37956236900E+02  0.51100000000E-03 0.  1.
         12    1    3    3    0    0 -0.81122930067E+01 -0.12403620151E+02 -0.39607102477E+02  0.42289261726E+02  0.00000000000E+00 0. -1.
</event>
<event>
 7    1  0.3743571E-015  0.9000777E+02  0.7816164E-02  0.1186339E+00
        -11   -1    0    0    0    0  0.00000000000E+00  0.00000000000E+00  0.45593999997E+02  0.45594000000E+02  0.51100000000E-03 0. -1.
         11   -1    0    0    0    0 -0.00000000000E+00 -0.00000000000E+00 -0.45593999997E+02  0.45594000000E+02  0.51100000000E-03 0.  1.
    9900012    2    1    2    0    0  0.94097073906E+00  0.58180619959E+00 -0.41113137369E+00  0.90007765535E+02  0.90000027240E+02 0.  0.
        -12    1    1    2    0    0 -0.94097073906E+00 -0.58180619959E+00  0.41113137369E+00  0.11802344649E+01  0.00000000000E+00 0.  1.
         11    1    3    3    0    0  0.60049597144E+01  0.27070430021E+02 -0.17869247657E+02  0.32987539084E+02  0.51100000000E-03 0. -1.
        -11    1    3    3    0    0  0.10723853733E+02  0.44232206058E+01  0.19016126794E+02  0.22275075710E+02  0.51100000000E-03 0.  1.
        -12    1    3    3    0    0 -0.15787842708E+02 -0.30911844427E+02 -0.15580105099E+01  0.34745150741E+02  0.00000000000E+00 0.  1.
</event>
<event>
 7    1  0.3743571E-015  0.9000772E+02  0.7816164E-02  0.1186339E+00
        -11   -1    0    0    0    0  0.00000000000E+00  0.00000000000E+00  0.45593999997E+02  0.45594000000E+02  0.51100000000E-03 0.  1.
         11   -1    0    0    0    0 -0.00000000000E+00 -0.00000000000E+00 -0.45593999997E+02  0.45594000000E+02  0.51100000000E-03 0. -1.
    9900012    2    1    2    0    0  0.38566467371E+00 -0.36225536610E+00  0.10550284464E+01  0.90007724094E+02  0.89999985252E+02 0.  0.
        -12    1    1    2    0    0 -0.38566467371E+00  0.36225536610E+00 -0.10550284464E+01  0.11802759057E+01  0.00000000000E+00 0.  1.
         11    1    3    3    0    0  0.17021475985E+01 -0.27291415282E+01 -0.76570562354E+01  0.83051809361E+01  0.51100000000E-03 0. -1.
        -11    1    3    3    0    0  0.19672113042E+02  0.27316094278E+02  0.28031021363E+02  0.43805241662E+02  0.51100000000E-03 0.  1.
         12    1    3    3    0    0 -0.20988595966E+02 -0.24949208116E+02 -0.19318936681E+02  0.37897301497E+02  0.00000000000E+00 0. -1.
</event>
<event>
 7    1  0.3743571E-015  0.9000737E+02  0.7816164E-02  0.1186340E+00
        -11   -1    0    0    0    0  0.00000000000E+00  0.00000000000E+00  0.45593999997E+02  0.45594000000E+02  0.51100000000E-03 0. -1.
         11   -1    0    0    0    0 -0.00000000000E+00 -0.00000000000E+00 -0.45593999997E+02  0.45594000000E+02  0.51100000000E-03 0.  1.
    9900012    2    1    2    0    0 -0.76960015866E+00  0.55733414096E+00 -0.70070845580E+00  0.90007365387E+02  0.89999621810E+02 0.  0.
        -12    1    1    2    0    0  0.76960015866E+00 -0.55733414096E+00  0.70070845580E+00  0.11806346128E+01  0.00000000000E+00 0.  1.
         11    1    3    3    0    0  0.12016012338E+02  0.21876545605E+02 -0.14764520869E+02  0.28999290972E+02  0.51100000000E-03 0. -1.
        -11    1    3    3    0    0  0.74630976139E+01 -0.42945113257E+01 -0.17692382603E+02  0.19676408615E+02  0.51100000000E-03 0.  1.
        -12    1    3    3    0    0 -0.20248710110E+02 -0.17024700138E+02  0.31756195017E+02  0.41331665801E+02  0.00000000000E+00 0.  1.
</event>
<event>
 7    1  0.3743571E-015  0.9000768E+02  0.7816164E-02  0.1186339E+00
        -11   -1    0    0    0    0  0.00000000000E+00  0.00000000000E+00  0.45593999997E+02  0.45594000000E+02  0.51100000000E-03 0. -1.
         11   -1    0    0    0    0 -0.00000000000E+00 -0.00000000000E+00 -0.45593999997E+02  0.45594000000E+02  0.51100000000E-03 0.  1.
    9900012    2    1    2    0    0  0.54695954973E+00  0.10078215837E+01  0.27981178302E+00  0.90007676431E+02  0.89999936960E+02 0.  0.
        -12    1    1    2    0    0 -0.54695954973E+00 -0.10078215837E+01 -0.27981178302E+00  0.11803235690E+01  0.00000000000E+00 0.  1.
         11    1    3    3    0    0 -0.17483115764E+02 -0.30547248963E+02 -0.87642979478E+01  0.36271292709E+02  0.51100000000E-03 0. -1.
        -11    1    3    3    0    0 -0.49814863346E+01  0.17339813601E+02  0.17762506130E+02  0.25317799393E+02  0.51100000000E-03 0.  1.
        -12    1    3    3    0    0  0.23011561648E+02  0.14215256945E+02 -0.87183963995E+01  0.28418584329E+02  0.00000000000E+00 0.  1.
</event>
<event>
 7    1  0.3743571E-015  0.9000779E+02  0.7816164E-02  0.1186339E+00
        -11   -1    0    0    0    0  0.00000000000E+00  0.00000000000E+00  0.45593999997E+02  0.45594000000E+02  0.51100000000E-03 0.  1.
         11   -1    0    0    0    0 -0.00000000000E+00 -0.00000000000E+00 -0.45593999997E+02  0.45594000000E+02  0.51100000000E-03 0. -1.
    9900012    2    1    2    0    0  0.20862629774E+00 -0.22805796132E+00 -0.11390151534E+01  0.90007792016E+02  0.90000054071E+02 0.  0.
        -12    1    1    2    0    0 -0.20862629774E+00  0.22805796132E+00  0.11390151534E+01  0.11802079840E+01  0.00000000000E+00 0.  1.
         11    1    3    3    0    0 -0.11507993513E+01  0.68350747636E+01  0.48223337860E+01  0.84437840792E+01  0.51100000000E-03 0. -1.
        -11    1    3    3    0    0 -0.29679644354E+02  0.17704755774E+02 -0.19412057663E+02  0.39637957175E+02  0.51100000000E-03 0.  1.
         12    1    3    3    0    0  0.31039070003E+02 -0.24767888499E+02  0.13450708724E+02  0.41926050762E+02  0.00000000000E+00 0. -1.
</event>
<event>
 7    1  0.3743571E-015  0.9000743E+02  0.7816164E-02  0.1186340E+00
        -11   -1    0    0    0    0  0.00000000000E+00  0.00000000000E+00  0.45593999997E+02  0.45594000000E+02  0.51100000000E-03 0. -1.
         11   -1    0    0    0    0 -0.00000000000E+00 -0.00000000000E+00 -0.45593999997E+02  0.45594000000E+02  0.51100000000E-03 0.  1.
    9900012    2    1    2    0    0 -0.51968113023E+00 -0.82665816675E+00  0.66355991403E+00  0.90007430662E+02  0.89999687946E+02 0.  0.
        -12    1    1    2    0    0  0.51968113023E+00  0.82665816675E+00 -0.66355991403E+00  0.11805693378E+01  0.00000000000E+00 0.  1.
         11    1    3    3    0    0 -0.49825646080E+01 -0.22652772761E+00 -0.62154000315E+01  0.79692197044E+01  0.51100000000E-03 0. -1.
        -11    1    3    3    0    0 -0.28959782349E+01 -0.18321094597E+02 -0.32959067022E+02  0.37819958968E+02  0.51100000000E-03 0.  1.
         12    1    3    3    0    0  0.73588617126E+01  0.17720964157E+02  0.39838026967E+02  0.44218251990E+02  0.00000000000E+00 0. -1.
</event>
<event>
 7    1  0.3743571E-015  0.9000843E+02  0.7816164E-02  0.1186338E+00
        -11   -1    0    0    0    0  0.00000000000E+00  0.00000000000E+00  0.45593999997E+02  0.45594000000E+02  0.51100000000E-03 0. -1.
         11   -1    0    0    0    0 -0.00000000000E+00 -0.00000000000E+00 -0.45593999997E+02  0.45594000000E+02  0.51100000000E-03 0.  1.
    9900012    2    1    2    0    0 -0.11600707462E+01  0.16327889638E+00 -0.13766047970E+00  0.90008434596E+02  0.90000705130E+02 0.  0.
        -12    1    1    2    0    0  0.11600707462E+01 -0.16327889638E+00  0.13766047970E+00  0.11795654038E+01  0.00000000000E+00 0.  1.
         11    1    3    3    0    0 -0.69902479357E+01  0.19585868509E+01  0.77495194291E+01  0.10618600675E+02  0.51100000000E-03 0. -1.
        -11    1    3    3    0    0 -0.34446210954E+02  0.32897851111E+01 -0.15783870882E+02  0.38032811038E+02  0.51100000000E-03 0.  1.
         12    1    3    3    0    0  0.40276388144E+02 -0.50850930657E+01  0.78966909734E+01  0.41357022883E+02  0.00000000000E+00 0. -1.
</event>
<event>
 7    1  0.3743571E-015  0.9000771E+02  0.7816164E-02  0.1186339E+00
        -11   -1    0    0    0    0  0.00000000000E+00  0.00000000000E+00  0.45593999997E+02  0.45594000000E+02  0.51100000000E-03 0.  1.
         11   -1    0    0    0    0 -0.00000000000E+00 -0.00000000000E+00 -0.45593999997E+02  0.45594000000E+02  0.51100000000E-03 0. -1.
    9900012    2    1    2    0    0 -0.57401747074E+00  0.51097404763E+00 -0.89581802235E+00  0.90007711703E+02  0.89999972698E+02 0.  0.
        -12    1    1    2    0    0  0.57401747074E+00 -0.51097404763E+00  0.89581802235E+00  0.11802882967E+01  0.00000000000E+00 0.  1.
         11    1    3    3    0    0  0.58974516877E+01 -0.38277300702E+00 -0.60074891722E+01  0.84271215725E+01  0.51100000000E-03 0. -1.
        -11    1    3    3    0    0  0.26008305958E+02 -0.16488684409E+02 -0.20249820252E+02  0.36855988832E+02  0.51100000000E-03 0.  1.
         12    1    3    3    0    0 -0.32479775116E+02  0.17382431464E+02  0.25361491401E+02  0.44724601298E+02  0.00000000000E+00 0. -1.
</event>
<event>
 7    1  0.3743571E-015  0.9000782E+02  0.7816164E-02  0.1186339E+00
        -11   -1    0    0    0    0  0.00000000000E+00  0.00000000000E+00  0.45593999997E+02  0.45594000000E+02  0.51100000000E-03 0.  1.
         11   -1    0    0    0    0 -0.00000000000E+00 -0.00000000000E+00 -0.45593999997E+02  0.45594000000E+02  0.51100000000E-03 0. -1.
    9900012    2    1    2    0    0  0.10496244687E-02 -0.11491886876E+01 -0.26869870571E+00  0.90007815804E+02  0.90000078173E+02 0.  0.
        -12    1    1    2    0    0 -0.10496244687E-02  0.11491886876E+01  0.26869870571E+00  0.11801841958E+01  0.00000000000E+00 0.  1.
         11    1    3    3    0    0  0.12845492997E+02 -0.90160220857E+01 -0.39865114773E+02  0.42843000837E+02  0.51100000000E-03 0. -1.
        -11    1    3    3    0    0  0.29829305554E+01 -0.45839552950E+01  0.92034291204E+01  0.10705775482E+02  0.51100000000E-03 0.  1.
        -12    1    3    3    0    0 -0.15827373928E+02  0.12450788693E+02  0.30392986947E+02  0.36459039484E+02  0.00000000000E+00 0.  1.
</event>
<event>
 7    1  0.3743571E-015  0.9000772E+02  0.7816164E-02  0.1186339E+00
        -11   -1    0    0    0    0  0.00000000000E+00  0.00000000000E+00  0.45593999997E+02  0.45594000000E+02  0.51100000000E-03 0. -1.
         11   -1    0    0    0    0 -0.00000000000E+00 -0.00000000000E+00 -0.45593999997E+02  0.45594000000E+02  0.51100000000E-03 0.  1.
    9900012    2    1    2    0    0  0.67052689213E+00  0.41442763612E+00 -0.87846724066E+00  0.90007719833E+02  0.89999980935E+02 0.  0.
        -12    1    1    2    0    0 -0.67052689213E+00 -0.41442763612E+00  0.87846724066E+00  0.11802801666E+01  0.00000000000E+00 0.  1.
         11    1    3    3    0    0  0.38415016013E+02  0.41665090049E+00 -0.15653773066E+02  0.41484065190E+02  0.51100000000E-03 0. -1.
        -11    1    3    3    0    0 -0.23927192046E+01 -0.73705783458E+01 -0.29559246354E+01  0.82938544148E+01  0.51100000000E-03 0.  1.
        -12    1    3    3    0    0 -0.35351769916E+02  0.73683550814E+01  0.17731230460E+02  0.40229800229E+02  0.00000000000E+00 0.  1.
</event>
<event>
 7    1  0.3743571E-015  0.9000773E+02  0.7816164E-02  0.1186339E+00
        -11   -1    0    0    0    0  0.00000000000E+00  0.00000000000E+00  0.45593999997E+02  0.45594000000E+02  0.51100000000E-03 0.  1.
         11   -1    0    0    0    0 -0.00000000000E+00 -0.00000000000E+00 -0.45593999997E+02  0.45594000000E+02  0.51100000000E-03 0. -1.
    9900012    2    1    2    0    0 -0.91281155853E+00  0.73208596308E+00 -0.15443988019E+00  0.90007734574E+02  0.89999995871E+02 0.  0.
        -12    1    1    2    0    0  0.91281155853E+00 -0.73208596308E+00  0.15443988019E+00  0.11802654258E+01  0.00000000000E+00 0.  1.
         11    1    3    3    0    0  0.11970742257E+02  0.15923884706E+02  0.27698012814E+02  0.34118157752E+02  0.51100000000E-03 0. -1.
        -11    1    3    3    0    0  0.26457503153E+01 -0.10081058960E+01  0.11190011581E+02  0.11542644050E+02  0.51100000000E-03 0.  1.
        -12    1    3    3    0    0 -0.15529304131E+02 -0.14183692847E+02 -0.39042464275E+02  0.44346932771E+02  0.00000000000E+00 0.  1.
</event>
<event>
 7    1  0.3743571E-015  0.9000779E+02  0.7816164E-02  0.1186339E+00
        -11   -1    0    0    0    0  0.00000000000E+00  0.00000000000E+00  0.45593999997E+02  0.45594000000E+02  0.51100000000E-03 0.  1.
         11   -1    0    0    0    0 -0.00000000000E+00 -0.00000000000E+00 -0.45593999997E+02  0.45594000000E+02  0.51100000000E-03 0. -1.
    9900012    2    1    2    0    0  0.11255252042E+01  0.21931768503E+00 -0.27925116105E+00  0.90007793051E+02  0.90000055119E+02 0.  0.
        -12    1    1    2    0    0 -0.11255252042E+01 -0.21931768503E+00  0.27925116105E+00  0.11802069493E+01  0.00000000000E+00 0.  1.
         11    1    3    3    0    0 -0.55351236963E+00  0.10609365503E+01 -0.10755226231E+02  0.10821592020E+02  0.51100000000E-03 0. -1.
        -11    1    3    3    0    0  0.24035209022E+02  0.10964386342E+02  0.35075536805E+02  0.43911300630E+02  0.51100000000E-03 0.  1.
         12    1    3    3    0    0 -0.22356171448E+02 -0.11806005207E+02 -0.24599561736E+02  0.35274900401E+02  0.00000000000E+00 0. -1.
</event>
<event>
 7    1  0.3743571E-015  0.9000774E+02  0.7816164E-02  0.1186339E+00
        -11   -1    0    0    0    0  0.00000000000E+00  0.00000000000E+00  0.45593999997E+02  0.45594000000E+02  0.51100000000E-03 0. -1.
         11   -1    0    0    0    0 -0.00000000000E+00 -0.00000000000E+00 -0.45593999997E+02  0.45594000000E+02  0.51100000000E-03 0.  1.
    9900012    2    1    2    0    0 -0.72085965320E+00 -0.41025415992E+00  0.83968069291E+00  0.90007741223E+02  0.90000002607E+02 0.  0.
        -12    1    1    2    0    0  0.72085965320E+00  0.41025415992E+00 -0.83968069291E+00  0.11802587773E+01  0.00000000000E+00 0.  1.
         11    1    3    3    0    0 -0.12444190404E+01  0.77106833525E+01  0.48666045291E+01  0.92025570585E+01  0.51100000000E-03 0. -1.
        -11    1    3    3    0    0 -0.16155260856E+02  0.20944028012E+02 -0.28821341561E+02  0.39119234302E+02  0.51100000000E-03 0.  1.
         12    1    3    3    0    0  0.16678820244E+02 -0.29064965524E+02  0.24794417725E+02  0.41685949863E+02  0.00000000000E+00 0. -1.
</event>
<event>
 7    1  0.3743571E-015  0.9000777E+02  0.7816164E-02  0.1186339E+00
        -11   -1    0    0    0    0  0.00000000000E+00  0.00000000000E+00  0.45593999997E+02  0.45594000000E+02  0.51100000000E-03 0.  1.
         11   -1    0    0    0    0 -0.00000000000E+00 -0.00000000000E+00 -0.45593999997E+02  0.45594000000E+02  0.51100000000E-03 0. -1.
    9900012    2    1    2    0    0 -0.61979575342E+00  0.53882627156E-01 -0.10029413091E+01  0.90007770623E+02  0.90000032395E+02 0.  0.
        -12    1    1    2    0    0  0.61979575342E+00 -0.53882627156E-01  0.10029413091E+01  0.11802293773E+01  0.00000000000E+00 0.  1.
         11    1    3    3    0    0  0.34214011991E+02 -0.53611288737E+01 -0.13690683811E+02  0.37239429948E+02  0.51100000000E-03 0. -1.
        -11    1    3    3    0    0  0.44706966181E+01 -0.84271107141E+01  0.19586923892E+01  0.97385727587E+01  0.51100000000E-03 0.  1.
        -12    1    3    3    0    0 -0.39304504363E+02  0.13842122215E+02  0.10729050113E+02  0.43029767916E+02  0.00000000000E+00 0.  1.
</event>
<event>
 7    1  0.3743571E-015  0.9000773E+02  0.7816164E-02  0.1186339E+00
        -11   -1    0    0    0    0  0.00000000000E+00  0.00000000000E+00  0.45593999997E+02  0.45594000000E+02  0.51100000000E-03 0. -1.
         11   -1    0    0    0    0 -0.00000000000E+00 -0.00000000000E+00 -0.45593999997E+02  0.45594000000E+02  0.51100000000E-03 0.  1.
    9900012    2    1    2    0    0  0.10606768745E+01  0.51339515886E+00 -0.66568671785E-01  0.90007728248E+02  0.89999989461E+02 0.  0.
        -12    1    1    2    0    0 -0.10606768745E+01 -0.51339515886E+00  0.66568671785E-01  0.11802717523E+01  0.00000000000E+00 0.  1.
         11    1    3    3    0    0 -0.13384969981E+02  0.26600004253E+02 -0.23922878337E+02  0.38197143294E+02  0.51100000000E-03 0. -1.
        -11    1    3    3    0    0  0.31856355903E+01 -0.60930941610E+01 -0.92525509046E+01  0.11527522243E+02  0.51100000000E-03 0.  1.
        -12    1    3    3    0    0  0.11260011265E+02 -0.19993514933E+02  0.33108860570E+02  0.40283062710E+02  0.00000000000E+00 0.  1.
</event>
<event>
 7    1  0.4285375E-015  0.9000774E+02  0.7816164E-02  0.1186339E+00
        -11   -1    0    0    0    0  0.00000000000E+00  0.00000000000E+00  0.45593999997E+02  0.45594000000E+02  0.51100000000E-03 0. -1.
         11   -1    0    0    0    0 -0.00000000000E+00 -0.00000000000E+00 -0.45593999997E+02  0.45594000000E+02  0.51100000000E-03 0.  1.
    9900012    2    1    2    0    0 -0.19066469639E+00  0.46543414753E+00  0.10677250935E+01  0.90007737806E+02  0.89999999145E+02 0.  0.
        -12    1    1    2    0    0  0.19066469639E+00 -0.46543414753E+00 -0.10677250935E+01  0.11802621944E+01  0.00000000000E+00 0.  1.
         11    1    3    3    0    0 -0.74402320415E+01  0.44729695246E+01  0.32973214529E+01  0.92863791773E+01  0.51100000000E-03 0. -1.
        -11    1    3    3    0    0 -0.38122251443E+01 -0.27952799686E+02 -0.30847008800E+02  0.41802272941E+02  0.51100000000E-03 0.  1.
         12    1    3    3    0    0  0.11061792489E+02  0.23945264309E+02  0.28617412441E+02  0.38919085687E+02  0.00000000000E+00 0. -1.
</event>
<event>
 7    1  0.3743571E-015  0.9000776E+02  0.7816164E-02  0.1186339E+00
        -11   -1    0    0    0    0  0.00000000000E+00  0.00000000000E+00  0.45593999997E+02  0.45594000000E+02  0.51100000000E-03 0. -1.
         11   -1    0    0    0    0 -0.00000000000E+00 -0.00000000000E+00 -0.45593999997E+02  0.45594000000E+02  0.51100000000E-03 0.  1.
    9900012    2    1    2    0    0  0.40942252710E+00 -0.39952691741E+00  0.10323364182E+01  0.90007759752E+02  0.90000021380E+02 0.  0.
        -12    1    1    2    0    0 -0.40942252710E+00  0.39952691741E+00 -0.10323364182E+01  0.11802402483E+01  0.00000000000E+00 0.  1.
         11    1    3    3    0    0  0.98538213152E+01 -0.30764959894E+01  0.11829543732E+01  0.10390476572E+02  0.51100000000E-03 0. -1.
        -11    1    3    3    0    0 -0.42734638621E+02 -0.63707792747E+01 -0.87039893312E+01  0.44074886241E+02  0.51100000000E-03 0.  1.
         12    1    3    3    0    0  0.33290239833E+02  0.90477483467E+01  0.85533713762E+01  0.35542396939E+02  0.00000000000E+00 0. -1.
</event>
<event>
 7    1  0.3743571E-015  0.9000769E+02  0.7816164E-02  0.1186339E+00
        -11   -1    0    0    0    0  0.00000000000E+00  0.00000000000E+00  0.45593999997E+02  0.45594000000E+02  0.51100000000E-03 0. -1.
         11   -1    0    0    0    0 -0.00000000000E+00 -0.00000000000E+00 -0.45593999997E+02  0.45594000000E+02  0.51100000000E-03 0.  1.
    9900012    2    1    2    0    0  0.13116257517E+00 -0.11684097829E+01  0.10361041223E+00  0.90007694887E+02  0.89999955660E+02 0.  0.
        -12    1    1    2    0    0 -0.13116257517E+00  0.11684097829E+01 -0.10361041223E+00  0.11803051129E+01  0.00000000000E+00 0.  1.
         11    1    3    3    0    0  0.24298242455E+02  0.85298879400E+01 -0.28322981194E+02  0.38279953483E+02  0.51100000000E-03 0. -1.
        -11    1    3    3    0    0 -0.49923302333E+01  0.20738767868E+00 -0.79738705211E+01  0.94100468732E+01  0.51100000000E-03 0.  1.
        -12    1    3    3    0    0 -0.19174749647E+02 -0.99056854016E+01  0.36400462127E+02  0.42317694531E+02  0.00000000000E+00 0.  1.
</event>
<event>
 7    1  0.3743571E-015  0.9000781E+02  0.7816164E-02  0.1186339E+00
        -11   -1    0    0    0    0  0.00000000000E+00  0.00000000000E+00  0.45593999997E+02  0.45594000000E+02  0.51100000000E-03 0. -1.
         11   -1    0    0    0    0 -0.00000000000E+00 -0.00000000000E+00 -0.45593999997E+02  0.45594000000E+02  0.51100000000E-03 0.  1.
    9900012    2    1    2    0    0 -0.68399223363E+00  0.92033547364E+00  0.27924813714E+00  0.90007812607E+02  0.90000074934E+02 0.  0.
        -12    1    1    2    0    0  0.68399223363E+00 -0.92033547364E+00 -0.27924813714E+00  0.11801873927E+01  0.00000000000E+00 0.  1.
         11    1    3    3    0    0 -0.31122616690E+02  0.24854753687E+02  0.20536420002E+02  0.44812058614E+02  0.51100000000E-03 0. -1.
        -11    1    3    3    0    0  0.83796655799E+01 -0.18530605970E+01 -0.77755147195E+01  0.11580641529E+02  0.51100000000E-03 0.  1.
        -12    1    3    3    0    0  0.22058958876E+02 -0.22081357617E+02 -0.12481657145E+02  0.33615112464E+02  0.00000000000E+00 0.  1.
</event>
<event>
 7    1  0.3743571E-015  0.9000759E+02  0.7816164E-02  0.1186339E+00
        -11   -1    0    0    0    0  0.00000000000E+00  0.00000000000E+00  0.45593999997E+02  0.45594000000E+02  0.51100000000E-03 0.  1.
         11   -1    0    0    0    0 -0.00000000000E+00 -0.00000000000E+00 -0.45593999997E+02  0.45594000000E+02  0.51100000000E-03 0. -1.
    9900012    2    1    2    0    0 -0.74049000122E-01 -0.69254948719E+00 -0.95303069334E+00  0.90007586704E+02  0.89999846048E+02 0.  0.
        -12    1    1    2    0    0  0.74049000122E-01  0.69254948719E+00  0.95303069334E+00  0.11804132959E+01  0.00000000000E+00 0.  1.
         11    1    3    3    0    0  0.49897146377E+01  0.44989790830E+01 -0.47652002576E+01  0.82368196964E+01  0.51100000000E-03 0. -1.
        -11    1    3    3    0    0  0.20081544110E+02 -0.27393066107E+02 -0.21101900204E+02  0.39986731263E+02  0.51100000000E-03 0.  1.
         12    1    3    3    0    0 -0.25145307748E+02  0.22201537537E+02  0.24914069768E+02  0.41784035745E+02  0.00000000000E+00 0. -1.
</event>
<event>
 7    1  0.5443988E-015  0.9000773E+02  0.7816164E-02  0.1186339E+00
        -11   -1    0    0    0    0  0.00000000000E+00  0.00000000000E+00  0.45593999997E+02  0.45594000000E+02  0.51100000000E-03 0.  1.
         11   -1    0    0    0    0 -0.00000000000E+00 -0.00000000000E+00 -0.45593999997E+02  0.45594000000E+02  0.51100000000E-03 0. -1.
    9900012    2    1    2    0    0  0.65730082291E+00 -0.72433986595E+00  0.66054093419E+00  0.90007734378E+02  0.89999995672E+02 0.  0.
        -12    1    1    2    0    0 -0.65730082291E+00  0.72433986595E+00 -0.66054093419E+00  0.11802656222E+01  0.00000000000E+00 0.  1.
         11    1    3    3    0    0 -0.23814841221E+01  0.31135532629E+02  0.19024481473E+02  0.36565335419E+02  0.51100000000E-03 0. -1.
        -11    1    3    3    0    0 -0.49756711157E+01  0.27759147355E+01  0.75432080363E+01  0.94532001676E+01  0.51100000000E-03 0.  1.
        -12    1    3    3    0    0  0.80144560606E+01 -0.34635787230E+02 -0.25907148575E+02  0.43989198791E+02  0.00000000000E+00 0.  1.
</event>
<event>
 7    1  0.3743571E-015  0.9000750E+02  0.7816164E-02  0.1186340E+00
        -11   -1    0    0    0    0  0.00000000000E+00  0.00000000000E+00  0.45593999997E+02  0.45594000000E+02  0.51100000000E-03 0. -1.
         11   -1    0    0    0    0 -0.00000000000E+00 -0.00000000000E+00 -0.45593999997E+02  0.45594000000E+02  0.51100000000E-03 0.  1.
    9900012    2    1    2    0    0  0.18332449353E+00  0.48749692125E-01  0.11651595274E+01  0.90007499629E+02  0.89999757823E+02 0.  0.
        -12    1    1    2    0    0 -0.18332449353E+00 -0.48749692125E-01 -0.11651595274E+01  0.11805003713E+01  0.00000000000E+00 0.  1.
         11    1    3    3    0    0 -0.35285727971E+01  0.67870405745E+01 -0.32732216066E+01  0.83203801410E+01  0.51100000000E-03 0. -1.
        -11    1    3    3    0    0 -0.98452769206E+01 -0.27375884694E+02 -0.28363142087E+02  0.40630485718E+02  0.51100000000E-03 0.  1.
         12    1    3    3    0    0  0.13557174211E+02  0.20637593811E+02  0.32801523221E+02  0.41056633770E+02  0.00000000000E+00 0. -1.
</event>
<event>
 7    1  0.3743571E-015  0.9000777E+02  0.7816164E-02  0.1186339E+00
        -11   -1    0    0    0    0  0.00000000000E+00  0.00000000000E+00  0.45593999997E+02  0.45594000000E+02  0.51100000000E-03 0.  1.
         11   -1    0    0    0    0 -0.00000000000E+00 -0.00000000000E+00 -0.45593999997E+02  0.45594000000E+02  0.51100000000E-03 0. -1.
    9900012    2    1    2    0    0 -0.99684287978E+00 -0.40098894215E+00  0.48833047658E+00  0.90007765060E+02  0.90000026759E+02 0.  0.
        -12    1    1    2    0    0  0.99684287978E+00  0.40098894215E+00 -0.48833047658E+00  0.11802349398E+01  0.00000000000E+00 0.  1.
         11    1    3    3    0    0 -0.23060809597E+01  0.19504381661E+01 -0.86138084932E+01  0.91279743345E+01  0.51100000000E-03 0. -1.
        -11    1    3    3    0    0 -0.35112765355E+02 -0.10142645547E+02 -0.11500877939E+02  0.38315137259E+02  0.51100000000E-03 0.  1.
         12    1    3    3    0    0  0.36422003435E+02  0.77912184386E+01  0.20603016909E+02  0.42564653466E+02  0.00000000000E+00 0. -1.
</event>
<event>
 7    1  0.7046965E-015  0.9000777E+02  0.7816164E-02  0.1186339E+00
        -11   -1    0    0    0    0  0.00000000000E+00  0.00000000000E+00  0.45593999997E+02  0.45594000000E+02  0.51100000000E-03 0. -1.
         11   -1    0    0    0    0 -0.00000000000E+00 -0.00000000000E+00 -0.45593999997E+02  0.45594000000E+02  0.51100000000E-03 0.  1.
    9900012    2    1    2    0    0 -0.96281400055E+00  0.51373507561E+00  0.44945289954E+00  0.90007770176E+02  0.90000031943E+02 0.  0.
        -12    1    1    2    0    0  0.96281400055E+00 -0.51373507561E+00 -0.44945289954E+00  0.11802298236E+01  0.00000000000E+00 0.  1.
         11    1    3    3    0    0  0.54575299318E+01 -0.16422130472E+02  0.37057440155E+02  0.40898959318E+02  0.51100000000E-03 0. -1.
        -11    1    3    3    0    0  0.18696606287E+01  0.93321166774E+01  0.12643264837E+01  0.96011746295E+01  0.51100000000E-03 0.  1.
        -12    1    3    3    0    0 -0.82900045611E+01  0.76037488705E+01 -0.37872313739E+02  0.39507636229E+02  0.00000000000E+00 0.  1.
</event>
<event>
 7    1  0.3743571E-015  0.9000774E+02  0.7816164E-02  0.1186339E+00
        -11   -1    0    0    0    0  0.00000000000E+00  0.00000000000E+00  0.45593999997E+02  0.45594000000E+02  0.51100000000E-03 0.  1.
         11   -1    0    0    0    0 -0.00000000000E+00 -0.00000000000E+00 -0.45593999997E+02  0.45594000000E+02  0.51100000000E-03 0. -1.
    9900012    2    1    2    0    0 -0.23019856110E+00 -0.23362425989E+00 -0.11337750385E+01  0.90007738372E+02  0.89999999719E+02 0.  0.
        -12    1    1    2    0    0  0.23019856110E+00  0.23362425989E+00  0.11337750385E+01  0.11802616278E+01  0.00000000000E+00 0.  1.
         11    1    3    3    0    0 -0.14781853577E+01  0.38727726833E+02 -0.16592851028E+02  0.42158564529E+02  0.51100000000E-03 0. -1.
        -11    1    3    3    0    0 -0.74953123243E+01 -0.27319456244E+01  0.20067103843E+01  0.82261850551E+01  0.51100000000E-03 0.  1.
        -12    1    3    3    0    0  0.87432991209E+01 -0.36229405469E+02  0.13452365605E+02  0.39622988788E+02  0.00000000000E+00 0.  1.
</event>
<event>
 7    1  0.3743571E-015  0.9000778E+02  0.7816164E-02  0.1186339E+00
        -11   -1    0    0    0    0  0.00000000000E+00  0.00000000000E+00  0.45593999997E+02  0.45594000000E+02  0.51100000000E-03 0.  1.
         11   -1    0    0    0    0 -0.00000000000E+00 -0.00000000000E+00 -0.45593999997E+02  0.45594000000E+02  0.51100000000E-03 0. -1.
    9900012    2    1    2    0    0  0.21147502162E+00  0.97890605366E+00 -0.62444745653E+00  0.90007782489E+02  0.90000044418E+02 0.  0.
        -12    1    1    2    0    0 -0.21147502162E+00 -0.97890605366E+00  0.62444745653E+00  0.11802175107E+01  0.00000000000E+00 0.  1.
         11    1    3    3    0    0  0.22437884086E+02 -0.14140634251E+02  0.59390620720E+01  0.27178827013E+02  0.51100000000E-03 0. -1.
        -11    1    3    3    0    0  0.11647084399E+02 -0.74086126752E+01  0.11833469953E+02  0.18181670115E+02  0.51100000000E-03 0.  1.
         12    1    3    3    0    0 -0.33873493463E+02  0.22528152979E+02 -0.18396979482E+02  0.44647285361E+02  0.00000000000E+00 0. -1.
</event>
<event>
 7    1  0.3743571E-015  0.9000774E+02  0.7816164E-02  0.1186339E+00
        -11   -1    0    0    0    0  0.00000000000E+00  0.00000000000E+00  0.45593999997E+02  0.45594000000E+02  0.51100000000E-03 0. -1.
         11   -1    0    0    0    0 -0.00000000000E+00 -0.00000000000E+00 -0.45593999997E+02  0.45594000000E+02  0.51100000000E-03 0.  1.
    9900012    2    1    2    0    0 -0.11086178803E+01 -0.21000391418E+00 -0.34623917750E+00  0.90007738666E+02  0.90000000016E+02 0.  0.
        -12    1    1    2    0    0  0.11086178803E+01  0.21000391418E+00  0.34623917750E+00  0.11802613340E+01  0.00000000000E+00 0.  1.
         11    1    3    3    0    0 -0.68954676529E+01  0.77449583172E+01  0.31803195155E+01  0.10846487264E+02  0.51100000000E-03 0. -1.
        -11    1    3    3    0    0 -0.36141463781E+02 -0.37757371767E+01 -0.65221101872E+01  0.36918823343E+02  0.51100000000E-03 0.  1.
         12    1    3    3    0    0  0.41928313554E+02 -0.41792250547E+01  0.29955514942E+01  0.42242428059E+02  0.00000000000E+00 0. -1.
</event>
<event>
 7    1  0.3743571E-015  0.9000774E+02  0.7816164E-02  0.1186339E+00
        -11   -1    0    0    0    0  0.00000000000E+00  0.00000000000E+00  0.45593999997E+02  0.45594000000E+02  0.51100000000E-03 0.  1.
         11   -1    0    0    0    0 -0.00000000000E+00 -0.00000000000E+00 -0.45593999997E+02  0.45594000000E+02  0.51100000000E-03 0. -1.
    9900012    2    1    2    0    0  0.98247559096E+00  0.54302652180E+00  0.36451340299E+00  0.90007743201E+02  0.90000004611E+02 0.  0.
        -12    1    1    2    0    0 -0.98247559096E+00 -0.54302652180E+00 -0.36451340299E+00  0.11802567988E+01  0.00000000000E+00 0.  1.
         11    1    3    3    0    0  0.25240242636E+02  0.10597965855E+02 -0.32521771519E+02  0.42509438382E+02  0.51100000000E-03 0. -1.
        -11    1    3    3    0    0 -0.12239822540E+01 -0.90738912192E+01  0.27606373138E+01  0.95631978468E+01  0.51100000000E-03 0.  1.
        -12    1    3    3    0    0 -0.23033784791E+02 -0.98104811373E+00  0.30125647608E+02  0.37935106972E+02  0.00000000000E+00 0.  1.
</event>
<event>
 7    1  0.3743571E-015  0.9000772E+02  0.7816164E-02  0.1186339E+00
        -11   -1    0    0    0    0  0.00000000000E+00  0.00000000000E+00  0.45593999997E+02  0.45594000000E+02  0.51100000000E-03 0. -1.
         11   -1    0    0    0    0 -0.00000000000E+00 -0.00000000000E+00 -0.45593999997E+02  0.45594000000E+02  0.51100000000E-03 0.  1.
    9900012    2    1    2    0    0  0.89474237597E+00  0.48771485492E+00  0.59550260790E+00  0.90007723314E+02  0.89999984462E+02 0.  0.
        -12    1    1    2    0    0 -0.89474237597E+00 -0.48771485492E+00 -0.59550260790E+00  0.11802766858E+01  0.00000000000E+00 0.  1.
         11    1    3    3    0    0 -0.69589503615E+01  0.33366877696E+01 -0.62344383586E+01  0.99211237929E+01  0.51100000000E-03 0. -1.
        -11    1    3    3    0    0 -0.15713649516E+02  0.31103461074E+02 -0.87301430715E+01  0.35924357618E+02  0.51100000000E-03 0.  1.
         12    1    3    3    0    0  0.23567342254E+02 -0.33952433989E+02  0.15560084038E+02  0.44162241904E+02  0.00000000000E+00 0. -1.
</event>
<event>
 7    1  0.3743571E-015  0.9000771E+02  0.7816164E-02  0.1186339E+00
        -11   -1    0    0    0    0  0.00000000000E+00  0.00000000000E+00  0.45593999997E+02  0.45594000000E+02  0.51100000000E-03 0.  1.
         11   -1    0    0    0    0 -0.00000000000E+00 -0.00000000000E+00 -0.45593999997E+02  0.45594000000E+02  0.51100000000E-03 0. -1.
    9900012    2    1    2    0    0 -0.72994174884E+00  0.69278940963E+00 -0.61669030029E+00  0.90007712302E+02  0.89999973305E+02 0.  0.
        -12    1    1    2    0    0  0.72994174884E+00 -0.69278940963E+00  0.61669030029E+00  0.11802876977E+01  0.00000000000E+00 0.  1.
         11    1    3    3    0    0  0.33081914293E+02  0.65283658815E+01 -0.12971390589E+02  0.36128791682E+02  0.51100000000E-03 0. -1.
        -11    1    3    3    0    0  0.82612530202E+01  0.25725953080E+01  0.59441647629E+01  0.10497601777E+02  0.51100000000E-03 0.  1.
        -12    1    3    3    0    0 -0.42073109062E+02 -0.84081717799E+01  0.64105355255E+01  0.43381318843E+02  0.00000000000E+00 0.  1.
</event>
<event>
 7    1  0.3743571E-015  0.9000768E+02  0.7816164E-02  0.1186339E+00
        -11   -1    0    0    0    0  0.00000000000E+00  0.00000000000E+00  0.45593999997E+02  0.45594000000E+02  0.51100000000E-03 0.  1.
         11   -1    0    0    0    0 -0.00000000000E+00 -0.00000000000E+00 -0.45593999997E+02  0.45594000000E+02  0.51100000000E-03 0. -1.
    9900012    2    1    2    0    0  0.25957029349E+00 -0.15837673456E+00 -0.11404788897E+01  0.90007681388E+02  0.89999941983E+02 0.  0.
        -12    1    1    2    0    0 -0.25957029349E+00  0.15837673456E+00  0.11404788897E+01  0.11803186117E+01  0.00000000000E+00 0.  1.
         11    1    3    3    0    0 -0.99653583528E+01 -0.86644326777E+01  0.16112308576E+00  0.13206313704E+02  0.51100000000E-03 0. -1.
        -11    1    3    3    0    0  0.17130992952E+02 -0.31611979367E+02 -0.28127604923E+01  0.36065215664E+02  0.51100000000E-03 0.  1.
         12    1    3    3    0    0 -0.69060643058E+01  0.40118035311E+02  0.15111585169E+01  0.40736152021E+02  0.00000000000E+00 0. -1.
</event>
<event>
 7    1  0.3743571E-015  0.9000775E+02  0.7816164E-02  0.1186339E+00
        -11   -1    0    0    0    0  0.00000000000E+00  0.00000000000E+00  0.45593999997E+02  0.45594000000E+02  0.51100000000E-03 0.  1.
         11   -1    0    0    0    0 -0.00000000000E+00 -0.00000000000E+00 -0.45593999997E+02  0.45594000000E+02  0.51100000000E-03 0. -1.
    9900012    2    1    2    0    0  0.80112688527E+00 -0.17214288928E+00  0.84944261433E+00  0.90007749935E+02  0.90000011434E+02 0.  0.
        -12    1    1    2    0    0 -0.80112688527E+00  0.17214288928E+00 -0.84944261433E+00  0.11802500649E+01  0.00000000000E+00 0.  1.
         11    1    3    3    0    0 -0.94942283533E+01 -0.15628707178E+01 -0.23006800357E+01  0.98932333336E+01  0.51100000000E-03 0. -1.
        -11    1    3    3    0    0 -0.19385968963E+02  0.24955420268E+02  0.21285444521E+02  0.38100642280E+02  0.51100000000E-03 0.  1.
         12    1    3    3    0    0  0.29681324202E+02 -0.23564692440E+02 -0.18135321871E+02  0.42013874322E+02  0.00000000000E+00 0. -1.
</event>
<event>
 7    1  0.3743571E-015  0.9000774E+02  0.7816164E-02  0.1186339E+00
        -11   -1    0    0    0    0  0.00000000000E+00  0.00000000000E+00  0.45593999997E+02  0.45594000000E+02  0.51100000000E-03 0.  1.
         11   -1    0    0    0    0 -0.00000000000E+00 -0.00000000000E+00 -0.45593999997E+02  0.45594000000E+02  0.51100000000E-03 0. -1.
    9900012    2    1    2    0    0 -0.68479218663E+00 -0.75934797463E+00 -0.58945729374E+00  0.90007741729E+02  0.90000003120E+02 0.  0.
        -12    1    1    2    0    0  0.68479218663E+00  0.75934797463E+00  0.58945729374E+00  0.11802582711E+01  0.00000000000E+00 0.  1.
         11    1    3    3    0    0 -0.25001519301E+02  0.21330660849E+02  0.12132773189E+02  0.35032516968E+02  0.51100000000E-03 0. -1.
        -11    1    3    3    0    0 -0.24732676810E+01 -0.51088306060E+01 -0.21360255033E+02  0.22101531587E+02  0.51100000000E-03 0.  1.
        -12    1    3    3    0    0  0.26789994795E+02 -0.16981178217E+02  0.86380245504E+01  0.32873693174E+02  0.00000000000E+00 0.  1.
</event>
<event>
 7    1  0.3743571E-015  0.9000759E+02  0.7816164E-02  0.1186339E+00
        -11   -1    0    0    0    0  0.00000000000E+00  0.00000000000E+00  0.45593999997E+02  0.45594000000E+02  0.51100000000E-03 0. -1.
         11   -1    0    0    0    0 -0.00000000000E+00 -0.00000000000E+00 -0.45593999997E+02  0.45594000000E+02  0.51100000000E-03 0.  1.
    9900012    2    1    2    0    0 -0.10916720043E+01  0.19609066286E+00 -0.40395117276E+00  0.90007586571E+02  0.89999845914E+02 0.  0.
        -12    1    1    2    0    0  0.10916720043E+01 -0.19609066286E+00  0.40395117276E+00  0.11804134288E+01  0.00000000000E+00 0.  1.
         11    1    3    3    0    0 -0.28909867677E+00  0.95808915450E+01  0.22741236278E+01  0.98513298279E+01  0.51100000000E-03 0. -1.
        -11    1    3    3    0    0 -0.28151870462E+02 -0.28612323871E+02  0.14362811921E+02  0.42631951097E+02  0.51100000000E-03 0.  1.
         12    1    3    3    0    0  0.27349297134E+02  0.19227522989E+02 -0.17040886721E+02  0.37524305647E+02  0.00000000000E+00 0. -1.
</event>
<event>
 7    1  0.3743571E-015  0.9000776E+02  0.7816164E-02  0.1186339E+00
        -11   -1    0    0    0    0  0.00000000000E+00  0.00000000000E+00  0.45593999997E+02  0.45594000000E+02  0.51100000000E-03 0. -1.
         11   -1    0    0    0    0 -0.00000000000E+00 -0.00000000000E+00 -0.45593999997E+02  0.45594000000E+02  0.51100000000E-03 0.  1.
    9900012    2    1    2    0    0 -0.30647635295E+00 -0.22296851615E+00  0.11177279131E+01  0.90007763413E+02  0.90000025090E+02 0.  0.
        -12    1    1    2    0    0  0.30647635295E+00  0.22296851615E+00 -0.11177279131E+01  0.11802365872E+01  0.00000000000E+00 0.  1.
         11    1    3    3    0    0 -0.27637089968E+02 -0.13660307019E+02  0.26524524163E+02  0.40668945303E+02  0.51100000000E-03 0. -1.
        -11    1    3    3    0    0  0.93043865165E+01 -0.72495673514E+01  0.21506249205E+00  0.11797206761E+02  0.51100000000E-03 0.  1.
        -12    1    3    3    0    0  0.18026227099E+02  0.20686905854E+02 -0.25621858742E+02  0.37541611348E+02  0.00000000000E+00 0.  1.
</event>
<event>
 7    1  0.3743571E-015  0.9000764E+02  0.7816164E-02  0.1186339E+00
        -11   -1    0    0    0    0  0.00000000000E+00  0.00000000000E+00  0.45593999997E+02  0.45594000000E+02  0.51100000000E-03 0.  1.
         11   -1    0    0    0    0 -0.00000000000E+00 -0.00000000000E+00 -0.45593999997E+02  0.45594000000E+02  0.51100000000E-03 0. -1.
    9900012    2    1    2    0    0 -0.78788257553E+00 -0.56094943284E-01 -0.87711866548E+00  0.90007642957E+02  0.89999903044E+02 0.  0.
        -12    1    1    2    0    0  0.78788257553E+00  0.56094943284E-01  0.87711866548E+00  0.11803570429E+01  0.00000000000E+00 0.  1.
         11    1    3    3    0    0 -0.19563201468E+02 -0.16951262570E+02  0.29802678254E+02  0.39474850041E+02  0.51100000000E-03 0. -1.
        -11    1    3    3    0    0 -0.38544542904E+01  0.72253132189E+01  0.30854932574E+01  0.87511278068E+01  0.51100000000E-03 0.  1.
        -12    1    3    3    0    0  0.22629773183E+02  0.96698544075E+01 -0.33765290177E+02  0.41781665109E+02  0.00000000000E+00 0.  1.
</event>
<event>
 7    1  0.3743571E-015  0.9000784E+02  0.7816164E-02  0.1186339E+00
        -11   -1    0    0    0    0  0.00000000000E+00  0.00000000000E+00  0.45593999997E+02  0.45594000000E+02  0.51100000000E-03 0. -1.
         11   -1    0    0    0    0 -0.00000000000E+00 -0.00000000000E+00 -0.45593999997E+02  0.45594000000E+02  0.51100000000E-03 0.  1.
    9900012    2    1    2    0    0  0.10948561485E+01  0.38157841753E+00  0.22016933173E+00  0.90007836194E+02  0.90000098832E+02 0.  0.
        -12    1    1    2    0    0 -0.10948561485E+01 -0.38157841753E+00 -0.22016933173E+00  0.11801638061E+01  0.00000000000E+00 0.  1.
         11    1    3    3    0    0  0.29533268958E+02  0.89119053675E+01 -0.25794630009E+02  0.40211925721E+02  0.51100000000E-03 0. -1.
        -11    1    3    3    0    0 -0.13000050377E+01  0.93386726284E+01  0.27128935588E+01  0.98112492213E+01  0.51100000000E-03 0.  1.
        -12    1    3    3    0    0 -0.27138407772E+02 -0.17868999578E+02  0.23301905782E+02  0.39984661252E+02  0.00000000000E+00 0.  1.
</event>
<event>
 7    1  0.3743571E-015  0.9000802E+02  0.7816164E-02  0.1186338E+00
        -11   -1    0    0    0    0  0.00000000000E+00  0.00000000000E+00  0.45593999997E+02  0.45594000000E+02  0.51100000000E-03 0.  1.
         11   -1    0    0    0    0 -0.00000000000E+00 -0.00000000000E+00 -0.45593999997E+02  0.45594000000E+02  0.51100000000E-03 0. -1.
    9900012    2    1    2    0    0 -0.62837415202E-01 -0.11751557833E+01 -0.86068478484E-01  0.90008022272E+02  0.90000287365E+02 0.  0.
        -12    1    1    2    0    0  0.62837415202E-01  0.11751557833E+01  0.86068478484E-01  0.11799777281E+01  0.00000000000E+00 0.  1.
         11    1    3    3    0    0  0.12352105932E+00  0.75292531283E+01  0.54100747891E+01  0.92722068359E+01  0.51100000000E-03 0. -1.
        -11    1    3    3    0    0  0.14156941273E+02  0.86659965168E+01  0.32540196290E+02  0.36529205531E+02  0.51100000000E-03 0.  1.
         12    1    3    3    0    0 -0.14343299748E+02 -0.17370405428E+02 -0.38036339557E+02  0.44206609906E+02  0.00000000000E+00 0. -1.
</event>
<event>
 7    1  0.3743571E-015  0.9000771E+02  0.7816164E-02  0.1186339E+00
        -11   -1    0    0    0    0  0.00000000000E+00  0.00000000000E+00  0.45593999997E+02  0.45594000000E+02  0.51100000000E-03 0. -1.
         11   -1    0    0    0    0 -0.00000000000E+00 -0.00000000000E+00 -0.45593999997E+02  0.45594000000E+02  0.51100000000E-03 0.  1.
    9900012    2    1    2    0    0 -0.38711556501E+00  0.42265967025E+00  0.10317828134E+01  0.90007713835E+02  0.89999974858E+02 0.  0.
        -12    1    1    2    0    0  0.38711556501E+00 -0.42265967025E+00 -0.10317828134E+01  0.11802861651E+01  0.00000000000E+00 0.  1.
         11    1    3    3    0    0 -0.26258532913E+02  0.50719098317E+00  0.23671965089E+02  0.35357173599E+02  0.51100000000E-03 0. -1.
        -11    1    3    3    0    0 -0.30087792099E+01  0.15691695187E+02 -0.12275290757E+02  0.20148568525E+02  0.51100000000E-03 0.  1.
        -12    1    3    3    0    0  0.28880196558E+02 -0.15776226499E+02 -0.10364891519E+02  0.34501971712E+02  0.00000000000E+00 0.  1.
</event>
<event>
 7    1  0.3743571E-015  0.9000768E+02  0.7816164E-02  0.1186339E+00
        -11   -1    0    0    0    0  0.00000000000E+00  0.00000000000E+00  0.45593999997E+02  0.45594000000E+02  0.51100000000E-03 0. -1.
         11   -1    0    0    0    0 -0.00000000000E+00 -0.00000000000E+00 -0.45593999997E+02  0.45594000000E+02  0.51100000000E-03 0.  1.
    9900012    2    1    2    0    0  0.34586541055E+00  0.10580286238E+01  0.39256327365E+00  0.90007680817E+02  0.89999941403E+02 0.  0.
        -12    1    1    2    0    0 -0.34586541055E+00 -0.10580286238E+01 -0.39256327365E+00  0.11803191834E+01  0.00000000000E+00 0.  1.
         11    1    3    3    0    0 -0.15372805194E+02 -0.62912654419E+01  0.34984950250E+02  0.38727895691E+02  0.51100000000E-03 0. -1.
        -11    1    3    3    0    0 -0.80956487184E+01 -0.87750081597E+00  0.40889155847E+00  0.81533262183E+01  0.51100000000E-03 0.  1.
        -12    1    3    3    0    0  0.23814319323E+02  0.82267948816E+01 -0.35001278535E+02  0.43126458908E+02  0.00000000000E+00 0.  1.
</event>
<event>
 7    1  0.3743571E-015  0.9000796E+02  0.7816164E-02  0.1186339E+00
        -11   -1    0    0    0    0  0.00000000000E+00  0.00000000000E+00  0.45593999997E+02  0.45594000000E+02  0.51100000000E-03 0.  1.
         11   -1    0    0    0    0 -0.00000000000E+00 -0.00000000000E+00 -0.45593999997E+02  0.45594000000E+02  0.51100000000E-03 0. -1.
    9900012    2    1    2    0    0  0.35679131475E+00  0.11229468504E+01  0.64751934003E-01  0.90007956575E+02  0.90000220802E+02 0.  0.
        -12    1    1    2    0    0 -0.35679131475E+00 -0.11229468504E+01 -0.64751934003E-01  0.11800434246E+01  0.00000000000E+00 0.  1.
         11    1    3    3    0    0  0.92907184436E+01  0.52722150384E+01 -0.64193023956E+01  0.12462790382E+02  0.51100000000E-03 0. -1.
        -11    1    3    3    0    0  0.40126255165E+01  0.34488821686E+02  0.11295731999E+02  0.36512649130E+02  0.51100000000E-03 0.  1.
         12    1    3    3    0    0 -0.12946552645E+02 -0.38638089874E+02 -0.48116776689E+01  0.41032517063E+02  0.00000000000E+00 0. -1.
</event>
<event>
 7    1  0.3743571E-015  0.9000768E+02  0.7816164E-02  0.1186339E+00
        -11   -1    0    0    0    0  0.00000000000E+00  0.00000000000E+00  0.45593999997E+02  0.45594000000E+02  0.51100000000E-03 0.  1.
         11   -1    0    0    0    0 -0.00000000000E+00 -0.00000000000E+00 -0.45593999997E+02  0.45594000000E+02  0.51100000000E-03 0. -1.
    9900012    2    1    2    0    0 -0.16484358722E+00  0.49196497829E+00 -0.10601640929E+01  0.90007681885E+02  0.89999942486E+02 0.  0.
        -12    1    1    2    0    0  0.16484358722E+00 -0.49196497829E+00  0.10601640929E+01  0.11803181148E+01  0.00000000000E+00 0.  1.
         11    1    3    3    0    0  0.93245471166E+00  0.90625544560E+01 -0.69354865543E+00  0.91367595490E+01  0.51100000000E-03 0. -1.
        -11    1    3    3    0    0 -0.24032597490E+02  0.73699871049E+01  0.30314223012E+02  0.39380636982E+02  0.51100000000E-03 0.  1.
         12    1    3    3    0    0  0.22935299192E+02 -0.15940576583E+02 -0.30680838449E+02  0.41490285354E+02  0.00000000000E+00 0. -1.
</event>
<event>
 7    1  0.3743571E-015  0.9000781E+02  0.7816164E-02  0.1186339E+00
        -11   -1    0    0    0    0  0.00000000000E+00  0.00000000000E+00  0.45593999997E+02  0.45594000000E+02  0.51100000000E-03 0. -1.
         11   -1    0    0    0    0 -0.00000000000E+00 -0.00000000000E+00 -0.45593999997E+02  0.45594000000E+02  0.51100000000E-03 0.  1.
    9900012    2    1    2    0    0 -0.56207155121E-01  0.73960702152E-01  0.11765288226E+01  0.90007809549E+02  0.90000071835E+02 0.  0.
        -12    1    1    2    0    0  0.56207155121E-01 -0.73960702152E-01 -0.11765288226E+01  0.11801904508E+01  0.00000000000E+00 0.  1.
         11    1    3    3    0    0 -0.19607412718E+02 -0.16224389856E+02  0.31823800873E+02  0.40748444903E+02  0.51100000000E-03 0. -1.
        -11    1    3    3    0    0  0.10781332209E+01 -0.79824495120E+01 -0.65017691480E+01  0.10351563832E+02  0.51100000000E-03 0.  1.
        -12    1    3    3    0    0  0.18473072342E+02  0.24280800071E+02 -0.24145502903E+02  0.38907800815E+02  0.00000000000E+00 0.  1.
</event>
<event>
 7    1  0.3743571E-015  0.9000769E+02  0.7816164E-02  0.1186339E+00
        -11   -1    0    0    0    0  0.00000000000E+00  0.00000000000E+00  0.45593999997E+02  0.45594000000E+02  0.51100000000E-03 0.  1.
         11   -1    0    0    0    0 -0.00000000000E+00 -0.00000000000E+00 -0.45593999997E+02  0.45594000000E+02  0.51100000000E-03 0. -1.
    9900012    2    1    2    0    0 -0.27358534169E+00 -0.95184671513E+00 -0.64208149094E+00  0.90007690825E+02  0.89999951544E+02 0.  0.
        -12    1    1    2    0    0  0.27358534169E+00  0.95184671513E+00  0.64208149094E+00  0.11803091753E+01  0.00000000000E+00 0.  1.
         11    1    3    3    0    0  0.18309919035E+02  0.76815088122E+01 -0.23058577170E+02  0.30429536540E+02  0.51100000000E-03 0. -1.
        -11    1    3    3    0    0 -0.45979251728E+01 -0.29531098198E+02  0.98580776478E+01  0.31470754230E+02  0.51100000000E-03 0.  1.
        -12    1    3    3    0    0 -0.13985579204E+02  0.20897742670E+02  0.12558418031E+02  0.28107400054E+02  0.00000000000E+00 0.  1.
</event>
<event>
 7    1  0.3743571E-015  0.9000774E+02  0.7816164E-02  0.1186339E+00
        -11   -1    0    0    0    0  0.00000000000E+00  0.00000000000E+00  0.45593999997E+02  0.45594000000E+02  0.51100000000E-03 0. -1.
         11   -1    0    0    0    0 -0.00000000000E+00 -0.00000000000E+00 -0.45593999997E+02  0.45594000000E+02  0.51100000000E-03 0.  1.
    9900012    2    1    2    0    0  0.62258192766E+00  0.97506525755E+00 -0.23376470999E+00  0.90007743056E+02  0.90000004465E+02 0.  0.
        -12    1    1    2    0    0 -0.62258192766E+00 -0.97506525755E+00  0.23376470999E+00  0.11802569435E+01  0.00000000000E+00 0.  1.
         11    1    3    3    0    0  0.75723607321E+01 -0.25025983442E+01 -0.58614246393E+01  0.98974716263E+01  0.51100000000E-03 0. -1.
        -11    1    3    3    0    0  0.18043084413E+02  0.67029476998E+01 -0.30497775907E+02  0.36063787079E+02  0.51100000000E-03 0.  1.
         12    1    3    3    0    0 -0.24992863218E+02 -0.32252840980E+01  0.36125435836E+02  0.44046484351E+02  0.00000000000E+00 0. -1.
</event>
<event>
 7    1  0.3743571E-015  0.9000772E+02  0.7816164E-02  0.1186339E+00
        -11   -1    0    0    0    0  0.00000000000E+00  0.00000000000E+00  0.45593999997E+02  0.45594000000E+02  0.51100000000E-03 0.  1.
         11   -1    0    0    0    0 -0.00000000000E+00 -0.00000000000E+00 -0.45593999997E+02  0.45594000000E+02  0.51100000000E-03 0. -1.
    9900012    2    1    2    0    0 -0.35026233201E+00  0.33687781093E+00 -0.10755854898E+01  0.90007722699E+02  0.89999983839E+02 0.  0.
        -12    1    1    2    0    0  0.35026233201E+00 -0.33687781093E+00  0.10755854898E+01  0.11802773007E+01  0.00000000000E+00 0.  1.
         11    1    3    3    0    0 -0.69317629079E+01 -0.70134033472E+01 -0.25199108037E+01  0.10177775506E+02  0.51100000000E-03 0. -1.
        -11    1    3    3    0    0 -0.25188388010E+02 -0.79960417467E+01  0.25819611140E+02  0.36946500427E+02  0.51100000000E-03 0.  1.
         12    1    3    3    0    0  0.31769888586E+02  0.15346322905E+02 -0.24375285826E+02  0.42883446766E+02  0.00000000000E+00 0. -1.
</event>
<event>
 7    1  0.3743571E-015  0.9000859E+02  0.7816164E-02  0.1186337E+00
        -11   -1    0    0    0    0  0.00000000000E+00  0.00000000000E+00  0.45593999997E+02  0.45594000000E+02  0.51100000000E-03 0.  1.
         11   -1    0    0    0    0 -0.00000000000E+00 -0.00000000000E+00 -0.45593999997E+02  0.45594000000E+02  0.51100000000E-03 0. -1.
    9900012    2    1    2    0    0 -0.67104073751E+00  0.38447763459E+00 -0.89044725981E+00  0.90008586991E+02  0.90000859535E+02 0.  0.
        -12    1    1    2    0    0  0.67104073751E+00 -0.38447763459E+00  0.89044725981E+00  0.11794130088E+01  0.00000000000E+00 0.  1.
         11    1    3    3    0    0  0.63460109989E-01  0.12749522978E+02  0.32519647450E+00  0.12753827518E+02  0.51100000000E-03 0. -1.
        -11    1    3    3    0    0  0.15141974378E+02 -0.42476050709E+01  0.34178320077E+02  0.37622853433E+02  0.51100000000E-03 0.  1.
         12    1    3    3    0    0 -0.15876475225E+02 -0.81174402723E+01 -0.35393963811E+02  0.39631906041E+02  0.00000000000E+00 0. -1.
</event>
<event>
 7    1  0.3743571E-015  0.9000773E+02  0.7816164E-02  0.1186339E+00
        -11   -1    0    0    0    0  0.00000000000E+00  0.00000000000E+00  0.45593999997E+02  0.45594000000E+02  0.51100000000E-03 0.  1.
         11   -1    0    0    0    0 -0.00000000000E+00 -0.00000000000E+00 -0.45593999997E+02  0.45594000000E+02  0.51100000000E-03 0. -1.
    9900012    2    1    2    0    0 -0.91760236389E+00  0.73080646108E+00  0.13028557831E+00  0.90007726085E+02  0.89999987270E+02 0.  0.
        -12    1    1    2    0    0  0.91760236389E+00 -0.73080646108E+00 -0.13028557831E+00  0.11802739147E+01  0.00000000000E+00 0.  1.
         11    1    3    3    0    0 -0.33885434490E+02 -0.18763276526E+02 -0.10373557113E+02  0.40098552393E+02  0.51100000000E-03 0. -1.
        -11    1    3    3    0    0 -0.39182450131E+01  0.94295950065E+01 -0.17018490665E+00  0.10212681780E+02  0.51100000000E-03 0.  1.
        -12    1    3    3    0    0  0.36886077139E+02  0.10064487980E+02  0.10674027598E+02  0.39696491913E+02  0.00000000000E+00 0.  1.
</event>
<event>
 7    1  0.3743571E-015  0.9000777E+02  0.7816164E-02  0.1186339E+00
        -11   -1    0    0    0    0  0.00000000000E+00  0.00000000000E+00  0.45593999997E+02  0.45594000000E+02  0.51100000000E-03 0.  1.
         11   -1    0    0    0    0 -0.00000000000E+00 -0.00000000000E+00 -0.45593999997E+02  0.45594000000E+02  0.51100000000E-03 0. -1.
    9900012    2    1    2    0    0  0.86760558826E+00 -0.51921165628E+00 -0.60878199488E+00  0.90007773023E+02  0.90000034827E+02 0.  0.
        -12    1    1    2    0    0 -0.86760558826E+00  0.51921165628E+00  0.60878199488E+00  0.11802269774E+01  0.00000000000E+00 0.  1.
         11    1    3    3    0    0  0.15218043956E+02  0.50031871117E+01 -0.32932668862E+02  0.36622143872E+02  0.51100000000E-03 0. -1.
        -11    1    3    3    0    0 -0.83134187554E+01  0.10392004477E+02 -0.34680529096E+01  0.13752602652E+02  0.51100000000E-03 0.  1.
        -12    1    3    3    0    0 -0.60370196125E+01 -0.15914403245E+02  0.35791939777E+02  0.39633026499E+02  0.00000000000E+00 0.  1.
</event>
<event>
 7    1  0.3743571E-015  0.9000756E+02  0.7816164E-02  0.1186339E+00
        -11   -1    0    0    0    0  0.00000000000E+00  0.00000000000E+00  0.45593999997E+02  0.45594000000E+02  0.51100000000E-03 0. -1.
         11   -1    0    0    0    0 -0.00000000000E+00 -0.00000000000E+00 -0.45593999997E+02  0.45594000000E+02  0.51100000000E-03 0.  1.
    9900012    2    1    2    0    0 -0.10875022502E+01  0.23740967094E-01  0.45849396458E+00  0.90007558772E+02  0.89999817747E+02 0.  0.
        -12    1    1    2    0    0  0.10875022502E+01 -0.23740967094E-01 -0.45849396458E+00  0.11804412283E+01  0.00000000000E+00 0.  1.
         11    1    3    3    0    0  0.73100762122E+01  0.25737754968E+01 -0.88094911672E+01  0.11733229284E+02  0.51100000000E-03 0. -1.
        -11    1    3    3    0    0 -0.18859214616E+02  0.32927868099E+02 -0.57008149765E+01  0.38372044057E+02  0.51100000000E-03 0.  1.
         12    1    3    3    0    0  0.10461636153E+02 -0.35477902629E+02  0.14968800108E+02  0.39902285431E+02  0.00000000000E+00 0. -1.
</event>
<event>
 7    1  0.3743571E-015  0.9000765E+02  0.7816164E-02  0.1186339E+00
        -11   -1    0    0    0    0  0.00000000000E+00  0.00000000000E+00  0.45593999997E+02  0.45594000000E+02  0.51100000000E-03 0.  1.
         11   -1    0    0    0    0 -0.00000000000E+00 -0.00000000000E+00 -0.45593999997E+02  0.45594000000E+02  0.51100000000E-03 0. -1.
    9900012    2    1    2    0    0 -0.42013534136E+00 -0.10806010459E+01  0.22139527245E+00  0.90007649123E+02  0.89999909292E+02 0.  0.
        -12    1    1    2    0    0  0.42013534136E+00  0.10806010459E+01 -0.22139527245E+00  0.11803508767E+01  0.00000000000E+00 0.  1.
         11    1    3    3    0    0 -0.31234511026E+01 -0.27949488958E+02 -0.23699471739E+02  0.36777640500E+02  0.51100000000E-03 0. -1.
        -11    1    3    3    0    0  0.64582438795E+01 -0.61319080342E+01 -0.40728287572E+01  0.97927087414E+01  0.51100000000E-03 0.  1.
        -12    1    3    3    0    0 -0.37549281182E+01  0.33000795946E+02  0.27993695769E+02  0.43437299882E+02  0.00000000000E+00 0.  1.
</event>
<event>
 7    1  0.3743571E-015  0.9000776E+02  0.7816164E-02  0.1186339E+00
        -11   -1    0    0    0    0  0.00000000000E+00  0.00000000000E+00  0.45593999997E+02  0.45594000000E+02  0.51100000000E-03 0.  1.
         11   -1    0    0    0    0 -0.00000000000E+00 -0.00000000000E+00 -0.45593999997E+02  0.45594000000E+02  0.51100000000E-03 0. -1.
    9900012    2    1    2    0    0  0.10052386073E+01 -0.84829215498E-01 -0.61259099554E+00  0.90007759185E+02  0.90000020806E+02 0.  0.
        -12    1    1    2    0    0 -0.10052386073E+01  0.84829215498E-01  0.61259099554E+00  0.11802408149E+01  0.00000000000E+00 0.  1.
         11    1    3    3    0    0  0.73067901996E+01  0.26752912694E+01 -0.53495051984E+01  0.94426464789E+01  0.51100000000E-03 0. -1.
        -11    1    3    3    0    0  0.25903144917E+02  0.26252035055E+02 -0.65104613226E+00  0.36885852606E+02  0.51100000000E-03 0.  1.
         12    1    3    3    0    0 -0.32204696509E+02 -0.29012155540E+02  0.53879603351E+01  0.43679260100E+02  0.00000000000E+00 0. -1.
</event>
<event>
 7    1  0.3743571E-015  0.9000770E+02  0.7816164E-02  0.1186339E+00
        -11   -1    0    0    0    0  0.00000000000E+00  0.00000000000E+00  0.45593999997E+02  0.45594000000E+02  0.51100000000E-03 0. -1.
         11   -1    0    0    0    0 -0.00000000000E+00 -0.00000000000E+00 -0.45593999997E+02  0.45594000000E+02  0.51100000000E-03 0.  1.
    9900012    2    1    2    0    0  0.84628612286E+00 -0.66325895221E+00 -0.48682792217E+00  0.90007697469E+02  0.89999958275E+02 0.  0.
        -12    1    1    2    0    0 -0.84628612286E+00  0.66325895221E+00  0.48682792217E+00  0.11803025312E+01  0.00000000000E+00 0.  1.
         11    1    3    3    0    0 -0.24437510967E+01 -0.11892820004E+02  0.42771150552E+02  0.44461021208E+02  0.51100000000E-03 0. -1.
        -11    1    3    3    0    0 -0.23840687801E+01  0.33409568130E+01 -0.82423622927E+01  0.92077311429E+01  0.51100000000E-03 0.  1.
        -12    1    3    3    0    0  0.56741059997E+01  0.78886042393E+01 -0.35015616181E+02  0.36338945118E+02  0.00000000000E+00 0.  1.
</event>
<event>
 7    1  0.3743571E-015  0.9000775E+02  0.7816164E-02  0.1186339E+00
        -11   -1    0    0    0    0  0.00000000000E+00  0.00000000000E+00  0.45593999997E+02  0.45594000000E+02  0.51100000000E-03 0.  1.
         11   -1    0    0    0    0 -0.00000000000E+00 -0.00000000000E+00 -0.45593999997E+02  0.45594000000E+02  0.51100000000E-03 0. -1.
    9900012    2    1    2    0    0  0.21468404233E+00 -0.68468047866E+00 -0.93708117430E+00  0.90007746755E+02  0.90000008212E+02 0.  0.
        -12    1    1    2    0    0 -0.21468404233E+00  0.68468047866E+00  0.93708117430E+00  0.11802532453E+01  0.00000000000E+00 0.  1.
         11    1    3    3    0    0 -0.84775563871E+01 -0.31263442916E+02 -0.21658416805E+02  0.38966124314E+02  0.51100000000E-03 0. -1.
        -11    1    3    3    0    0 -0.11838825812E+02  0.42787113011E+01  0.18903465668E+01  0.12729437435E+02  0.51100000000E-03 0.  1.
        -12    1    3    3    0    0  0.20531066241E+02  0.26300051136E+02  0.18830989064E+02  0.38312185006E+02  0.00000000000E+00 0.  1.
</event>
<event>
 7    1  0.3743571E-015  0.9000779E+02  0.7816164E-02  0.1186339E+00
        -11   -1    0    0    0    0  0.00000000000E+00  0.00000000000E+00  0.45593999997E+02  0.45594000000E+02  0.51100000000E-03 0.  1.
         11   -1    0    0    0    0 -0.00000000000E+00 -0.00000000000E+00 -0.45593999997E+02  0.45594000000E+02  0.51100000000E-03 0. -1.
    9900012    2    1    2    0    0 -0.31049572480E+00 -0.30442377746E+00 -0.10971865984E+01  0.90007788213E+02  0.90000050217E+02 0.  0.
        -12    1    1    2    0    0  0.31049572480E+00  0.30442377746E+00  0.10971865984E+01  0.11802117874E+01  0.00000000000E+00 0.  1.
         11    1    3    3    0    0 -0.15680012904E+02 -0.19388042163E+02 -0.38181429062E+01  0.25225724946E+02  0.51100000000E-03 0. -1.
        -11    1    3    3    0    0 -0.17278037835E+01 -0.20812735763E+02  0.44052909007E+01  0.21343895240E+02  0.51100000000E-03 0.  1.
        -12    1    3    3    0    0  0.17097320962E+02  0.39896354148E+02 -0.16843345929E+01  0.43438168026E+02  0.00000000000E+00 0.  1.
</event>
<event>
 7    1  0.3743571E-015  0.9000769E+02  0.7816164E-02  0.1186339E+00
        -11   -1    0    0    0    0  0.00000000000E+00  0.00000000000E+00  0.45593999997E+02  0.45594000000E+02  0.51100000000E-03 0.  1.
         11   -1    0    0    0    0 -0.00000000000E+00 -0.00000000000E+00 -0.45593999997E+02  0.45594000000E+02  0.51100000000E-03 0. -1.
    9900012    2    1    2    0    0 -0.66951600067E+00 -0.96766433712E+00 -0.92234790999E-01  0.90007689362E+02  0.89999950062E+02 0.  0.
        -12    1    1    2    0    0  0.66951600067E+00  0.96766433712E+00  0.92234790999E-01  0.11803106376E+01  0.00000000000E+00 0.  1.
         11    1    3    3    0    0  0.20050988695E+01  0.90992046615E+01  0.24510484124E+01  0.96344997550E+01  0.51100000000E-03 0. -1.
        -11    1    3    3    0    0  0.38481519261E+01  0.27509014041E+02  0.21642514917E+02  0.35212960383E+02  0.51100000000E-03 0.  1.
         12    1    3    3    0    0 -0.65227667963E+01 -0.37575883039E+02 -0.24185798121E+02  0.45160229224E+02  0.00000000000E+00 0. -1.
</event>
<event>
 7    1  0.3743571E-015  0.9000781E+02  0.7816164E-02  0.1186339E+00
        -11   -1    0    0    0    0  0.00000000000E+00  0.00000000000E+00  0.45593999997E+02  0.45594000000E+02  0.51100000000E-03 0.  1.
         11   -1    0    0    0    0 -0.00000000000E+00 -0.00000000000E+00 -0.45593999997E+02  0.45594000000E+02  0.51100000000E-03 0. -1.
    9900012    2    1    2    0    0 -0.46705183849E+00  0.33579847634E+00 -0.10305071314E+01  0.90007812310E+02  0.90000074632E+02 0.  0.
        -12    1    1    2    0    0  0.46705183849E+00 -0.33579847634E+00  0.10305071314E+01  0.11801876903E+01  0.00000000000E+00 0.  1.
         11    1    3    3    0    0  0.85599893231E+01 -0.12163891786E+02  0.24037284777E+01  0.15066903844E+02  0.51100000000E-03 0. -1.
        -11    1    3    3    0    0 -0.55063175684E+01 -0.28083019469E+02  0.12462779445E+02  0.31213721140E+02  0.51100000000E-03 0.  1.
         12    1    3    3    0    0 -0.35207235932E+01  0.40582709731E+02 -0.15897015054E+02  0.43727187325E+02  0.00000000000E+00 0. -1.
</event>
<event>
 7    1  0.3743571E-015  0.9000766E+02  0.7816164E-02  0.1186339E+00
        -11   -1    0    0    0    0  0.00000000000E+00  0.00000000000E+00  0.45593999997E+02  0.45594000000E+02  0.51100000000E-03 0.  1.
         11   -1    0    0    0    0 -0.00000000000E+00 -0.00000000000E+00 -0.45593999997E+02  0.45594000000E+02  0.51100000000E-03 0. -1.
    9900012    2    1    2    0    0 -0.48925312629E-02 -0.18046518883E-01 -0.11801906194E+01  0.90007661272E+02  0.89999921601E+02 0.  0.
        -12    1    1    2    0    0  0.48925312629E-02  0.18046518883E-01  0.11801906194E+01  0.11803387276E+01  0.00000000000E+00 0.  1.
         11    1    3    3    0    0 -0.20829513919E+02 -0.93975662759E+01 -0.26775785882E+02  0.35201216057E+02  0.51100000000E-03 0. -1.
        -11    1    3    3    0    0 -0.10022285984E+02 -0.76229330655E+01  0.29514347946E+01  0.12933147044E+02  0.51100000000E-03 0.  1.
        -12    1    3    3    0    0  0.30846907372E+02  0.17002452823E+02  0.22644160468E+02  0.41873298171E+02  0.00000000000E+00 0.  1.
</event>
<event>
 7    1  0.3743571E-015  0.9000774E+02  0.7816164E-02  0.1186339E+00
        -11   -1    0    0    0    0  0.00000000000E+00  0.00000000000E+00  0.45593999997E+02  0.45594000000E+02  0.51100000000E-03 0.  1.
         11   -1    0    0    0    0 -0.00000000000E+00 -0.00000000000E+00 -0.45593999997E+02  0.45594000000E+02  0.51100000000E-03 0. -1.
    9900012    2    1    2    0    0  0.33105521696E+00  0.11148040725E+01 -0.20155926129E+00  0.90007740786E+02  0.90000002164E+02 0.  0.
        -12    1    1    2    0    0 -0.33105521696E+00 -0.11148040725E+01  0.20155926129E+00  0.11802592141E+01  0.00000000000E+00 0.  1.
         11    1    3    3    0    0 -0.22264902737E+02  0.27955347242E+02 -0.92968564172E+01  0.36927752068E+02  0.51100000000E-03 0. -1.
        -11    1    3    3    0    0 -0.10321880969E+02 -0.22660050712E+01 -0.14558700048E+01  0.10667500338E+02  0.51100000000E-03 0.  1.
        -12    1    3    3    0    0  0.32917838923E+02 -0.24574538098E+02  0.10551167161E+02  0.42412488380E+02  0.00000000000E+00 0.  1.
</event>
<event>
 7    1  0.3743571E-015  0.9000769E+02  0.7816164E-02  0.1186339E+00
        -11   -1    0    0    0    0  0.00000000000E+00  0.00000000000E+00  0.45593999997E+02  0.45594000000E+02  0.51100000000E-03 0.  1.
         11   -1    0    0    0    0 -0.00000000000E+00 -0.00000000000E+00 -0.45593999997E+02  0.45594000000E+02  0.51100000000E-03 0. -1.
    9900012    2    1    2    0    0  0.11231899456E+01  0.13083589480E+00 -0.33833116200E+00  0.90007685779E+02  0.89999946431E+02 0.  0.
        -12    1    1    2    0    0 -0.11231899456E+01 -0.13083589480E+00  0.33833116200E+00  0.11803142210E+01  0.00000000000E+00 0.  1.
         11    1    3    3    0    0 -0.87745396210E+01 -0.40076098137E+01  0.78920038314E+00  0.96786527722E+01  0.51100000000E-03 0. -1.
        -11    1    3    3    0    0 -0.16051584340E+02 -0.29803123287E+02  0.11543594807E+02  0.35764984255E+02  0.51100000000E-03 0.  1.
         12    1    3    3    0    0  0.25949313907E+02  0.33941568995E+02 -0.12671126352E+02  0.44564048751E+02  0.00000000000E+00 0. -1.
</event>
<event>
 7    1  0.3743571E-015  0.9000776E+02  0.7816164E-02  0.1186339E+00
        -11   -1    0    0    0    0  0.00000000000E+00  0.00000000000E+00  0.45593999997E+02  0.45594000000E+02  0.51100000000E-03 0.  1.
         11   -1    0    0    0    0 -0.00000000000E+00 -0.00000000000E+00 -0.45593999997E+02  0.45594000000E+02  0.51100000000E-03 0. -1.
    9900012    2    1    2    0    0 -0.85181101285E+00  0.47414068492E+00 -0.66526885139E+00  0.90007756790E+02  0.90000018379E+02 0.  0.
        -12    1    1    2    0    0  0.85181101285E+00 -0.47414068492E+00  0.66526885139E+00  0.11802432102E+01  0.00000000000E+00 0.  1.
         11    1    3    3    0    0 -0.73301011994E+01 -0.48011117410E+01  0.51451604957E+01  0.10161384469E+02  0.51100000000E-03 0. -1.
        -11    1    3    3    0    0 -0.18347189271E+02  0.26630949787E+02  0.20110246584E+02  0.38082133063E+02  0.51100000000E-03 0.  1.
         12    1    3    3    0    0  0.24825479458E+02 -0.21355697361E+02 -0.25920675931E+02  0.41764239258E+02  0.00000000000E+00 0. -1.
</event>
<event>
 7    1  0.3743571E-015  0.9000774E+02  0.7816164E-02  0.1186339E+00
        -11   -1    0    0    0    0  0.00000000000E+00  0.00000000000E+00  0.45593999997E+02  0.45594000000E+02  0.51100000000E-03 0.  1.
         11   -1    0    0    0    0 -0.00000000000E+00 -0.00000000000E+00 -0.45593999997E+02  0.45594000000E+02  0.51100000000E-03 0. -1.
    9900012    2    1    2    0    0 -0.75415496022E+00  0.77135336316E+00  0.47883816763E+00  0.90007736595E+02  0.89999997918E+02 0.  0.
        -12    1    1    2    0    0  0.75415496022E+00 -0.77135336316E+00 -0.47883816763E+00  0.11802634052E+01  0.00000000000E+00 0.  1.
         11    1    3    3    0    0 -0.60106148815E+01 -0.12199003740E+02 -0.35785019394E+02  0.38281990501E+02  0.51100000000E-03 0. -1.
        -11    1    3    3    0    0 -0.19193953088E+01  0.95940324806E+01 -0.40866373555E+01  0.10603308103E+02  0.51100000000E-03 0.  1.
        -12    1    3    3    0    0  0.71758552301E+01  0.33763246224E+01  0.40350494917E+02  0.41122437990E+02  0.00000000000E+00 0.  1.
</event>
<event>
 7    1  0.3743571E-015  0.9000774E+02  0.7816164E-02  0.1186339E+00
        -11   -1    0    0    0    0  0.00000000000E+00  0.00000000000E+00  0.45593999997E+02  0.45594000000E+02  0.51100000000E-03 0. -1.
         11   -1    0    0    0    0 -0.00000000000E+00 -0.00000000000E+00 -0.45593999997E+02  0.45594000000E+02  0.51100000000E-03 0.  1.
    9900012    2    1    2    0    0 -0.11390151764E+01 -0.24140833121E+00  0.19332606736E+00  0.90007742179E+02  0.90000003576E+02 0.  0.
        -12    1    1    2    0    0  0.11390151764E+01  0.24140833121E+00 -0.19332606736E+00  0.11802578205E+01  0.00000000000E+00 0.  1.
         11    1    3    3    0    0  0.31515360921E+02  0.17089143899E+02  0.16056678334E+02  0.39281977198E+02  0.51100000000E-03 0. -1.
        -11    1    3    3    0    0 -0.14262391238E+02  0.37412136782E+01 -0.17285780363E+02  0.22720270390E+02  0.51100000000E-03 0.  1.
        -12    1    3    3    0    0 -0.18391984860E+02 -0.21071765909E+02  0.14224280966E+01  0.28005494591E+02  0.00000000000E+00 0.  1.
</event>
<event>
 7    1  0.3743571E-015  0.9000767E+02  0.7816164E-02  0.1186339E+00
        -11   -1    0    0    0    0  0.00000000000E+00  0.00000000000E+00  0.45593999997E+02  0.45594000000E+02  0.51100000000E-03 0.  1.
         11   -1    0    0    0    0 -0.00000000000E+00 -0.00000000000E+00 -0.45593999997E+02  0.45594000000E+02  0.51100000000E-03 0. -1.
    9900012    2    1    2    0    0 -0.98469258632E+00 -0.38687862760E+00 -0.52334060785E+00  0.90007669557E+02  0.89999929995E+02 0.  0.
        -12    1    1    2    0    0  0.98469258632E+00  0.38687862760E+00  0.52334060785E+00  0.11803304427E+01  0.00000000000E+00 0.  1.
         11    1    3    3    0    0  0.14354793179E+02 -0.22558824565E+02 -0.30970642914E+02  0.40916272750E+02  0.51100000000E-03 0. -1.
        -11    1    3    3    0    0  0.77091383683E+01  0.25464574178E+01  0.49228242910E+01  0.94947068951E+01  0.51100000000E-03 0.  1.
        -12    1    3    3    0    0 -0.23048624134E+02  0.19625488520E+02  0.25524478015E+02  0.39596689913E+02  0.00000000000E+00 0.  1.
</event>
<event>
 7    1  0.3743571E-015  0.9000774E+02  0.7816164E-02  0.1186339E+00
        -11   -1    0    0    0    0  0.00000000000E+00  0.00000000000E+00  0.45593999997E+02  0.45594000000E+02  0.51100000000E-03 0. -1.
         11   -1    0    0    0    0 -0.00000000000E+00 -0.00000000000E+00 -0.45593999997E+02  0.45594000000E+02  0.51100000000E-03 0.  1.
    9900012    2    1    2    0    0  0.65323653829E-01  0.23564960270E+00  0.11546500928E+01  0.90007739541E+02  0.90000000903E+02 0.  0.
        -12    1    1    2    0    0 -0.65323653829E-01 -0.23564960270E+00 -0.11546500928E+01  0.11802604593E+01  0.00000000000E+00 0.  1.
         11    1    3    3    0    0  0.23514179267E+02  0.14000450938E+02 -0.23693918469E+02  0.36198494799E+02  0.51100000000E-03 0. -1.
        -11    1    3    3    0    0  0.71441784694E+01  0.75797407602E+01  0.58620627910E+01  0.11952218891E+02  0.51100000000E-03 0.  1.
        -12    1    3    3    0    0 -0.30593034082E+02 -0.21344542095E+02  0.18986505771E+02  0.41857025850E+02  0.00000000000E+00 0.  1.
</event>
<event>
 7    1  0.3743571E-015  0.9000788E+02  0.7816164E-02  0.1186339E+00
        -11   -1    0    0    0    0  0.00000000000E+00  0.00000000000E+00  0.45593999997E+02  0.45594000000E+02  0.51100000000E-03 0.  1.
         11   -1    0    0    0    0 -0.00000000000E+00 -0.00000000000E+00 -0.45593999997E+02  0.45594000000E+02  0.51100000000E-03 0. -1.
    9900012    2    1    2    0    0  0.42635277008E+00 -0.10856776515E+01 -0.17946209685E+00  0.90007881662E+02  0.90000144900E+02 0.  0.
        -12    1    1    2    0    0 -0.42635277008E+00  0.10856776515E+01  0.17946209685E+00  0.11801183380E+01  0.00000000000E+00 0.  1.
         11    1    3    3    0    0 -0.26032333441E+01  0.57322739409E+01  0.68061946196E+01  0.92714655712E+01  0.51100000000E-03 0. -1.
        -11    1    3    3    0    0 -0.11576988195E+02 -0.51434477099E-01  0.34418279083E+02  0.36313182681E+02  0.51100000000E-03 0.  1.
         12    1    3    3    0    0  0.14606574309E+02 -0.67665171154E+01 -0.41403935799E+02  0.44423233410E+02  0.00000000000E+00 0. -1.
</event>
<event>
 7    1  0.3743571E-015  0.9000776E+02  0.7816164E-02  0.1186339E+00
        -11   -1    0    0    0    0  0.00000000000E+00  0.00000000000E+00  0.45593999997E+02  0.45594000000E+02  0.51100000000E-03 0.  1.
         11   -1    0    0    0    0 -0.00000000000E+00 -0.00000000000E+00 -0.45593999997E+02  0.45594000000E+02  0.51100000000E-03 0. -1.
    9900012    2    1    2    0    0 -0.76445476529E+00  0.36180730858E+00  0.82321037579E+00  0.90007758101E+02  0.90000019708E+02 0.  0.
        -12    1    1    2    0    0  0.76445476529E+00 -0.36180730858E+00 -0.82321037579E+00  0.11802418987E+01  0.00000000000E+00 0.  1.
         11    1    3    3    0    0 -0.37402526874E+01 -0.17100792617E+01  0.87734704086E+01  0.96895636908E+01  0.51100000000E-03 0. -1.
        -11    1    3    3    0    0  0.33026903881E+01  0.39002030811E+02  0.82303291466E+01  0.39997556041E+02  0.51100000000E-03 0.  1.
         12    1    3    3    0    0 -0.32689246603E+00 -0.36930144240E+02 -0.16180589179E+02  0.40320638369E+02  0.00000000000E+00 0. -1.
</event>
<event>
 7    1  0.3743571E-015  0.9000766E+02  0.7816164E-02  0.1186339E+00
        -11   -1    0    0    0    0  0.00000000000E+00  0.00000000000E+00  0.45593999997E+02  0.45594000000E+02  0.51100000000E-03 0.  1.
         11   -1    0    0    0    0 -0.00000000000E+00 -0.00000000000E+00 -0.45593999997E+02  0.45594000000E+02  0.51100000000E-03 0. -1.
    9900012    2    1    2    0    0  0.10452722868E-01 -0.77453792859E+00 -0.89061413056E+00  0.90007656071E+02  0.89999916331E+02 0.  0.
        -12    1    1    2    0    0 -0.10452722868E-01  0.77453792859E+00  0.89061413056E+00  0.11803439295E+01  0.00000000000E+00 0.  1.
         11    1    3    3    0    0  0.23360912965E+02 -0.20073043036E+02  0.29039649498E+02  0.42331555068E+02  0.51100000000E-03 0. -1.
        -11    1    3    3    0    0 -0.94240121659E+01  0.63502001358E+01  0.95747675378E+00  0.11404113690E+02  0.51100000000E-03 0.  1.
        -12    1    3    3    0    0 -0.13926448076E+02  0.12948304972E+02 -0.30887740382E+02  0.36271987312E+02  0.00000000000E+00 0.  1.
</event>
<event>
 7    1  0.3743571E-015  0.9000776E+02  0.7816164E-02  0.1186339E+00
        -11   -1    0    0    0    0  0.00000000000E+00  0.00000000000E+00  0.45593999997E+02  0.45594000000E+02  0.51100000000E-03 0. -1.
         11   -1    0    0    0    0 -0.00000000000E+00 -0.00000000000E+00 -0.45593999997E+02  0.45594000000E+02  0.51100000000E-03 0.  1.
    9900012    2    1    2    0    0  0.62008595129E+00  0.24623210162E+00  0.97356891671E+00  0.90007757114E+02  0.90000018708E+02 0.  0.
        -12    1    1    2    0    0 -0.62008595129E+00 -0.24623210162E+00 -0.97356891671E+00  0.11802428862E+01  0.00000000000E+00 0.  1.
         11    1    3    3    0    0 -0.49163272287E+01  0.16696915613E+02 -0.14770313377E+02  0.22828040256E+02  0.51100000000E-03 0. -1.
        -11    1    3    3    0    0  0.31045577625E+02 -0.11675419246E+02 -0.55250896959E+01  0.33625435626E+02  0.51100000000E-03 0.  1.
         12    1    3    3    0    0 -0.25509164445E+02 -0.47752642659E+01  0.21268971990E+02  0.33554281232E+02  0.00000000000E+00 0. -1.
</event>
<event>
 7    1  0.3743571E-015  0.9000777E+02  0.7816164E-02  0.1186339E+00
        -11   -1    0    0    0    0  0.00000000000E+00  0.00000000000E+00  0.45593999997E+02  0.45594000000E+02  0.51100000000E-03 0.  1.
         11   -1    0    0    0    0 -0.00000000000E+00 -0.00000000000E+00 -0.45593999997E+02  0.45594000000E+02  0.51100000000E-03 0. -1.
    9900012    2    1    2    0    0 -0.17770854270E+00  0.89833740191E+00 -0.74454559500E+00  0.90007771820E+02  0.90000033608E+02 0.  0.
        -12    1    1    2    0    0  0.17770854270E+00 -0.89833740191E+00  0.74454559500E+00  0.11802281800E+01  0.00000000000E+00 0.  1.
         11    1    3    3    0    0  0.11325055044E+02  0.26480154562E+02 -0.82079729354E+00  0.28811962201E+02  0.51100000000E-03 0. -1.
        -11    1    3    3    0    0  0.19016096345E+02 -0.31094817909E+00  0.82619252659E+01  0.20735670193E+02  0.51100000000E-03 0.  1.
        -12    1    3    3    0    0 -0.30518859932E+02 -0.25270868981E+02 -0.81856735674E+01  0.40460139426E+02  0.00000000000E+00 0.  1.
</event>
<event>
 7    1  0.3743571E-015  0.9000771E+02  0.7816164E-02  0.1186339E+00
        -11   -1    0    0    0    0  0.00000000000E+00  0.00000000000E+00  0.45593999997E+02  0.45594000000E+02  0.51100000000E-03 0.  1.
         11   -1    0    0    0    0 -0.00000000000E+00 -0.00000000000E+00 -0.45593999997E+02  0.45594000000E+02  0.51100000000E-03 0. -1.
    9900012    2    1    2    0    0  0.11670190797E+01  0.17650338988E+00  0.23705267188E-02  0.90007706563E+02  0.89999967489E+02 0.  0.
        -12    1    1    2    0    0 -0.11670190797E+01 -0.17650338988E+00 -0.23705267188E-02  0.11802934374E+01  0.00000000000E+00 0.  1.
         11    1    3    3    0    0  0.15042047617E+02  0.32896164577E+01  0.42957246515E+01  0.15985556715E+02  0.51100000000E-03 0. -1.
        -11    1    3    3    0    0 -0.14634079398E+01 -0.41069106934E+01  0.33730723183E+02  0.34011321129E+02  0.51100000000E-03 0.  1.
         12    1    3    3    0    0 -0.12411620598E+02  0.99379762562E+00 -0.38024077308E+02  0.40010828718E+02  0.00000000000E+00 0. -1.
</event>
<event>
 7    1  0.3743571E-015  0.9000818E+02  0.7816164E-02  0.1186338E+00
        -11   -1    0    0    0    0  0.00000000000E+00  0.00000000000E+00  0.45593999997E+02  0.45594000000E+02  0.51100000000E-03 0.  1.
         11   -1    0    0    0    0 -0.00000000000E+00 -0.00000000000E+00 -0.45593999997E+02  0.45594000000E+02  0.51100000000E-03 0. -1.
    9900012    2    1    2    0    0  0.21698782170E+00  0.11038848639E+01  0.35543145419E+00  0.90008179240E+02  0.90000446405E+02 0.  0.
        -12    1    1    2    0    0 -0.21698782170E+00 -0.11038848639E+01 -0.35543145419E+00  0.11798207602E+01  0.00000000000E+00 0.  1.
         11    1    3    3    0    0  0.75483953159E+01 -0.34091742890E+01 -0.26024551210E+02  0.27310767238E+02  0.51100000000E-03 0. -1.
        -11    1    3    3    0    0 -0.18594672328E+02  0.71425169234E+00 -0.12250948918E+02  0.22279087596E+02  0.51100000000E-03 0.  1.
        -12    1    3    3    0    0  0.11263264833E+02  0.37988074606E+01  0.38630931583E+02  0.40418324406E+02  0.00000000000E+00 0.  1.
</event>
<event>
 7    1  0.3743571E-015  0.9000769E+02  0.7816164E-02  0.1186339E+00
        -11   -1    0    0    0    0  0.00000000000E+00  0.00000000000E+00  0.45593999997E+02  0.45594000000E+02  0.51100000000E-03 0. -1.
         11   -1    0    0    0    0 -0.00000000000E+00 -0.00000000000E+00 -0.45593999997E+02  0.45594000000E+02  0.51100000000E-03 0.  1.
    9900012    2    1    2    0    0  0.35472313170E+00  0.84032367125E-01  0.11226086242E+01  0.90007686456E+02  0.89999947117E+02 0.  0.
        -12    1    1    2    0    0 -0.35472313170E+00 -0.84032367125E-01 -0.11226086242E+01  0.11803135439E+01  0.00000000000E+00 0.  1.
         11    1    3    3    0    0  0.31863780879E+02  0.16691905993E+02  0.16421299468E+02  0.39542121012E+02  0.51100000000E-03 0. -1.
        -11    1    3    3    0    0  0.34535981441E+01  0.40513209830E+01 -0.73651203573E+01  0.90876586637E+01  0.51100000000E-03 0.  1.
        -12    1    3    3    0    0 -0.34962655892E+02 -0.20659194609E+02 -0.79335704869E+01  0.41377906781E+02  0.00000000000E+00 0.  1.
</event>
<event>
 7    1  0.3743571E-015  0.9000773E+02  0.7816164E-02  0.1186339E+00
        -11   -1    0    0    0    0  0.00000000000E+00  0.00000000000E+00  0.45593999997E+02  0.45594000000E+02  0.51100000000E-03 0.  1.
         11   -1    0    0    0    0 -0.00000000000E+00 -0.00000000000E+00 -0.45593999997E+02  0.45594000000E+02  0.51100000000E-03 0. -1.
    9900012    2    1    2    0    0  0.36707151725E+00  0.82856483948E+00 -0.75615619457E+00  0.90007731648E+02  0.89999992906E+02 0.  0.
        -12    1    1    2    0    0 -0.36707151725E+00 -0.82856483948E+00  0.75615619457E+00  0.11802683519E+01  0.00000000000E+00 0.  1.
         11    1    3    3    0    0 -0.60291408717E+01  0.65720749907E+01 -0.39642542941E+01  0.97600216036E+01  0.51100000000E-03 0. -1.
        -11    1    3    3    0    0 -0.20714203318E+02  0.26986186261E+02  0.13366070273E+02  0.36551119036E+02  0.51100000000E-03 0.  1.
         12    1    3    3    0    0  0.27110415707E+02 -0.32729696412E+02 -0.10157972173E+02  0.43696591008E+02  0.00000000000E+00 0. -1.
</event>
<event>
 7    1  0.3743571E-015  0.9000778E+02  0.7816164E-02  0.1186339E+00
        -11   -1    0    0    0    0  0.00000000000E+00  0.00000000000E+00  0.45593999997E+02  0.45594000000E+02  0.51100000000E-03 0. -1.
         11   -1    0    0    0    0 -0.00000000000E+00 -0.00000000000E+00 -0.45593999997E+02  0.45594000000E+02  0.51100000000E-03 0.  1.
    9900012    2    1    2    0    0 -0.53406780480E+00 -0.82144468051E+00  0.65797354045E+00  0.90007775884E+02  0.90000037726E+02 0.  0.
        -12    1    1    2    0    0  0.53406780480E+00  0.82144468051E+00 -0.65797354045E+00  0.11802241157E+01  0.00000000000E+00 0.  1.
         11    1    3    3    0    0 -0.19524885255E+02  0.17009881940E+01  0.32332772541E+02  0.37809029153E+02  0.51100000000E-03 0. -1.
        -11    1    3    3    0    0  0.63136612386E-01  0.55056603107E+01  0.66946633396E+01  0.86680331783E+01  0.51100000000E-03 0.  1.
        -12    1    3    3    0    0  0.18927680838E+02 -0.80280931852E+01 -0.38369462341E+02  0.43530713553E+02  0.00000000000E+00 0.  1.
</event>
<event>
 7    1  0.3743571E-015  0.9000768E+02  0.7816164E-02  0.1186339E+00
        -11   -1    0    0    0    0  0.00000000000E+00  0.00000000000E+00  0.45593999997E+02  0.45594000000E+02  0.51100000000E-03 0.  1.
         11   -1    0    0    0    0 -0.00000000000E+00 -0.00000000000E+00 -0.45593999997E+02  0.45594000000E+02  0.51100000000E-03 0. -1.
    9900012    2    1    2    0    0 -0.14195853638E-01  0.11572490357E+01 -0.23179109779E+00  0.90007680566E+02  0.89999941150E+02 0.  0.
        -12    1    1    2    0    0  0.14195853638E-01 -0.11572490357E+01  0.23179109779E+00  0.11803194338E+01  0.00000000000E+00 0.  1.
         11    1    3    3    0    0 -0.12519614525E+02 -0.93594100815E+01  0.81476404880E+00  0.15652576326E+02  0.51100000000E-03 0. -1.
        -11    1    3    3    0    0  0.27572200797E+02 -0.21079562750E+02  0.12401436046E+02  0.36856069226E+02  0.51100000000E-03 0.  1.
         12    1    3    3    0    0 -0.15066782126E+02  0.31596221867E+02 -0.13447991192E+02  0.37499035014E+02  0.00000000000E+00 0. -1.
</event>
<event>
 7    1  0.3743571E-015  0.9000767E+02  0.7816164E-02  0.1186339E+00
        -11   -1    0    0    0    0  0.00000000000E+00  0.00000000000E+00  0.45593999997E+02  0.45594000000E+02  0.51100000000E-03 0. -1.
         11   -1    0    0    0    0 -0.00000000000E+00 -0.00000000000E+00 -0.45593999997E+02  0.45594000000E+02  0.51100000000E-03 0.  1.
    9900012    2    1    2    0    0  0.85494805751E+00  0.48102161101E+00  0.65639156771E+00  0.90007674680E+02  0.89999935186E+02 0.  0.
        -12    1    1    2    0    0 -0.85494805751E+00 -0.48102161101E+00 -0.65639156771E+00  0.11803253202E+01  0.00000000000E+00 0.  1.
         11    1    3    3    0    0  0.80234589828E+00  0.27682484511E+01 -0.83707535271E+01  0.88530488138E+01  0.51100000000E-03 0. -1.
        -11    1    3    3    0    0 -0.35721787713E+02 -0.48453033438E+01  0.22890899428E+02  0.42702650489E+02  0.51100000000E-03 0.  1.
         12    1    3    3    0    0  0.35774389873E+02  0.25580765038E+01 -0.13863754333E+02  0.38451975377E+02  0.00000000000E+00 0. -1.
</event>
<event>
 7    1  0.3743571E-015  0.9000770E+02  0.7816164E-02  0.1186339E+00
        -11   -1    0    0    0    0  0.00000000000E+00  0.00000000000E+00  0.45593999997E+02  0.45594000000E+02  0.51100000000E-03 0.  1.
         11   -1    0    0    0    0 -0.00000000000E+00 -0.00000000000E+00 -0.45593999997E+02  0.45594000000E+02  0.51100000000E-03 0. -1.
    9900012    2    1    2    0    0 -0.28322316103E+00 -0.94170442946E+00 -0.65275308244E+00  0.90007699539E+02  0.89999960373E+02 0.  0.
        -12    1    1    2    0    0  0.28322316103E+00  0.94170442946E+00  0.65275308244E+00  0.11803004609E+01  0.00000000000E+00 0.  1.
         11    1    3    3    0    0  0.71047082939E+01  0.38016046874E+01 -0.33806442131E+02  0.34753483393E+02  0.51100000000E-03 0. -1.
        -11    1    3    3    0    0  0.80453183285E+01  0.38185933857E+01 -0.70427505670E+01  0.11353816022E+02  0.51100000000E-03 0.  1.
        -12    1    3    3    0    0 -0.15433249783E+02 -0.85619025026E+01  0.40196439615E+02  0.43900400124E+02  0.00000000000E+00 0.  1.
</event>
<event>
 7    1  0.3743571E-015  0.9000771E+02  0.7816164E-02  0.1186339E+00
        -11   -1    0    0    0    0  0.00000000000E+00  0.00000000000E+00  0.45593999997E+02  0.45594000000E+02  0.51100000000E-03 0. -1.
         11   -1    0    0    0    0 -0.00000000000E+00 -0.00000000000E+00 -0.45593999997E+02  0.45594000000E+02  0.51100000000E-03 0.  1.
    9900012    2    1    2    0    0  0.10252723741E+01  0.58439311617E+00 -0.19473766622E-01  0.90007712754E+02  0.89999973762E+02 0.  0.
        -12    1    1    2    0    0 -0.10252723741E+01 -0.58439311617E+00  0.19473766622E-01  0.11802872460E+01  0.00000000000E+00 0.  1.
         11    1    3    3    0    0  0.36304094604E+01 -0.65238353884E+01  0.36695574761E+01  0.83190115612E+01  0.51100000000E-03 0. -1.
        -11    1    3    3    0    0  0.20242644684E+02  0.20256251765E+02 -0.32042355299E+02  0.42974328764E+02  0.51100000000E-03 0.  1.
         12    1    3    3    0    0 -0.22847781770E+02 -0.13148023260E+02  0.28353324057E+02  0.38714372428E+02  0.00000000000E+00 0. -1.
</event>
<event>
 7    1  0.3743571E-015  0.9000697E+02  0.7816164E-02  0.1186341E+00
        -11   -1    0    0    0    0  0.00000000000E+00  0.00000000000E+00  0.45593999997E+02  0.45594000000E+02  0.51100000000E-03 0. -1.
         11   -1    0    0    0    0 -0.00000000000E+00 -0.00000000000E+00 -0.45593999997E+02  0.45594000000E+02  0.51100000000E-03 0.  1.
    9900012    2    1    2    0    0 -0.59187171855E+00 -0.49633064437E+00  0.89340199100E+00  0.90006973600E+02  0.89999224848E+02 0.  0.
        -12    1    1    2    0    0  0.59187171855E+00  0.49633064437E+00 -0.89340199100E+00  0.11810263999E+01  0.00000000000E+00 0.  1.
         11    1    3    3    0    0  0.23128920761E+01 -0.84115476889E+01  0.51202912593E+01  0.10115383686E+02  0.51100000000E-03 0. -1.
        -11    1    3    3    0    0  0.35074948088E+02 -0.69583467039E+01 -0.13219458074E+02  0.38123806791E+02  0.51100000000E-03 0.  1.
         12    1    3    3    0    0 -0.37979711883E+02  0.14873563748E+02  0.89925688058E+01  0.41767783123E+02  0.00000000000E+00 0. -1.
</event>
<event>
 7    1  0.3743571E-015  0.9000776E+02  0.7816164E-02  0.1186339E+00
        -11   -1    0    0    0    0  0.00000000000E+00  0.00000000000E+00  0.45593999997E+02  0.45594000000E+02  0.51100000000E-03 0. -1.
         11   -1    0    0    0    0 -0.00000000000E+00 -0.00000000000E+00 -0.45593999997E+02  0.45594000000E+02  0.51100000000E-03 0.  1.
    9900012    2    1    2    0    0 -0.40819194319E+00  0.10569824640E+01  0.33036768664E+00  0.90007756212E+02  0.90000017794E+02 0.  0.
        -12    1    1    2    0    0  0.40819194319E+00 -0.10569824640E+01 -0.33036768664E+00  0.11802437884E+01  0.00000000000E+00 0.  1.
         11    1    3    3    0    0 -0.53862414838E+01 -0.78019815501E+01 -0.25969148730E+01  0.98298769346E+01  0.51100000000E-03 0. -1.
        -11    1    3    3    0    0 -0.28638892269E+02  0.27369410277E+02  0.10675493257E+02  0.41027270514E+02  0.51100000000E-03 0.  1.
         12    1    3    3    0    0  0.33616941810E+02 -0.18510446262E+02 -0.77482106975E+01  0.39150608763E+02  0.00000000000E+00 0. -1.
</event>
<event>
 7    1  0.3743571E-015  0.9000775E+02  0.7816164E-02  0.1186339E+00
        -11   -1    0    0    0    0  0.00000000000E+00  0.00000000000E+00  0.45593999997E+02  0.45594000000E+02  0.51100000000E-03 0.  1.
         11   -1    0    0    0    0 -0.00000000000E+00 -0.00000000000E+00 -0.45593999997E+02  0.45594000000E+02  0.51100000000E-03 0. -1.
    9900012    2    1    2    0    0  0.66229069603E+00 -0.76503481271E+00 -0.60751373086E+00  0.90007754193E+02  0.90000015749E+02 0.  0.
        -12    1    1    2    0    0 -0.66229069603E+00  0.76503481271E+00  0.60751373086E+00  0.11802458066E+01  0.00000000000E+00 0.  1.
         11    1    3    3    0    0 -0.31795668833E+02 -0.20980430824E+02  0.79340395471E+01  0.38911335339E+02  0.51100000000E-03 0. -1.
        -11    1    3    3    0    0 -0.63124702384E+01  0.40094430884E+01 -0.48504133821E+01  0.89134406728E+01  0.51100000000E-03 0.  1.
        -12    1    3    3    0    0  0.38770429768E+02  0.16205952923E+02 -0.36911398958E+01  0.42182978181E+02  0.00000000000E+00 0.  1.
</event>
<event>
 7    1  0.3743571E-015  0.9000789E+02  0.7816164E-02  0.1186339E+00
        -11   -1    0    0    0    0  0.00000000000E+00  0.00000000000E+00  0.45593999997E+02  0.45594000000E+02  0.51100000000E-03 0.  1.
         11   -1    0    0    0    0 -0.00000000000E+00 -0.00000000000E+00 -0.45593999997E+02  0.45594000000E+02  0.51100000000E-03 0. -1.
    9900012    2    1    2    0    0  0.17854654436E-01 -0.18360620663E+00 -0.11656019594E+01  0.90007890702E+02  0.90000154059E+02 0.  0.
        -12    1    1    2    0    0 -0.17854654436E-01  0.18360620663E+00  0.11656019594E+01  0.11801092982E+01  0.00000000000E+00 0.  1.
         11    1    3    3    0    0 -0.29558502713E+02 -0.25384639855E+02 -0.59924844817E+01  0.39420741923E+02  0.51100000000E-03 0. -1.
        -11    1    3    3    0    0  0.19093079758E+01  0.32658444307E+01 -0.11193227593E+02  0.11815224966E+02  0.51100000000E-03 0.  1.
        -12    1    3    3    0    0  0.27667049392E+02  0.21935189218E+02  0.16020110115E+02  0.38771923813E+02  0.00000000000E+00 0.  1.
</event>
<event>
 7    1  0.3743571E-015  0.9000772E+02  0.7816164E-02  0.1186339E+00
        -11   -1    0    0    0    0  0.00000000000E+00  0.00000000000E+00  0.45593999997E+02  0.45594000000E+02  0.51100000000E-03 0.  1.
         11   -1    0    0    0    0 -0.00000000000E+00 -0.00000000000E+00 -0.45593999997E+02  0.45594000000E+02  0.51100000000E-03 0. -1.
    9900012    2    1    2    0    0 -0.10734060862E+01  0.37925832195E+00  0.31147008146E+00  0.90007724137E+02  0.89999985296E+02 0.  0.
        -12    1    1    2    0    0  0.10734060862E+01 -0.37925832195E+00 -0.31147008146E+00  0.11802758628E+01  0.00000000000E+00 0.  1.
         11    1    3    3    0    0 -0.83991742296E+01  0.34602140020E+01 -0.36357982493E+02  0.37475620074E+02  0.51100000000E-03 0. -1.
        -11    1    3    3    0    0 -0.74560179515E+01  0.67485204549E+01 -0.17519773929E+01  0.10208043744E+02  0.51100000000E-03 0.  1.
        -12    1    3    3    0    0  0.14781786095E+02 -0.98294761349E+01  0.38421429967E+02  0.42324060320E+02  0.00000000000E+00 0.  1.
</event>
<event>
 7    1  0.3743571E-015  0.9000757E+02  0.7816164E-02  0.1186339E+00
        -11   -1    0    0    0    0  0.00000000000E+00  0.00000000000E+00  0.45593999997E+02  0.45594000000E+02  0.51100000000E-03 0. -1.
         11   -1    0    0    0    0 -0.00000000000E+00 -0.00000000000E+00 -0.45593999997E+02  0.45594000000E+02  0.51100000000E-03 0.  1.
    9900012    2    1    2    0    0 -0.62432465041E+00  0.38575018122E+00  0.92457545123E+00  0.90007566081E+02  0.89999825153E+02 0.  0.
        -12    1    1    2    0    0  0.62432465041E+00 -0.38575018122E+00 -0.92457545123E+00  0.11804339187E+01  0.00000000000E+00 0.  1.
         11    1    3    3    0    0  0.17539979877E+01 -0.76691384147E+01 -0.69065027285E+01  0.10468618494E+02  0.51100000000E-03 0. -1.
        -11    1    3    3    0    0 -0.14762882392E+02 -0.32369121299E+02 -0.35553332550E+01  0.35753924330E+02  0.51100000000E-03 0.  1.
         12    1    3    3    0    0  0.12384559753E+02  0.40424009895E+02  0.11386411435E+02  0.43785023257E+02  0.00000000000E+00 0. -1.
</event>
<event>
 7    1  0.3743571E-015  0.9000719E+02  0.7816164E-02  0.1186340E+00
        -11   -1    0    0    0    0  0.00000000000E+00  0.00000000000E+00  0.45593999997E+02  0.45594000000E+02  0.51100000000E-03 0.  1.
         11   -1    0    0    0    0 -0.00000000000E+00 -0.00000000000E+00 -0.45593999997E+02  0.45594000000E+02  0.51100000000E-03 0. -1.
    9900012    2    1    2    0    0  0.10426275506E+01  0.55294990736E+00  0.38526229633E-01  0.90007190922E+02  0.89999445040E+02 0.  0.
        -12    1    1    2    0    0 -0.10426275506E+01 -0.55294990736E+00 -0.38526229633E-01  0.11808090785E+01  0.00000000000E+00 0.  1.
         11    1    3    3    0    0 -0.12904327236E+02 -0.74978383119E+01  0.26421440444E+02  0.30345209773E+02  0.51100000000E-03 0. -1.
        -11    1    3    3    0    0  0.63472195408E+01  0.17821930002E+02  0.98810715449E+01  0.21343475819E+02  0.51100000000E-03 0.  1.
         12    1    3    3    0    0  0.75997352454E+01 -0.97711417824E+01 -0.36263985760E+02  0.38318505330E+02  0.00000000000E+00 0. -1.
</event>
<event>
 7    1  0.3743571E-015  0.9000759E+02  0.7816164E-02  0.1186339E+00
        -11   -1    0    0    0    0  0.00000000000E+00  0.00000000000E+00  0.45593999997E+02  0.45594000000E+02  0.51100000000E-03 0. -1.
         11   -1    0    0    0    0 -0.00000000000E+00 -0.00000000000E+00 -0.45593999997E+02  0.45594000000E+02  0.51100000000E-03 0.  1.
    9900012    2    1    2    0    0 -0.55937078669E-01 -0.23906182028E+00  0.11545907397E+01  0.90007593593E+02  0.89999853028E+02 0.  0.
        -12    1    1    2    0    0  0.55937078669E-01  0.23906182028E+00 -0.11545907397E+01  0.11804064075E+01  0.00000000000E+00 0.  1.
         11    1    3    3    0    0  0.11789443903E+02 -0.25844288709E+01 -0.49503182569E+01  0.13045148954E+02  0.51100000000E-03 0. -1.
        -11    1    3    3    0    0  0.19684770229E+02 -0.27019114105E+02  0.54535996639E+01  0.33871292499E+02  0.51100000000E-03 0.  1.
         12    1    3    3    0    0 -0.31530151210E+02  0.29364481155E+02  0.65130933266E+00  0.43091152140E+02  0.00000000000E+00 0. -1.
</event>
<event>
 7    1  0.3743571E-015  0.9000849E+02  0.7816164E-02  0.1186338E+00
        -11   -1    0    0    0    0  0.00000000000E+00  0.00000000000E+00  0.45593999997E+02  0.45594000000E+02  0.51100000000E-03 0.  1.
         11   -1    0    0    0    0 -0.00000000000E+00 -0.00000000000E+00 -0.45593999997E+02  0.45594000000E+02  0.51100000000E-03 0. -1.
    9900012    2    1    2    0    0  0.82796114071E+00 -0.81884969683E+00 -0.18764987977E+00  0.90008488680E+02  0.90000759927E+02 0.  0.
        -12    1    1    2    0    0 -0.82796114071E+00  0.81884969683E+00  0.18764987977E+00  0.11795113199E+01  0.00000000000E+00 0.  1.
         11    1    3    3    0    0 -0.23503723051E+01 -0.41991635212E+01  0.67773368031E+01  0.83120105061E+01  0.51100000000E-03 0. -1.
        -11    1    3    3    0    0  0.11133494703E+02 -0.30763539250E+02  0.19215092138E+02  0.37941663348E+02  0.51100000000E-03 0.  1.
         12    1    3    3    0    0 -0.79551612571E+01  0.34143853074E+02 -0.26180078821E+02  0.43754814826E+02  0.00000000000E+00 0. -1.
</event>
<event>
 7    1  0.3743571E-015  0.9000769E+02  0.7816164E-02  0.1186339E+00
        -11   -1    0    0    0    0  0.00000000000E+00  0.00000000000E+00  0.45593999997E+02  0.45594000000E+02  0.51100000000E-03 0.  1.
         11   -1    0    0    0    0 -0.00000000000E+00 -0.00000000000E+00 -0.45593999997E+02  0.45594000000E+02  0.51100000000E-03 0. -1.
    9900012    2    1    2    0    0  0.66289900642E-02 -0.45520551719E+00 -0.10889845000E+01  0.90007685107E+02  0.89999945750E+02 0.  0.
        -12    1    1    2    0    0 -0.66289900642E-02  0.45520551719E+00  0.10889845000E+01  0.11803148934E+01  0.00000000000E+00 0.  1.
         11    1    3    3    0    0  0.14494237825E+02 -0.48407366855E+01 -0.10143346273E+01  0.15314846940E+02  0.51100000000E-03 0. -1.
        -11    1    3    3    0    0 -0.18703423476E+02 -0.16661807220E+02  0.29148895723E+02  0.38432954501E+02  0.51100000000E-03 0.  1.
         12    1    3    3    0    0  0.42158146413E+01  0.21047338388E+02 -0.29223545595E+02  0.36259883666E+02  0.00000000000E+00 0. -1.
</event>
<event>
 7    1  0.3743571E-015  0.9000771E+02  0.7816164E-02  0.1186339E+00
        -11   -1    0    0    0    0  0.00000000000E+00  0.00000000000E+00  0.45593999997E+02  0.45594000000E+02  0.51100000000E-03 0.  1.
         11   -1    0    0    0    0 -0.00000000000E+00 -0.00000000000E+00 -0.45593999997E+02  0.45594000000E+02  0.51100000000E-03 0. -1.
    9900012    2    1    2    0    0  0.36575707096E+00  0.99636792123E+00  0.51629580611E+00  0.90007708244E+02  0.89999969193E+02 0.  0.
        -12    1    1    2    0    0 -0.36575707096E+00 -0.99636792123E+00 -0.51629580611E+00  0.11802917558E+01  0.00000000000E+00 0.  1.
         11    1    3    3    0    0  0.32025866075E+02  0.24079075228E+02 -0.45862629426E+01  0.40329787623E+02  0.51100000000E-03 0. -1.
        -11    1    3    3    0    0  0.46748751306E+01 -0.53895764093E+01  0.58971731526E+01  0.92562758608E+01  0.51100000000E-03 0.  1.
        -12    1    3    3    0    0 -0.36334984135E+02 -0.17693130898E+02 -0.79461440393E+00  0.40421644760E+02  0.00000000000E+00 0.  1.
</event>
<event>
 7    1  0.3743571E-015  0.9000783E+02  0.7816164E-02  0.1186339E+00
        -11   -1    0    0    0    0  0.00000000000E+00  0.00000000000E+00  0.45593999997E+02  0.45594000000E+02  0.51100000000E-03 0.  1.
         11   -1    0    0    0    0 -0.00000000000E+00 -0.00000000000E+00 -0.45593999997E+02  0.45594000000E+02  0.51100000000E-03 0. -1.
    9900012    2    1    2    0    0  0.79955563418E+00 -0.67555698195E+00 -0.54509439828E+00  0.90007832914E+02  0.90000095508E+02 0.  0.
        -12    1    1    2    0    0 -0.79955563418E+00  0.67555698195E+00  0.54509439828E+00  0.11801670861E+01  0.00000000000E+00 0.  1.
         11    1    3    3    0    0  0.19674326299E+02  0.37202051406E+02 -0.73392138553E+01  0.42719267367E+02  0.51100000000E-03 0. -1.
        -11    1    3    3    0    0 -0.10463183896E+02 -0.43659879950E+01 -0.22825810339E+01  0.11565044092E+02  0.51100000000E-03 0.  1.
        -12    1    3    3    0    0 -0.84115867687E+01 -0.33511620393E+02  0.90767004909E+01  0.35723521454E+02  0.00000000000E+00 0.  1.
</event>
<event>
 7    1  0.3743571E-015  0.9000776E+02  0.7816164E-02  0.1186339E+00
        -11   -1    0    0    0    0  0.00000000000E+00  0.00000000000E+00  0.45593999997E+02  0.45594000000E+02  0.51100000000E-03 0. -1.
         11   -1    0    0    0    0 -0.00000000000E+00 -0.00000000000E+00 -0.45593999997E+02  0.45594000000E+02  0.51100000000E-03 0.  1.
    9900012    2    1    2    0    0  0.10389179578E+01  0.38284639556E+00 -0.40871114883E+00  0.90007759902E+02  0.90000021533E+02 0.  0.
        -12    1    1    2    0    0 -0.10389179578E+01 -0.38284639556E+00  0.40871114883E+00  0.11802400980E+01  0.00000000000E+00 0.  1.
         11    1    3    3    0    0 -0.82975663775E+01  0.27109851514E+02  0.31883061971E+02  0.42665246956E+02  0.51100000000E-03 0. -1.
        -11    1    3    3    0    0 -0.55392843570E+01 -0.22544327592E+01 -0.56858753064E+01  0.82519886400E+01  0.51100000000E-03 0.  1.
        -12    1    3    3    0    0  0.14875768692E+02 -0.24472572359E+02 -0.26605897814E+02  0.39090524306E+02  0.00000000000E+00 0.  1.
</event>
<event>
 7    1  0.3743571E-015  0.9000785E+02  0.7816164E-02  0.1186339E+00
        -11   -1    0    0    0    0  0.00000000000E+00  0.00000000000E+00  0.45593999997E+02  0.45594000000E+02  0.51100000000E-03 0.  1.
         11   -1    0    0    0    0 -0.00000000000E+00 -0.00000000000E+00 -0.45593999997E+02  0.45594000000E+02  0.51100000000E-03 0. -1.
    9900012    2    1    2    0    0 -0.60715850785E+00  0.80454118849E-01 -0.10087768051E+01  0.90007853839E+02  0.90000116710E+02 0.  0.
        -12    1    1    2    0    0  0.60715850785E+00 -0.80454118849E-01  0.10087768051E+01  0.11801461610E+01  0.00000000000E+00 0.  1.
         11    1    3    3    0    0  0.20728432263E+02 -0.17001295135E+02 -0.35811353276E+02  0.44734382348E+02  0.51100000000E-03 0. -1.
        -11    1    3    3    0    0 -0.49887584423E+01 -0.27418444410E+00  0.76712210697E+01  0.91548086199E+01  0.51100000000E-03 0.  1.
        -12    1    3    3    0    0 -0.16346832329E+02  0.17355933698E+02  0.27131355401E+02  0.36118662871E+02  0.00000000000E+00 0.  1.
</event>
<event>
 7    1  0.3743571E-015  0.9000775E+02  0.7816164E-02  0.1186339E+00
        -11   -1    0    0    0    0  0.00000000000E+00  0.00000000000E+00  0.45593999997E+02  0.45594000000E+02  0.51100000000E-03 0.  1.
         11   -1    0    0    0    0 -0.00000000000E+00 -0.00000000000E+00 -0.45593999997E+02  0.45594000000E+02  0.51100000000E-03 0. -1.
    9900012    2    1    2    0    0  0.59992734743E+00 -0.43557067320E+00 -0.91834747138E+00  0.90007747183E+02  0.90000008646E+02 0.  0.
        -12    1    1    2    0    0 -0.59992734743E+00  0.43557067320E+00  0.91834747138E+00  0.11802528169E+01  0.00000000000E+00 0.  1.
         11    1    3    3    0    0 -0.10202553205E+02 -0.38065803615E+02 -0.15244173381E+02  0.42254967981E+02  0.51100000000E-03 0. -1.
        -11    1    3    3    0    0  0.42053826572E+01  0.56579841367E+01 -0.60332544011E+01  0.92789108582E+01  0.51100000000E-03 0.  1.
        -12    1    3    3    0    0  0.65970978952E+01  0.31972248805E+02  0.20359080311E+02  0.38473868344E+02  0.00000000000E+00 0.  1.
</event>
<event>
 7    1  0.3743571E-015  0.9000774E+02  0.7816164E-02  0.1186339E+00
        -11   -1    0    0    0    0  0.00000000000E+00  0.00000000000E+00  0.45593999997E+02  0.45594000000E+02  0.51100000000E-03 0. -1.
         11   -1    0    0    0    0 -0.00000000000E+00 -0.00000000000E+00 -0.45593999997E+02  0.45594000000E+02  0.51100000000E-03 0.  1.
    9900012    2    1    2    0    0 -0.11699167761E+01  0.13000799687E+00  0.86004474540E-01  0.90007744048E+02  0.90000005470E+02 0.  0.
        -12    1    1    2    0    0  0.11699167761E+01 -0.13000799687E+00 -0.86004474540E-01  0.11802559518E+01  0.00000000000E+00 0.  1.
         11    1    3    3    0    0 -0.12280715350E+02  0.30418681888E+02  0.19059189512E+02  0.37938962590E+02  0.51100000000E-03 0. -1.
        -11    1    3    3    0    0 -0.27525546604E+01 -0.27677054549E+01  0.94013630928E+01  0.10179507793E+02  0.51100000000E-03 0.  1.
        -12    1    3    3    0    0  0.13863353235E+02 -0.27520968436E+02 -0.28374548130E+02  0.41889273665E+02  0.00000000000E+00 0.  1.
</event>
<event>
 7    1  0.3743571E-015  0.9000777E+02  0.7816164E-02  0.1186339E+00
        -11   -1    0    0    0    0  0.00000000000E+00  0.00000000000E+00  0.45593999997E+02  0.45594000000E+02  0.51100000000E-03 0.  1.
         11   -1    0    0    0    0 -0.00000000000E+00 -0.00000000000E+00 -0.45593999997E+02  0.45594000000E+02  0.51100000000E-03 0. -1.
    9900012    2    1    2    0    0  0.33814033524E-01 -0.78894155394E+00 -0.87714255772E+00  0.90007766451E+02  0.90000028168E+02 0.  0.
        -12    1    1    2    0    0 -0.33814033524E-01  0.78894155394E+00  0.87714255772E+00  0.11802335493E+01  0.00000000000E+00 0.  1.
         11    1    3    3    0    0  0.52684164568E+01 -0.38297007671E+01  0.53958627833E+01  0.84580231357E+01  0.51100000000E-03 0. -1.
        -11    1    3    3    0    0 -0.10403508881E+01  0.30863152933E+02  0.24817838952E+02  0.39617441481E+02  0.51100000000E-03 0.  1.
         12    1    3    3    0    0 -0.41942515351E+01 -0.27822393720E+02 -0.31090844293E+02  0.41932301834E+02  0.00000000000E+00 0. -1.
</event>
<event>
 7    1  0.3743571E-015  0.9000774E+02  0.7816164E-02  0.1186339E+00
        -11   -1    0    0    0    0  0.00000000000E+00  0.00000000000E+00  0.45593999997E+02  0.45594000000E+02  0.51100000000E-03 0. -1.
         11   -1    0    0    0    0 -0.00000000000E+00 -0.00000000000E+00 -0.45593999997E+02  0.45594000000E+02  0.51100000000E-03 0.  1.
    9900012    2    1    2    0    0 -0.53878505340E+00 -0.93749790613E+00  0.47308780122E+00  0.90007744212E+02  0.90000005635E+02 0.  0.
        -12    1    1    2    0    0  0.53878505340E+00  0.93749790613E+00 -0.47308780122E+00  0.11802557881E+01  0.00000000000E+00 0.  1.
         11    1    3    3    0    0 -0.29178635227E+01  0.67591438838E+01 -0.93384682735E+01  0.11891465155E+02  0.51100000000E-03 0. -1.
        -11    1    3    3    0    0 -0.16937431988E+01 -0.36249833695E+02 -0.15766278943E+02  0.39566333681E+02  0.51100000000E-03 0.  1.
         12    1    3    3    0    0  0.40728216681E+01  0.28553191905E+02  0.25577835017E+02  0.38549945376E+02  0.00000000000E+00 0. -1.
</event>
<event>
 7    1  0.3743571E-015  0.9000785E+02  0.7816164E-02  0.1186339E+00
        -11   -1    0    0    0    0  0.00000000000E+00  0.00000000000E+00  0.45593999997E+02  0.45594000000E+02  0.51100000000E-03 0.  1.
         11   -1    0    0    0    0 -0.00000000000E+00 -0.00000000000E+00 -0.45593999997E+02  0.45594000000E+02  0.51100000000E-03 0. -1.
    9900012    2    1    2    0    0 -0.51905023355E+00 -0.61072595766E+00 -0.86622470044E+00  0.90007854004E+02  0.90000116877E+02 0.  0.
        -12    1    1    2    0    0  0.51905023355E+00  0.61072595766E+00  0.86622470044E+00  0.11801459960E+01  0.00000000000E+00 0.  1.
         11    1    3    3    0    0  0.81821210334E+01  0.32570157390E+01 -0.48358142839E+01  0.10046907792E+02  0.51100000000E-03 0. -1.
        -11    1    3    3    0    0 -0.44682208671E+01 -0.38620409161E+02  0.17229073730E+02  0.42524604446E+02  0.51100000000E-03 0.  1.
         12    1    3    3    0    0 -0.42329503998E+01  0.34752667464E+02 -0.13259484146E+02  0.37436341766E+02  0.00000000000E+00 0. -1.
</event>
<event>
 7    1  0.3743571E-015  0.9000769E+02  0.7816164E-02  0.1186339E+00
        -11   -1    0    0    0    0  0.00000000000E+00  0.00000000000E+00  0.45593999997E+02  0.45594000000E+02  0.51100000000E-03 0. -1.
         11   -1    0    0    0    0 -0.00000000000E+00 -0.00000000000E+00 -0.45593999997E+02  0.45594000000E+02  0.51100000000E-03 0.  1.
    9900012    2    1    2    0    0 -0.10977177088E+01 -0.37665943581E+00 -0.21510865245E+00  0.90007691468E+02  0.89999952195E+02 0.  0.
        -12    1    1    2    0    0  0.10977177088E+01  0.37665943581E+00  0.21510865245E+00  0.11803085321E+01  0.00000000000E+00 0.  1.
         11    1    3    3    0    0  0.34250079303E+01  0.94135986464E+01 -0.18495068162E+02  0.21033641278E+02  0.51100000000E-03 0. -1.
        -11    1    3    3    0    0  0.40540017387E+01  0.25499128133E+02 -0.43506027574E+01  0.26183357505E+02  0.51100000000E-03 0.  1.
         12    1    3    3    0    0 -0.85767273777E+01 -0.35289386215E+02  0.22630562267E+02  0.42790692685E+02  0.00000000000E+00 0. -1.
</event>
<event>
 7    1  0.3743571E-015  0.9000774E+02  0.7816164E-02  0.1186339E+00
        -11   -1    0    0    0    0  0.00000000000E+00  0.00000000000E+00  0.45593999997E+02  0.45594000000E+02  0.51100000000E-03 0. -1.
         11   -1    0    0    0    0 -0.00000000000E+00 -0.00000000000E+00 -0.45593999997E+02  0.45594000000E+02  0.51100000000E-03 0.  1.
    9900012    2    1    2    0    0  0.48599071381E+00  0.51141358854E+00 -0.94619656826E+00  0.90007737835E+02  0.89999999174E+02 0.  0.
        -12    1    1    2    0    0 -0.48599071381E+00 -0.51141358854E+00  0.94619656826E+00  0.11802621651E+01  0.00000000000E+00 0.  1.
         11    1    3    3    0    0  0.21860350492E+02  0.29311632619E+02  0.18429459089E+02  0.40947425963E+02  0.51100000000E-03 0. -1.
        -11    1    3    3    0    0  0.58230773928E+01 -0.45267452846E+01 -0.79802066701E+01  0.10866616398E+02  0.51100000000E-03 0.  1.
        -12    1    3    3    0    0 -0.27197437171E+02 -0.24273473745E+02 -0.11395448988E+02  0.38193695474E+02  0.00000000000E+00 0.  1.
</event>
<event>
 7    1  0.3743571E-015  0.9000775E+02  0.7816164E-02  0.1186339E+00
        -11   -1    0    0    0    0  0.00000000000E+00  0.00000000000E+00  0.45593999997E+02  0.45594000000E+02  0.51100000000E-03 0.  1.
         11   -1    0    0    0    0 -0.00000000000E+00 -0.00000000000E+00 -0.45593999997E+02  0.45594000000E+02  0.51100000000E-03 0. -1.
    9900012    2    1    2    0    0 -0.77714901740E+00  0.87429788308E+00  0.15696339096E+00  0.90007747955E+02  0.90000009428E+02 0.  0.
        -12    1    1    2    0    0  0.77714901740E+00 -0.87429788308E+00 -0.15696339096E+00  0.11802520450E+01  0.00000000000E+00 0.  1.
         11    1    3    3    0    0 -0.61635259079E+01 -0.82788480726E+01 -0.22478122299E+01  0.10563192562E+02  0.51100000000E-03 0. -1.
        -11    1    3    3    0    0 -0.14946774799E+02 -0.24359231336E+02  0.21575868107E+02  0.35809165209E+02  0.51100000000E-03 0.  1.
         12    1    3    3    0    0  0.20333151690E+02  0.33512377291E+02 -0.19171092486E+02  0.43635390183E+02  0.00000000000E+00 0. -1.
</event>
<event>
 7    1  0.3743571E-015  0.9000770E+02  0.7816164E-02  0.1186339E+00
        -11   -1    0    0    0    0  0.00000000000E+00  0.00000000000E+00  0.45593999997E+02  0.45594000000E+02  0.51100000000E-03 0.  1.
         11   -1    0    0    0    0 -0.00000000000E+00 -0.00000000000E+00 -0.45593999997E+02  0.45594000000E+02  0.51100000000E-03 0. -1.
    9900012    2    1    2    0    0  0.75250672409E+00 -0.84139503238E+00 -0.34482788472E+00  0.90007695700E+02  0.89999956483E+02 0.  0.
        -12    1    1    2    0    0 -0.75250672409E+00  0.84139503238E+00  0.34482788472E+00  0.11803042999E+01  0.00000000000E+00 0.  1.
         11    1    3    3    0    0 -0.54630536278E+00  0.27727395499E+02  0.11647306910E+02  0.30079339574E+02  0.51100000000E-03 0. -1.
        -11    1    3    3    0    0 -0.21916706326E+02 -0.21936260789E+01  0.19805106055E+01  0.22115072554E+02  0.51100000000E-03 0.  1.
        -12    1    3    3    0    0  0.23215518413E+02 -0.26375164452E+02 -0.13972645400E+02  0.37813283572E+02  0.00000000000E+00 0.  1.
</event>
<event>
 7    1  0.3743571E-015  0.9000773E+02  0.7816164E-02  0.1186339E+00
        -11   -1    0    0    0    0  0.00000000000E+00  0.00000000000E+00  0.45593999997E+02  0.45594000000E+02  0.51100000000E-03 0.  1.
         11   -1    0    0    0    0 -0.00000000000E+00 -0.00000000000E+00 -0.45593999997E+02  0.45594000000E+02  0.51100000000E-03 0. -1.
    9900012    2    1    2    0    0 -0.36684861638E+00  0.11217872630E+01 -0.75223997497E-02  0.90007728354E+02  0.89999989569E+02 0.  0.
        -12    1    1    2    0    0  0.36684861638E+00 -0.11217872630E+01  0.75223997497E-02  0.11802716455E+01  0.00000000000E+00 0.  1.
         11    1    3    3    0    0 -0.20292758288E+01  0.74465656020E+01 -0.12082051505E+01  0.78121098047E+01  0.51100000000E-03 0. -1.
        -11    1    3    3    0    0 -0.29772360112E+02 -0.10100096626E+02  0.26932016202E+02  0.41397329327E+02  0.51100000000E-03 0.  1.
         12    1    3    3    0    0  0.31434787324E+02  0.37753182872E+01 -0.25731333451E+02  0.40798289222E+02  0.00000000000E+00 0. -1.
</event>
<event>
 7    1  0.3743571E-015  0.9000773E+02  0.7816164E-02  0.1186339E+00
        -11   -1    0    0    0    0  0.00000000000E+00  0.00000000000E+00  0.45593999997E+02  0.45594000000E+02  0.51100000000E-03 0. -1.
         11   -1    0    0    0    0 -0.00000000000E+00 -0.00000000000E+00 -0.45593999997E+02  0.45594000000E+02  0.51100000000E-03 0.  1.
    9900012    2    1    2    0    0  0.63325271745E+00 -0.90418787910E+00  0.41768786825E+00  0.90007733979E+02  0.89999995268E+02 0.  0.
        -12    1    1    2    0    0 -0.63325271745E+00  0.90418787910E+00 -0.41768786825E+00  0.11802660209E+01  0.00000000000E+00 0.  1.
         11    1    3    3    0    0  0.53505985890E+01 -0.29187976971E+01 -0.38641190427E+01  0.72166267393E+01  0.51100000000E-03 0. -1.
        -11    1    3    3    0    0  0.18066233449E+02  0.54840461270E+01 -0.33546988955E+02  0.38494986962E+02  0.51100000000E-03 0.  1.
         12    1    3    3    0    0 -0.22783579321E+02 -0.34694363090E+01  0.37828795866E+02  0.44296120278E+02  0.00000000000E+00 0. -1.
</event>
<event>
 7    1  0.3743571E-015  0.9000779E+02  0.7816164E-02  0.1186339E+00
        -11   -1    0    0    0    0  0.00000000000E+00  0.00000000000E+00  0.45593999997E+02  0.45594000000E+02  0.51100000000E-03 0.  1.
         11   -1    0    0    0    0 -0.00000000000E+00 -0.00000000000E+00 -0.45593999997E+02  0.45594000000E+02  0.51100000000E-03 0. -1.
    9900012    2    1    2    0    0 -0.80775418391E+00 -0.81314187676E+00 -0.28145805293E+00  0.90007794438E+02  0.90000056524E+02 0.  0.
        -12    1    1    2    0    0  0.80775418391E+00  0.81314187676E+00  0.28145805293E+00  0.11802055622E+01  0.00000000000E+00 0.  1.
         11    1    3    3    0    0 -0.41545333150E+01 -0.40309803741E+02 -0.15720300121E+02  0.43465713624E+02  0.51100000000E-03 0. -1.
        -11    1    3    3    0    0  0.73177179609E+01  0.43975252563E+01  0.21680438224E+01  0.88083845744E+01  0.51100000000E-03 0.  1.
        -12    1    3    3    0    0 -0.39709388298E+01  0.35099136608E+02  0.13270798245E+02  0.37733696239E+02  0.00000000000E+00 0.  1.
</event>
<event>
 7    1  0.3743571E-015  0.9000777E+02  0.7816164E-02  0.1186339E+00
        -11   -1    0    0    0    0  0.00000000000E+00  0.00000000000E+00  0.45593999997E+02  0.45594000000E+02  0.51100000000E-03 0.  1.
         11   -1    0    0    0    0 -0.00000000000E+00 -0.00000000000E+00 -0.45593999997E+02  0.45594000000E+02  0.51100000000E-03 0. -1.
    9900012    2    1    2    0    0 -0.54016979469E+00  0.93526036174E+00 -0.47587602477E+00  0.90007765556E+02  0.90000027262E+02 0.  0.
        -12    1    1    2    0    0  0.54016979469E+00 -0.93526036174E+00  0.47587602477E+00  0.11802344438E+01  0.00000000000E+00 0.  1.
         11    1    3    3    0    0 -0.28747463644E+01  0.33564666277E+02  0.14674342061E+02  0.36744894940E+02  0.51100000000E-03 0. -1.
        -11    1    3    3    0    0 -0.44663801499E+01  0.52897526445E+01  0.61342993105E+01  0.92498466460E+01  0.51100000000E-03 0.  1.
        -12    1    3    3    0    0  0.68009567196E+01 -0.37919158560E+02 -0.21284517397E+02  0.44013023970E+02  0.00000000000E+00 0.  1.
</event>
<event>
 7    1  0.3743571E-015  0.9000769E+02  0.7816164E-02  0.1186339E+00
        -11   -1    0    0    0    0  0.00000000000E+00  0.00000000000E+00  0.45593999997E+02  0.45594000000E+02  0.51100000000E-03 0. -1.
         11   -1    0    0    0    0 -0.00000000000E+00 -0.00000000000E+00 -0.45593999997E+02  0.45594000000E+02  0.51100000000E-03 0.  1.
    9900012    2    1    2    0    0 -0.58745125799E+00 -0.98071379975E+00 -0.29364449851E+00  0.90007692570E+02  0.89999953312E+02 0.  0.
        -12    1    1    2    0    0  0.58745125799E+00  0.98071379975E+00  0.29364449851E+00  0.11803074299E+01  0.00000000000E+00 0.  1.
         11    1    3    3    0    0  0.42972808856E+01 -0.15426438026E+01 -0.90485021656E+01  0.10135174622E+02  0.51100000000E-03 0. -1.
        -11    1    3    3    0    0  0.13824079410E+02  0.35894523398E+02  0.10442272650E+02  0.39856781605E+02  0.51100000000E-03 0.  1.
         12    1    3    3    0    0 -0.18708811554E+02 -0.35332593395E+02 -0.16874149832E+01  0.40015736344E+02  0.00000000000E+00 0. -1.
</event>
<event>
 7    1  0.3743571E-015  0.9000771E+02  0.7816164E-02  0.1186339E+00
        -11   -1    0    0    0    0  0.00000000000E+00  0.00000000000E+00  0.45593999997E+02  0.45594000000E+02  0.51100000000E-03 0. -1.
         11   -1    0    0    0    0 -0.00000000000E+00 -0.00000000000E+00 -0.45593999997E+02  0.45594000000E+02  0.51100000000E-03 0.  1.
    9900012    2    1    2    0    0 -0.25820662392E+00 -0.71959200823E+00 -0.89922894614E+00  0.90007705115E+02  0.89999966022E+02 0.  0.
        -12    1    1    2    0    0  0.25820662392E+00  0.71959200823E+00  0.89922894614E+00  0.11802948854E+01  0.00000000000E+00 0.  1.
         11    1    3    3    0    0 -0.89061973903E-01 -0.35616054951E+02  0.14898090348E+02  0.38606533108E+02  0.51100000000E-03 0. -1.
        -11    1    3    3    0    0 -0.23179623074E+01  0.22886826881E+01  0.95206650795E+01  0.10062508709E+02  0.51100000000E-03 0.  1.
        -12    1    3    3    0    0  0.21488176574E+01  0.32607780255E+02 -0.25317984374E+02  0.41338663298E+02  0.00000000000E+00 0.  1.
</event>
<event>
 7    1  0.3743571E-015  0.9000778E+02  0.7816164E-02  0.1186339E+00
        -11   -1    0    0    0    0  0.00000000000E+00  0.00000000000E+00  0.45593999997E+02  0.45594000000E+02  0.51100000000E-03 0. -1.
         11   -1    0    0    0    0 -0.00000000000E+00 -0.00000000000E+00 -0.45593999997E+02  0.45594000000E+02  0.51100000000E-03 0.  1.
    9900012    2    1    2    0    0 -0.27451801900E-01  0.90579614703E+00  0.75610947944E+00  0.90007778916E+02  0.90000040798E+02 0.  0.
        -12    1    1    2    0    0  0.27451801900E-01 -0.90579614703E+00 -0.75610947944E+00  0.11802210837E+01  0.00000000000E+00 0.  1.
         11    1    3    3    0    0 -0.18226567983E+02  0.25857874022E+01  0.33601231595E+02  0.38313663906E+02  0.51100000000E-03 0. -1.
        -11    1    3    3    0    0 -0.19751691449E+01  0.49348617574E+01  0.56344322720E+01  0.77460300157E+01  0.51100000000E-03 0.  1.
        -12    1    3    3    0    0  0.20174285326E+02 -0.66148530125E+01 -0.38479554388E+02  0.43948084994E+02  0.00000000000E+00 0.  1.
</event>
<event>
 7    1  0.3743571E-015  0.9000794E+02  0.7816164E-02  0.1186339E+00
        -11   -1    0    0    0    0  0.00000000000E+00  0.00000000000E+00  0.45593999997E+02  0.45594000000E+02  0.51100000000E-03 0. -1.
         11   -1    0    0    0    0 -0.00000000000E+00 -0.00000000000E+00 -0.45593999997E+02  0.45594000000E+02  0.51100000000E-03 0.  1.
    9900012    2    1    2    0    0  0.87995750909E+00 -0.74116437766E-01  0.78277084946E+00  0.90007937007E+02  0.90000200975E+02 0.  0.
        -12    1    1    2    0    0 -0.87995750909E+00  0.74116437766E-01 -0.78277084946E+00  0.11800629928E+01  0.00000000000E+00 0.  1.
         11    1    3    3    0    0  0.17238029303E+02  0.26144193025E+02 -0.55128021262E+01  0.31797161363E+02  0.51100000000E-03 0. -1.
        -11    1    3    3    0    0  0.14065160862E+02  0.99857928244E+00 -0.63666744349E+01  0.15471278366E+02  0.51100000000E-03 0.  1.
        -12    1    3    3    0    0 -0.30423232655E+02 -0.27216888745E+02  0.12662247411E+02  0.42739497279E+02  0.00000000000E+00 0.  1.
</event>
<event>
 7    1  0.3743571E-015  0.9000773E+02  0.7816164E-02  0.1186339E+00
        -11   -1    0    0    0    0  0.00000000000E+00  0.00000000000E+00  0.45593999997E+02  0.45594000000E+02  0.51100000000E-03 0.  1.
         11   -1    0    0    0    0 -0.00000000000E+00 -0.00000000000E+00 -0.45593999997E+02  0.45594000000E+02  0.51100000000E-03 0. -1.
    9900012    2    1    2    0    0  0.55382218319E+00  0.25563298033E+00 -0.10104305349E+01  0.90007730074E+02  0.89999991311E+02 0.  0.
        -12    1    1    2    0    0 -0.55382218319E+00 -0.25563298033E+00  0.10104305349E+01  0.11802699255E+01  0.00000000000E+00 0.  1.
         11    1    3    3    0    0 -0.82609121360E+01  0.37255686916E+02 -0.20464964333E+02  0.43301774124E+02  0.51100000000E-03 0. -1.
        -11    1    3    3    0    0  0.35088876981E+01 -0.13466974187E+01  0.80742737747E+01  0.89061655085E+01  0.51100000000E-03 0.  1.
        -12    1    3    3    0    0  0.53058466211E+01 -0.35653356517E+02  0.11380260023E+02  0.37799790442E+02  0.00000000000E+00 0.  1.
</event>
<event>
 7    1  0.3743571E-015  0.9000772E+02  0.7816164E-02  0.1186339E+00
        -11   -1    0    0    0    0  0.00000000000E+00  0.00000000000E+00  0.45593999997E+02  0.45594000000E+02  0.51100000000E-03 0.  1.
         11   -1    0    0    0    0 -0.00000000000E+00 -0.00000000000E+00 -0.45593999997E+02  0.45594000000E+02  0.51100000000E-03 0. -1.
    9900012    2    1    2    0    0 -0.91546716256E+00 -0.26615751768E+00 -0.69579646998E+00  0.90007723474E+02  0.89999984624E+02 0.  0.
        -12    1    1    2    0    0  0.91546716256E+00  0.26615751768E+00  0.69579646998E+00  0.11802765259E+01  0.00000000000E+00 0.  1.
         11    1    3    3    0    0  0.23857869133E+02  0.32239234130E+02 -0.40608890364E+01  0.40311995199E+02  0.51100000000E-03 0. -1.
        -11    1    3    3    0    0  0.56173553333E+01 -0.67742652633E+01  0.44476146649E+01  0.98603563458E+01  0.51100000000E-03 0.  1.
        -12    1    3    3    0    0 -0.30390691629E+02 -0.25731126385E+02 -0.10825220984E+01  0.39835371930E+02  0.00000000000E+00 0.  1.
</event>
<event>
 7    1  0.3743571E-015  0.9000773E+02  0.7816164E-02  0.1186339E+00
        -11   -1    0    0    0    0  0.00000000000E+00  0.00000000000E+00  0.45593999997E+02  0.45594000000E+02  0.51100000000E-03 0.  1.
         11   -1    0    0    0    0 -0.00000000000E+00 -0.00000000000E+00 -0.45593999997E+02  0.45594000000E+02  0.51100000000E-03 0. -1.
    9900012    2    1    2    0    0 -0.12069994336E+00 -0.50715688771E+00 -0.10588958925E+01  0.90007730075E+02  0.89999991312E+02 0.  0.
        -12    1    1    2    0    0  0.12069994336E+00  0.50715688771E+00  0.10588958925E+01  0.11802699252E+01  0.00000000000E+00 0.  1.
         11    1    3    3    0    0  0.64477596890E+01  0.57719387886E+01  0.30090610321E+01  0.91620593178E+01  0.51100000000E-03 0. -1.
        -11    1    3    3    0    0 -0.14117855428E+02 -0.56405227590E+00  0.36525231906E+02  0.39162795647E+02  0.51100000000E-03 0.  1.
         12    1    3    3    0    0  0.75493957952E+01 -0.57150434004E+01 -0.40593188831E+02  0.41682875110E+02  0.00000000000E+00 0. -1.
</event>
<event>
 7    1  0.3743571E-015  0.9000770E+02  0.7816164E-02  0.1186339E+00
        -11   -1    0    0    0    0  0.00000000000E+00  0.00000000000E+00  0.45593999997E+02  0.45594000000E+02  0.51100000000E-03 0. -1.
         11   -1    0    0    0    0 -0.00000000000E+00 -0.00000000000E+00 -0.45593999997E+02  0.45594000000E+02  0.51100000000E-03 0.  1.
    9900012    2    1    2    0    0  0.11119398155E+01 -0.30583415839E+00  0.25130233792E+00  0.90007704465E+02  0.89999965364E+02 0.  0.
        -12    1    1    2    0    0 -0.11119398155E+01  0.30583415839E+00 -0.25130233792E+00  0.11802955354E+01  0.00000000000E+00 0.  1.
         11    1    3    3    0    0 -0.25694610319E+02 -0.11457370223E+02  0.21227826662E+02  0.35243509430E+02  0.51100000000E-03 0. -1.
        -11    1    3    3    0    0  0.50411823055E+01 -0.44879024864E+01  0.11083598671E+02  0.12976939066E+02  0.51100000000E-03 0.  1.
        -12    1    3    3    0    0  0.21765367829E+02  0.15639438551E+02 -0.32060122995E+02  0.41787255969E+02  0.00000000000E+00 0.  1.
</event>
<event>
 7    1  0.3743571E-015  0.9000775E+02  0.7816164E-02  0.1186339E+00
        -11   -1    0    0    0    0  0.00000000000E+00  0.00000000000E+00  0.45593999997E+02  0.45594000000E+02  0.51100000000E-03 0.  1.
         11   -1    0    0    0    0 -0.00000000000E+00 -0.00000000000E+00 -0.45593999997E+02  0.45594000000E+02  0.51100000000E-03 0. -1.
    9900012    2    1    2    0    0  0.62896509852E+00  0.54118000677E+00  0.83935194286E+00  0.90007752323E+02  0.90000013854E+02 0.  0.
        -12    1    1    2    0    0 -0.62896509852E+00 -0.54118000677E+00 -0.83935194286E+00  0.11802476769E+01  0.00000000000E+00 0.  1.
         11    1    3    3    0    0  0.23064654945E+02  0.32058327668E+02  0.98994114415E+01  0.40715022139E+02  0.51100000000E-03 0. -1.
        -11    1    3    3    0    0  0.24294360224E+01 -0.21508850662E+02 -0.43462519281E+01  0.22077652101E+02  0.51100000000E-03 0.  1.
        -12    1    3    3    0    0 -0.24865125869E+02 -0.10008296999E+02 -0.47138075706E+01  0.27215078084E+02  0.00000000000E+00 0.  1.
</event>
<event>
 7    1  0.3743571E-015  0.9000756E+02  0.7816164E-02  0.1186339E+00
        -11   -1    0    0    0    0  0.00000000000E+00  0.00000000000E+00  0.45593999997E+02  0.45594000000E+02  0.51100000000E-03 0.  1.
         11   -1    0    0    0    0 -0.00000000000E+00 -0.00000000000E+00 -0.45593999997E+02  0.45594000000E+02  0.51100000000E-03 0. -1.
    9900012    2    1    2    0    0 -0.44218408413E+00  0.46497956841E-01 -0.10935003832E+01  0.90007562830E+02  0.89999821859E+02 0.  0.
        -12    1    1    2    0    0  0.44218408413E+00 -0.46497956841E-01  0.10935003832E+01  0.11804371700E+01  0.00000000000E+00 0.  1.
         11    1    3    3    0    0 -0.11984208175E+02  0.32271966087E+02 -0.57331351943E+01  0.34899425211E+02  0.51100000000E-03 0. -1.
        -11    1    3    3    0    0 -0.18062413457E+01  0.87586864782E+01  0.78310248576E+01  0.11887053765E+02  0.51100000000E-03 0.  1.
        -12    1    3    3    0    0  0.13348265436E+02 -0.40984154608E+02 -0.31913900464E+01  0.43221083854E+02  0.00000000000E+00 0.  1.
</event>
<event>
 7    1  0.3743571E-015  0.9000782E+02  0.7816164E-02  0.1186339E+00
        -11   -1    0    0    0    0  0.00000000000E+00  0.00000000000E+00  0.45593999997E+02  0.45594000000E+02  0.51100000000E-03 0.  1.
         11   -1    0    0    0    0 -0.00000000000E+00 -0.00000000000E+00 -0.45593999997E+02  0.45594000000E+02  0.51100000000E-03 0. -1.
    9900012    2    1    2    0    0  0.26300986604E-01 -0.11772730502E+01 -0.78526238729E-01  0.90007817833E+02  0.90000080229E+02 0.  0.
        -12    1    1    2    0    0 -0.26300986604E-01  0.11772730502E+01  0.78526238729E-01  0.11801821668E+01  0.00000000000E+00 0.  1.
         11    1    3    3    0    0 -0.30450539336E+02  0.30526663198E+02  0.17572606574E+01  0.43153220936E+02  0.51100000000E-03 0. -1.
        -11    1    3    3    0    0  0.96681912928E+01 -0.10713048271E+01  0.57510716617E+00  0.97443504361E+01  0.51100000000E-03 0.  1.
        -12    1    3    3    0    0  0.20808649030E+02 -0.30632631421E+02 -0.24108940623E+01  0.37110246461E+02  0.00000000000E+00 0.  1.
</event>
<event>
 7    1  0.3743571E-015  0.9000788E+02  0.7816164E-02  0.1186339E+00
        -11   -1    0    0    0    0  0.00000000000E+00  0.00000000000E+00  0.45593999997E+02  0.45594000000E+02  0.51100000000E-03 0.  1.
         11   -1    0    0    0    0 -0.00000000000E+00 -0.00000000000E+00 -0.45593999997E+02  0.45594000000E+02  0.51100000000E-03 0. -1.
    9900012    2    1    2    0    0  0.10634045774E+01  0.19900196063E+00 -0.47143347698E+00  0.90007881108E+02  0.90000144339E+02 0.  0.
        -12    1    1    2    0    0 -0.10634045774E+01 -0.19900196063E+00  0.47143347698E+00  0.11801188918E+01  0.00000000000E+00 0.  1.
         11    1    3    3    0    0  0.72112427211E+01  0.15875808688E+01  0.49773172846E+01  0.89048370120E+01  0.51100000000E-03 0. -1.
        -11    1    3    3    0    0 -0.38919720415E+02  0.68433290535E+00  0.15778453379E+02  0.42002053998E+02  0.51100000000E-03 0.  1.
         12    1    3    3    0    0  0.32771882272E+02 -0.20729118136E+01 -0.21227204141E+02  0.39100990098E+02  0.00000000000E+00 0. -1.
</event>
<event>
 7    1  0.3743571E-015  0.9000750E+02  0.7816164E-02  0.1186340E+00
        -11   -1    0    0    0    0  0.00000000000E+00  0.00000000000E+00  0.45593999997E+02  0.45594000000E+02  0.51100000000E-03 0.  1.
         11   -1    0    0    0    0 -0.00000000000E+00 -0.00000000000E+00 -0.45593999997E+02  0.45594000000E+02  0.51100000000E-03 0. -1.
    9900012    2    1    2    0    0 -0.86922865121E+00  0.56261316833E+00 -0.56699517189E+00  0.90007501991E+02  0.89999760217E+02 0.  0.
        -12    1    1    2    0    0  0.86922865121E+00 -0.56261316833E+00  0.56699517189E+00  0.11804980094E+01  0.00000000000E+00 0.  1.
         11    1    3    3    0    0  0.20168839227E+02  0.20547715189E+02 -0.23637204129E+02  0.37251954238E+02  0.51100000000E-03 0. -1.
        -11    1    3    3    0    0  0.29383842923E+01  0.92030185713E+01  0.51341408056E+01  0.10940249318E+02  0.51100000000E-03 0.  1.
        -12    1    3    3    0    0 -0.23976452170E+02 -0.29188120592E+02  0.17936068152E+02  0.41815298434E+02  0.00000000000E+00 0.  1.
</event>
<event>
 7    1  0.3743571E-015  0.9000772E+02  0.7816164E-02  0.1186339E+00
        -11   -1    0    0    0    0  0.00000000000E+00  0.00000000000E+00  0.45593999997E+02  0.45594000000E+02  0.51100000000E-03 0. -1.
         11   -1    0    0    0    0 -0.00000000000E+00 -0.00000000000E+00 -0.45593999997E+02  0.45594000000E+02  0.51100000000E-03 0.  1.
    9900012    2    1    2    0    0 -0.59694470904E+00  0.36154413192E+00  0.95184036434E+00  0.90007721548E+02  0.89999982672E+02 0.  0.
        -12    1    1    2    0    0  0.59694470904E+00 -0.36154413192E+00 -0.95184036434E+00  0.11802784520E+01  0.00000000000E+00 0.  1.
         11    1    3    3    0    0 -0.32790157059E+02  0.11645055528E+02  0.49869821831E+01  0.35152122408E+02  0.51100000000E-03 0. -1.
        -11    1    3    3    0    0 -0.74923712467E+01  0.25414687477E+01  0.78881572257E+01  0.11172184879E+02  0.51100000000E-03 0.  1.
        -12    1    3    3    0    0  0.39685583597E+02 -0.13824980144E+02 -0.11923299045E+02  0.43683414261E+02  0.00000000000E+00 0.  1.
</event>
<event>
 7    1  0.3743571E-015  0.9000782E+02  0.7816164E-02  0.1186339E+00
        -11   -1    0    0    0    0  0.00000000000E+00  0.00000000000E+00  0.45593999997E+02  0.45594000000E+02  0.51100000000E-03 0.  1.
         11   -1    0    0    0    0 -0.00000000000E+00 -0.00000000000E+00 -0.45593999997E+02  0.45594000000E+02  0.51100000000E-03 0. -1.
    9900012    2    1    2    0    0  0.81948163066E-01  0.10602005215E+01 -0.51194220833E+00  0.90007819729E+02  0.90000082149E+02 0.  0.
        -12    1    1    2    0    0 -0.81948163066E-01 -0.10602005215E+01  0.51194220833E+00  0.11801802710E+01  0.00000000000E+00 0.  1.
         11    1    3    3    0    0  0.89175597798E+01  0.28411625938E+01 -0.40884952974E+01  0.10213269377E+02  0.51100000000E-03 0. -1.
        -11    1    3    3    0    0  0.10475153067E+02 -0.18976524783E+02  0.33716538927E+02  0.40082943032E+02  0.51100000000E-03 0.  1.
         12    1    3    3    0    0 -0.19310764684E+02  0.17195562711E+02 -0.30139985838E+02  0.39711607320E+02  0.00000000000E+00 0. -1.
</event>
<event>
 7    1  0.3743571E-015  0.9000751E+02  0.7816164E-02  0.1186340E+00
        -11   -1    0    0    0    0  0.00000000000E+00  0.00000000000E+00  0.45593999997E+02  0.45594000000E+02  0.51100000000E-03 0.  1.
         11   -1    0    0    0    0 -0.00000000000E+00 -0.00000000000E+00 -0.45593999997E+02  0.45594000000E+02  0.51100000000E-03 0. -1.
    9900012    2    1    2    0    0  0.86881668881E+00  0.22298563332E+00 -0.76745989993E+00  0.90007508692E+02  0.89999767006E+02 0.  0.
        -12    1    1    2    0    0 -0.86881668881E+00 -0.22298563332E+00  0.76745989993E+00  0.11804913085E+01  0.00000000000E+00 0.  1.
         11    1    3    3    0    0  0.32544007363E+02  0.18031522743E+02  0.73020991750E+01  0.37915285576E+02  0.51100000000E-03 0. -1.
        -11    1    3    3    0    0  0.56292025023E+01 -0.11313727849E+01 -0.96167329444E+01  0.11200423116E+02  0.51100000000E-03 0.  1.
        -12    1    3    3    0    0 -0.37304393177E+02 -0.16677164325E+02  0.15471738695E+01  0.40891799999E+02  0.00000000000E+00 0.  1.
</event>
<event>
 7    1  0.3743571E-015  0.9000775E+02  0.7816164E-02  0.1186339E+00
        -11   -1    0    0    0    0  0.00000000000E+00  0.00000000000E+00  0.45593999997E+02  0.45594000000E+02  0.51100000000E-03 0. -1.
         11   -1    0    0    0    0 -0.00000000000E+00 -0.00000000000E+00 -0.45593999997E+02  0.45594000000E+02  0.51100000000E-03 0.  1.
    9900012    2    1    2    0    0  0.10219442965E+01 -0.57006321491E+00 -0.15381683507E+00  0.90007745014E+02  0.90000006448E+02 0.  0.
        -12    1    1    2    0    0 -0.10219442965E+01  0.57006321491E+00  0.15381683507E+00  0.11802549864E+01  0.00000000000E+00 0.  1.
         11    1    3    3    0    0 -0.12123269551E+01  0.83482450379E+01  0.43268877278E+00  0.84469018991E+01  0.51100000000E-03 0. -1.
        -11    1    3    3    0    0  0.38072931150E+02  0.16334290824E+01 -0.15758812666E+02  0.41237802485E+02  0.51100000000E-03 0.  1.
         12    1    3    3    0    0 -0.35838659898E+02 -0.10551737335E+02  0.15172307058E+02  0.40323040629E+02  0.00000000000E+00 0. -1.
</event>
<event>
 7    1  0.3743571E-015  0.9000772E+02  0.7816164E-02  0.1186339E+00
        -11   -1    0    0    0    0  0.00000000000E+00  0.00000000000E+00  0.45593999997E+02  0.45594000000E+02  0.51100000000E-03 0.  1.
         11   -1    0    0    0    0 -0.00000000000E+00 -0.00000000000E+00 -0.45593999997E+02  0.45594000000E+02  0.51100000000E-03 0. -1.
    9900012    2    1    2    0    0  0.97761505869E+00 -0.66099131143E+00 -0.20783138726E-01  0.90007715011E+02  0.89999976049E+02 0.  0.
        -12    1    1    2    0    0 -0.97761505869E+00  0.66099131143E+00  0.20783138726E-01  0.11802849892E+01  0.00000000000E+00 0.  1.
         11    1    3    3    0    0 -0.77180053109E+01 -0.27184565115E+00 -0.32996375223E+01  0.83981613510E+01  0.51100000000E-03 0. -1.
        -11    1    3    3    0    0 -0.18313872781E+02 -0.29717330203E+02 -0.14695859453E+02  0.37874608063E+02  0.51100000000E-03 0.  1.
         12    1    3    3    0    0  0.27009493151E+02  0.29328184542E+02  0.17974713836E+02  0.43734945597E+02  0.00000000000E+00 0. -1.
</event>
<event>
 7    1  0.3743571E-015  0.9000765E+02  0.7816164E-02  0.1186339E+00
        -11   -1    0    0    0    0  0.00000000000E+00  0.00000000000E+00  0.45593999997E+02  0.45594000000E+02  0.51100000000E-03 0.  1.
         11   -1    0    0    0    0 -0.00000000000E+00 -0.00000000000E+00 -0.45593999997E+02  0.45594000000E+02  0.51100000000E-03 0. -1.
    9900012    2    1    2    0    0  0.61884675558E+00  0.36352728983E+00 -0.93706659581E+00  0.90007653779E+02  0.89999914008E+02 0.  0.
        -12    1    1    2    0    0 -0.61884675558E+00 -0.36352728983E+00  0.93706659581E+00  0.11803462214E+01  0.00000000000E+00 0.  1.
         11    1    3    3    0    0  0.13319032474E+02  0.10522231121E+02 -0.30364812685E+02  0.34787006532E+02  0.51100000000E-03 0. -1.
        -11    1    3    3    0    0 -0.20101474745E+01  0.33168593752E+01 -0.10797033854E+02  0.11472497082E+02  0.51100000000E-03 0.  1.
        -12    1    3    3    0    0 -0.10690038244E+02 -0.13475563206E+02  0.40224779943E+02  0.43748150165E+02  0.00000000000E+00 0.  1.
</event>
<event>
 7    1  0.3743571E-015  0.9000770E+02  0.7816164E-02  0.1186339E+00
        -11   -1    0    0    0    0  0.00000000000E+00  0.00000000000E+00  0.45593999997E+02  0.45594000000E+02  0.51100000000E-03 0.  1.
         11   -1    0    0    0    0 -0.00000000000E+00 -0.00000000000E+00 -0.45593999997E+02  0.45594000000E+02  0.51100000000E-03 0. -1.
    9900012    2    1    2    0    0  0.10682830971E+01 -0.47535801877E+00 -0.16095865200E+00  0.90007702703E+02  0.89999963579E+02 0.  0.
        -12    1    1    2    0    0 -0.10682830971E+01  0.47535801877E+00  0.16095865200E+00  0.11802972970E+01  0.00000000000E+00 0.  1.
         11    1    3    3    0    0  0.21461825022E+02  0.80076166616E+01 -0.28347474486E+02  0.36446003455E+02  0.51100000000E-03 0. -1.
        -11    1    3    3    0    0  0.62669221858E+01 -0.73504771763E+01 -0.50811527730E+01  0.10914299894E+02  0.51100000000E-03 0.  1.
        -12    1    3    3    0    0 -0.26660464111E+02 -0.11324975041E+01  0.33267668607E+02  0.42647399355E+02  0.00000000000E+00 0.  1.
</event>
<event>
 7    1  0.3743571E-015  0.9000764E+02  0.7816164E-02  0.1186339E+00
        -11   -1    0    0    0    0  0.00000000000E+00  0.00000000000E+00  0.45593999997E+02  0.45594000000E+02  0.51100000000E-03 0.  1.
         11   -1    0    0    0    0 -0.00000000000E+00 -0.00000000000E+00 -0.45593999997E+02  0.45594000000E+02  0.51100000000E-03 0. -1.
    9900012    2    1    2    0    0  0.85677270094E+00 -0.48052953069E+00 -0.65443677871E+00  0.90007637518E+02  0.89999897533E+02 0.  0.
        -12    1    1    2    0    0 -0.85677270094E+00  0.48052953069E+00  0.65443677871E+00  0.11803624817E+01  0.00000000000E+00 0.  1.
         11    1    3    3    0    0  0.10434809123E+02  0.34889317568E+02  0.16455811991E+02  0.39961775115E+02  0.51100000000E-03 0. -1.
        -11    1    3    3    0    0 -0.78788585224E+01  0.29524257467E+01 -0.51489192286E+01  0.98643093468E+01  0.51100000000E-03 0.  1.
        -12    1    3    3    0    0 -0.16991778991E+01 -0.38322272846E+02 -0.11961329541E+02  0.40181553056E+02  0.00000000000E+00 0.  1.
</event>
<event>
 7    1  0.3743571E-015  0.9000774E+02  0.7816164E-02  0.1186339E+00
        -11   -1    0    0    0    0  0.00000000000E+00  0.00000000000E+00  0.45593999997E+02  0.45594000000E+02  0.51100000000E-03 0. -1.
         11   -1    0    0    0    0 -0.00000000000E+00 -0.00000000000E+00 -0.45593999997E+02  0.45594000000E+02  0.51100000000E-03 0.  1.
    9900012    2    1    2    0    0  0.15490849819E+00  0.11112201753E+01  0.36633610208E+00  0.90007741952E+02  0.90000003345E+02 0.  0.
        -12    1    1    2    0    0 -0.15490849819E+00 -0.11112201753E+01 -0.36633610208E+00  0.11802580483E+01  0.00000000000E+00 0.  1.
         11    1    3    3    0    0  0.14302118017E+02  0.74661799736E+01  0.41236725055E+02  0.44280491378E+02  0.51100000000E-03 0. -1.
        -11    1    3    3    0    0 -0.41304892706E+01 -0.38194978705E+01 -0.28086242437E+01  0.62879150758E+01  0.51100000000E-03 0.  1.
        -12    1    3    3    0    0 -0.10016720249E+02 -0.25354619278E+01 -0.38061764709E+02  0.39439335498E+02  0.00000000000E+00 0.  1.
</event>
<event>
 7    1  0.3743571E-015  0.9000762E+02  0.7816164E-02  0.1186339E+00
        -11   -1    0    0    0    0  0.00000000000E+00  0.00000000000E+00  0.45593999997E+02  0.45594000000E+02  0.51100000000E-03 0.  1.
         11   -1    0    0    0    0 -0.00000000000E+00 -0.00000000000E+00 -0.45593999997E+02  0.45594000000E+02  0.51100000000E-03 0. -1.
    9900012    2    1    2    0    0 -0.57721114643E+00 -0.10034273352E+01  0.23078320112E+00  0.90007618701E+02  0.89999878468E+02 0.  0.
        -12    1    1    2    0    0  0.57721114643E+00  0.10034273352E+01 -0.23078320112E+00  0.11803812988E+01  0.00000000000E+00 0.  1.
         11    1    3    3    0    0 -0.32466675137E+01 -0.51470542262E+01 -0.60663181954E+01  0.85926267149E+01  0.51100000000E-03 0. -1.
        -11    1    3    3    0    0  0.24376526126E+02 -0.26640980836E+02 -0.13876580780E+02  0.38684833983E+02  0.51100000000E-03 0.  1.
         12    1    3    3    0    0 -0.21707069758E+02  0.30784607727E+02  0.20173682177E+02  0.42730158003E+02  0.00000000000E+00 0. -1.
</event>
<event>
 7    1  0.3743571E-015  0.9000771E+02  0.7816164E-02  0.1186339E+00
        -11   -1    0    0    0    0  0.00000000000E+00  0.00000000000E+00  0.45593999997E+02  0.45594000000E+02  0.51100000000E-03 0.  1.
         11   -1    0    0    0    0 -0.00000000000E+00 -0.00000000000E+00 -0.45593999997E+02  0.45594000000E+02  0.51100000000E-03 0. -1.
    9900012    2    1    2    0    0  0.60880168434E+00 -0.33025971716E+00 -0.95570352630E+00  0.90007711814E+02  0.89999972810E+02 0.  0.
        -12    1    1    2    0    0 -0.60880168434E+00  0.33025971716E+00  0.95570352630E+00  0.11802881859E+01  0.00000000000E+00 0.  1.
         11    1    3    3    0    0  0.38692013279E+01 -0.73859085155E+00  0.88591760013E+01  0.96954234072E+01  0.51100000000E-03 0. -1.
        -11    1    3    3    0    0 -0.17455340170E+02  0.72963463806E+01  0.31132565788E+02  0.36430237766E+02  0.51100000000E-03 0.  1.
         12    1    3    3    0    0  0.14194940526E+02 -0.68880152462E+01 -0.40947445315E+02  0.43882050640E+02  0.00000000000E+00 0. -1.
</event>
<event>
 7    1  0.3743571E-015  0.9000746E+02  0.7816164E-02  0.1186340E+00
        -11   -1    0    0    0    0  0.00000000000E+00  0.00000000000E+00  0.45593999997E+02  0.45594000000E+02  0.51100000000E-03 0.  1.
         11   -1    0    0    0    0 -0.00000000000E+00 -0.00000000000E+00 -0.45593999997E+02  0.45594000000E+02  0.51100000000E-03 0. -1.
    9900012    2    1    2    0    0 -0.90403211025E+00  0.40113113641E+00  0.64458110514E+00  0.90007464085E+02  0.89999721811E+02 0.  0.
        -12    1    1    2    0    0  0.90403211025E+00 -0.40113113641E+00 -0.64458110514E+00  0.11805359148E+01  0.00000000000E+00 0.  1.
         11    1    3    3    0    0 -0.36734830755E+02  0.10641584965E+02  0.91365899976E+01  0.39321347869E+02  0.51100000000E-03 0. -1.
        -11    1    3    3    0    0 -0.40572268388E+01  0.89514479598E-01 -0.85698072192E+01  0.94821252101E+01  0.51100000000E-03 0.  1.
        -12    1    3    3    0    0  0.39888025484E+02 -0.10329968308E+02  0.77798326749E-01  0.41203991006E+02  0.00000000000E+00 0.  1.
</event>
<event>
 7    1  0.3743571E-015  0.9000777E+02  0.7816164E-02  0.1186339E+00
        -11   -1    0    0    0    0  0.00000000000E+00  0.00000000000E+00  0.45593999997E+02  0.45594000000E+02  0.51100000000E-03 0.  1.
         11   -1    0    0    0    0 -0.00000000000E+00 -0.00000000000E+00 -0.45593999997E+02  0.45594000000E+02  0.51100000000E-03 0. -1.
    9900012    2    1    2    0    0 -0.32075866567E-01 -0.10164078376E+01 -0.59903280946E+00  0.90007765252E+02  0.90000026953E+02 0.  0.
        -12    1    1    2    0    0  0.32075866567E-01  0.10164078376E+01  0.59903280946E+00  0.11802347480E+01  0.00000000000E+00 0.  1.
         11    1    3    3    0    0  0.65607636044E+01  0.58147012531E+01 -0.27497412009E+01  0.91877879094E+01  0.51100000000E-03 0. -1.
        -11    1    3    3    0    0 -0.14024685482E+02 -0.36993929864E+02  0.20686882725E+02  0.44645153901E+02  0.51100000000E-03 0.  1.
         12    1    3    3    0    0  0.74318460111E+01  0.30162820774E+02 -0.18536174333E+02  0.36174823442E+02  0.00000000000E+00 0. -1.
</event>
<event>
 7    1  0.3743571E-015  0.9000775E+02  0.7816164E-02  0.1186339E+00
        -11   -1    0    0    0    0  0.00000000000E+00  0.00000000000E+00  0.45593999997E+02  0.45594000000E+02  0.51100000000E-03 0. -1.
         11   -1    0    0    0    0 -0.00000000000E+00 -0.00000000000E+00 -0.45593999997E+02  0.45594000000E+02  0.51100000000E-03 0.  1.
    9900012    2    1    2    0    0  0.88604722597E+00 -0.66804330712E+00 -0.40202495897E+00  0.90007751884E+02  0.90000013409E+02 0.  0.
        -12    1    1    2    0    0 -0.88604722597E+00  0.66804330712E+00  0.40202495897E+00  0.11802481156E+01  0.00000000000E+00 0.  1.
         11    1    3    3    0    0  0.12918086621E+02 -0.32290745834E+02  0.14591205308E+02  0.37715679777E+02  0.51100000000E-03 0. -1.
        -11    1    3    3    0    0 -0.14863294011E+01  0.18840298885E+01  0.11094467866E+02  0.11351033486E+02  0.51100000000E-03 0.  1.
        -12    1    3    3    0    0 -0.10545709994E+02  0.29738672638E+02 -0.26087698133E+02  0.40941038622E+02  0.00000000000E+00 0.  1.
</event>
<event>
 7    1  0.3743571E-015  0.9000772E+02  0.7816164E-02  0.1186339E+00
        -11   -1    0    0    0    0  0.00000000000E+00  0.00000000000E+00  0.45593999997E+02  0.45594000000E+02  0.51100000000E-03 0. -1.
         11   -1    0    0    0    0 -0.00000000000E+00 -0.00000000000E+00 -0.45593999997E+02  0.45594000000E+02  0.51100000000E-03 0.  1.
    9900012    2    1    2    0    0 -0.11296083133E+01  0.23640900849E+00  0.24729849208E+00  0.90007720073E+02  0.89999981178E+02 0.  0.
        -12    1    1    2    0    0  0.11296083133E+01 -0.23640900849E+00 -0.24729849208E+00  0.11802799265E+01  0.00000000000E+00 0.  1.
         11    1    3    3    0    0 -0.73745792206E+01  0.42378799505E+01  0.11717116552E+01  0.85858577684E+01  0.51100000000E-03 0. -1.
        -11    1    3    3    0    0  0.81773168595E+01 -0.39666162592E+02  0.13802814804E+02  0.42787739629E+02  0.51100000000E-03 0.  1.
         12    1    3    3    0    0 -0.19323459522E+01  0.35664691650E+02 -0.14727227967E+02  0.38634122676E+02  0.00000000000E+00 0. -1.
</event>
<event>
 7    1  0.3743571E-015  0.9000774E+02  0.7816164E-02  0.1186339E+00
        -11   -1    0    0    0    0  0.00000000000E+00  0.00000000000E+00  0.45593999997E+02  0.45594000000E+02  0.51100000000E-03 0.  1.
         11   -1    0    0    0    0 -0.00000000000E+00 -0.00000000000E+00 -0.45593999997E+02  0.45594000000E+02  0.51100000000E-03 0. -1.
    9900012    2    1    2    0    0 -0.81606122312E-01 -0.33906957883E+00 -0.11275614248E+01  0.90007736256E+02  0.89999997575E+02 0.  0.
        -12    1    1    2    0    0  0.81606122312E-01  0.33906957883E+00  0.11275614248E+01  0.11802637439E+01  0.00000000000E+00 0.  1.
         11    1    3    3    0    0 -0.97480818452E+01 -0.35326145167E+02  0.70816726286E+00  0.36653282706E+02  0.51100000000E-03 0. -1.
        -11    1    3    3    0    0 -0.20671304285E+01 -0.65086093358E+01 -0.71715871007E+01  0.99028624901E+01  0.51100000000E-03 0.  1.
        -12    1    3    3    0    0  0.11733606151E+02  0.41495684924E+02  0.53358584131E+01  0.43451591060E+02  0.00000000000E+00 0.  1.
</event>
<event>
 7    1  0.3743571E-015  0.9000775E+02  0.7816164E-02  0.1186339E+00
        -11   -1    0    0    0    0  0.00000000000E+00  0.00000000000E+00  0.45593999997E+02  0.45594000000E+02  0.51100000000E-03 0. -1.
         11   -1    0    0    0    0 -0.00000000000E+00 -0.00000000000E+00 -0.45593999997E+02  0.45594000000E+02  0.51100000000E-03 0.  1.
    9900012    2    1    2    0    0  0.55589305305E+00 -0.10377582822E+01 -0.83794032979E-01  0.90007753933E+02  0.90000015485E+02 0.  0.
        -12    1    1    2    0    0 -0.55589305305E+00  0.10377582822E+01  0.83794032979E-01  0.11802460670E+01  0.00000000000E+00 0.  1.
         11    1    3    3    0    0  0.78713940859E+01  0.12116174902E+01  0.79715578339E+01  0.11268211764E+02  0.51100000000E-03 0. -1.
        -11    1    3    3    0    0  0.28927635535E+02  0.18972935077E+02  0.45423947568E+01  0.34891456167E+02  0.51100000000E-03 0.  1.
         12    1    3    3    0    0 -0.36243136568E+02 -0.21222310849E+02 -0.12597746624E+02  0.43848086002E+02  0.00000000000E+00 0. -1.
</event>
<event>
 7    1  0.3743571E-015  0.9000778E+02  0.7816164E-02  0.1186339E+00
        -11   -1    0    0    0    0  0.00000000000E+00  0.00000000000E+00  0.45593999997E+02  0.45594000000E+02  0.51100000000E-03 0. -1.
         11   -1    0    0    0    0 -0.00000000000E+00 -0.00000000000E+00 -0.45593999997E+02  0.45594000000E+02  0.51100000000E-03 0.  1.
    9900012    2    1    2    0    0 -0.54507533900E-01  0.51397722472E+00  0.10610255993E+01  0.90007780113E+02  0.90000042011E+02 0.  0.
        -12    1    1    2    0    0  0.54507533900E-01 -0.51397722472E+00 -0.10610255993E+01  0.11802198868E+01  0.00000000000E+00 0.  1.
         11    1    3    3    0    0 -0.46435878866E+01  0.96147097379E+01 -0.13591949528E+01  0.10763501428E+02  0.51100000000E-03 0. -1.
        -11    1    3    3    0    0  0.39487101730E+02  0.62825825705E+01 -0.52971870949E+01  0.40333140693E+02  0.51100000000E-03 0.  1.
         12    1    3    3    0    0 -0.34898021378E+02 -0.15383315084E+02  0.77174076470E+01  0.38911137992E+02  0.00000000000E+00 0. -1.
</event>
<event>
 7    1  0.3743571E-015  0.9000772E+02  0.7816164E-02  0.1186339E+00
        -11   -1    0    0    0    0  0.00000000000E+00  0.00000000000E+00  0.45593999997E+02  0.45594000000E+02  0.51100000000E-03 0.  1.
         11   -1    0    0    0    0 -0.00000000000E+00 -0.00000000000E+00 -0.45593999997E+02  0.45594000000E+02  0.51100000000E-03 0. -1.
    9900012    2    1    2    0    0  0.69976664601E+00 -0.55143073137E+00 -0.77415907126E+00  0.90007715510E+02  0.89999976554E+02 0.  0.
        -12    1    1    2    0    0 -0.69976664601E+00  0.55143073137E+00  0.77415907126E+00  0.11802844903E+01  0.00000000000E+00 0.  1.
         11    1    3    3    0    0  0.95998823818E+01 -0.28206679954E+01 -0.64788448894E+00  0.10026647708E+02  0.51100000000E-03 0. -1.
        -11    1    3    3    0    0 -0.10112779211E+02 -0.25645275205E+02  0.28728354206E+02  0.39815408818E+02  0.51100000000E-03 0.  1.
         12    1    3    3    0    0  0.12126634757E+01  0.27914512469E+02 -0.28854628788E+02  0.40165658984E+02  0.00000000000E+00 0. -1.
</event>
<event>
 7    1  0.3743571E-015  0.9000776E+02  0.7816164E-02  0.1186339E+00
        -11   -1    0    0    0    0  0.00000000000E+00  0.00000000000E+00  0.45593999997E+02  0.45594000000E+02  0.51100000000E-03 0. -1.
         11   -1    0    0    0    0 -0.00000000000E+00 -0.00000000000E+00 -0.45593999997E+02  0.45594000000E+02  0.51100000000E-03 0.  1.
    9900012    2    1    2    0    0  0.11220576060E+01  0.30734541083E+00  0.19872375025E+00  0.90007760363E+02  0.90000021999E+02 0.  0.
        -12    1    1    2    0    0 -0.11220576060E+01 -0.30734541083E+00 -0.19872375025E+00  0.11802396373E+01  0.00000000000E+00 0.  1.
         11    1    3    3    0    0 -0.13065666996E+01  0.90062783070E+01  0.35638761617E+01  0.97735039285E+01  0.51100000000E-03 0. -1.
        -11    1    3    3    0    0 -0.29277713125E+02 -0.86438842698E+01  0.23620805461E+02  0.38598493131E+02  0.51100000000E-03 0.  1.
         12    1    3    3    0    0  0.31706337430E+02 -0.55048626422E-01 -0.26985957872E+02  0.41635763304E+02  0.00000000000E+00 0. -1.
</event>
<event>
 7    1  0.3743571E-015  0.9000704E+02  0.7816164E-02  0.1186340E+00
        -11   -1    0    0    0    0  0.00000000000E+00  0.00000000000E+00  0.45593999997E+02  0.45594000000E+02  0.51100000000E-03 0. -1.
         11   -1    0    0    0    0 -0.00000000000E+00 -0.00000000000E+00 -0.45593999997E+02  0.45594000000E+02  0.51100000000E-03 0.  1.
    9900012    2    1    2    0    0 -0.34716028832E+00  0.10978681679E+01  0.26237461919E+00  0.90007036317E+02  0.89999288394E+02 0.  0.
        -12    1    1    2    0    0  0.34716028832E+00 -0.10978681679E+01 -0.26237461919E+00  0.11809636830E+01  0.00000000000E+00 0.  1.
         11    1    3    3    0    0  0.31353254668E+02  0.20797594774E+02 -0.11818021100E+02  0.39436431756E+02  0.51100000000E-03 0. -1.
        -11    1    3    3    0    0  0.43627347220E+01  0.32215237369E+01  0.47625228277E+01  0.72175683847E+01  0.51100000000E-03 0.  1.
        -12    1    3    3    0    0 -0.36063149678E+02 -0.22921250344E+02  0.73178728917E+01  0.43353036176E+02  0.00000000000E+00 0.  1.
</event>
<event>
 7    1  0.3743571E-015  0.9000803E+02  0.7816164E-02  0.1186338E+00
        -11   -1    0    0    0    0  0.00000000000E+00  0.00000000000E+00  0.45593999997E+02  0.45594000000E+02  0.51100000000E-03 0. -1.
         11   -1    0    0    0    0 -0.00000000000E+00 -0.00000000000E+00 -0.45593999997E+02  0.45594000000E+02  0.51100000000E-03 0.  1.
    9900012    2    1    2    0    0  0.61094657617E+00  0.75136562649E+00 -0.67417573118E+00  0.90008034348E+02  0.90000299601E+02 0.  0.
        -12    1    1    2    0    0 -0.61094657617E+00 -0.75136562649E+00  0.67417573118E+00  0.11799656521E+01  0.00000000000E+00 0.  1.
         11    1    3    3    0    0 -0.63938150061E+01  0.25108403638E+01  0.71840661356E+01  0.99396175061E+01  0.51100000000E-03 0. -1.
        -11    1    3    3    0    0 -0.62205314022E+01  0.34699959133E+02  0.11017981318E+02  0.36934781539E+02  0.51100000000E-03 0.  1.
         12    1    3    3    0    0  0.13225292984E+02 -0.36459433871E+02 -0.18876223185E+02  0.43133635302E+02  0.00000000000E+00 0. -1.
</event>
<event>
 7    1  0.3743571E-015  0.9000778E+02  0.7816164E-02  0.1186339E+00
        -11   -1    0    0    0    0  0.00000000000E+00  0.00000000000E+00  0.45593999997E+02  0.45594000000E+02  0.51100000000E-03 0.  1.
         11   -1    0    0    0    0 -0.00000000000E+00 -0.00000000000E+00 -0.45593999997E+02  0.45594000000E+02  0.51100000000E-03 0. -1.
    9900012    2    1    2    0    0 -0.89193433546E+00 -0.69322784173E+00  0.34178159342E+00  0.90007776988E+02  0.90000038845E+02 0.  0.
        -12    1    1    2    0    0  0.89193433546E+00  0.69322784173E+00 -0.34178159342E+00  0.11802230115E+01  0.00000000000E+00 0.  1.
         11    1    3    3    0    0 -0.66801799011E+01 -0.87270692583E-01  0.75992844449E+01  0.10118376551E+02  0.51100000000E-03 0. -1.
        -11    1    3    3    0    0 -0.70156981343E+01  0.35659768909E+02  0.10061112627E+02  0.37710278791E+02  0.51100000000E-03 0.  1.
         12    1    3    3    0    0  0.12803943700E+02 -0.36265726058E+02 -0.17318615479E+02  0.42179121647E+02  0.00000000000E+00 0. -1.
</event>
<event>
 7    1  0.3743571E-015  0.9000772E+02  0.7816164E-02  0.1186339E+00
        -11   -1    0    0    0    0  0.00000000000E+00  0.00000000000E+00  0.45593999997E+02  0.45594000000E+02  0.51100000000E-03 0.  1.
         11   -1    0    0    0    0 -0.00000000000E+00 -0.00000000000E+00 -0.45593999997E+02  0.45594000000E+02  0.51100000000E-03 0. -1.
    9900012    2    1    2    0    0 -0.10499775216E+01  0.47888286064E+00  0.24753921593E+00  0.90007721536E+02  0.89999982660E+02 0.  0.
        -12    1    1    2    0    0  0.10499775216E+01 -0.47888286064E+00 -0.24753921593E+00  0.11802784644E+01  0.00000000000E+00 0.  1.
         11    1    3    3    0    0  0.53478384020E+01 -0.89600973873E+01  0.31678567953E+01  0.10904954732E+02  0.51100000000E-03 0. -1.
        -11    1    3    3    0    0  0.96388324335E+01 -0.21190924689E+02 -0.27982685904E+02  0.36400454537E+02  0.51100000000E-03 0.  1.
         12    1    3    3    0    0 -0.16036648357E+02  0.30629904937E+02  0.25062368324E+02  0.42702312267E+02  0.00000000000E+00 0. -1.
</event>
<event>
 7    1  0.3743571E-015  0.9000695E+02  0.7816164E-02  0.1186341E+00
        -11   -1    0    0    0    0  0.00000000000E+00  0.00000000000E+00  0.45593999997E+02  0.45594000000E+02  0.51100000000E-03 0. -1.
         11   -1    0    0    0    0 -0.00000000000E+00 -0.00000000000E+00 -0.45593999997E+02  0.45594000000E+02  0.51100000000E-03 0.  1.
    9900012    2    1    2    0    0 -0.19008542695E+00 -0.30945842541E-01  0.11652378670E+01  0.90006954107E+02  0.89999205098E+02 0.  0.
        -12    1    1    2    0    0  0.19008542695E+00  0.30945842541E-01 -0.11652378670E+01  0.11810458930E+01  0.00000000000E+00 0.  1.
         11    1    3    3    0    0  0.36159905168E+02 -0.14968287110E+02  0.52880749936E+01  0.39491164812E+02  0.51100000000E-03 0. -1.
        -11    1    3    3    0    0  0.39714233558E-01 -0.49473098413E+01 -0.74184201837E+01  0.89168610043E+01  0.51100000000E-03 0.  1.
        -12    1    3    3    0    0 -0.36389704829E+02  0.19884651109E+02  0.32955830570E+01  0.41598928291E+02  0.00000000000E+00 0.  1.
</event>
<event>
 7    1  0.3743571E-015  0.9000776E+02  0.7816164E-02  0.1186339E+00
        -11   -1    0    0    0    0  0.00000000000E+00  0.00000000000E+00  0.45593999997E+02  0.45594000000E+02  0.51100000000E-03 0.  1.
         11   -1    0    0    0    0 -0.00000000000E+00 -0.00000000000E+00 -0.45593999997E+02  0.45594000000E+02  0.51100000000E-03 0. -1.
    9900012    2    1    2    0    0  0.40536004212E+00  0.75213214035E+00 -0.81422069652E+00  0.90007756439E+02  0.90000018024E+02 0.  0.
        -12    1    1    2    0    0 -0.40536004212E+00 -0.75213214035E+00  0.81422069652E+00  0.11802435609E+01  0.00000000000E+00 0.  1.
         11    1    3    3    0    0 -0.78377037042E+01 -0.34627539039E+02  0.12644797002E+02  0.37688021316E+02  0.51100000000E-03 0. -1.
        -11    1    3    3    0    0 -0.94228134731E+01 -0.16066697757E+01 -0.21105441483E+01  0.97890345990E+01  0.51100000000E-03 0.  1.
        -12    1    3    3    0    0  0.17665877219E+02  0.36986340955E+02 -0.11348473550E+02  0.42530700524E+02  0.00000000000E+00 0.  1.
</event>
<event>
 7    1  0.3743571E-015  0.9000777E+02  0.7816164E-02  0.1186339E+00
        -11   -1    0    0    0    0  0.00000000000E+00  0.00000000000E+00  0.45593999997E+02  0.45594000000E+02  0.51100000000E-03 0.  1.
         11   -1    0    0    0    0 -0.00000000000E+00 -0.00000000000E+00 -0.45593999997E+02  0.45594000000E+02  0.51100000000E-03 0. -1.
    9900012    2    1    2    0    0  0.10501768242E+01 -0.32653368306E+00 -0.42830065869E+00  0.90007772453E+02  0.90000034249E+02 0.  0.
        -12    1    1    2    0    0 -0.10501768242E+01  0.32653368306E+00  0.42830065869E+00  0.11802275469E+01  0.00000000000E+00 0.  1.
         11    1    3    3    0    0  0.20961418141E+01 -0.52887203782E+01  0.63499578532E+01  0.85256283488E+01  0.51100000000E-03 0. -1.
        -11    1    3    3    0    0 -0.24985182983E+02 -0.26545707367E+02  0.11033276618E+02  0.38087624519E+02  0.51100000000E-03 0.  1.
         12    1    3    3    0    0  0.23939217993E+02  0.31507894062E+02 -0.17811535130E+02  0.43394519585E+02  0.00000000000E+00 0. -1.
</event>
<event>
 7    1  0.3743571E-015  0.9000777E+02  0.7816164E-02  0.1186339E+00
        -11   -1    0    0    0    0  0.00000000000E+00  0.00000000000E+00  0.45593999997E+02  0.45594000000E+02  0.51100000000E-03 0. -1.
         11   -1    0    0    0    0 -0.00000000000E+00 -0.00000000000E+00 -0.45593999997E+02  0.45594000000E+02  0.51100000000E-03 0.  1.
    9900012    2    1    2    0    0  0.41228266233E+00  0.78636350757E+00  0.77755664164E+00  0.90007771679E+02  0.90000033465E+02 0.  0.
        -12    1    1    2    0    0 -0.41228266233E+00 -0.78636350757E+00 -0.77755664164E+00  0.11802283214E+01  0.00000000000E+00 0.  1.
         11    1    3    3    0    0  0.28868405967E+02 -0.24798104688E+02 -0.12294566703E+02  0.39993589860E+02  0.51100000000E-03 0. -1.
        -11    1    3    3    0    0  0.38196174547E+01  0.25570635813E+01  0.90652102252E+01  0.10163960269E+02  0.51100000000E-03 0.  1.
        -12    1    3    3    0    0 -0.32275740760E+02  0.23027404614E+02  0.40069131197E+01  0.39850221550E+02  0.00000000000E+00 0.  1.
</event>
<event>
 7    1  0.3743571E-015  0.9000810E+02  0.7816164E-02  0.1186338E+00
        -11   -1    0    0    0    0  0.00000000000E+00  0.00000000000E+00  0.45593999997E+02  0.45594000000E+02  0.51100000000E-03 0. -1.
         11   -1    0    0    0    0 -0.00000000000E+00 -0.00000000000E+00 -0.45593999997E+02  0.45594000000E+02  0.51100000000E-03 0.  1.
    9900012    2    1    2    0    0  0.23714133842E+00 -0.10803940033E+01 -0.41069208321E+00  0.90008103732E+02  0.90000369900E+02 0.  0.
        -12    1    1    2    0    0 -0.23714133842E+00  0.10803940033E+01  0.41069208321E+00  0.11798962683E+01  0.00000000000E+00 0.  1.
         11    1    3    3    0    0  0.55881641407E+00  0.36931814803E+01  0.85862666715E+01  0.93635378381E+01  0.51100000000E-03 0. -1.
        -11    1    3    3    0    0  0.11881061543E+02 -0.40569762295E+02 -0.33482943241E+01  0.42406088138E+02  0.51100000000E-03 0.  1.
         12    1    3    3    0    0 -0.12202736619E+02  0.35796186811E+02 -0.56486644305E+01  0.38238477755E+02  0.00000000000E+00 0. -1.
</event>
<event>
 7    1  0.3743571E-015  0.9000775E+02  0.7816164E-02  0.1186339E+00
        -11   -1    0    0    0    0  0.00000000000E+00  0.00000000000E+00  0.45593999997E+02  0.45594000000E+02  0.51100000000E-03 0.  1.
         11   -1    0    0    0    0 -0.00000000000E+00 -0.00000000000E+00 -0.45593999997E+02  0.45594000000E+02  0.51100000000E-03 0. -1.
    9900012    2    1    2    0    0  0.24918060193E+00  0.10111698776E+01 -0.55537101228E+00  0.90007748986E+02  0.90000010473E+02 0.  0.
        -12    1    1    2    0    0 -0.24918060193E+00 -0.10111698776E+01  0.55537101228E+00  0.11802510136E+01  0.00000000000E+00 0.  1.
         11    1    3    3    0    0 -0.25916160700E+01 -0.86586738665E+01  0.20041977367E+01  0.92577489602E+01  0.51100000000E-03 0. -1.
        -11    1    3    3    0    0  0.14627729112E+02 -0.17999930188E+02  0.29013416733E+02  0.37144936351E+02  0.51100000000E-03 0.  1.
         12    1    3    3    0    0 -0.11786932440E+02  0.27669773933E+02 -0.31572985482E+02  0.43605063675E+02  0.00000000000E+00 0. -1.
</event>
<event>
 7    1  0.3743571E-015  0.9000770E+02  0.7816164E-02  0.1186339E+00
        -11   -1    0    0    0    0  0.00000000000E+00  0.00000000000E+00  0.45593999997E+02  0.45594000000E+02  0.51100000000E-03 0. -1.
         11   -1    0    0    0    0 -0.00000000000E+00 -0.00000000000E+00 -0.45593999997E+02  0.45594000000E+02  0.51100000000E-03 0.  1.
    9900012    2    1    2    0    0 -0.15651321185E+00  0.11102847937E+01 -0.36860928703E+00  0.90007702785E+02  0.89999963662E+02 0.  0.
        -12    1    1    2    0    0  0.15651321185E+00 -0.11102847937E+01  0.36860928703E+00  0.11802972147E+01  0.00000000000E+00 0.  1.
         11    1    3    3    0    0  0.31215795912E+02 -0.55635360068E+01  0.20415869705E+02  0.37711889151E+02  0.51100000000E-03 0. -1.
        -11    1    3    3    0    0 -0.74025770232E+01 -0.39685861270E+01  0.92018357544E+01  0.12458796248E+02  0.51100000000E-03 0.  1.
        -12    1    3    3    0    0 -0.23969732100E+02  0.10642406927E+02 -0.29986314746E+02  0.39837017386E+02  0.00000000000E+00 0.  1.
</event>
<event>
 7    1  0.3743571E-015  0.9000774E+02  0.7816164E-02  0.1186339E+00
        -11   -1    0    0    0    0  0.00000000000E+00  0.00000000000E+00  0.45593999997E+02  0.45594000000E+02  0.51100000000E-03 0.  1.
         11   -1    0    0    0    0 -0.00000000000E+00 -0.00000000000E+00 -0.45593999997E+02  0.45594000000E+02  0.51100000000E-03 0. -1.
    9900012    2    1    2    0    0  0.68137977956E+00  0.79591413187E+00 -0.54338215416E+00  0.90007736523E+02  0.89999997845E+02 0.  0.
        -12    1    1    2    0    0 -0.68137977956E+00 -0.79591413187E+00  0.54338215416E+00  0.11802634768E+01  0.00000000000E+00 0.  1.
         11    1    3    3    0    0 -0.31939840757E+01  0.31906315735E+01  0.88692662924E+01  0.99521630283E+01  0.51100000000E-03 0. -1.
        -11    1    3    3    0    0 -0.21876847666E+02 -0.16095149586E+02  0.23615193046E+02  0.35990660550E+02  0.51100000000E-03 0.  1.
         12    1    3    3    0    0  0.25752211521E+02  0.13700432144E+02 -0.33027841492E+02  0.44064912945E+02  0.00000000000E+00 0. -1.
</event>
<event>
 7    1  0.3743571E-015  0.9000773E+02  0.7816164E-02  0.1186339E+00
        -11   -1    0    0    0    0  0.00000000000E+00  0.00000000000E+00  0.45593999997E+02  0.45594000000E+02  0.51100000000E-03 0. -1.
         11   -1    0    0    0    0 -0.00000000000E+00 -0.00000000000E+00 -0.45593999997E+02  0.45594000000E+02  0.51100000000E-03 0.  1.
    9900012    2    1    2    0    0 -0.49201422299E+00  0.10062163631E+01  0.37212803040E+00  0.90007733659E+02  0.89999994943E+02 0.  0.
        -12    1    1    2    0    0  0.49201422299E+00 -0.10062163631E+01 -0.37212803040E+00  0.11802663412E+01  0.00000000000E+00 0.  1.
         11    1    3    3    0    0 -0.24492825283E+01 -0.63127845571E+01 -0.58689829502E+01  0.89607586118E+01  0.51100000000E-03 0. -1.
        -11    1    3    3    0    0  0.18506925698E+02 -0.23123048253E+02  0.27483104732E+02  0.40404241179E+02  0.51100000000E-03 0.  1.
         12    1    3    3    0    0 -0.16549657393E+02  0.30442049174E+02 -0.21241993751E+02  0.40642733868E+02  0.00000000000E+00 0. -1.
</event>
<event>
 7    1  0.3743571E-015  0.9000778E+02  0.7816164E-02  0.1186339E+00
        -11   -1    0    0    0    0  0.00000000000E+00  0.00000000000E+00  0.45593999997E+02  0.45594000000E+02  0.51100000000E-03 0. -1.
         11   -1    0    0    0    0 -0.00000000000E+00 -0.00000000000E+00 -0.45593999997E+02  0.45594000000E+02  0.51100000000E-03 0.  1.
    9900012    2    1    2    0    0 -0.23168951118E+00 -0.68041863357E+00  0.93609005473E+00  0.90007782165E+02  0.90000044090E+02 0.  0.
        -12    1    1    2    0    0  0.23168951118E+00  0.68041863357E+00 -0.93609005473E+00  0.11802178346E+01  0.00000000000E+00 0.  1.
         11    1    3    3    0    0  0.96678689443E+01 -0.23129627249E+00 -0.17988623298E+01  0.98365183796E+01  0.51100000000E-03 0. -1.
        -11    1    3    3    0    0  0.28661932187E+02  0.21307481436E+02  0.35302985498E+01  0.35888412196E+02  0.51100000000E-03 0.  1.
         12    1    3    3    0    0 -0.38561490642E+02 -0.21756603798E+02 -0.79534616521E+00  0.44282851590E+02  0.00000000000E+00 0. -1.
</event>
<event>
 7    1  0.3743571E-015  0.9000762E+02  0.7816164E-02  0.1186339E+00
        -11   -1    0    0    0    0  0.00000000000E+00  0.00000000000E+00  0.45593999997E+02  0.45594000000E+02  0.51100000000E-03 0. -1.
         11   -1    0    0    0    0 -0.00000000000E+00 -0.00000000000E+00 -0.45593999997E+02  0.45594000000E+02  0.51100000000E-03 0.  1.
    9900012    2    1    2    0    0 -0.10801432969E+01 -0.47531736585E+00  0.25551593380E-01  0.90007623355E+02  0.89999883183E+02 0.  0.
        -12    1    1    2    0    0  0.10801432969E+01  0.47531736585E+00 -0.25551593380E-01  0.11803766450E+01  0.00000000000E+00 0.  1.
         11    1    3    3    0    0  0.18460121015E+01 -0.78892942075E+01  0.17571855591E+02  0.19349905243E+02  0.51100000000E-03 0. -1.
        -11    1    3    3    0    0  0.32696842815E+01  0.37541033675E+02 -0.92948051980E+01  0.38812542414E+02  0.51100000000E-03 0.  1.
         12    1    3    3    0    0 -0.61958396798E+01 -0.30127056833E+02 -0.82514987992E+01  0.31845175698E+02  0.00000000000E+00 0. -1.
</event>
<event>
 7    1  0.3743571E-015  0.9000786E+02  0.7816164E-02  0.1186339E+00
        -11   -1    0    0    0    0  0.00000000000E+00  0.00000000000E+00  0.45593999997E+02  0.45594000000E+02  0.51100000000E-03 0.  1.
         11   -1    0    0    0    0 -0.00000000000E+00 -0.00000000000E+00 -0.45593999997E+02  0.45594000000E+02  0.51100000000E-03 0. -1.
    9900012    2    1    2    0    0  0.51083817331E+00 -0.15275085626E+00 -0.10528250399E+01  0.90007860590E+02  0.90000123549E+02 0.  0.
        -12    1    1    2    0    0 -0.51083817331E+00  0.15275085626E+00  0.10528250399E+01  0.11801394104E+01  0.00000000000E+00 0.  1.
         11    1    3    3    0    0 -0.13918121199E+02 -0.61789779645E+01 -0.14442119600E+01  0.15296392216E+02  0.51100000000E-03 0. -1.
        -11    1    3    3    0    0  0.34506709720E+02 -0.15887866454E+01  0.24557878292E+02  0.42383093860E+02  0.51100000000E-03 0.  1.
         12    1    3    3    0    0 -0.20077750348E+02  0.76150137536E+01 -0.24166491371E+02  0.32328374514E+02  0.00000000000E+00 0. -1.
</event>
<event>
 7    1  0.3743571E-015  0.9000892E+02  0.7816164E-02  0.1186337E+00
        -11   -1    0    0    0    0  0.00000000000E+00  0.00000000000E+00  0.45593999997E+02  0.45594000000E+02  0.51100000000E-03 0. -1.
         11   -1    0    0    0    0 -0.00000000000E+00 -0.00000000000E+00 -0.45593999997E+02  0.45594000000E+02  0.51100000000E-03 0.  1.
    9900012    2    1    2    0    0  0.33385625930E-01 -0.10327017495E+00  0.11740696231E+01  0.90008924596E+02  0.90001201592E+02 0.  0.
        -12    1    1    2    0    0 -0.33385625930E-01  0.10327017495E+00 -0.11740696231E+01  0.11790754043E+01  0.00000000000E+00 0.  1.
         11    1    3    3    0    0  0.79738956768E+01  0.68654225970E+01  0.11245078574E+02  0.15400286754E+02  0.51100000000E-03 0. -1.
        -11    1    3    3    0    0  0.29443328842E+02 -0.57435563370E+00 -0.19759764719E+02  0.35463894311E+02  0.51100000000E-03 0.  1.
         12    1    3    3    0    0 -0.37383838892E+02 -0.63943371382E+01  0.96887557681E+01  0.39144743531E+02  0.00000000000E+00 0. -1.
</event>
<event>
 7    1  0.3743571E-015  0.9000748E+02  0.7816164E-02  0.1186340E+00
        -11   -1    0    0    0    0  0.00000000000E+00  0.00000000000E+00  0.45593999997E+02  0.45594000000E+02  0.51100000000E-03 0.  1.
         11   -1    0    0    0    0 -0.00000000000E+00 -0.00000000000E+00 -0.45593999997E+02  0.45594000000E+02  0.51100000000E-03 0. -1.
    9900012    2    1    2    0    0 -0.48824550283E+00  0.95737057812E+00 -0.48855178965E+00  0.90007481069E+02  0.89999739019E+02 0.  0.
        -12    1    1    2    0    0  0.48824550283E+00 -0.95737057812E+00  0.48855178965E+00  0.11805189308E+01  0.00000000000E+00 0.  1.
         11    1    3    3    0    0  0.53450320506E+01  0.70349707581E+01  0.77477800211E+00  0.88690733678E+01  0.51100000000E-03 0. -1.
        -11    1    3    3    0    0 -0.18546617461E+02  0.29770453439E+02  0.16962706641E+02  0.38961395433E+02  0.51100000000E-03 0.  1.
         12    1    3    3    0    0  0.12713339908E+02 -0.35848053619E+02 -0.18226036432E+02  0.42177012269E+02  0.00000000000E+00 0. -1.
</event>
<event>
 7    1  0.3743571E-015  0.9000744E+02  0.7816164E-02  0.1186340E+00
        -11   -1    0    0    0    0  0.00000000000E+00  0.00000000000E+00  0.45593999997E+02  0.45594000000E+02  0.51100000000E-03 0. -1.
         11   -1    0    0    0    0 -0.00000000000E+00 -0.00000000000E+00 -0.45593999997E+02  0.45594000000E+02  0.51100000000E-03 0.  1.
    9900012    2    1    2    0    0 -0.55076449636E+00  0.43032215707E+00  0.95142691298E+00  0.90007435787E+02  0.89999693139E+02 0.  0.
        -12    1    1    2    0    0  0.55076449636E+00 -0.43032215707E+00 -0.95142691298E+00  0.11805642126E+01  0.00000000000E+00 0.  1.
         11    1    3    3    0    0 -0.27719007626E+02  0.19892694467E+02 -0.15953511766E+02  0.37664004233E+02  0.51100000000E-03 0. -1.
        -11    1    3    3    0    0 -0.55881212172E+01 -0.55891364397E+01 -0.60966054798E+01  0.99816904138E+01  0.51100000000E-03 0.  1.
        -12    1    3    3    0    0  0.32756364347E+02 -0.13873235870E+02  0.23001544159E+02  0.42361741140E+02  0.00000000000E+00 0.  1.
</event>
<event>
 7    1  0.3743571E-015  0.9000802E+02  0.7816164E-02  0.1186338E+00
        -11   -1    0    0    0    0  0.00000000000E+00  0.00000000000E+00  0.45593999997E+02  0.45594000000E+02  0.51100000000E-03 0.  1.
         11   -1    0    0    0    0 -0.00000000000E+00 -0.00000000000E+00 -0.45593999997E+02  0.45594000000E+02  0.51100000000E-03 0. -1.
    9900012    2    1    2    0    0  0.86269521214E+00  0.44156429802E+00 -0.67315213310E+00  0.90008018707E+02  0.90000283753E+02 0.  0.
        -12    1    1    2    0    0 -0.86269521214E+00 -0.44156429802E+00  0.67315213310E+00  0.11799812933E+01  0.00000000000E+00 0.  1.
         11    1    3    3    0    0 -0.30539253828E+02 -0.19104278520E+02  0.86730986389E+01  0.37051884195E+02  0.51100000000E-03 0. -1.
        -11    1    3    3    0    0 -0.20106965801E+01 -0.80256389246E+01 -0.43551127139E+01  0.93499084433E+01  0.51100000000E-03 0.  1.
        -12    1    3    3    0    0  0.33412645620E+02  0.27571481742E+02 -0.49911380581E+01  0.43606226068E+02  0.00000000000E+00 0.  1.
</event>
<event>
 7    1  0.3743571E-015  0.9000773E+02  0.7816164E-02  0.1186339E+00
        -11   -1    0    0    0    0  0.00000000000E+00  0.00000000000E+00  0.45593999997E+02  0.45594000000E+02  0.51100000000E-03 0.  1.
         11   -1    0    0    0    0 -0.00000000000E+00 -0.00000000000E+00 -0.45593999997E+02  0.45594000000E+02  0.51100000000E-03 0. -1.
    9900012    2    1    2    0    0  0.23740355830E+00  0.10842337352E+01 -0.40139412089E+00  0.90007728640E+02  0.89999989858E+02 0.  0.
        -12    1    1    2    0    0 -0.23740355830E+00 -0.10842337352E+01  0.40139412089E+00  0.11802713597E+01  0.00000000000E+00 0.  1.
         11    1    3    3    0    0 -0.40265235201E+02 -0.46500377932E+01 -0.19518347767E+00  0.40533321034E+02  0.51100000000E-03 0. -1.
        -11    1    3    3    0    0 -0.97649648422E+00 -0.56176927045E+01  0.28246946338E+01  0.63632473425E+01  0.51100000000E-03 0.  1.
        -12    1    3    3    0    0  0.41479135243E+02  0.11351964233E+02 -0.30309052770E+01  0.43111160263E+02  0.00000000000E+00 0.  1.
</event>
<event>
 7    1  0.3743571E-015  0.9000771E+02  0.7816164E-02  0.1186339E+00
        -11   -1    0    0    0    0  0.00000000000E+00  0.00000000000E+00  0.45593999997E+02  0.45594000000E+02  0.51100000000E-03 0. -1.
         11   -1    0    0    0    0 -0.00000000000E+00 -0.00000000000E+00 -0.45593999997E+02  0.45594000000E+02  0.51100000000E-03 0.  1.
    9900012    2    1    2    0    0 -0.82105423800E+00  0.84545122115E+00  0.64529867508E-01  0.90007711081E+02  0.89999972067E+02 0.  0.
        -12    1    1    2    0    0  0.82105423800E+00 -0.84545122115E+00 -0.64529867508E-01  0.11802889192E+01  0.00000000000E+00 0.  1.
         11    1    3    3    0    0  0.12098327453E+01  0.85306438515E+01 -0.29067994317E+01  0.90931327380E+01  0.51100000000E-03 0. -1.
        -11    1    3    3    0    0 -0.11040461056E+02 -0.15031819877E+02 -0.35838480865E+02  0.40401040830E+02  0.51100000000E-03 0.  1.
         12    1    3    3    0    0  0.90095740731E+01  0.73466272469E+01  0.38809810164E+02  0.40513537513E+02  0.00000000000E+00 0. -1.
</event>
<event>
 7    1  0.3743571E-015  0.9000778E+02  0.7816164E-02  0.1186339E+00
        -11   -1    0    0    0    0  0.00000000000E+00  0.00000000000E+00  0.45593999997E+02  0.45594000000E+02  0.51100000000E-03 0.  1.
         11   -1    0    0    0    0 -0.00000000000E+00 -0.00000000000E+00 -0.45593999997E+02  0.45594000000E+02  0.51100000000E-03 0. -1.
    9900012    2    1    2    0    0 -0.11345146817E+01 -0.28964510179E+00 -0.14802651105E+00  0.90007775574E+02  0.90000037411E+02 0.  0.
        -12    1    1    2    0    0  0.11345146817E+01  0.28964510179E+00  0.14802651105E+00  0.11802244261E+01  0.00000000000E+00 0.  1.
         11    1    3    3    0    0  0.12131240731E+02  0.93586727053E+01 -0.36277905263E+02  0.39380682663E+02  0.51100000000E-03 0. -1.
        -11    1    3    3    0    0  0.57058037342E+01  0.52737166108E+01  0.76058773087E+00  0.78068416855E+01  0.51100000000E-03 0.  1.
        -12    1    3    3    0    0 -0.18971559147E+02 -0.14922034418E+02  0.35369291021E+02  0.42820251225E+02  0.00000000000E+00 0.  1.
</event>
<event>
 7    1  0.3743571E-015  0.9000772E+02  0.7816164E-02  0.1186339E+00
        -11   -1    0    0    0    0  0.00000000000E+00  0.00000000000E+00  0.45593999997E+02  0.45594000000E+02  0.51100000000E-03 0.  1.
         11   -1    0    0    0    0 -0.00000000000E+00 -0.00000000000E+00 -0.45593999997E+02  0.45594000000E+02  0.51100000000E-03 0. -1.
    9900012    2    1    2    0    0 -0.78808068804E-01  0.10814594900E+01  0.46614214353E+00  0.90007722982E+02  0.89999984126E+02 0.  0.
        -12    1    1    2    0    0  0.78808068804E-01 -0.10814594900E+01 -0.46614214353E+00  0.11802770176E+01  0.00000000000E+00 0.  1.
         11    1    3    3    0    0  0.43514475807E+00 -0.52225178503E+01  0.90406482558E+01  0.10449754294E+02  0.51100000000E-03 0. -1.
        -11    1    3    3    0    0  0.25601591555E+02 -0.11802257867E+01  0.25382630609E+02  0.36070935114E+02  0.51100000000E-03 0.  1.
         12    1    3    3    0    0 -0.26115544382E+02  0.74842031270E+01 -0.33957136722E+02  0.43487033575E+02  0.00000000000E+00 0. -1.
</event>
<event>
 7    1  0.3743571E-015  0.9000768E+02  0.7816164E-02  0.1186339E+00
        -11   -1    0    0    0    0  0.00000000000E+00  0.00000000000E+00  0.45593999997E+02  0.45594000000E+02  0.51100000000E-03 0.  1.
         11   -1    0    0    0    0 -0.00000000000E+00 -0.00000000000E+00 -0.45593999997E+02  0.45594000000E+02  0.51100000000E-03 0. -1.
    9900012    2    1    2    0    0  0.32998804207E+00 -0.99325631026E+00 -0.54562632290E+00  0.90007678734E+02  0.89999939294E+02 0.  0.
        -12    1    1    2    0    0 -0.32998804207E+00  0.99325631026E+00  0.54562632290E+00  0.11803212656E+01  0.00000000000E+00 0.  1.
         11    1    3    3    0    0 -0.42418817250E+01 -0.11635072224E+02 -0.12677629689E+01  0.12448923224E+02  0.51100000000E-03 0. -1.
        -11    1    3    3    0    0  0.38931759110E+02  0.85703513604E+01  0.11498369595E+02  0.41489098489E+02  0.51100000000E-03 0.  1.
         12    1    3    3    0    0 -0.34359889343E+02  0.20714645534E+01 -0.10776232949E+02  0.36069657021E+02  0.00000000000E+00 0. -1.
</event>
<event>
 7    1  0.3743571E-015  0.9000776E+02  0.7816164E-02  0.1186339E+00
        -11   -1    0    0    0    0  0.00000000000E+00  0.00000000000E+00  0.45593999997E+02  0.45594000000E+02  0.51100000000E-03 0.  1.
         11   -1    0    0    0    0 -0.00000000000E+00 -0.00000000000E+00 -0.45593999997E+02  0.45594000000E+02  0.51100000000E-03 0. -1.
    9900012    2    1    2    0    0  0.52001406408E+00 -0.83288242976E+00 -0.65486672856E+00  0.90007763498E+02  0.90000025176E+02 0.  0.
        -12    1    1    2    0    0 -0.52001406408E+00  0.83288242976E+00  0.65486672856E+00  0.11802365021E+01  0.00000000000E+00 0.  1.
         11    1    3    3    0    0  0.29864645229E+02 -0.96751924594E+01 -0.25605656064E+01  0.31497029705E+02  0.51100000000E-03 0. -1.
        -11    1    3    3    0    0  0.12363813111E+02  0.80278865621E+01  0.72948754165E+01  0.16447675972E+02  0.51100000000E-03 0.  1.
        -12    1    3    3    0    0 -0.41708444275E+02  0.81442346753E+00 -0.53891765387E+01  0.42063057820E+02  0.00000000000E+00 0.  1.
</event>
<event>
 7    1  0.3743571E-015  0.9000775E+02  0.7816164E-02  0.1186339E+00
        -11   -1    0    0    0    0  0.00000000000E+00  0.00000000000E+00  0.45593999997E+02  0.45594000000E+02  0.51100000000E-03 0.  1.
         11   -1    0    0    0    0 -0.00000000000E+00 -0.00000000000E+00 -0.45593999997E+02  0.45594000000E+02  0.51100000000E-03 0. -1.
    9900012    2    1    2    0    0 -0.94046586229E+00  0.59403671393E+00 -0.39450662582E+00  0.90007749546E+02  0.90000011040E+02 0.  0.
        -12    1    1    2    0    0  0.94046586229E+00 -0.59403671393E+00  0.39450662582E+00  0.11802504537E+01  0.00000000000E+00 0.  1.
         11    1    3    3    0    0  0.11827237318E+01 -0.88131907264E+01 -0.37351350993E+00  0.89000381353E+01  0.51100000000E-03 0. -1.
        -11    1    3    3    0    0 -0.28793493603E+02  0.19559007081E+02  0.25240019600E+02  0.42996262879E+02  0.51100000000E-03 0.  1.
         12    1    3    3    0    0  0.26670304009E+02 -0.10151779641E+02 -0.25261012716E+02  0.38111448532E+02  0.00000000000E+00 0. -1.
</event>
<event>
 7    1  0.4025609E-015  0.9000779E+02  0.7816164E-02  0.1186339E+00
        -11   -1    0    0    0    0  0.00000000000E+00  0.00000000000E+00  0.45593999997E+02  0.45594000000E+02  0.51100000000E-03 0. -1.
         11   -1    0    0    0    0 -0.00000000000E+00 -0.00000000000E+00 -0.45593999997E+02  0.45594000000E+02  0.51100000000E-03 0.  1.
    9900012    2    1    2    0    0 -0.85484721627E+00  0.59115051970E+00  0.55916868743E+00  0.90007791408E+02  0.90000053454E+02 0.  0.
        -12    1    1    2    0    0  0.85484721627E+00 -0.59115051970E+00 -0.55916868743E+00  0.11802085922E+01  0.00000000000E+00 0.  1.
         11    1    3    3    0    0 -0.10107529892E+02 -0.84899538514E+00  0.66962032063E+00  0.10165202670E+02  0.51100000000E-03 0. -1.
        -11    1    3    3    0    0  0.43640128863E+01  0.31093742903E+01 -0.39628096902E+02  0.39988734429E+02  0.51100000000E-03 0.  1.
         12    1    3    3    0    0  0.48886697895E+01 -0.16692283855E+01  0.39517645268E+02  0.39853854309E+02  0.00000000000E+00 0. -1.
</event>
<event>
 7    1  0.3743571E-015  0.9000664E+02  0.7816164E-02  0.1186341E+00
        -11   -1    0    0    0    0  0.00000000000E+00  0.00000000000E+00  0.45593999997E+02  0.45594000000E+02  0.51100000000E-03 0.  1.
         11   -1    0    0    0    0 -0.00000000000E+00 -0.00000000000E+00 -0.45593999997E+02  0.45594000000E+02  0.51100000000E-03 0. -1.
    9900012    2    1    2    0    0  0.48166076860E+00  0.10576513480E+01 -0.21207724285E+00  0.90006644750E+02  0.89998891654E+02 0.  0.
        -12    1    1    2    0    0 -0.48166076860E+00 -0.10576513480E+01  0.21207724285E+00  0.11813552501E+01  0.00000000000E+00 0.  1.
         11    1    3    3    0    0 -0.82060079971E+01 -0.12912366042E+02 -0.51503442226E+01  0.16142918259E+02  0.51100000000E-03 0. -1.
        -11    1    3    3    0    0 -0.15514796045E+02 -0.22742326797E+02  0.10657256788E+02  0.29521169471E+02  0.51100000000E-03 0.  1.
         12    1    3    3    0    0  0.24202464811E+02  0.36712344187E+02 -0.57189898080E+01  0.44342557019E+02  0.00000000000E+00 0. -1.
</event>
<event>
 7    1  0.4482403E-015  0.9000777E+02  0.7816164E-02  0.1186339E+00
        -11   -1    0    0    0    0  0.00000000000E+00  0.00000000000E+00  0.45593999997E+02  0.45594000000E+02  0.51100000000E-03 0. -1.
         11   -1    0    0    0    0 -0.00000000000E+00 -0.00000000000E+00 -0.45593999997E+02  0.45594000000E+02  0.51100000000E-03 0.  1.
    9900012    2    1    2    0    0 -0.32510654619E-01  0.50583638152E+00  0.10658393844E+01  0.90007770793E+02  0.90000032568E+02 0.  0.
        -12    1    1    2    0    0  0.32510654619E-01 -0.50583638152E+00 -0.10658393844E+01  0.11802292069E+01  0.00000000000E+00 0.  1.
         11    1    3    3    0    0  0.65349377081E+00  0.46131429294E+01 -0.78745210395E+01  0.91496570240E+01  0.51100000000E-03 0. -1.
        -11    1    3    3    0    0  0.26481588771E+02  0.12192174488E+01 -0.25423026455E+02  0.36729978348E+02  0.51100000000E-03 0.  1.
         12    1    3    3    0    0 -0.27167593196E+02 -0.53265239966E+01  0.34363386879E+02  0.44128135421E+02  0.00000000000E+00 0. -1.
</event>
<event>
 7    1  0.3743571E-015  0.9000779E+02  0.7816164E-02  0.1186339E+00
        -11   -1    0    0    0    0  0.00000000000E+00  0.00000000000E+00  0.45593999997E+02  0.45594000000E+02  0.51100000000E-03 0.  1.
         11   -1    0    0    0    0 -0.00000000000E+00 -0.00000000000E+00 -0.45593999997E+02  0.45594000000E+02  0.51100000000E-03 0. -1.
    9900012    2    1    2    0    0  0.77239220396E-01  0.89808246639E+00 -0.76182207241E+00  0.90007792017E+02  0.90000054071E+02 0.  0.
        -12    1    1    2    0    0 -0.77239220396E-01 -0.89808246639E+00  0.76182207241E+00  0.11802079832E+01  0.00000000000E+00 0.  1.
         11    1    3    3    0    0 -0.15040666285E+02  0.19598009685E+02 -0.32194393365E+02  0.40580569123E+02  0.51100000000E-03 0. -1.
        -11    1    3    3    0    0  0.21474923323E+01 -0.56128585378E+01 -0.55044594593E+01  0.81495385441E+01  0.51100000000E-03 0.  1.
        -12    1    3    3    0    0  0.12970413173E+02 -0.13087068681E+02  0.36937030752E+02  0.41277684350E+02  0.00000000000E+00 0.  1.
</event>
<event>
 7    1  0.3743571E-015  0.9000781E+02  0.7816164E-02  0.1186339E+00
        -11   -1    0    0    0    0  0.00000000000E+00  0.00000000000E+00  0.45593999997E+02  0.45594000000E+02  0.51100000000E-03 0.  1.
         11   -1    0    0    0    0 -0.00000000000E+00 -0.00000000000E+00 -0.45593999997E+02  0.45594000000E+02  0.51100000000E-03 0. -1.
    9900012    2    1    2    0    0 -0.12825107493E+00 -0.11441846483E+01 -0.25929473888E+00  0.90007813316E+02  0.90000075652E+02 0.  0.
        -12    1    1    2    0    0  0.12825107493E+00  0.11441846483E+01  0.25929473888E+00  0.11801866841E+01  0.00000000000E+00 0.  1.
         11    1    3    3    0    0  0.33055190993E+02  0.12642053187E+02  0.83556851992E+01  0.36363231921E+02  0.51100000000E-03 0. -1.
        -11    1    3    3    0    0 -0.99535075128E+01  0.24833126756E+00  0.14774503996E+02  0.17816283249E+02  0.51100000000E-03 0.  1.
        -12    1    3    3    0    0 -0.23229934555E+02 -0.14034569103E+02 -0.23389483934E+02  0.35828298146E+02  0.00000000000E+00 0.  1.
</event>
<event>
 7    1  0.3743571E-015  0.9000766E+02  0.7816164E-02  0.1186339E+00
        -11   -1    0    0    0    0  0.00000000000E+00  0.00000000000E+00  0.45593999997E+02  0.45594000000E+02  0.51100000000E-03 0.  1.
         11   -1    0    0    0    0 -0.00000000000E+00 -0.00000000000E+00 -0.45593999997E+02  0.45594000000E+02  0.51100000000E-03 0. -1.
    9900012    2    1    2    0    0 -0.32742584598E-01 -0.79257980567E+00 -0.87404742325E+00  0.90007655252E+02  0.89999915502E+02 0.  0.
        -12    1    1    2    0    0  0.32742584598E-01  0.79257980567E+00  0.87404742325E+00  0.11803447476E+01  0.00000000000E+00 0.  1.
         11    1    3    3    0    0  0.80352949659E+01 -0.84249214540E+00 -0.66412874637E+01  0.10458606869E+02  0.51100000000E-03 0. -1.
        -11    1    3    3    0    0 -0.37571769568E+02  0.14285253079E+02  0.18696642085E+02  0.44331374324E+02  0.51100000000E-03 0.  1.
         12    1    3    3    0    0  0.29503732017E+02 -0.14235340739E+02 -0.12929402045E+02  0.35217674059E+02  0.00000000000E+00 0. -1.
</event>
<event>
 7    1  0.3743571E-015  0.9000767E+02  0.7816164E-02  0.1186339E+00
        -11   -1    0    0    0    0  0.00000000000E+00  0.00000000000E+00  0.45593999997E+02  0.45594000000E+02  0.51100000000E-03 0.  1.
         11   -1    0    0    0    0 -0.00000000000E+00 -0.00000000000E+00 -0.45593999997E+02  0.45594000000E+02  0.51100000000E-03 0. -1.
    9900012    2    1    2    0    0 -0.73350576597E-03  0.51822507044E+00 -0.10604857358E+01  0.90007666252E+02  0.89999926646E+02 0.  0.
        -12    1    1    2    0    0  0.73350576597E-03 -0.51822507044E+00  0.10604857358E+01  0.11803337484E+01  0.00000000000E+00 0.  1.
         11    1    3    3    0    0  0.31058622402E+02 -0.19630175246E+02 -0.14725287231E+02  0.39583025276E+02  0.51100000000E-03 0. -1.
        -11    1    3    3    0    0  0.49063106198E+01  0.32137047659E+00  0.73945541916E+01  0.88800109705E+01  0.51100000000E-03 0.  1.
        -12    1    3    3    0    0 -0.35965666528E+02  0.19827029840E+02  0.62702473033E+01  0.41544630005E+02  0.00000000000E+00 0.  1.
</event>
<event>
 7    1  0.3743571E-015  0.9000803E+02  0.7816164E-02  0.1186338E+00
        -11   -1    0    0    0    0  0.00000000000E+00  0.00000000000E+00  0.45593999997E+02  0.45594000000E+02  0.51100000000E-03 0. -1.
         11   -1    0    0    0    0 -0.00000000000E+00 -0.00000000000E+00 -0.45593999997E+02  0.45594000000E+02  0.51100000000E-03 0.  1.
    9900012    2    1    2    0    0  0.40571148984E+00 -0.70332001982E+00  0.85619009082E+00  0.90008032909E+02  0.90000298143E+02 0.  0.
        -12    1    1    2    0    0 -0.40571148984E+00  0.70332001982E+00 -0.85619009082E+00  0.11799670906E+01  0.00000000000E+00 0.  1.
         11    1    3    3    0    0 -0.14135302712E+01  0.20105145321E+01  0.69800086288E+01  0.74000511641E+01  0.51100000000E-03 0. -1.
        -11    1    3    3    0    0  0.23108484560E+02  0.16822142676E+02 -0.32643209571E+02  0.43388543122E+02  0.51100000000E-03 0.  1.
         12    1    3    3    0    0 -0.21289242799E+02 -0.19535977227E+02  0.26519391033E+02  0.39219438624E+02  0.00000000000E+00 0. -1.
</event>
<event>
 7    1  0.3743571E-015  0.9000775E+02  0.7816164E-02  0.1186339E+00
        -11   -1    0    0    0    0  0.00000000000E+00  0.00000000000E+00  0.45593999997E+02  0.45594000000E+02  0.51100000000E-03 0.  1.
         11   -1    0    0    0    0 -0.00000000000E+00 -0.00000000000E+00 -0.45593999997E+02  0.45594000000E+02  0.51100000000E-03 0. -1.
    9900012    2    1    2    0    0  0.87517233920E+00 -0.35202467879E+00  0.70932460932E+00  0.90007750281E+02  0.90000011785E+02 0.  0.
        -12    1    1    2    0    0 -0.87517233920E+00  0.35202467879E+00 -0.70932460932E+00  0.11802497190E+01  0.00000000000E+00 0.  1.
         11    1    3    3    0    0 -0.22498499057E+02  0.12773304596E+02 -0.31209661692E+02  0.40538657518E+02  0.51100000000E-03 0. -1.
        -11    1    3    3    0    0 -0.54569106182E+00  0.66818577875E+01  0.64866109493E+01  0.93285113548E+01  0.51100000000E-03 0.  1.
        -12    1    3    3    0    0  0.23919362459E+02 -0.19807187062E+02  0.25432375352E+02  0.40140581408E+02  0.00000000000E+00 0.  1.
</event>
<event>
 7    1  0.3743571E-015  0.9000785E+02  0.7816164E-02  0.1186339E+00
        -11   -1    0    0    0    0  0.00000000000E+00  0.00000000000E+00  0.45593999997E+02  0.45594000000E+02  0.51100000000E-03 0.  1.
         11   -1    0    0    0    0 -0.00000000000E+00 -0.00000000000E+00 -0.45593999997E+02  0.45594000000E+02  0.51100000000E-03 0. -1.
    9900012    2    1    2    0    0 -0.50949074347E+00  0.99540879034E+00  0.37726891513E+00  0.90007851148E+02  0.90000113984E+02 0.  0.
        -12    1    1    2    0    0  0.50949074347E+00 -0.99540879034E+00 -0.37726891513E+00  0.11801488516E+01  0.00000000000E+00 0.  1.
         11    1    3    3    0    0  0.46463877524E+01 -0.51349986870E+01  0.11679071651E+02  0.13577843921E+02  0.51100000000E-03 0. -1.
        -11    1    3    3    0    0  0.26007962826E+02 -0.93917004351E+00  0.19132204700E+02  0.32300734166E+02  0.51100000000E-03 0.  1.
         12    1    3    3    0    0 -0.31163841322E+02  0.70695775208E+01 -0.30434007436E+02  0.44129273061E+02  0.00000000000E+00 0. -1.
</event>
<event>
 7    1  0.3743571E-015  0.9000774E+02  0.7816164E-02  0.1186339E+00
        -11   -1    0    0    0    0  0.00000000000E+00  0.00000000000E+00  0.45593999997E+02  0.45594000000E+02  0.51100000000E-03 0.  1.
         11   -1    0    0    0    0 -0.00000000000E+00 -0.00000000000E+00 -0.45593999997E+02  0.45594000000E+02  0.51100000000E-03 0. -1.
    9900012    2    1    2    0    0  0.50358400082E-01 -0.10051478020E+01 -0.61655840199E+00  0.90007744801E+02  0.90000006232E+02 0.  0.
        -12    1    1    2    0    0 -0.50358400082E-01  0.10051478020E+01  0.61655840199E+00  0.11802551993E+01  0.00000000000E+00 0.  1.
         11    1    3    3    0    0  0.28386443832E+01  0.45943896172E+01 -0.69305192431E+01  0.87862628648E+01  0.51100000000E-03 0. -1.
        -11    1    3    3    0    0  0.10105350248E+02  0.30297459202E+02  0.23233426875E+02  0.39494889066E+02  0.51100000000E-03 0.  1.
         12    1    3    3    0    0 -0.12893636231E+02 -0.35896996621E+02 -0.16919466034E+02  0.41726592870E+02  0.00000000000E+00 0. -1.
</event>
<event>
 7    1  0.3743571E-015  0.9000772E+02  0.7816164E-02  0.1186339E+00
        -11   -1    0    0    0    0  0.00000000000E+00  0.00000000000E+00  0.45593999997E+02  0.45594000000E+02  0.51100000000E-03 0. -1.
         11   -1    0    0    0    0 -0.00000000000E+00 -0.00000000000E+00 -0.45593999997E+02  0.45594000000E+02  0.51100000000E-03 0.  1.
    9900012    2    1    2    0    0 -0.86371324961E+00  0.77192678954E+00 -0.22623667423E+00  0.90007722669E+02  0.89999983808E+02 0.  0.
        -12    1    1    2    0    0  0.86371324961E+00 -0.77192678954E+00  0.22623667423E+00  0.11802773313E+01  0.00000000000E+00 0.  1.
         11    1    3    3    0    0 -0.41582388231E+01  0.53569161887E+01  0.61399045308E+01  0.91480013703E+01  0.51100000000E-03 0. -1.
        -11    1    3    3    0    0 -0.35604812031E+01 -0.19853163142E+02  0.32665665275E+02  0.38391025010E+02  0.51100000000E-03 0.  1.
         12    1    3    3    0    0  0.68550067766E+01  0.15268173743E+02 -0.39031806480E+02  0.42468696289E+02  0.00000000000E+00 0. -1.
</event>
<event>
 7    1  0.3743571E-015  0.9000799E+02  0.7816164E-02  0.1186339E+00
        -11   -1    0    0    0    0  0.00000000000E+00  0.00000000000E+00  0.45593999997E+02  0.45594000000E+02  0.51100000000E-03 0. -1.
         11   -1    0    0    0    0 -0.00000000000E+00 -0.00000000000E+00 -0.45593999997E+02  0.45594000000E+02  0.51100000000E-03 0.  1.
    9900012    2    1    2    0    0 -0.25152379718E+00 -0.89216363149E+00  0.73021234529E+00  0.90007987189E+02  0.90000251819E+02 0.  0.
        -12    1    1    2    0    0  0.25152379718E+00  0.89216363149E+00 -0.73021234529E+00  0.11800128114E+01  0.00000000000E+00 0.  1.
         11    1    3    3    0    0 -0.10943131452E+02  0.20277941924E+00  0.31833654864E+02  0.33662662220E+02  0.51100000000E-03 0. -1.
        -11    1    3    3    0    0  0.14650754286E+02  0.22423266820E+01  0.80394967303E+01  0.16861380075E+02  0.51100000000E-03 0.  1.
        -12    1    3    3    0    0 -0.39591466314E+01 -0.33372697327E+01 -0.39142939249E+02  0.39483944894E+02  0.00000000000E+00 0.  1.
</event>
<event>
 7    1  0.6423553E-015  0.9000777E+02  0.7816164E-02  0.1186339E+00
        -11   -1    0    0    0    0  0.00000000000E+00  0.00000000000E+00  0.45593999997E+02  0.45594000000E+02  0.51100000000E-03 0. -1.
         11   -1    0    0    0    0 -0.00000000000E+00 -0.00000000000E+00 -0.45593999997E+02  0.45594000000E+02  0.51100000000E-03 0.  1.
    9900012    2    1    2    0    0 -0.48026787709E+00 -0.93824026003E+00  0.53103359641E+00  0.90007767523E+02  0.90000029254E+02 0.  0.
        -12    1    1    2    0    0  0.48026787709E+00  0.93824026003E+00 -0.53103359641E+00  0.11802324770E+01  0.00000000000E+00 0.  1.
         11    1    3    3    0    0  0.20331412129E+02 -0.11633438900E+01  0.34300757932E+02  0.39890621493E+02  0.51100000000E-03 0. -1.
        -11    1    3    3    0    0 -0.80730744475E+01  0.17027638574E+00  0.48713392320E+01  0.94304544565E+01  0.51100000000E-03 0.  1.
        -12    1    3    3    0    0 -0.12738605558E+02  0.54827244252E-01 -0.38641063567E+02  0.40686691574E+02  0.00000000000E+00 0.  1.
</event>
<event>
 7    1  0.3743571E-015  0.9000774E+02  0.7816164E-02  0.1186339E+00
        -11   -1    0    0    0    0  0.00000000000E+00  0.00000000000E+00  0.45593999997E+02  0.45594000000E+02  0.51100000000E-03 0.  1.
         11   -1    0    0    0    0 -0.00000000000E+00 -0.00000000000E+00 -0.45593999997E+02  0.45594000000E+02  0.51100000000E-03 0. -1.
    9900012    2    1    2    0    0  0.11539599069E+01  0.84325088435E-01 -0.23300306950E+00  0.90007735361E+02  0.89999996668E+02 0.  0.
        -12    1    1    2    0    0 -0.11539599069E+01 -0.84325088435E-01  0.23300306950E+00  0.11802646389E+01  0.00000000000E+00 0.  1.
         11    1    3    3    0    0 -0.84710707964E+01 -0.96912213509E+01  0.12708310933E+02  0.18088117059E+02  0.51100000000E-03 0. -1.
        -11    1    3    3    0    0  0.38609750168E+02 -0.30714950607E+01 -0.10455063654E+02  0.40118016479E+02  0.51100000000E-03 0.  1.
         12    1    3    3    0    0 -0.28984719464E+02  0.12847041500E+02 -0.24862503486E+01  0.31801601823E+02  0.00000000000E+00 0. -1.
</event>
<event>
 7    1  0.3743571E-015  0.9000772E+02  0.7816164E-02  0.1186339E+00
        -11   -1    0    0    0    0  0.00000000000E+00  0.00000000000E+00  0.45593999997E+02  0.45594000000E+02  0.51100000000E-03 0. -1.
         11   -1    0    0    0    0 -0.00000000000E+00 -0.00000000000E+00 -0.45593999997E+02  0.45594000000E+02  0.51100000000E-03 0.  1.
    9900012    2    1    2    0    0  0.18914944132E+00  0.82574511982E+00  0.82184485430E+00  0.90007719746E+02  0.89999980846E+02 0.  0.
        -12    1    1    2    0    0 -0.18914944132E+00 -0.82574511982E+00 -0.82184485430E+00  0.11802802543E+01  0.00000000000E+00 0.  1.
         11    1    3    3    0    0 -0.20030452948E+02 -0.14666022356E+02  0.27183239177E+02  0.36813581047E+02  0.51100000000E-03 0. -1.
        -11    1    3    3    0    0 -0.67057454202E+01  0.57982897598E+01  0.54490980731E+01  0.10405760705E+02  0.51100000000E-03 0.  1.
        -12    1    3    3    0    0  0.26925347809E+02  0.96934777162E+01 -0.31810492396E+02  0.42788377994E+02  0.00000000000E+00 0.  1.
</event>
<event>
 7    1  0.3743571E-015  0.9000775E+02  0.7816164E-02  0.1186339E+00
        -11   -1    0    0    0    0  0.00000000000E+00  0.00000000000E+00  0.45593999997E+02  0.45594000000E+02  0.51100000000E-03 0.  1.
         11   -1    0    0    0    0 -0.00000000000E+00 -0.00000000000E+00 -0.45593999997E+02  0.45594000000E+02  0.51100000000E-03 0. -1.
    9900012    2    1    2    0    0  0.76508915731E-01  0.10020919569E+01 -0.61882286013E+00  0.90007752722E+02  0.90000014258E+02 0.  0.
        -12    1    1    2    0    0 -0.76508915731E-01 -0.10020919569E+01  0.61882286013E+00  0.11802472777E+01  0.00000000000E+00 0.  1.
         11    1    3    3    0    0 -0.28922591240E+01 -0.10294214598E+02 -0.82433017153E+01  0.13501408832E+02  0.51100000000E-03 0. -1.
        -11    1    3    3    0    0  0.22395756713E+02  0.12935824025E+02 -0.26611124470E+02  0.37108724146E+02  0.51100000000E-03 0.  1.
         12    1    3    3    0    0 -0.19426988673E+02 -0.16395174702E+01  0.34235603325E+02  0.39397619744E+02  0.00000000000E+00 0. -1.
</event>
<event>
 7    1  0.3743571E-015  0.9000772E+02  0.7816164E-02  0.1186339E+00
        -11   -1    0    0    0    0  0.00000000000E+00  0.00000000000E+00  0.45593999997E+02  0.45594000000E+02  0.51100000000E-03 0. -1.
         11   -1    0    0    0    0 -0.00000000000E+00 -0.00000000000E+00 -0.45593999997E+02  0.45594000000E+02  0.51100000000E-03 0.  1.
    9900012    2    1    2    0    0  0.33579688236E+00  0.11209903806E+01  0.15390272723E+00  0.90007718242E+02  0.89999979322E+02 0.  0.
        -12    1    1    2    0    0 -0.33579688236E+00 -0.11209903806E+01 -0.15390272723E+00  0.11802817583E+01  0.00000000000E+00 0.  1.
         11    1    3    3    0    0 -0.32804410549E+02 -0.12014751798E+02 -0.10300151561E+02  0.36422201124E+02  0.51100000000E-03 0. -1.
        -11    1    3    3    0    0 -0.82484093098E+01  0.26713298901E+00 -0.19943047201E+01  0.84902807818E+01  0.51100000000E-03 0.  1.
        -12    1    3    3    0    0  0.41388616741E+02  0.12868609189E+02  0.12448359008E+02  0.45095236336E+02  0.00000000000E+00 0.  1.
</event>
<event>
 7    1  0.3743571E-015  0.9000776E+02  0.7816164E-02  0.1186339E+00
        -11   -1    0    0    0    0  0.00000000000E+00  0.00000000000E+00  0.45593999997E+02  0.45594000000E+02  0.51100000000E-03 0. -1.
         11   -1    0    0    0    0 -0.00000000000E+00 -0.00000000000E+00 -0.45593999997E+02  0.45594000000E+02  0.51100000000E-03 0.  1.
    9900012    2    1    2    0    0 -0.11689915709E+01 -0.10833824528E+00 -0.12114617632E+00  0.90007764911E+02  0.90000026608E+02 0.  0.
        -12    1    1    2    0    0  0.11689915709E+01  0.10833824528E+00  0.12114617632E+00  0.11802350886E+01  0.00000000000E+00 0.  1.
         11    1    3    3    0    0 -0.30912505513E+02  0.22203645065E+02  0.19966126585E+01  0.38112613576E+02  0.51100000000E-03 0. -1.
        -11    1    3    3    0    0 -0.46095896986E+01 -0.10943458186E+01 -0.97156491650E+01  0.10809243679E+02  0.51100000000E-03 0.  1.
        -12    1    3    3    0    0  0.34353103640E+02 -0.21217637492E+02  0.75978903302E+01  0.41085907656E+02  0.00000000000E+00 0.  1.
</event>
<event>
 7    1  0.3743571E-015  0.9000768E+02  0.7816164E-02  0.1186339E+00
        -11   -1    0    0    0    0  0.00000000000E+00  0.00000000000E+00  0.45593999997E+02  0.45594000000E+02  0.51100000000E-03 0.  1.
         11   -1    0    0    0    0 -0.00000000000E+00 -0.00000000000E+00 -0.45593999997E+02  0.45594000000E+02  0.51100000000E-03 0. -1.
    9900012    2    1    2    0    0 -0.11070718880E+01 -0.79375159333E-01 -0.40155803625E+00  0.90007679095E+02  0.89999939659E+02 0.  0.
        -12    1    1    2    0    0  0.11070718880E+01  0.79375159333E-01  0.40155803625E+00  0.11803209045E+01  0.00000000000E+00 0.  1.
         11    1    3    3    0    0 -0.39030133490E+00  0.68220578306E+01  0.54230158656E+01  0.87236408406E+01  0.51100000000E-03 0. -1.
        -11    1    3    3    0    0  0.29845644736E+02  0.21568087874E+02  0.72241610519E+01  0.37525103962E+02  0.51100000000E-03 0.  1.
         12    1    3    3    0    0 -0.30562415289E+02 -0.28469520864E+02 -0.13048734954E+02  0.43758934292E+02  0.00000000000E+00 0. -1.
</event>
<event>
 7    1  0.3743571E-015  0.9000740E+02  0.7816164E-02  0.1186340E+00
        -11   -1    0    0    0    0  0.00000000000E+00  0.00000000000E+00  0.45593999997E+02  0.45594000000E+02  0.51100000000E-03 0. -1.
         11   -1    0    0    0    0 -0.00000000000E+00 -0.00000000000E+00 -0.45593999997E+02  0.45594000000E+02  0.51100000000E-03 0.  1.
    9900012    2    1    2    0    0 -0.10440284498E+01 -0.35612541030E+00 -0.42071613166E+00  0.90007397283E+02  0.89999654127E+02 0.  0.
        -12    1    1    2    0    0  0.10440284498E+01  0.35612541030E+00  0.42071613166E+00  0.11806027170E+01  0.00000000000E+00 0.  1.
         11    1    3    3    0    0 -0.51399379648E+01 -0.76972934458E+01  0.78185431342E+00  0.92886266531E+01  0.51100000000E-03 0. -1.
        -11    1    3    3    0    0 -0.38761684473E+01 -0.92853274718E+01 -0.38134552674E+02  0.39439651317E+02  0.51100000000E-03 0.  1.
         12    1    3    3    0    0  0.79720779623E+01  0.16626495507E+02  0.36931982229E+02  0.41279119313E+02  0.00000000000E+00 0. -1.
</event>
<event>
 7    1  0.3743571E-015  0.9000779E+02  0.7816164E-02  0.1186339E+00
        -11   -1    0    0    0    0  0.00000000000E+00  0.00000000000E+00  0.45593999997E+02  0.45594000000E+02  0.51100000000E-03 0.  1.
         11   -1    0    0    0    0 -0.00000000000E+00 -0.00000000000E+00 -0.45593999997E+02  0.45594000000E+02  0.51100000000E-03 0. -1.
    9900012    2    1    2    0    0  0.10865027486E+01  0.26917017944E+00 -0.37411244978E+00  0.90007787759E+02  0.90000049758E+02 0.  0.
        -12    1    1    2    0    0 -0.10865027486E+01 -0.26917017944E+00  0.37411244978E+00  0.11802122408E+01  0.00000000000E+00 0.  1.
         11    1    3    3    0    0 -0.18161818392E+02  0.10282908041E+02  0.93472746719E+01  0.22868349069E+02  0.51100000000E-03 0. -1.
        -11    1    3    3    0    0 -0.10186559101E+02 -0.29256878349E+02 -0.76583198566E+01  0.31912078909E+02  0.51100000000E-03 0.  1.
         12    1    3    3    0    0  0.29434880241E+02  0.19243140487E+02 -0.20630672651E+01  0.35227359781E+02  0.00000000000E+00 0. -1.
</event>
<event>
 7    1  0.3743571E-015  0.9000779E+02  0.7816164E-02  0.1186339E+00
        -11   -1    0    0    0    0  0.00000000000E+00  0.00000000000E+00  0.45593999997E+02  0.45594000000E+02  0.51100000000E-03 0.  1.
         11   -1    0    0    0    0 -0.00000000000E+00 -0.00000000000E+00 -0.45593999997E+02  0.45594000000E+02  0.51100000000E-03 0. -1.
    9900012    2    1    2    0    0  0.85040758489E+00 -0.20597366087E+00 -0.79201243025E+00  0.90007787350E+02  0.90000049343E+02 0.  0.
        -12    1    1    2    0    0 -0.85040758489E+00  0.20597366087E+00  0.79201243025E+00  0.11802126499E+01  0.00000000000E+00 0.  1.
         11    1    3    3    0    0  0.27146593925E+01 -0.85387435319E+01 -0.15719751342E+01  0.90967369317E+01  0.51100000000E-03 0. -1.
        -11    1    3    3    0    0 -0.24609915771E+02 -0.20380993271E+02  0.21795892338E+02  0.38679371298E+02  0.51100000000E-03 0.  1.
         12    1    3    3    0    0  0.22745663964E+02  0.28713763142E+02 -0.21015929634E+02  0.42231679120E+02  0.00000000000E+00 0. -1.
</event>
<event>
 7    1  0.3743571E-015  0.9000778E+02  0.7816164E-02  0.1186339E+00
        -11   -1    0    0    0    0  0.00000000000E+00  0.00000000000E+00  0.45593999997E+02  0.45594000000E+02  0.51100000000E-03 0. -1.
         11   -1    0    0    0    0 -0.00000000000E+00 -0.00000000000E+00 -0.45593999997E+02  0.45594000000E+02  0.51100000000E-03 0.  1.
    9900012    2    1    2    0    0 -0.48806511716E+00 -0.69139175896E+00  0.82261171406E+00  0.90007779616E+02  0.90000041507E+02 0.  0.
        -12    1    1    2    0    0  0.48806511716E+00  0.69139175896E+00 -0.82261171406E+00  0.11802203841E+01  0.00000000000E+00 0.  1.
         11    1    3    3    0    0  0.13547348863E+02 -0.37692932904E+02 -0.13722693964E+02  0.42339109367E+02  0.51100000000E-03 0. -1.
        -11    1    3    3    0    0  0.25084216603E+01  0.91193100212E+01 -0.40554407243E+01  0.10290801437E+02  0.51100000000E-03 0.  1.
        -12    1    3    3    0    0 -0.16543835641E+02  0.27882231124E+02  0.18600746403E+02  0.37377868811E+02  0.00000000000E+00 0.  1.
</event>
<event>
 7    1  0.3743571E-015  0.9000768E+02  0.7816164E-02  0.1186339E+00
        -11   -1    0    0    0    0  0.00000000000E+00  0.00000000000E+00  0.45593999997E+02  0.45594000000E+02  0.51100000000E-03 0. -1.
         11   -1    0    0    0    0 -0.00000000000E+00 -0.00000000000E+00 -0.45593999997E+02  0.45594000000E+02  0.51100000000E-03 0.  1.
    9900012    2    1    2    0    0 -0.11454987591E+01 -0.27815649489E+00  0.60097129791E-01  0.90007682201E+02  0.89999942806E+02 0.  0.
        -12    1    1    2    0    0  0.11454987591E+01  0.27815649489E+00 -0.60097129791E-01  0.11803177994E+01  0.00000000000E+00 0.  1.
         11    1    3    3    0    0  0.17859479774E+02  0.99890948561E+01  0.30346477449E+02  0.36601253089E+02  0.51100000000E-03 0. -1.
        -11    1    3    3    0    0  0.78722997036E+01  0.61185798483E+01 -0.36622672299E+00  0.99771861894E+01  0.51100000000E-03 0.  1.
        -12    1    3    3    0    0 -0.26877278237E+02 -0.16385831199E+02 -0.29920153597E+02  0.43429242922E+02  0.00000000000E+00 0.  1.
</event>
<event>
 7    1  0.3743571E-015  0.9000775E+02  0.7816164E-02  0.1186339E+00
        -11   -1    0    0    0    0  0.00000000000E+00  0.00000000000E+00  0.45593999997E+02  0.45594000000E+02  0.51100000000E-03 0.  1.
         11   -1    0    0    0    0 -0.00000000000E+00 -0.00000000000E+00 -0.45593999997E+02  0.45594000000E+02  0.51100000000E-03 0. -1.
    9900012    2    1    2    0    0 -0.63531285245E+00  0.26078878401E+00 -0.95987937912E+00  0.90007745098E+02  0.90000006534E+02 0.  0.
        -12    1    1    2    0    0  0.63531285245E+00 -0.26078878401E+00  0.95987937912E+00  0.11802549016E+01  0.00000000000E+00 0.  1.
         11    1    3    3    0    0  0.14523222475E+02  0.12796215255E+02  0.23168251219E+01  0.19494481137E+02  0.51100000000E-03 0.  1.
        -11    1    3    3    0    0 -0.31767103395E+02  0.16877051701E+02  0.32220324509E+01  0.36115996810E+02  0.51100000000E-03 0. -1.
        -12    1    3    3    0    0  0.16608568068E+02 -0.29412478172E+02 -0.64987369519E+01  0.34397267151E+02  0.00000000000E+00 0.  1.
</event>
<event>
 7    1  0.3743571E-015  0.9000769E+02  0.7816164E-02  0.1186339E+00
        -11   -1    0    0    0    0  0.00000000000E+00  0.00000000000E+00  0.45593999997E+02  0.45594000000E+02  0.51100000000E-03 0.  1.
         11   -1    0    0    0    0 -0.00000000000E+00 -0.00000000000E+00 -0.45593999997E+02  0.45594000000E+02  0.51100000000E-03 0. -1.
    9900012    2    1    2    0    0  0.10722292064E+01  0.48246066463E+00 -0.10342638167E+00  0.90007686152E+02  0.89999946809E+02 0.  0.
        -12    1    1    2    0    0 -0.10722292064E+01 -0.48246066463E+00  0.10342638167E+00  0.11803138483E+01  0.00000000000E+00 0.  1.
         11    1    3    3    0    0  0.28677748329E+02 -0.10738799577E+02 -0.21434441244E+02  0.37378741783E+02  0.51100000000E-03 0. -1.
        -11    1    3    3    0    0  0.32736691886E+01  0.25152874756E+01 -0.81001082539E+01  0.90914979529E+01  0.51100000000E-03 0.  1.
        -12    1    3    3    0    0 -0.30879188311E+02  0.87059727663E+01  0.29431123116E+02  0.43537446416E+02  0.00000000000E+00 0.  1.
</event>
<event>
 7    1  0.3882796E-015  0.9000776E+02  0.7816164E-02  0.1186339E+00
        -11   -1    0    0    0    0  0.00000000000E+00  0.00000000000E+00  0.45593999997E+02  0.45594000000E+02  0.51100000000E-03 0.  1.
         11   -1    0    0    0    0 -0.00000000000E+00 -0.00000000000E+00 -0.45593999997E+02  0.45594000000E+02  0.51100000000E-03 0. -1.
    9900012    2    1    2    0    0  0.11302170337E+01  0.33243523252E+00 -0.71129451833E-01  0.90007761411E+02  0.90000023062E+02 0.  0.
        -12    1    1    2    0    0 -0.11302170337E+01 -0.33243523252E+00  0.71129451833E-01  0.11802385886E+01  0.00000000000E+00 0.  1.
         11    1    3    3    0    0  0.18121424506E+02 -0.23856635129E+02 -0.22373071254E+02  0.37390899741E+02  0.51100000000E-03 0. -1.
        -11    1    3    3    0    0  0.69053818670E+00 -0.93003761088E+01  0.16162979940E+01  0.94650017549E+01  0.51100000000E-03 0.  1.
        -12    1    3    3    0    0 -0.17681745659E+02  0.33489446470E+02  0.20685643808E+02  0.43151859916E+02  0.00000000000E+00 0.  1.
</event>
<event>
 7    1  0.3743571E-015  0.9000778E+02  0.7816164E-02  0.1186339E+00
        -11   -1    0    0    0    0  0.00000000000E+00  0.00000000000E+00  0.45593999997E+02  0.45594000000E+02  0.51100000000E-03 0. -1.
         11   -1    0    0    0    0 -0.00000000000E+00 -0.00000000000E+00 -0.45593999997E+02  0.45594000000E+02  0.51100000000E-03 0.  1.
    9900012    2    1    2    0    0  0.19530922066E+00 -0.11317040760E+01  0.27205298630E+00  0.90007782802E+02  0.90000044735E+02 0.  0.
        -12    1    1    2    0    0 -0.19530922066E+00  0.11317040760E+01 -0.27205298630E+00  0.11802171981E+01  0.00000000000E+00 0.  1.
         11    1    3    3    0    0 -0.21367983051E+01 -0.41093901213E+02 -0.10216834215E+02  0.42398800991E+02  0.51100000000E-03 0. -1.
        -11    1    3    3    0    0 -0.80841680321E+01  0.40498717528E+01  0.23169606439E+01  0.93339991896E+01  0.51100000000E-03 0.  1.
        -12    1    3    3    0    0  0.10416275558E+02  0.35912325384E+02  0.81719265569E+01  0.38274982621E+02  0.00000000000E+00 0.  1.
</event>
<event>
 7    1  0.3743571E-015  0.9000799E+02  0.7816164E-02  0.1186339E+00
        -11   -1    0    0    0    0  0.00000000000E+00  0.00000000000E+00  0.45593999997E+02  0.45594000000E+02  0.51100000000E-03 0.  1.
         11   -1    0    0    0    0 -0.00000000000E+00 -0.00000000000E+00 -0.45593999997E+02  0.45594000000E+02  0.51100000000E-03 0. -1.
    9900012    2    1    2    0    0 -0.24527700946E+00 -0.61384728467E+00 -0.97747890625E+00  0.90007985461E+02  0.90000250069E+02 0.  0.
        -12    1    1    2    0    0  0.24527700946E+00  0.61384728467E+00  0.97747890625E+00  0.11800145391E+01  0.00000000000E+00 0.  1.
         11    1    3    3    0    0 -0.19189142939E+01 -0.74156757205E+01  0.31964792067E+02  0.32869779595E+02  0.51100000000E-03 0. -1.
        -11    1    3    3    0    0  0.15939688003E+02  0.37466405761E+01  0.44771845840E+01  0.16975162777E+02  0.51100000000E-03 0.  1.
         12    1    3    3    0    0 -0.14266050719E+02  0.30551878598E+01 -0.37419455557E+02  0.40163043089E+02  0.00000000000E+00 0. -1.
</event>
<event>
 7    1  0.3743571E-015  0.9000770E+02  0.7816164E-02  0.1186339E+00
        -11   -1    0    0    0    0  0.00000000000E+00  0.00000000000E+00  0.45593999997E+02  0.45594000000E+02  0.51100000000E-03 0.  1.
         11   -1    0    0    0    0 -0.00000000000E+00 -0.00000000000E+00 -0.45593999997E+02  0.45594000000E+02  0.51100000000E-03 0. -1.
    9900012    2    1    2    0    0  0.23314282525E+00  0.98035393658E+00 -0.61454251836E+00  0.90007698375E+02  0.89999959194E+02 0.  0.
        -12    1    1    2    0    0 -0.23314282525E+00 -0.98035393658E+00  0.61454251836E+00  0.11803016245E+01  0.00000000000E+00 0.  1.
         11    1    3    3    0    0  0.48377041329E+01  0.82271438262E+01 -0.11704480320E+01  0.96155720408E+01  0.51100000000E-03 0. -1.
        -11    1    3    3    0    0  0.12788173334E+02  0.22866381887E+02  0.26301506449E+02  0.37123820379E+02  0.51100000000E-03 0.  1.
         12    1    3    3    0    0 -0.17392734641E+02 -0.30113171776E+02 -0.25745600935E+02  0.43268305956E+02  0.00000000000E+00 0. -1.
</event>
<event>
 7    1  0.3743571E-015  0.9000767E+02  0.7816164E-02  0.1186339E+00
        -11   -1    0    0    0    0  0.00000000000E+00  0.00000000000E+00  0.45593999997E+02  0.45594000000E+02  0.51100000000E-03 0. -1.
         11   -1    0    0    0    0 -0.00000000000E+00 -0.00000000000E+00 -0.45593999997E+02  0.45594000000E+02  0.51100000000E-03 0.  1.
    9900012    2    1    2    0    0  0.18808512860E+00  0.89763078815E+00  0.74300309579E+00  0.90007673499E+02  0.89999933990E+02 0.  0.
        -12    1    1    2    0    0 -0.18808512860E+00 -0.89763078815E+00 -0.74300309579E+00  0.11803265005E+01  0.00000000000E+00 0.  1.
         11    1    3    3    0    0  0.92463442382E+01  0.78509902389E+01  0.35277460139E+02  0.37304585825E+02  0.51100000000E-03 0. -1.
        -11    1    3    3    0    0  0.13546863676E+02  0.39395062357E+01 -0.81552933835E+01  0.16295583305E+02  0.51100000000E-03 0.  1.
        -12    1    3    3    0    0 -0.22605122785E+02 -0.10892865686E+02 -0.26379163659E+02  0.36407504369E+02  0.00000000000E+00 0.  1.
</event>
<event>
 7    1  0.3743571E-015  0.9000769E+02  0.7816164E-02  0.1186339E+00
        -11   -1    0    0    0    0  0.00000000000E+00  0.00000000000E+00  0.45593999997E+02  0.45594000000E+02  0.51100000000E-03 0. -1.
         11   -1    0    0    0    0 -0.00000000000E+00 -0.00000000000E+00 -0.45593999997E+02  0.45594000000E+02  0.51100000000E-03 0.  1.
    9900012    2    1    2    0    0 -0.33367233101E+00 -0.11113288931E+01  0.21620175253E+00  0.90007689731E+02  0.89999950436E+02 0.  0.
        -12    1    1    2    0    0  0.33367233101E+00  0.11113288931E+01 -0.21620175253E+00  0.11803102689E+01  0.00000000000E+00 0.  1.
         11    1    3    3    0    0  0.17026142600E+02 -0.12375887580E+02  0.58537918108E+01  0.21847631543E+02  0.51100000000E-03 0. -1.
        -11    1    3    3    0    0  0.23997383650E+02  0.92507779541E+01 -0.72546429962E+01  0.26722297058E+02  0.51100000000E-03 0.  1.
         12    1    3    3    0    0 -0.41357198581E+02  0.20137807327E+01  0.16170529379E+01  0.41437761130E+02  0.00000000000E+00 0. -1.
</event>
<event>
 7    1  0.3743571E-015  0.9000772E+02  0.7816164E-02  0.1186339E+00
        -11   -1    0    0    0    0  0.00000000000E+00  0.00000000000E+00  0.45593999997E+02  0.45594000000E+02  0.51100000000E-03 0.  1.
         11   -1    0    0    0    0 -0.00000000000E+00 -0.00000000000E+00 -0.45593999997E+02  0.45594000000E+02  0.51100000000E-03 0. -1.
    9900012    2    1    2    0    0 -0.10461560066E+01  0.51311326015E+00  0.18799037535E+00  0.90007716988E+02  0.89999978052E+02 0.  0.
        -12    1    1    2    0    0  0.10461560066E+01 -0.51311326015E+00 -0.18799037535E+00  0.11802830123E+01  0.00000000000E+00 0.  1.
         11    1    3    3    0    0  0.38041796694E+01 -0.84225934165E+01 -0.35683103555E+00  0.92487399934E+01  0.51100000000E-03 0. -1.
        -11    1    3    3    0    0 -0.21605760343E+01 -0.16492491421E+02  0.34471943071E+02  0.38275125361E+02  0.51100000000E-03 0.  1.
         12    1    3    3    0    0 -0.26897596417E+01  0.25428198098E+02 -0.33927121660E+02  0.42483851633E+02  0.00000000000E+00 0. -1.
</event>
<event>
 7    1  0.3743571E-015  0.9000777E+02  0.7816164E-02  0.1186339E+00
        -11   -1    0    0    0    0  0.00000000000E+00  0.00000000000E+00  0.45593999997E+02  0.45594000000E+02  0.51100000000E-03 0. -1.
         11   -1    0    0    0    0 -0.00000000000E+00 -0.00000000000E+00 -0.45593999997E+02  0.45594000000E+02  0.51100000000E-03 0.  1.
    9900012    2    1    2    0    0 -0.69205162721E+00  0.48472695313E-01  0.95481389067E+00  0.90007765014E+02  0.90000026712E+02 0.  0.
        -12    1    1    2    0    0  0.69205162721E+00 -0.48472695313E-01 -0.95481389067E+00  0.11802349862E+01  0.00000000000E+00 0.  1.
         11    1    3    3    0    0 -0.95614837673E+00  0.37672857857E+02 -0.38664508521E+01  0.37882817758E+02  0.51100000000E-03 0. -1.
        -11    1    3    3    0    0 -0.48147934378E+00  0.44131109319E+01  0.88371150779E+01  0.98894880362E+01  0.51100000000E-03 0.  1.
        -12    1    3    3    0    0  0.74557609330E+00 -0.42037496094E+02 -0.40158503351E+01  0.42235459219E+02  0.00000000000E+00 0.  1.
</event>
<event>
 7    1  0.3743571E-015  0.9000788E+02  0.7816164E-02  0.1186339E+00
        -11   -1    0    0    0    0  0.00000000000E+00  0.00000000000E+00  0.45593999997E+02  0.45594000000E+02  0.51100000000E-03 0. -1.
         11   -1    0    0    0    0 -0.00000000000E+00 -0.00000000000E+00 -0.45593999997E+02  0.45594000000E+02  0.51100000000E-03 0.  1.
    9900012    2    1    2    0    0  0.42924421852E+00 -0.58264399394E+00  0.93217658379E+00  0.90007882291E+02  0.90000145538E+02 0.  0.
        -12    1    1    2    0    0 -0.42924421852E+00  0.58264399394E+00 -0.93217658379E+00  0.11801177086E+01  0.00000000000E+00 0.  1.
         11    1    3    3    0    0  0.70637108365E+01  0.80504987793E+01  0.31608611299E+01  0.11166807275E+02  0.51100000000E-03 0. -1.
        -11    1    3    3    0    0  0.28431322240E+02 -0.27000996941E+02 -0.18719008467E+01  0.39254272802E+02  0.51100000000E-03 0.  1.
         12    1    3    3    0    0 -0.35065788858E+02  0.18367854168E+02 -0.35678369935E+00  0.39586802215E+02  0.00000000000E+00 0. -1.
</event>
<event>
 7    1  0.3743571E-015  0.9000783E+02  0.7816164E-02  0.1186339E+00
        -11   -1    0    0    0    0  0.00000000000E+00  0.00000000000E+00  0.45593999997E+02  0.45594000000E+02  0.51100000000E-03 0.  1.
         11   -1    0    0    0    0 -0.00000000000E+00 -0.00000000000E+00 -0.45593999997E+02  0.45594000000E+02  0.51100000000E-03 0. -1.
    9900012    2    1    2    0    0 -0.31538431791E+00 -0.69860771991E+00 -0.89736832375E+00  0.90007834790E+02  0.90000097409E+02 0.  0.
        -12    1    1    2    0    0  0.31538431791E+00  0.69860771991E+00  0.89736832375E+00  0.11801652099E+01  0.00000000000E+00 0.  1.
         11    1    3    3    0    0  0.12145317294E+02 -0.96299480148E+01 -0.96477309191E+01  0.18257144987E+02  0.51100000000E-03 0. -1.
        -11    1    3    3    0    0  0.12775392300E+02 -0.13799306988E+02  0.27224298284E+02  0.33087670499E+02  0.51100000000E-03 0.  1.
         12    1    3    3    0    0 -0.25236093912E+02  0.22730647283E+02 -0.18473935688E+02  0.38663019303E+02  0.00000000000E+00 0. -1.
</event>
<event>
 7    1  0.3743571E-015  0.9000783E+02  0.7816164E-02  0.1186339E+00
        -11   -1    0    0    0    0  0.00000000000E+00  0.00000000000E+00  0.45593999997E+02  0.45594000000E+02  0.51100000000E-03 0.  1.
         11   -1    0    0    0    0 -0.00000000000E+00 -0.00000000000E+00 -0.45593999997E+02  0.45594000000E+02  0.51100000000E-03 0. -1.
    9900012    2    1    2    0    0 -0.41997161856E+00 -0.76523368031E+00 -0.79425145658E+00  0.90007833011E+02  0.90000095607E+02 0.  0.
        -12    1    1    2    0    0  0.41997161856E+00  0.76523368031E+00  0.79425145658E+00  0.11801669891E+01  0.00000000000E+00 0.  1.
         11    1    3    3    0    0 -0.11239060551E+02  0.28669657281E+02  0.12813682786E+02  0.33353503526E+02  0.51100000000E-03 0. -1.
        -11    1    3    3    0    0 -0.14979198226E+02 -0.24482015803E+02 -0.79646929251E+01  0.29785597374E+02  0.51100000000E-03 0.  1.
        -12    1    3    3    0    0  0.25798287159E+02 -0.49528751578E+01 -0.56432413174E+01  0.26868732110E+02  0.00000000000E+00 0.  1.
</event>
<event>
 7    1  0.3743571E-015  0.9000762E+02  0.7816164E-02  0.1186339E+00
        -11   -1    0    0    0    0  0.00000000000E+00  0.00000000000E+00  0.45593999997E+02  0.45594000000E+02  0.51100000000E-03 0.  1.
         11   -1    0    0    0    0 -0.00000000000E+00 -0.00000000000E+00 -0.45593999997E+02  0.45594000000E+02  0.51100000000E-03 0. -1.
    9900012    2    1    2    0    0 -0.83806363301E+00  0.50620878670E+00 -0.65931464087E+00  0.90007621339E+02  0.89999881140E+02 0.  0.
        -12    1    1    2    0    0  0.83806363301E+00 -0.50620878670E+00  0.65931464087E+00  0.11803786614E+01  0.00000000000E+00 0.  1.
         11    1    3    3    0    0 -0.29039852827E+02 -0.88384976836E+00 -0.22910305380E+02  0.36999680208E+02  0.51100000000E-03 0. -1.
        -11    1    3    3    0    0 -0.13089667692E+01  0.21861250336E+01 -0.93923580685E+01  0.97318511606E+01  0.51100000000E-03 0.  1.
        -12    1    3    3    0    0  0.29510755963E+02 -0.79606647850E+00  0.31643348807E+02  0.43276089970E+02  0.00000000000E+00 0.  1.
</event>
<event>
 7    1  0.3743571E-015  0.9000772E+02  0.7816164E-02  0.1186339E+00
        -11   -1    0    0    0    0  0.00000000000E+00  0.00000000000E+00  0.45593999997E+02  0.45594000000E+02  0.51100000000E-03 0.  1.
         11   -1    0    0    0    0 -0.00000000000E+00 -0.00000000000E+00 -0.45593999997E+02  0.45594000000E+02  0.51100000000E-03 0. -1.
    9900012    2    1    2    0    0 -0.33581286601E+00  0.95381141471E+00 -0.60871258777E+00  0.90007721427E+02  0.89999982550E+02 0.  0.
        -12    1    1    2    0    0  0.33581286601E+00 -0.95381141471E+00  0.60871258777E+00  0.11802785732E+01  0.00000000000E+00 0.  1.
         11    1    3    3    0    0  0.16528591392E+01  0.66687021911E+01 -0.58405174850E+01  0.90174928335E+01  0.51100000000E-03 0. -1.
        -11    1    3    3    0    0 -0.38132418137E+02 -0.16670573602E+02  0.10329900165E+02  0.42880020696E+02  0.51100000000E-03 0.  1.
         12    1    3    3    0    0  0.36143746132E+02  0.10955682826E+02 -0.50980952680E+01  0.38110207897E+02  0.00000000000E+00 0. -1.
</event>
<event>
 7    1  0.3743571E-015  0.9000774E+02  0.7816164E-02  0.1186339E+00
        -11   -1    0    0    0    0  0.00000000000E+00  0.00000000000E+00  0.45593999997E+02  0.45594000000E+02  0.51100000000E-03 0. -1.
         11   -1    0    0    0    0 -0.00000000000E+00 -0.00000000000E+00 -0.45593999997E+02  0.45594000000E+02  0.51100000000E-03 0.  1.
    9900012    2    1    2    0    0  0.35928461504E+00 -0.31437955492E+00  0.10793967736E+01  0.90007738447E+02  0.89999999794E+02 0.  0.
        -12    1    1    2    0    0 -0.35928461504E+00  0.31437955492E+00 -0.10793967736E+01  0.11802615532E+01  0.00000000000E+00 0.  1.
         11    1    3    3    0    0 -0.65416963048E+01 -0.66096727424E+01 -0.74260240730E+01  0.11900730990E+02  0.51100000000E-03 0. -1.
        -11    1    3    3    0    0  0.29113821084E+01 -0.34151477392E+02 -0.63033353807E+01  0.34850130431E+02  0.51100000000E-03 0.  1.
         12    1    3    3    0    0  0.39895988114E+01  0.40446770580E+02  0.14808756227E+02  0.43256877026E+02  0.00000000000E+00 0. -1.
</event>
<event>
 7    1  0.3743571E-015  0.9000776E+02  0.7816164E-02  0.1186339E+00
        -11   -1    0    0    0    0  0.00000000000E+00  0.00000000000E+00  0.45593999997E+02  0.45594000000E+02  0.51100000000E-03 0. -1.
         11   -1    0    0    0    0 -0.00000000000E+00 -0.00000000000E+00 -0.45593999997E+02  0.45594000000E+02  0.51100000000E-03 0.  1.
    9900012    2    1    2    0    0 -0.60287835953E+00  0.18306259650E-01  0.10144811228E+01  0.90007758760E+02  0.90000020376E+02 0.  0.
        -12    1    1    2    0    0  0.60287835953E+00 -0.18306259650E-01 -0.10144811228E+01  0.11802412398E+01  0.00000000000E+00 0.  1.
         11    1    3    3    0    0  0.17766242790E+02  0.31171923481E+02 -0.17501106785E+02  0.39920131956E+02  0.51100000000E-03 0. -1.
        -11    1    3    3    0    0  0.61597916030E+01 -0.26827968131E+01  0.91613496302E+01  0.11360931240E+02  0.51100000000E-03 0.  1.
        -12    1    3    3    0    0 -0.24528912753E+02 -0.28470820409E+02  0.93542382779E+01  0.38726695564E+02  0.00000000000E+00 0.  1.
</event>
<event>
 7    1  0.3743571E-015  0.9000764E+02  0.7816164E-02  0.1186339E+00
        -11   -1    0    0    0    0  0.00000000000E+00  0.00000000000E+00  0.45593999997E+02  0.45594000000E+02  0.51100000000E-03 0.  1.
         11   -1    0    0    0    0 -0.00000000000E+00 -0.00000000000E+00 -0.45593999997E+02  0.45594000000E+02  0.51100000000E-03 0. -1.
    9900012    2    1    2    0    0 -0.81782575760E+00  0.73821245194E-01 -0.84791935382E+00  0.90007637438E+02  0.89999897453E+02 0.  0.
        -12    1    1    2    0    0  0.81782575760E+00 -0.73821245194E-01  0.84791935382E+00  0.11803625615E+01  0.00000000000E+00 0.  1.
         11    1    3    3    0    0  0.35835580069E+02 -0.25269824314E+01  0.58211888749E+01  0.36393140553E+02  0.51100000000E-03 0. -1.
        -11    1    3    3    0    0  0.74638134755E+01  0.48799856505E+01 -0.23863395377E+01  0.92313264592E+01  0.51100000000E-03 0.  1.
        -12    1    3    3    0    0 -0.44117219302E+02 -0.22791819739E+01 -0.42827686910E+01  0.44383170427E+02  0.00000000000E+00 0.  1.
</event>
<event>
 7    1  0.3743571E-015  0.9000788E+02  0.7816164E-02  0.1186339E+00
        -11   -1    0    0    0    0  0.00000000000E+00  0.00000000000E+00  0.45593999997E+02  0.45594000000E+02  0.51100000000E-03 0.  1.
         11   -1    0    0    0    0 -0.00000000000E+00 -0.00000000000E+00 -0.45593999997E+02  0.45594000000E+02  0.51100000000E-03 0. -1.
    9900012    2    1    2    0    0 -0.62905398703E+00 -0.34582989271E+00 -0.93668124757E+00  0.90007881789E+02  0.90000145028E+02 0.  0.
        -12    1    1    2    0    0  0.62905398703E+00  0.34582989271E+00  0.93668124757E+00  0.11801182114E+01  0.00000000000E+00 0.  1.
         11    1    3    3    0    0 -0.75738258307E+01 -0.18005906749E+01  0.56818871590E+01  0.96378839193E+01  0.51100000000E-03 0. -1.
        -11    1    3    3    0    0 -0.20155800414E+02  0.18804778000E+01  0.29151605541E+02  0.35490964948E+02  0.51100000000E-03 0.  1.
         12    1    3    3    0    0  0.27100572258E+02 -0.42571701784E+00 -0.35770173948E+02  0.44879032921E+02  0.00000000000E+00 0. -1.
</event>
<event>
 7    1  0.3743571E-015  0.9000773E+02  0.7816164E-02  0.1186339E+00
        -11   -1    0    0    0    0  0.00000000000E+00  0.00000000000E+00  0.45593999997E+02  0.45594000000E+02  0.51100000000E-03 0. -1.
         11   -1    0    0    0    0 -0.00000000000E+00 -0.00000000000E+00 -0.45593999997E+02  0.45594000000E+02  0.51100000000E-03 0.  1.
    9900012    2    1    2    0    0  0.82547525945E+00 -0.79851074844E+00 -0.27206271857E+00  0.90007725904E+02  0.89999987086E+02 0.  0.
        -12    1    1    2    0    0 -0.82547525945E+00  0.79851074844E+00  0.27206271857E+00  0.11802740962E+01  0.00000000000E+00 0.  1.
         11    1    3    3    0    0 -0.10052046837E+01 -0.81787938480E+01 -0.89428234804E+01  0.12160476854E+02  0.51100000000E-03 0. -1.
        -11    1    3    3    0    0 -0.18332006553E+02 -0.65107484368E+01 -0.27793459795E+02  0.33925340339E+02  0.51100000000E-03 0.  1.
         12    1    3    3    0    0  0.20162686497E+02  0.13891031536E+02  0.36464220557E+02  0.43921908710E+02  0.00000000000E+00 0. -1.
</event>
<event>
 7    1  0.3743571E-015  0.9000733E+02  0.7816164E-02  0.1186340E+00
        -11   -1    0    0    0    0  0.00000000000E+00  0.00000000000E+00  0.45593999997E+02  0.45594000000E+02  0.51100000000E-03 0.  1.
         11   -1    0    0    0    0 -0.00000000000E+00 -0.00000000000E+00 -0.45593999997E+02  0.45594000000E+02  0.51100000000E-03 0. -1.
    9900012    2    1    2    0    0 -0.33480675168E+00  0.11060438901E+01 -0.24199572546E+00  0.90007326218E+02  0.89999582123E+02 0.  0.
        -12    1    1    2    0    0  0.33480675168E+00 -0.11060438901E+01  0.24199572546E+00  0.11806737817E+01  0.00000000000E+00 0.  1.
         11    1    3    3    0    0 -0.82504220361E+01  0.25525808506E+02 -0.33669085865E+02  0.43049317148E+02  0.51100000000E-03 0. -1.
        -11    1    3    3    0    0  0.38066306142E+01  0.25266517381E+01  0.10084135811E+02  0.11070871734E+02  0.51100000000E-03 0.  1.
        -12    1    3    3    0    0  0.41089846702E+01 -0.26946416354E+02  0.23342954329E+02  0.35887137336E+02  0.00000000000E+00 0.  1.
</event>
<event>
 7    1  0.3743571E-015  0.9000774E+02  0.7816164E-02  0.1186339E+00
        -11   -1    0    0    0    0  0.00000000000E+00  0.00000000000E+00  0.45593999997E+02  0.45594000000E+02  0.51100000000E-03 0. -1.
         11   -1    0    0    0    0 -0.00000000000E+00 -0.00000000000E+00 -0.45593999997E+02  0.45594000000E+02  0.51100000000E-03 0.  1.
    9900012    2    1    2    0    0  0.42044141708E-02  0.76947633731E+00  0.89492515656E+00  0.90007744711E+02  0.90000006141E+02 0.  0.
        -12    1    1    2    0    0 -0.42044141708E-02 -0.76947633731E+00 -0.89492515656E+00  0.11802552888E+01  0.00000000000E+00 0.  1.
         11    1    3    3    0    0 -0.14905425798E+02  0.26099271734E+02  0.22704691390E+02  0.37667581747E+02  0.51100000000E-03 0. -1.
        -11    1    3    3    0    0  0.20047143626E+01  0.62463772881E+01  0.55650176493E+01  0.86026467205E+01  0.51100000000E-03 0.  1.
        -12    1    3    3    0    0  0.12904915849E+02 -0.31576172685E+02 -0.27374783883E+02  0.43737516244E+02  0.00000000000E+00 0.  1.
</event>
<event>
 7    1  0.3743571E-015  0.9000772E+02  0.7816164E-02  0.1186339E+00
        -11   -1    0    0    0    0  0.00000000000E+00  0.00000000000E+00  0.45593999997E+02  0.45594000000E+02  0.51100000000E-03 0.  1.
         11   -1    0    0    0    0 -0.00000000000E+00 -0.00000000000E+00 -0.45593999997E+02  0.45594000000E+02  0.51100000000E-03 0. -1.
    9900012    2    1    2    0    0  0.96170259409E+00  0.67358437346E+00 -0.12034712026E+00  0.90007715620E+02  0.89999976666E+02 0.  0.
        -12    1    1    2    0    0 -0.96170259409E+00 -0.67358437346E+00  0.12034712026E+00  0.11802843797E+01  0.00000000000E+00 0.  1.
         11    1    3    3    0    0 -0.50636224694E-02  0.90700012731E+01  0.29068363137E+01  0.95244236754E+01  0.51100000000E-03 0. -1.
        -11    1    3    3    0    0 -0.32907615953E+02  0.16806110597E+02  0.56480981671E+01  0.37379908430E+02  0.51100000000E-03 0.  1.
         12    1    3    3    0    0  0.33874382169E+02 -0.25202527496E+02 -0.86752816011E+01  0.43103383515E+02  0.00000000000E+00 0. -1.
</event>
<event>
 7    1  0.3743571E-015  0.9000728E+02  0.7816164E-02  0.1186340E+00
        -11   -1    0    0    0    0  0.00000000000E+00  0.00000000000E+00  0.45593999997E+02  0.45594000000E+02  0.51100000000E-03 0.  1.
         11   -1    0    0    0    0 -0.00000000000E+00 -0.00000000000E+00 -0.45593999997E+02  0.45594000000E+02  0.51100000000E-03 0. -1.
    9900012    2    1    2    0    0 -0.68322418424E+00  0.76770821834E+00  0.58131359396E+00  0.90007281283E+02  0.89999536595E+02 0.  0.
        -12    1    1    2    0    0  0.68322418424E+00 -0.76770821834E+00 -0.58131359396E+00  0.11807187171E+01  0.00000000000E+00 0.  1.
         11    1    3    3    0    0 -0.28469431434E+02  0.13694234805E+02  0.15249849722E+02  0.35079887540E+02  0.51100000000E-03 0. -1.
        -11    1    3    3    0    0 -0.11210410113E+02 -0.80078871429E+00  0.77700957737E+00  0.11265802306E+02  0.51100000000E-03 0.  1.
        -12    1    3    3    0    0  0.38996617362E+02 -0.12125737872E+02 -0.15445545705E+02  0.43661591436E+02  0.00000000000E+00 0.  1.
</event>
<event>
 7    1  0.3743571E-015  0.9000776E+02  0.7816164E-02  0.1186339E+00
        -11   -1    0    0    0    0  0.00000000000E+00  0.00000000000E+00  0.45593999997E+02  0.45594000000E+02  0.51100000000E-03 0. -1.
         11   -1    0    0    0    0 -0.00000000000E+00 -0.00000000000E+00 -0.45593999997E+02  0.45594000000E+02  0.51100000000E-03 0.  1.
    9900012    2    1    2    0    0  0.48219259444E+00  0.10763077468E+01  0.45050657109E-01  0.90007755269E+02  0.90000016838E+02 0.  0.
        -12    1    1    2    0    0 -0.48219259444E+00 -0.10763077468E+01 -0.45050657109E-01  0.11802447312E+01  0.00000000000E+00 0.  1.
         11    1    3    3    0    0  0.25778700403E+02 -0.25930965215E+02  0.25160560114E+00  0.36565279393E+02  0.51100000000E-03 0. -1.
        -11    1    3    3    0    0  0.11293395292E+01 -0.73394011001E+01  0.61510515743E+01  0.96424920021E+01  0.51100000000E-03 0.  1.
        -12    1    3    3    0    0 -0.26425847338E+02  0.34346674062E+02 -0.63576065183E+01  0.43799983873E+02  0.00000000000E+00 0.  1.
</event>
<event>
 7    1  0.3743571E-015  0.9000768E+02  0.7816164E-02  0.1186339E+00
        -11   -1    0    0    0    0  0.00000000000E+00  0.00000000000E+00  0.45593999997E+02  0.45594000000E+02  0.51100000000E-03 0.  1.
         11   -1    0    0    0    0 -0.00000000000E+00 -0.00000000000E+00 -0.45593999997E+02  0.45594000000E+02  0.51100000000E-03 0. -1.
    9900012    2    1    2    0    0  0.72032554198E+00  0.18729856359E+00 -0.91608232262E+00  0.90007679510E+02  0.89999940079E+02 0.  0.
        -12    1    1    2    0    0 -0.72032554198E+00 -0.18729856359E+00  0.91608232262E+00  0.11803204904E+01  0.00000000000E+00 0.  1.
         11    1    3    3    0    0  0.27840541721E+02 -0.20392219162E+02 -0.10661835509E+02  0.36119428322E+02  0.51100000000E-03 0. -1.
        -11    1    3    3    0    0 -0.80815132514E+00 -0.95315895323E+01 -0.55684739358E+01  0.11068523380E+02  0.51100000000E-03 0.  1.
        -12    1    3    3    0    0 -0.26312064854E+02  0.30111107258E+02  0.15314227122E+02  0.42819727807E+02  0.00000000000E+00 0.  1.
</event>
<event>
 7    1  0.3743571E-015  0.9000769E+02  0.7816164E-02  0.1186339E+00
        -11   -1    0    0    0    0  0.00000000000E+00  0.00000000000E+00  0.45593999997E+02  0.45594000000E+02  0.51100000000E-03 0. -1.
         11   -1    0    0    0    0 -0.00000000000E+00 -0.00000000000E+00 -0.45593999997E+02  0.45594000000E+02  0.51100000000E-03 0.  1.
    9900012    2    1    2    0    0 -0.61117525993E+00 -0.90873131269E+00 -0.44022030288E+00  0.90007694229E+02  0.89999954993E+02 0.  0.
        -12    1    1    2    0    0  0.61117525993E+00  0.90873131269E+00  0.44022030288E+00  0.11803057706E+01  0.00000000000E+00 0.  1.
         11    1    3    3    0    0 -0.51392673747E+01  0.24340691103E+01  0.10873947212E+02  0.12271083482E+02  0.51100000000E-03 0. -1.
        -11    1    3    3    0    0  0.21630298521E+02 -0.34187558597E+02  0.74700636270E+00  0.40462538176E+02  0.51100000000E-03 0.  1.
         12    1    3    3    0    0 -0.17102206406E+02  0.30844758174E+02 -0.12061173878E+02  0.37274072571E+02  0.00000000000E+00 0. -1.
</event>
<event>
 7    1  0.3743571E-015  0.9000758E+02  0.7816164E-02  0.1186339E+00
        -11   -1    0    0    0    0  0.00000000000E+00  0.00000000000E+00  0.45593999997E+02  0.45594000000E+02  0.51100000000E-03 0. -1.
         11   -1    0    0    0    0 -0.00000000000E+00 -0.00000000000E+00 -0.45593999997E+02  0.45594000000E+02  0.51100000000E-03 0.  1.
    9900012    2    1    2    0    0 -0.57218107888E+00 -0.86424483134E+00  0.56487775615E+00  0.90007577535E+02  0.89999836759E+02 0.  0.
        -12    1    1    2    0    0  0.57218107888E+00  0.86424483134E+00 -0.56487775615E+00  0.11804224646E+01  0.00000000000E+00 0.  1.
         11    1    3    3    0    0 -0.61526114120E+01  0.52801865651E+01 -0.77149582010E+01  0.11191763831E+02  0.51100000000E-03 0. -1.
        -11    1    3    3    0    0 -0.43463157267E+00 -0.35860069721E+02 -0.16673475402E+02  0.39549188199E+02  0.51100000000E-03 0.  1.
         12    1    3    3    0    0  0.60150619058E+01  0.29715638325E+02  0.24953311359E+02  0.39266625505E+02  0.00000000000E+00 0. -1.
</event>
<event>
 7    1  0.3743571E-015  0.9000773E+02  0.7816164E-02  0.1186339E+00
        -11   -1    0    0    0    0  0.00000000000E+00  0.00000000000E+00  0.45593999997E+02  0.45594000000E+02  0.51100000000E-03 0.  1.
         11   -1    0    0    0    0 -0.00000000000E+00 -0.00000000000E+00 -0.45593999997E+02  0.45594000000E+02  0.51100000000E-03 0. -1.
    9900012    2    1    2    0    0 -0.99243198012E+00  0.33444710218E-01 -0.63795647296E+00  0.90007733824E+02  0.89999995111E+02 0.  0.
        -12    1    1    2    0    0  0.99243198012E+00 -0.33444710218E-01  0.63795647296E+00  0.11802661756E+01  0.00000000000E+00 0.  1.
         11    1    3    3    0    0 -0.17825042928E+02  0.18210033027E+02  0.29792902586E+02  0.39204011313E+02  0.51100000000E-03 0. -1.
        -11    1    3    3    0    0  0.67927333991E+01  0.33836412983E+01  0.42906458566E+01  0.87177920137E+01  0.51100000000E-03 0.  1.
        -12    1    3    3    0    0  0.10039877549E+02 -0.21560229615E+02 -0.34721504916E+02  0.42085930498E+02  0.00000000000E+00 0.  1.
</event>
<event>
 7    1  0.3743571E-015  0.9000766E+02  0.7816164E-02  0.1186339E+00
        -11   -1    0    0    0    0  0.00000000000E+00  0.00000000000E+00  0.45593999997E+02  0.45594000000E+02  0.51100000000E-03 0.  1.
         11   -1    0    0    0    0 -0.00000000000E+00 -0.00000000000E+00 -0.45593999997E+02  0.45594000000E+02  0.51100000000E-03 0. -1.
    9900012    2    1    2    0    0  0.56224790074E+00 -0.33044934865E+00 -0.98380628860E+00  0.90007663486E+02  0.89999923844E+02 0.  0.
        -12    1    1    2    0    0 -0.56224790074E+00  0.33044934865E+00  0.98380628860E+00  0.11803365145E+01  0.00000000000E+00 0.  1.
         11    1    3    3    0    0  0.98669401803E+01 -0.35019014278E+00 -0.47564516301E+01  0.10959150242E+02  0.51100000000E-03 0. -1.
        -11    1    3    3    0    0 -0.87927702352E+01  0.27654657251E+02  0.29433723739E+02  0.41333242910E+02  0.51100000000E-03 0.  1.
         12    1    3    3    0    0 -0.51192204433E+00 -0.27634916457E+02 -0.25661078397E+02  0.37715270333E+02  0.00000000000E+00 0. -1.
</event>
<event>
 7    1  0.3743571E-015  0.9000772E+02  0.7816164E-02  0.1186339E+00
        -11   -1    0    0    0    0  0.00000000000E+00  0.00000000000E+00  0.45593999997E+02  0.45594000000E+02  0.51100000000E-03 0. -1.
         11   -1    0    0    0    0 -0.00000000000E+00 -0.00000000000E+00 -0.45593999997E+02  0.45594000000E+02  0.51100000000E-03 0.  1.
    9900012    2    1    2    0    0 -0.14583140983E+00  0.39441706018E+00  0.11028306869E+01  0.90007717347E+02  0.89999978416E+02 0.  0.
        -12    1    1    2    0    0  0.14583140983E+00 -0.39441706018E+00 -0.11028306869E+01  0.11802826532E+01  0.00000000000E+00 0.  1.
         11    1    3    3    0    0 -0.37534136963E+00  0.11472519992E+02  0.39179921596E+01  0.12128901802E+02  0.51100000000E-03 0. -1.
        -11    1    3    3    0    0 -0.11497183018E+02 -0.36550427618E+02  0.18602649318E+02  0.42593163047E+02  0.51100000000E-03 0.  1.
         12    1    3    3    0    0  0.11726692978E+02  0.25472324686E+02 -0.21417810791E+02  0.35285652498E+02  0.00000000000E+00 0. -1.
</event>
<event>
 7    1  0.3743571E-015  0.9000803E+02  0.7816164E-02  0.1186338E+00
        -11   -1    0    0    0    0  0.00000000000E+00  0.00000000000E+00  0.45593999997E+02  0.45594000000E+02  0.51100000000E-03 0. -1.
         11   -1    0    0    0    0 -0.00000000000E+00 -0.00000000000E+00 -0.45593999997E+02  0.45594000000E+02  0.51100000000E-03 0.  1.
    9900012    2    1    2    0    0 -0.22286378652E+00  0.11506918595E+01 -0.13624846502E+00  0.90008032345E+02  0.90000297571E+02 0.  0.
        -12    1    1    2    0    0  0.22286378652E+00 -0.11506918595E+01  0.13624846502E+00  0.11799676551E+01  0.00000000000E+00 0.  1.
         11    1    3    3    0    0  0.65631530295E+01  0.10161734469E+02 -0.42311708585E+01  0.12815562110E+02  0.51100000000E-03 0. -1.
        -11    1    3    3    0    0  0.14403396439E+02  0.22361926647E+02 -0.19142709500E+02  0.32771281934E+02  0.51100000000E-03 0.  1.
         12    1    3    3    0    0 -0.21189413255E+02 -0.31372969257E+02  0.23237631893E+02  0.44421188301E+02  0.00000000000E+00 0. -1.
</event>
<event>
 7    1  0.3743571E-015  0.9000775E+02  0.7816164E-02  0.1186339E+00
        -11   -1    0    0    0    0  0.00000000000E+00  0.00000000000E+00  0.45593999997E+02  0.45594000000E+02  0.51100000000E-03 0.  1.
         11   -1    0    0    0    0 -0.00000000000E+00 -0.00000000000E+00 -0.45593999997E+02  0.45594000000E+02  0.51100000000E-03 0. -1.
    9900012    2    1    2    0    0 -0.51913422940E+00  0.49584435680E+00 -0.93682041920E+00  0.90007748132E+02  0.90000009607E+02 0.  0.
        -12    1    1    2    0    0  0.51913422940E+00 -0.49584435680E+00  0.93682041920E+00  0.11802518681E+01  0.00000000000E+00 0.  1.
         11    1    3    3    0    0 -0.63289831967E+01 -0.54558333631E+01  0.94352336647E+01  0.12603403531E+02  0.51100000000E-03 0. -1.
        -11    1    3    3    0    0 -0.63197995052E+01  0.25276496399E+02 -0.35129342823E+02  0.43736847891E+02  0.51100000000E-03 0.  1.
         12    1    3    3    0    0  0.12129648472E+02 -0.19324818679E+02  0.24757288739E+02  0.33667496710E+02  0.00000000000E+00 0. -1.
</event>
<event>
 7    1  0.3743571E-015  0.9000782E+02  0.7816164E-02  0.1186339E+00
        -11   -1    0    0    0    0  0.00000000000E+00  0.00000000000E+00  0.45593999997E+02  0.45594000000E+02  0.51100000000E-03 0.  1.
         11   -1    0    0    0    0 -0.00000000000E+00 -0.00000000000E+00 -0.45593999997E+02  0.45594000000E+02  0.51100000000E-03 0. -1.
    9900012    2    1    2    0    0 -0.11080821304E+01  0.36936986528E+00 -0.16895068276E+00  0.90007820167E+02  0.90000082593E+02 0.  0.
        -12    1    1    2    0    0  0.11080821304E+01 -0.36936986528E+00  0.16895068276E+00  0.11801798330E+01  0.00000000000E+00 0.  1.
         11    1    3    3    0    0  0.32066169794E+02 -0.37016527416E+01 -0.22708676459E+02  0.39466764056E+02  0.51100000000E-03 0. -1.
        -11    1    3    3    0    0 -0.48762148323E+01  0.79599391732E+00 -0.76028486434E+01  0.90672148515E+01  0.51100000000E-03 0.  1.
        -12    1    3    3    0    0 -0.28298037092E+02  0.32750286896E+01  0.30142574420E+02  0.41473841260E+02  0.00000000000E+00 0.  1.
</event>
<event>
 7    1  0.3743571E-015  0.9000775E+02  0.7816164E-02  0.1186339E+00
        -11   -1    0    0    0    0  0.00000000000E+00  0.00000000000E+00  0.45593999997E+02  0.45594000000E+02  0.51100000000E-03 0.  1.
         11   -1    0    0    0    0 -0.00000000000E+00 -0.00000000000E+00 -0.45593999997E+02  0.45594000000E+02  0.51100000000E-03 0. -1.
    9900012    2    1    2    0    0  0.95503546980E+00  0.43912361768E+00  0.53672010107E+00  0.90007749702E+02  0.90000011198E+02 0.  0.
        -12    1    1    2    0    0 -0.95503546980E+00 -0.43912361768E+00 -0.53672010107E+00  0.11802502985E+01  0.00000000000E+00 0.  1.
         11    1    3    3    0    0  0.41612062387E+01  0.26107191881E+02  0.36549141087E+00  0.26439264164E+02  0.51100000000E-03 0. -1.
        -11    1    3    3    0    0  0.25295533393E+02 -0.57855470455E+00 -0.29268122431E+01  0.25470865030E+02  0.51100000000E-03 0.  1.
        -12    1    3    3    0    0 -0.28501704162E+02 -0.25089513559E+02  0.30980409333E+01  0.38097620508E+02  0.00000000000E+00 0.  1.
</event>
<event>
 7    1  0.3743571E-015  0.9000777E+02  0.7816164E-02  0.1186339E+00
        -11   -1    0    0    0    0  0.00000000000E+00  0.00000000000E+00  0.45593999997E+02  0.45594000000E+02  0.51100000000E-03 0. -1.
         11   -1    0    0    0    0 -0.00000000000E+00 -0.00000000000E+00 -0.45593999997E+02  0.45594000000E+02  0.51100000000E-03 0.  1.
    9900012    2    1    2    0    0  0.46535725588E+00 -0.77956358045E+00  0.75409406194E+00  0.90007773494E+02  0.90000035304E+02 0.  0.
        -12    1    1    2    0    0 -0.46535725588E+00  0.77956358045E+00 -0.75409406194E+00  0.11802265061E+01  0.00000000000E+00 0.  1.
         11    1    3    3    0    0  0.19432087159E+02  0.36422726628E+02  0.98889158524E+01  0.42450108167E+02  0.51100000000E-03 0. -1.
        -11    1    3    3    0    0 -0.13577484119E+01 -0.50754923148E+01 -0.95717566032E+01  0.10918911471E+02  0.51100000000E-03 0.  1.
        -12    1    3    3    0    0 -0.17608981492E+02 -0.32126797894E+02  0.43693481273E+00  0.36638753856E+02  0.00000000000E+00 0.  1.
</event>
<event>
 7    1  0.3743571E-015  0.9000750E+02  0.7816164E-02  0.1186340E+00
        -11   -1    0    0    0    0  0.00000000000E+00  0.00000000000E+00  0.45593999997E+02  0.45594000000E+02  0.51100000000E-03 0.  1.
         11   -1    0    0    0    0 -0.00000000000E+00 -0.00000000000E+00 -0.45593999997E+02  0.45594000000E+02  0.51100000000E-03 0. -1.
    9900012    2    1    2    0    0  0.85904256422E+00  0.28099042665E+00  0.75938047838E+00  0.90007504995E+02  0.89999763260E+02 0.  0.
        -12    1    1    2    0    0 -0.85904256422E+00 -0.28099042665E+00 -0.75938047838E+00  0.11804950055E+01  0.00000000000E+00 0.  1.
         11    1    3    3    0    0 -0.30332102660E+02 -0.74820992125E+01 -0.19852062704E+02  0.37015167894E+02  0.51100000000E-03 0. -1.
        -11    1    3    3    0    0  0.48765206326E+00 -0.72749575175E+01 -0.61792122776E+01  0.95574827256E+01  0.51100000000E-03 0.  1.
        -12    1    3    3    0    0  0.30703493161E+02  0.15038047157E+02  0.26790655460E+02  0.43434854374E+02  0.00000000000E+00 0.  1.
</event>
<event>
 7    1  0.3743571E-015  0.9000775E+02  0.7816164E-02  0.1186339E+00
        -11   -1    0    0    0    0  0.00000000000E+00  0.00000000000E+00  0.45593999997E+02  0.45594000000E+02  0.51100000000E-03 0. -1.
         11   -1    0    0    0    0 -0.00000000000E+00 -0.00000000000E+00 -0.45593999997E+02  0.45594000000E+02  0.51100000000E-03 0.  1.
    9900012    2    1    2    0    0  0.41234350830E+00  0.46964708592E-01  0.11048836457E+01  0.90007745484E+02  0.90000006924E+02 0.  0.
        -12    1    1    2    0    0 -0.41234350830E+00 -0.46964708592E-01 -0.11048836457E+01  0.11802545163E+01  0.00000000000E+00 0.  1.
         11    1    3    3    0    0  0.49935625791E+01  0.60662647338E+01 -0.78061586346E+01  0.11075709817E+02  0.51100000000E-03 0. -1.
        -11    1    3    3    0    0  0.11974982710E+02 -0.97276119013E+01 -0.31515673800E+02  0.35089376448E+02  0.51100000000E-03 0.  1.
         12    1    3    3    0    0 -0.16556201781E+02  0.37083118761E+01  0.40426716080E+02  0.43842659219E+02  0.00000000000E+00 0. -1.
</event>
<event>
 7    1  0.3743571E-015  0.9000780E+02  0.7816164E-02  0.1186339E+00
        -11   -1    0    0    0    0  0.00000000000E+00  0.00000000000E+00  0.45593999997E+02  0.45594000000E+02  0.51100000000E-03 0.  1.
         11   -1    0    0    0    0 -0.00000000000E+00 -0.00000000000E+00 -0.45593999997E+02  0.45594000000E+02  0.51100000000E-03 0. -1.
    9900012    2    1    2    0    0  0.10704135523E+01  0.47712714889E+00 -0.13938819095E+00  0.90007803170E+02  0.90000065372E+02 0.  0.
        -12    1    1    2    0    0 -0.10704135523E+01 -0.47712714889E+00  0.13938819095E+00  0.11801968298E+01  0.00000000000E+00 0.  1.
         11    1    3    3    0    0 -0.17761491648E+02  0.57461820891E+01 -0.28654032848E+01  0.18886495980E+02  0.51100000000E-03 0. -1.
        -11    1    3    3    0    0 -0.84449772380E+01  0.27092611439E+02  0.46357031054E+01  0.28754425376E+02  0.51100000000E-03 0.  1.
         12    1    3    3    0    0  0.27276882438E+02 -0.32361666380E+02 -0.19096880116E+01  0.42366881815E+02  0.00000000000E+00 0. -1.
</event>
<event>
 7    1  0.3743571E-015  0.9000769E+02  0.7816164E-02  0.1186339E+00
        -11   -1    0    0    0    0  0.00000000000E+00  0.00000000000E+00  0.45593999997E+02  0.45594000000E+02  0.51100000000E-03 0.  1.
         11   -1    0    0    0    0 -0.00000000000E+00 -0.00000000000E+00 -0.45593999997E+02  0.45594000000E+02  0.51100000000E-03 0. -1.
    9900012    2    1    2    0    0 -0.98438810694E-01  0.11400531091E+01 -0.28935189488E+00  0.90007688257E+02  0.89999948942E+02 0.  0.
        -12    1    1    2    0    0  0.98438810694E-01 -0.11400531091E+01  0.28935189488E+00  0.11803117427E+01  0.00000000000E+00 0.  1.
         11    1    3    3    0    0 -0.26745223535E+01 -0.30998808702E+02 -0.20322744358E+02  0.37163061623E+02  0.51100000000E-03 0. -1.
        -11    1    3    3    0    0 -0.70794118991E+01 -0.59484846406E+01  0.13787203270E+01  0.93489792147E+01  0.51100000000E-03 0.  1.
        -12    1    3    3    0    0  0.96554954418E+01  0.38087346451E+02  0.18654672136E+02  0.43495647419E+02  0.00000000000E+00 0.  1.
</event>
<event>
 7    1  0.3743571E-015  0.9000769E+02  0.7816164E-02  0.1186339E+00
        -11   -1    0    0    0    0  0.00000000000E+00  0.00000000000E+00  0.45593999997E+02  0.45594000000E+02  0.51100000000E-03 0. -1.
         11   -1    0    0    0    0 -0.00000000000E+00 -0.00000000000E+00 -0.45593999997E+02  0.45594000000E+02  0.51100000000E-03 0.  1.
    9900012    2    1    2    0    0 -0.71511964614E+00  0.84409293587E+00  0.41139710470E+00  0.90007687935E+02  0.89999948616E+02 0.  0.
        -12    1    1    2    0    0  0.71511964614E+00 -0.84409293587E+00 -0.41139710470E+00  0.11803120649E+01  0.00000000000E+00 0.  1.
         11    1    3    3    0    0  0.80810628500E+01  0.92126234414E+01 -0.78844139456E+01  0.14571890440E+02  0.51100000000E-03 0. -1.
        -11    1    3    3    0    0  0.19343831344E+02  0.24593655015E+02 -0.10160292422E+00  0.31289646874E+02  0.51100000000E-03 0.  1.
         12    1    3    3    0    0 -0.28140013840E+02 -0.32962185521E+02  0.83974139745E+01  0.44146150622E+02  0.00000000000E+00 0. -1.
</event>
<event>
 7    1  0.3743571E-015  0.9000773E+02  0.7816164E-02  0.1186339E+00
        -11   -1    0    0    0    0  0.00000000000E+00  0.00000000000E+00  0.45593999997E+02  0.45594000000E+02  0.51100000000E-03 0.  1.
         11   -1    0    0    0    0 -0.00000000000E+00 -0.00000000000E+00 -0.45593999997E+02  0.45594000000E+02  0.51100000000E-03 0. -1.
    9900012    2    1    2    0    0  0.66772380377E+00  0.40568353314E-02 -0.97322249361E+00  0.90007731574E+02  0.89999992830E+02 0.  0.
        -12    1    1    2    0    0 -0.66772380377E+00 -0.40568353314E-02  0.97322249361E+00  0.11802684263E+01  0.00000000000E+00 0.  1.
         11    1    3    3    0    0 -0.49138810782E+01  0.68225941822E+01  0.22036611069E+00  0.84108608424E+01  0.51100000000E-03 0. -1.
        -11    1    3    3    0    0 -0.38391321432E+01  0.32109554230E+02  0.18187904495E+02  0.37102052216E+02  0.51100000000E-03 0.  1.
         12    1    3    3    0    0  0.94207370253E+01 -0.38928091577E+02 -0.19381493099E+02  0.44494818515E+02  0.00000000000E+00 0. -1.
</event>
<event>
 7    1  0.3743571E-015  0.9000752E+02  0.7816164E-02  0.1186339E+00
        -11   -1    0    0    0    0  0.00000000000E+00  0.00000000000E+00  0.45593999997E+02  0.45594000000E+02  0.51100000000E-03 0. -1.
         11   -1    0    0    0    0 -0.00000000000E+00 -0.00000000000E+00 -0.45593999997E+02  0.45594000000E+02  0.51100000000E-03 0.  1.
    9900012    2    1    2    0    0 -0.10508889040E+01 -0.55106098144E-02 -0.53770294495E+00  0.90007524540E+02  0.89999783063E+02 0.  0.
        -12    1    1    2    0    0  0.10508889040E+01  0.55106098144E-02  0.53770294495E+00  0.11804754603E+01  0.00000000000E+00 0.  1.
         11    1    3    3    0    0  0.33346209661E+00  0.71523887242E+01 -0.58653616981E+01  0.92558267887E+01  0.51100000000E-03 0. -1.
        -11    1    3    3    0    0  0.44124093618E+01  0.27721839489E+02 -0.22323659356E+02  0.35865240949E+02  0.51100000000E-03 0.  1.
         12    1    3    3    0    0 -0.57967603623E+01 -0.34879738823E+02  0.27651318109E+02  0.44886456802E+02  0.00000000000E+00 0. -1.
</event>
<event>
 7    1  0.3743571E-015  0.9000795E+02  0.7816164E-02  0.1186339E+00
        -11   -1    0    0    0    0  0.00000000000E+00  0.00000000000E+00  0.45593999997E+02  0.45594000000E+02  0.51100000000E-03 0. -1.
         11   -1    0    0    0    0 -0.00000000000E+00 -0.00000000000E+00 -0.45593999997E+02  0.45594000000E+02  0.51100000000E-03 0.  1.
    9900012    2    1    2    0    0 -0.41223311996E+00 -0.72026276325E+00  0.83892524020E+00  0.90007953326E+02  0.90000217510E+02 0.  0.
        -12    1    1    2    0    0  0.41223311996E+00  0.72026276325E+00 -0.83892524020E+00  0.11800466736E+01  0.00000000000E+00 0.  1.
         11    1    3    3    0    0  0.31753204791E+01 -0.38373425836E+02  0.10250413992E+02  0.39845620309E+02  0.51100000000E-03 0. -1.
        -11    1    3    3    0    0  0.44188716269E+01  0.23367860708E+01  0.84243000887E+01  0.97957045607E+01  0.51100000000E-03 0.  1.
        -12    1    3    3    0    0 -0.80064252260E+01  0.35316377002E+02 -0.17835788841E+02  0.40366628457E+02  0.00000000000E+00 0.  1.
</event>
<event>
 7    1  0.3743571E-015  0.9000770E+02  0.7816164E-02  0.1186339E+00
        -11   -1    0    0    0    0  0.00000000000E+00  0.00000000000E+00  0.45593999997E+02  0.45594000000E+02  0.51100000000E-03 0.  1.
         11   -1    0    0    0    0 -0.00000000000E+00 -0.00000000000E+00 -0.45593999997E+02  0.45594000000E+02  0.51100000000E-03 0. -1.
    9900012    2    1    2    0    0 -0.56128425773E-01 -0.10796494908E+01  0.47360968132E+00  0.90007703616E+02  0.89999964504E+02 0.  0.
        -12    1    1    2    0    0  0.56128425773E-01  0.10796494908E+01 -0.47360968132E+00  0.11802963837E+01  0.00000000000E+00 0.  1.
         11    1    3    3    0    0  0.92906486649E+01 -0.31796924631E+00 -0.68183235311E+01  0.11528520854E+02  0.51100000000E-03 0. -1.
        -11    1    3    3    0    0  0.96967703878E+01 -0.27833970947E+02  0.26987234874E+02  0.39963334959E+02  0.51100000000E-03 0.  1.
         12    1    3    3    0    0 -0.19043547478E+02  0.27072290702E+02 -0.19695301662E+02  0.38515847803E+02  0.00000000000E+00 0. -1.
</event>
<event>
 7    1  0.3743571E-015  0.9000777E+02  0.7816164E-02  0.1186339E+00
        -11   -1    0    0    0    0  0.00000000000E+00  0.00000000000E+00  0.45593999997E+02  0.45594000000E+02  0.51100000000E-03 0.  1.
         11   -1    0    0    0    0 -0.00000000000E+00 -0.00000000000E+00 -0.45593999997E+02  0.45594000000E+02  0.51100000000E-03 0. -1.
    9900012    2    1    2    0    0 -0.85520182976E-01 -0.96779889607E+00 -0.67007027009E+00  0.90007770119E+02  0.90000031885E+02 0.  0.
        -12    1    1    2    0    0  0.85520182976E-01  0.96779889607E+00  0.67007027009E+00  0.11802298809E+01  0.00000000000E+00 0.  1.
         11    1    3    3    0    0  0.72317312291E+01  0.17396191347E+02 -0.31757186197E+02  0.36924846450E+02  0.51100000000E-03 0. -1.
        -11    1    3    3    0    0  0.86640508802E+01  0.23136814290E+01 -0.35911655539E+01  0.96599880800E+01  0.51100000000E-03 0.  1.
        -12    1    3    3    0    0 -0.15981302292E+02 -0.20677671672E+02  0.34678281480E+02  0.43422935589E+02  0.00000000000E+00 0.  1.
</event>
<event>
 7    1  0.3743571E-015  0.9000770E+02  0.7816164E-02  0.1186339E+00
        -11   -1    0    0    0    0  0.00000000000E+00  0.00000000000E+00  0.45593999997E+02  0.45594000000E+02  0.51100000000E-03 0.  1.
         11   -1    0    0    0    0 -0.00000000000E+00 -0.00000000000E+00 -0.45593999997E+02  0.45594000000E+02  0.51100000000E-03 0. -1.
    9900012    2    1    2    0    0 -0.19176047462E+00 -0.11348485365E+01 -0.26163577230E+00  0.90007700649E+02  0.89999961498E+02 0.  0.
        -12    1    1    2    0    0  0.19176047462E+00  0.11348485365E+01  0.26163577230E+00  0.11802993509E+01  0.00000000000E+00 0.  1.
         11    1    3    3    0    0 -0.93374150464E+01 -0.35310926067E+02  0.52441142380E+01  0.36899180938E+02  0.51100000000E-03 0. -1.
        -11    1    3    3    0    0  0.32893094556E+01 -0.38395965315E+01 -0.12975573088E+02  0.13925787426E+02  0.51100000000E-03 0.  1.
        -12    1    3    3    0    0  0.58563451162E+01  0.38015674062E+02  0.74698230775E+01  0.39182732285E+02  0.00000000000E+00 0.  1.
</event>
<event>
 7    1  0.3743571E-015  0.9000767E+02  0.7816164E-02  0.1186339E+00
        -11   -1    0    0    0    0  0.00000000000E+00  0.00000000000E+00  0.45593999997E+02  0.45594000000E+02  0.51100000000E-03 0.  1.
         11   -1    0    0    0    0 -0.00000000000E+00 -0.00000000000E+00 -0.45593999997E+02  0.45594000000E+02  0.51100000000E-03 0. -1.
    9900012    2    1    2    0    0  0.11391718721E+01  0.17553048619E+00 -0.25425866643E+00  0.90007673361E+02  0.89999933849E+02 0.  0.
        -12    1    1    2    0    0 -0.11391718721E+01 -0.17553048619E+00  0.25425866643E+00  0.11803266392E+01  0.00000000000E+00 0.  1.
         11    1    3    3    0    0 -0.24919236766E+02  0.33256498931E+02 -0.13063284813E+02  0.43561594238E+02  0.51100000000E-03 0. -1.
        -11    1    3    3    0    0  0.82309821921E+01 -0.48142071169E+01 -0.22399331768E+01  0.97950476726E+01  0.51100000000E-03 0.  1.
        -12    1    3    3    0    0  0.17827426446E+02 -0.28266761328E+02  0.15048959323E+02  0.36651031450E+02  0.00000000000E+00 0.  1.
</event>
<event>
 7    1  0.3743571E-015  0.9000771E+02  0.7816164E-02  0.1186339E+00
        -11   -1    0    0    0    0  0.00000000000E+00  0.00000000000E+00  0.45593999997E+02  0.45594000000E+02  0.51100000000E-03 0.  1.
         11   -1    0    0    0    0 -0.00000000000E+00 -0.00000000000E+00 -0.45593999997E+02  0.45594000000E+02  0.51100000000E-03 0. -1.
    9900012    2    1    2    0    0 -0.45036982649E+00 -0.86614885203E-01 -0.10875378994E+01  0.90007714525E+02  0.89999975557E+02 0.  0.
        -12    1    1    2    0    0  0.45036982649E+00  0.86614885203E-01  0.10875378994E+01  0.11802854746E+01  0.00000000000E+00 0.  1.
         11    1    3    3    0    0 -0.80874533453E+01 -0.10273601482E+02 -0.19569451291E+02  0.23535445887E+02  0.51100000000E-03 0. -1.
        -11    1    3    3    0    0 -0.40470703124E+01 -0.23967911213E+02 -0.29590807771E+01  0.24486643407E+02  0.51100000000E-03 0.  1.
         12    1    3    3    0    0  0.11684153831E+02  0.34154897809E+02  0.21440994169E+02  0.41985625231E+02  0.00000000000E+00 0. -1.
</event>
<event>
 7    1  0.3743571E-015  0.9000780E+02  0.7816164E-02  0.1186339E+00
        -11   -1    0    0    0    0  0.00000000000E+00  0.00000000000E+00  0.45593999997E+02  0.45594000000E+02  0.51100000000E-03 0. -1.
         11   -1    0    0    0    0 -0.00000000000E+00 -0.00000000000E+00 -0.45593999997E+02  0.45594000000E+02  0.51100000000E-03 0.  1.
    9900012    2    1    2    0    0 -0.77804443107E+00  0.26435229350E+00  0.84714118365E+00  0.90007795163E+02  0.90000057259E+02 0.  0.
        -12    1    1    2    0    0  0.77804443107E+00 -0.26435229350E+00 -0.84714118365E+00  0.11802048368E+01  0.00000000000E+00 0.  1.
         11    1    3    3    0    0 -0.18118091755E+02 -0.33667809328E+02  0.76347081496E+01  0.38988144385E+02  0.51100000000E-03 0. -1.
        -11    1    3    3    0    0 -0.70639667599E+01  0.24882926907E+01 -0.83108889536E+01  0.11187586977E+02  0.51100000000E-03 0.  1.
        -12    1    3    3    0    0  0.24404014084E+02  0.31443868931E+02  0.15233219877E+01  0.39832063801E+02  0.00000000000E+00 0.  1.
</event>
<event>
 7    1  0.3743571E-015  0.9000775E+02  0.7816164E-02  0.1186339E+00
        -11   -1    0    0    0    0  0.00000000000E+00  0.00000000000E+00  0.45593999997E+02  0.45594000000E+02  0.51100000000E-03 0. -1.
         11   -1    0    0    0    0 -0.00000000000E+00 -0.00000000000E+00 -0.45593999997E+02  0.45594000000E+02  0.51100000000E-03 0.  1.
    9900012    2    1    2    0    0  0.50320805086E+00 -0.97030722078E+00  0.44527315619E+00  0.90007753149E+02  0.90000014691E+02 0.  0.
        -12    1    1    2    0    0 -0.50320805086E+00  0.97030722078E+00 -0.44527315619E+00  0.11802468508E+01  0.00000000000E+00 0.  1.
         11    1    3    3    0    0  0.18442478912E+01 -0.61544001395E+01 -0.85217603614E+01  0.10672314242E+02  0.51100000000E-03 0. -1.
        -11    1    3    3    0    0 -0.20721707615E+02  0.17048532427E+02 -0.26175536074E+02  0.37486001566E+02  0.51100000000E-03 0.  1.
         12    1    3    3    0    0  0.19380667775E+02 -0.11864439509E+02  0.35142569592E+02  0.41849437341E+02  0.00000000000E+00 0. -1.
</event>
<event>
 7    1  0.3743571E-015  0.9000770E+02  0.7816164E-02  0.1186339E+00
        -11   -1    0    0    0    0  0.00000000000E+00  0.00000000000E+00  0.45593999997E+02  0.45594000000E+02  0.51100000000E-03 0.  1.
         11   -1    0    0    0    0 -0.00000000000E+00 -0.00000000000E+00 -0.45593999997E+02  0.45594000000E+02  0.51100000000E-03 0. -1.
    9900012    2    1    2    0    0 -0.53687200380E+00 -0.95742412726E+00  0.43385143059E+00  0.90007695136E+02  0.89999955912E+02 0.  0.
        -12    1    1    2    0    0  0.53687200380E+00  0.95742412726E+00 -0.43385143059E+00  0.11803048639E+01  0.00000000000E+00 0.  1.
         11    1    3    3    0    0  0.13377234321E+01  0.93922636735E+01 -0.16617767551E+01  0.96314912209E+01  0.51100000000E-03 0. -1.
        -11    1    3    3    0    0 -0.43665085475E+01  0.19689848950E+02  0.32058563130E+02  0.37874899587E+02  0.51100000000E-03 0.  1.
         12    1    3    3    0    0  0.24919131116E+01 -0.30039536750E+02 -0.29962934944E+02  0.42501304328E+02  0.00000000000E+00 0. -1.
</event>
<event>
 7    1  0.3743571E-015  0.9000773E+02  0.7816164E-02  0.1186339E+00
        -11   -1    0    0    0    0  0.00000000000E+00  0.00000000000E+00  0.45593999997E+02  0.45594000000E+02  0.51100000000E-03 0. -1.
         11   -1    0    0    0    0 -0.00000000000E+00 -0.00000000000E+00 -0.45593999997E+02  0.45594000000E+02  0.51100000000E-03 0.  1.
    9900012    2    1    2    0    0 -0.14988851894E+00  0.48221739148E+00  0.10667844033E+01  0.90007733444E+02  0.89999994725E+02 0.  0.
        -12    1    1    2    0    0  0.14988851894E+00 -0.48221739148E+00 -0.10667844033E+01  0.11802665563E+01  0.00000000000E+00 0.  1.
         11    1    3    3    0    0  0.15087022058E+01  0.77392013352E+01 -0.69654350190E+01  0.10520869970E+02  0.51100000000E-03 0. -1.
        -11    1    3    3    0    0  0.85637543046E+01  0.34719463942E+02  0.57878612343E+01  0.36225383395E+02  0.51100000000E-03 0.  1.
         12    1    3    3    0    0 -0.10222345029E+02 -0.41976447885E+02  0.22443581880E+01  0.43261480079E+02  0.00000000000E+00 0. -1.
</event>
<event>
 7    1  0.3743571E-015  0.9000776E+02  0.7816164E-02  0.1186339E+00
        -11   -1    0    0    0    0  0.00000000000E+00  0.00000000000E+00  0.45593999997E+02  0.45594000000E+02  0.51100000000E-03 0. -1.
         11   -1    0    0    0    0 -0.00000000000E+00 -0.00000000000E+00 -0.45593999997E+02  0.45594000000E+02  0.51100000000E-03 0.  1.
    9900012    2    1    2    0    0 -0.83571248905E+00  0.54907985077E+00 -0.62694470033E+00  0.90007761166E+02  0.90000022814E+02 0.  0.
        -12    1    1    2    0    0  0.83571248905E+00 -0.54907985077E+00  0.62694470033E+00  0.11802388335E+01  0.00000000000E+00 0.  1.
         11    1    3    3    0    0 -0.15614035864E+02 -0.16614405002E+02  0.31693857403E+02  0.39042760748E+02  0.51100000000E-03 0. -1.
        -11    1    3    3    0    0 -0.82944548483E+01  0.11863647158E+02 -0.63017677714E+01  0.15787855536E+02  0.51100000000E-03 0.  1.
        -12    1    3    3    0    0  0.23072778223E+02  0.52998376948E+01 -0.26019034332E+02  0.35177144882E+02  0.00000000000E+00 0.  1.
</event>
<event>
 7    1  0.3743571E-015  0.9000776E+02  0.7816164E-02  0.1186339E+00
        -11   -1    0    0    0    0  0.00000000000E+00  0.00000000000E+00  0.45593999997E+02  0.45594000000E+02  0.51100000000E-03 0. -1.
         11   -1    0    0    0    0 -0.00000000000E+00 -0.00000000000E+00 -0.45593999997E+02  0.45594000000E+02  0.51100000000E-03 0.  1.
    9900012    2    1    2    0    0 -0.76201004608E+00  0.69772998730E+00  0.57051453504E+00  0.90007757110E+02  0.90000018704E+02 0.  0.
        -12    1    1    2    0    0  0.76201004608E+00 -0.69772998730E+00 -0.57051453504E+00  0.11802428903E+01  0.00000000000E+00 0.  1.
         11    1    3    3    0    0 -0.72468170809E+01  0.78418114778E+01  0.17389237270E+01  0.10818235579E+02  0.51100000000E-03 0. -1.
        -11    1    3    3    0    0 -0.86472966377E+01  0.33919975746E+02 -0.45320398399E+01  0.35297023658E+02  0.51100000000E-03 0.  1.
         12    1    3    3    0    0  0.15132103673E+02 -0.41064057237E+02  0.33636306479E+01  0.43892497872E+02  0.00000000000E+00 0. -1.
</event>
<event>
 7    1  0.3743571E-015  0.9000848E+02  0.7816164E-02  0.1186338E+00
        -11   -1    0    0    0    0  0.00000000000E+00  0.00000000000E+00  0.45593999997E+02  0.45594000000E+02  0.51100000000E-03 0.  1.
         11   -1    0    0    0    0 -0.00000000000E+00 -0.00000000000E+00 -0.45593999997E+02  0.45594000000E+02  0.51100000000E-03 0. -1.
    9900012    2    1    2    0    0 -0.10065325391E+01  0.45684067154E+00  0.41165761594E+00  0.90008477578E+02  0.90000748679E+02 0.  0.
        -12    1    1    2    0    0  0.10065325391E+01 -0.45684067154E+00 -0.41165761594E+00  0.11795224221E+01  0.00000000000E+00 0.  1.
         11    1    3    3    0    0  0.68457980337E+01 -0.31176496884E+00 -0.60475254961E+01  0.91397326548E+01  0.51100000000E-03 0. -1.
        -11    1    3    3    0    0 -0.44078290606E+02 -0.22049486112E+01  0.12635490122E+01  0.44151489867E+02  0.51100000000E-03 0.  1.
         12    1    3    3    0    0  0.36225960033E+02  0.29735542516E+01  0.51956340998E+01  0.36717255056E+02  0.00000000000E+00 0. -1.
</event>
<event>
 7    1  0.3743571E-015  0.9000766E+02  0.7816164E-02  0.1186339E+00
        -11   -1    0    0    0    0  0.00000000000E+00  0.00000000000E+00  0.45593999997E+02  0.45594000000E+02  0.51100000000E-03 0. -1.
         11   -1    0    0    0    0 -0.00000000000E+00 -0.00000000000E+00 -0.45593999997E+02  0.45594000000E+02  0.51100000000E-03 0.  1.
    9900012    2    1    2    0    0 -0.25403818042E+00  0.11092572061E+01  0.31340760733E+00  0.90007656290E+02  0.89999916553E+02 0.  0.
        -12    1    1    2    0    0  0.25403818042E+00 -0.11092572061E+01 -0.31340760733E+00  0.11803437105E+01  0.00000000000E+00 0.  1.
         11    1    3    3    0    0 -0.18730255014E+02  0.22163460256E+02  0.32290520497E+02  0.43413352066E+02  0.51100000000E-03 0. -1.
        -11    1    3    3    0    0  0.93154815803E+01  0.28942697540E-01 -0.33942484677E+01  0.99146335119E+01  0.51100000000E-03 0.  1.
        -12    1    3    3    0    0  0.91607352532E+01 -0.21083145747E+02 -0.28582864422E+02  0.36679670712E+02  0.00000000000E+00 0.  1.
</event>
<event>
 7    1  0.3743571E-015  0.9000780E+02  0.7816164E-02  0.1186339E+00
        -11   -1    0    0    0    0  0.00000000000E+00  0.00000000000E+00  0.45593999997E+02  0.45594000000E+02  0.51100000000E-03 0.  1.
         11   -1    0    0    0    0 -0.00000000000E+00 -0.00000000000E+00 -0.45593999997E+02  0.45594000000E+02  0.51100000000E-03 0. -1.
    9900012    2    1    2    0    0 -0.27125761445E+00 -0.72719016120E+00 -0.88908684000E+00  0.90007804409E+02  0.90000066627E+02 0.  0.
        -12    1    1    2    0    0  0.27125761445E+00  0.72719016120E+00  0.88908684000E+00  0.11801955910E+01  0.00000000000E+00 0.  1.
         11    1    3    3    0    0 -0.58647224191E+01  0.28684356386E+01 -0.65431624535E-01  0.65289488912E+01  0.51100000000E-03 0. -1.
        -11    1    3    3    0    0 -0.24206395596E+02  0.17044216229E+02 -0.25953500429E+02  0.39370535675E+02  0.51100000000E-03 0.  1.
         12    1    3    3    0    0  0.29799860401E+02 -0.20639842028E+02  0.25129845213E+02  0.44108319842E+02  0.00000000000E+00 0. -1.
</event>
<event>
 7    1  0.3743571E-015  0.9000776E+02  0.7816164E-02  0.1186339E+00
        -11   -1    0    0    0    0  0.00000000000E+00  0.00000000000E+00  0.45593999997E+02  0.45594000000E+02  0.51100000000E-03 0. -1.
         11   -1    0    0    0    0 -0.00000000000E+00 -0.00000000000E+00 -0.45593999997E+02  0.45594000000E+02  0.51100000000E-03 0.  1.
    9900012    2    1    2    0    0  0.68890041264E+00  0.15483735333E+00  0.94573497788E+00  0.90007757214E+02  0.90000018810E+02 0.  0.
        -12    1    1    2    0    0 -0.68890041264E+00 -0.15483735333E+00 -0.94573497788E+00  0.11802427856E+01  0.00000000000E+00 0.  1.
         11    1    3    3    0    0  0.51268507592E+01 -0.10677967604E+01 -0.11345143953E+02  0.12495482391E+02  0.51100000000E-03 0. -1.
        -11    1    3    3    0    0  0.14653016644E+02  0.32958942899E+02 -0.53942790303E+01  0.36470550590E+02  0.51100000000E-03 0.  1.
         12    1    3    3    0    0 -0.19090966990E+02 -0.31736308785E+02  0.17685157961E+02  0.41041724233E+02  0.00000000000E+00 0. -1.
</event>
<event>
 7    1  0.3743571E-015  0.9000833E+02  0.7816164E-02  0.1186338E+00
        -11   -1    0    0    0    0  0.00000000000E+00  0.00000000000E+00  0.45593999997E+02  0.45594000000E+02  0.51100000000E-03 0.  1.
         11   -1    0    0    0    0 -0.00000000000E+00 -0.00000000000E+00 -0.45593999997E+02  0.45594000000E+02  0.51100000000E-03 0. -1.
    9900012    2    1    2    0    0 -0.36212709929E+00  0.50588721209E+00 -0.10022775184E+01  0.90008331347E+02  0.90000600519E+02 0.  0.
        -12    1    1    2    0    0  0.36212709929E+00 -0.50588721209E+00  0.10022775184E+01  0.11796686532E+01  0.00000000000E+00 0.  1.
         11    1    3    3    0    0  0.23985995162E+02 -0.59159182870E+01 -0.23183624932E+02  0.33879293357E+02  0.51100000000E-03 0. -1.
        -11    1    3    3    0    0  0.83804180626E+01  0.74292115968E+01 -0.61964464858E+01  0.12799239867E+02  0.51100000000E-03 0.  1.
        -12    1    3    3    0    0 -0.32728540324E+02 -0.10074060977E+01  0.28377793899E+02  0.43329798123E+02  0.00000000000E+00 0.  1.
</event>
<event>
 7    1  0.3743571E-015  0.9000777E+02  0.7816164E-02  0.1186339E+00
        -11   -1    0    0    0    0  0.00000000000E+00  0.00000000000E+00  0.45593999997E+02  0.45594000000E+02  0.51100000000E-03 0. -1.
         11   -1    0    0    0    0 -0.00000000000E+00 -0.00000000000E+00 -0.45593999997E+02  0.45594000000E+02  0.51100000000E-03 0.  1.
    9900012    2    1    2    0    0  0.93713571675E+00  0.64173116762E+00  0.32078387998E+00  0.90007769285E+02  0.90000031040E+02 0.  0.
        -12    1    1    2    0    0 -0.93713571675E+00 -0.64173116762E+00 -0.32078387998E+00  0.11802307151E+01  0.00000000000E+00 0.  1.
         11    1    3    3    0    0  0.69260689168E+01  0.12031804951E+00  0.71179244275E+01  0.99322583278E+01  0.51100000000E-03 0. -1.
        -11    1    3    3    0    0  0.19751361979E+02 -0.23132675665E+02 -0.26154225239E+02  0.40115838288E+02  0.51100000000E-03 0.  1.
         12    1    3    3    0    0 -0.25740295179E+02  0.23654088783E+02  0.19357084692E+02  0.39959672669E+02  0.00000000000E+00 0. -1.
</event>
<event>
 7    1  0.3743571E-015  0.9000775E+02  0.7816164E-02  0.1186339E+00
        -11   -1    0    0    0    0  0.00000000000E+00  0.00000000000E+00  0.45593999997E+02  0.45594000000E+02  0.51100000000E-03 0.  1.
         11   -1    0    0    0    0 -0.00000000000E+00 -0.00000000000E+00 -0.45593999997E+02  0.45594000000E+02  0.51100000000E-03 0. -1.
    9900012    2    1    2    0    0  0.29166375055E+00 -0.85307682420E+00 -0.76169021783E+00  0.90007754348E+02  0.90000015905E+02 0.  0.
        -12    1    1    2    0    0 -0.29166375055E+00  0.85307682420E+00  0.76169021783E+00  0.11802456521E+01  0.00000000000E+00 0.  1.
         11    1    3    3    0    0  0.30863301382E+02  0.18261675439E+02 -0.12328073727E+02  0.37921149299E+02  0.51100000000E-03 0. -1.
        -11    1    3    3    0    0  0.63336251360E+01  0.35351988871E+01  0.34455224221E+01  0.80301969813E+01  0.51100000000E-03 0.  1.
        -12    1    3    3    0    0 -0.36905262768E+02 -0.22649951150E+02  0.81208610869E+01  0.44056408068E+02  0.00000000000E+00 0.  1.
</event>
<event>
 7    1  0.3743571E-015  0.9000771E+02  0.7816164E-02  0.1186339E+00
        -11   -1    0    0    0    0  0.00000000000E+00  0.00000000000E+00  0.45593999997E+02  0.45594000000E+02  0.51100000000E-03 0.  1.
         11   -1    0    0    0    0 -0.00000000000E+00 -0.00000000000E+00 -0.45593999997E+02  0.45594000000E+02  0.51100000000E-03 0. -1.
    9900012    2    1    2    0    0 -0.29929452933E+00  0.77725782741E+00  0.83628168837E+00  0.90007714438E+02  0.89999975469E+02 0.  0.
        -12    1    1    2    0    0  0.29929452933E+00 -0.77725782741E+00 -0.83628168837E+00  0.11802855620E+01  0.00000000000E+00 0.  1.
         11    1    3    3    0    0  0.16947277215E+01  0.34052992162E+02 -0.42869476999E+01  0.34363589715E+02  0.51100000000E-03 0. -1.
        -11    1    3    3    0    0  0.33117062415E+01  0.10418557193E+02  0.39156295007E+01  0.11612316171E+02  0.51100000000E-03 0.  1.
        -12    1    3    3    0    0 -0.53057284922E+01 -0.43694291527E+02  0.12075998876E+01  0.44031808552E+02  0.00000000000E+00 0.  1.
</event>
<event>
 7    1  0.3743571E-015  0.9000775E+02  0.7816164E-02  0.1186339E+00
        -11   -1    0    0    0    0  0.00000000000E+00  0.00000000000E+00  0.45593999997E+02  0.45594000000E+02  0.51100000000E-03 0.  1.
         11   -1    0    0    0    0 -0.00000000000E+00 -0.00000000000E+00 -0.45593999997E+02  0.45594000000E+02  0.51100000000E-03 0. -1.
    9900012    2    1    2    0    0 -0.39408530746E+00  0.10921345964E+01 -0.21193828015E+00  0.90007754669E+02  0.90000016231E+02 0.  0.
        -12    1    1    2    0    0  0.39408530746E+00 -0.10921345964E+01  0.21193828015E+00  0.11802453308E+01  0.00000000000E+00 0.  1.
         11    1    3    3    0    0 -0.83820761497E+00 -0.96206342893E+01  0.50744253174E+00  0.96704030070E+01  0.51100000000E-03 0. -1.
        -11    1    3    3    0    0  0.56057189761E+01  0.25560712384E+02  0.33600728310E+02  0.42588531860E+02  0.51100000000E-03 0.  1.
         12    1    3    3    0    0 -0.51615966686E+01 -0.14847943498E+02 -0.34320109122E+02  0.37748819802E+02  0.00000000000E+00 0. -1.
</event>
<event>
 7    1  0.3743571E-015  0.9000773E+02  0.7816164E-02  0.1186339E+00
        -11   -1    0    0    0    0  0.00000000000E+00  0.00000000000E+00  0.45593999997E+02  0.45594000000E+02  0.51100000000E-03 0.  1.
         11   -1    0    0    0    0 -0.00000000000E+00 -0.00000000000E+00 -0.45593999997E+02  0.45594000000E+02  0.51100000000E-03 0. -1.
    9900012    2    1    2    0    0  0.38332100897E+00 -0.79713574981E+00 -0.78146220047E+00  0.90007727332E+02  0.89999988533E+02 0.  0.
        -12    1    1    2    0    0 -0.38332100897E+00  0.79713574981E+00  0.78146220047E+00  0.11802726678E+01  0.00000000000E+00 0.  1.
         11    1    3    3    0    0  0.79287069820E+01  0.13169459554E+01 -0.54585171344E+01  0.97156652178E+01  0.51100000000E-03 0. -1.
        -11    1    3    3    0    0  0.25620456992E+02  0.93038703607E+01  0.27280098685E+02  0.38563889907E+02  0.51100000000E-03 0.  1.
         12    1    3    3    0    0 -0.33165842965E+02 -0.11417952066E+02 -0.22603043751E+02  0.41728172208E+02  0.00000000000E+00 0. -1.
</event>
<event>
 7    1  0.3743571E-015  0.9000773E+02  0.7816164E-02  0.1186339E+00
        -11   -1    0    0    0    0  0.00000000000E+00  0.00000000000E+00  0.45593999997E+02  0.45594000000E+02  0.51100000000E-03 0.  1.
         11   -1    0    0    0    0 -0.00000000000E+00 -0.00000000000E+00 -0.45593999997E+02  0.45594000000E+02  0.51100000000E-03 0. -1.
    9900012    2    1    2    0    0 -0.93465999468E+00 -0.44872008328E+00 -0.56400057139E+00  0.90007730682E+02  0.89999991927E+02 0.  0.
        -12    1    1    2    0    0  0.93465999468E+00  0.44872008328E+00  0.56400057139E+00  0.11802693181E+01  0.00000000000E+00 0.  1.
         11    1    3    3    0    0  0.63757223863E+01  0.17403942020E+01 -0.59009485347E+01  0.88600226747E+01  0.51100000000E-03 0. -1.
        -11    1    3    3    0    0  0.32927662845E+02 -0.10398907197E+02 -0.12020575156E+02  0.36563130045E+02  0.51100000000E-03 0.  1.
         12    1    3    3    0    0 -0.40238045226E+02  0.82097929119E+01  0.17357523119E+02  0.44584577962E+02  0.00000000000E+00 0. -1.
</event>
<event>
 7    1  0.3743571E-015  0.9000754E+02  0.7816164E-02  0.1186339E+00
        -11   -1    0    0    0    0  0.00000000000E+00  0.00000000000E+00  0.45593999997E+02  0.45594000000E+02  0.51100000000E-03 0. -1.
         11   -1    0    0    0    0 -0.00000000000E+00 -0.00000000000E+00 -0.45593999997E+02  0.45594000000E+02  0.51100000000E-03 0.  1.
    9900012    2    1    2    0    0  0.39140535069E+00 -0.37493303893E+00  0.10486745392E+01  0.90007537709E+02  0.89999796406E+02 0.  0.
        -12    1    1    2    0    0 -0.39140535069E+00  0.37493303893E+00 -0.10486745392E+01  0.11804622914E+01  0.00000000000E+00 0.  1.
         11    1    3    3    0    0 -0.27911886306E+02  0.17575872530E+02  0.10042658702E+02  0.34479554614E+02  0.51100000000E-03 0. -1.
        -11    1    3    3    0    0 -0.76898801778E+01 -0.12309745546E+02  0.65428972713E+01  0.15920854171E+02  0.51100000000E-03 0.  1.
        -12    1    3    3    0    0  0.35993171835E+02 -0.56410600221E+01 -0.15536881434E+02  0.39607128924E+02  0.00000000000E+00 0.  1.
</event>
<event>
 7    1  0.3743571E-015  0.9000772E+02  0.7816164E-02  0.1186339E+00
        -11   -1    0    0    0    0  0.00000000000E+00  0.00000000000E+00  0.45593999997E+02  0.45594000000E+02  0.51100000000E-03 0.  1.
         11   -1    0    0    0    0 -0.00000000000E+00 -0.00000000000E+00 -0.45593999997E+02  0.45594000000E+02  0.51100000000E-03 0. -1.
    9900012    2    1    2    0    0 -0.72289233098E+00 -0.82119323089E+00  0.44287428765E+00  0.90007716441E+02  0.89999977498E+02 0.  0.
        -12    1    1    2    0    0  0.72289233098E+00  0.82119323089E+00 -0.44287428765E+00  0.11802835589E+01  0.00000000000E+00 0.  1.
         11    1    3    3    0    0 -0.78993290999E+01  0.32087644195E+02 -0.13150545800E+02  0.35566180078E+02  0.51100000000E-03 0. -1.
        -11    1    3    3    0    0 -0.10961203457E+02  0.28122979295E+01 -0.19250590933E+01  0.11478800183E+02  0.51100000000E-03 0.  1.
        -12    1    3    3    0    0  0.18137640225E+02 -0.35721135355E+02  0.15518479181E+02  0.42962736181E+02  0.00000000000E+00 0.  1.
</event>
<event>
 7    1  0.3743571E-015  0.9000775E+02  0.7816164E-02  0.1186339E+00
        -11   -1    0    0    0    0  0.00000000000E+00  0.00000000000E+00  0.45593999997E+02  0.45594000000E+02  0.51100000000E-03 0.  1.
         11   -1    0    0    0    0 -0.00000000000E+00 -0.00000000000E+00 -0.45593999997E+02  0.45594000000E+02  0.51100000000E-03 0. -1.
    9900012    2    1    2    0    0  0.39784694165E+00  0.53635351956E-01 -0.11098837463E+01  0.90007745421E+02  0.90000006861E+02 0.  0.
        -12    1    1    2    0    0 -0.39784694165E+00 -0.53635351956E-01  0.11098837463E+01  0.11802545786E+01  0.00000000000E+00 0.  1.
         11    1    3    3    0    0  0.17044052941E+02 -0.29629052850E+02 -0.13081801914E+02  0.36599372331E+02  0.51100000000E-03 0. -1.
        -11    1    3    3    0    0 -0.10266252171E+02 -0.70361107879E+01  0.10209602682E+02  0.16097787918E+02  0.51100000000E-03 0.  1.
        -12    1    3    3    0    0 -0.63799538279E+01  0.36718798989E+02  0.17623154855E+01  0.37310585173E+02  0.00000000000E+00 0.  1.
</event>
<event>
 7    1  0.3743571E-015  0.9000776E+02  0.7816164E-02  0.1186339E+00
        -11   -1    0    0    0    0  0.00000000000E+00  0.00000000000E+00  0.45593999997E+02  0.45594000000E+02  0.51100000000E-03 0.  1.
         11   -1    0    0    0    0 -0.00000000000E+00 -0.00000000000E+00 -0.45593999997E+02  0.45594000000E+02  0.51100000000E-03 0. -1.
    9900012    2    1    2    0    0 -0.11082668860E+01  0.12419367656E-01 -0.40566512648E+00  0.90007756836E+02  0.90000018426E+02 0.  0.
        -12    1    1    2    0    0  0.11082668860E+01 -0.12419367656E-01  0.40566512648E+00  0.11802431640E+01  0.00000000000E+00 0.  1.
         11    1    3    3    0    0  0.17839408925E+02  0.37898559631E+02 -0.69073504764E+01  0.42452995463E+02  0.51100000000E-03 0. -1.
        -11    1    3    3    0    0 -0.48462441162E+01 -0.23470729259E+01 -0.52848052734E+01  0.75447995595E+01  0.51100000000E-03 0.  1.
        -12    1    3    3    0    0 -0.14101431695E+02 -0.35539067338E+02  0.11786490623E+02  0.40009961813E+02  0.00000000000E+00 0.  1.
</event>
<event>
 7    1  0.3743571E-015  0.9000774E+02  0.7816164E-02  0.1186339E+00
        -11   -1    0    0    0    0  0.00000000000E+00  0.00000000000E+00  0.45593999997E+02  0.45594000000E+02  0.51100000000E-03 0. -1.
         11   -1    0    0    0    0 -0.00000000000E+00 -0.00000000000E+00 -0.45593999997E+02  0.45594000000E+02  0.51100000000E-03 0.  1.
    9900012    2    1    2    0    0 -0.93046106344E+00  0.58354858736E+00 -0.43211876344E+00  0.90007740126E+02  0.90000001496E+02 0.  0.
        -12    1    1    2    0    0  0.93046106344E+00 -0.58354858736E+00  0.43211876344E+00  0.11802598740E+01  0.00000000000E+00 0.  1.
         11    1    3    3    0    0 -0.73358627473E+01 -0.42630575583E+01  0.42541854931E+02  0.43379695287E+02  0.51100000000E-03 0. -1.
        -11    1    3    3    0    0  0.68154433244E+01 -0.10220489305E+01 -0.58468716684E+01  0.90377408844E+01  0.51100000000E-03 0.  1.
        -12    1    3    3    0    0 -0.41004164058E+00  0.58686550761E+01 -0.37127102026E+02  0.37590303954E+02  0.00000000000E+00 0.  1.
</event>
<event>
 7    1  0.3743571E-015  0.9000772E+02  0.7816164E-02  0.1186339E+00
        -11   -1    0    0    0    0  0.00000000000E+00  0.00000000000E+00  0.45593999997E+02  0.45594000000E+02  0.51100000000E-03 0. -1.
         11   -1    0    0    0    0 -0.00000000000E+00 -0.00000000000E+00 -0.45593999997E+02  0.45594000000E+02  0.51100000000E-03 0.  1.
    9900012    2    1    2    0    0 -0.10464673267E+01 -0.13705087267E+00  0.52837258801E+00  0.90007722745E+02  0.89999983885E+02 0.  0.
        -12    1    1    2    0    0  0.10464673267E+01  0.13705087267E+00 -0.52837258801E+00  0.11802772553E+01  0.00000000000E+00 0.  1.
         11    1    3    3    0    0 -0.34992164731E+01 -0.29091381569E+02 -0.23839885655E+02  0.37774239182E+02  0.51100000000E-03 0. -1.
        -11    1    3    3    0    0  0.36849797325E+01 -0.80593195947E+01  0.24291994630E+01  0.91887277820E+01  0.51100000000E-03 0.  1.
        -12    1    3    3    0    0 -0.12322305862E+01  0.37013650291E+02  0.21939058780E+02  0.43044755781E+02  0.00000000000E+00 0.  1.
</event>
<event>
 7    1  0.3743571E-015  0.9000775E+02  0.7816164E-02  0.1186339E+00
        -11   -1    0    0    0    0  0.00000000000E+00  0.00000000000E+00  0.45593999997E+02  0.45594000000E+02  0.51100000000E-03 0. -1.
         11   -1    0    0    0    0 -0.00000000000E+00 -0.00000000000E+00 -0.45593999997E+02  0.45594000000E+02  0.51100000000E-03 0.  1.
    9900012    2    1    2    0    0 -0.17124613108E+00  0.25065572164E+00  0.11405457405E+01  0.90007746589E+02  0.90000008044E+02 0.  0.
        -12    1    1    2    0    0  0.17124613108E+00 -0.25065572164E+00 -0.11405457405E+01  0.11802534110E+01  0.00000000000E+00 0.  1.
         11    1    3    3    0    0  0.34177708795E+02 -0.15771838330E+02 -0.18699833873E+01  0.37687710210E+02  0.51100000000E-03 0. -1.
        -11    1    3    3    0    0  0.35156317502E+01 -0.69150342077E+01 -0.12012505237E+01  0.78498641885E+01  0.51100000000E-03 0.  1.
        -12    1    3    3    0    0 -0.37864586676E+02  0.22937528260E+02  0.42117796515E+01  0.44470172190E+02  0.00000000000E+00 0.  1.
</event>
<event>
 7    1  0.3743571E-015  0.9000772E+02  0.7816164E-02  0.1186339E+00
        -11   -1    0    0    0    0  0.00000000000E+00  0.00000000000E+00  0.45593999997E+02  0.45594000000E+02  0.51100000000E-03 0. -1.
         11   -1    0    0    0    0 -0.00000000000E+00 -0.00000000000E+00 -0.45593999997E+02  0.45594000000E+02  0.51100000000E-03 0.  1.
    9900012    2    1    2    0    0 -0.40047960222E+00  0.11037261852E+01 -0.12025723168E+00  0.90007721556E+02  0.89999982681E+02 0.  0.
        -12    1    1    2    0    0  0.40047960222E+00 -0.11037261852E+01  0.12025723168E+00  0.11802784440E+01  0.00000000000E+00 0.  1.
         11    1    3    3    0    0 -0.17977737240E+00  0.30534540971E+01  0.84562241435E+01  0.89924206337E+01  0.51100000000E-03 0. -1.
        -11    1    3    3    0    0  0.29961718805E+02 -0.27046327130E+02 -0.10526988633E+02  0.41713617620E+02  0.51100000000E-03 0.  1.
         12    1    3    3    0    0 -0.30182421035E+02  0.25096599218E+02  0.19505072578E+01  0.39301683303E+02  0.00000000000E+00 0. -1.
</event>
<event>
 7    1  0.3743571E-015  0.9000774E+02  0.7816164E-02  0.1186339E+00
        -11   -1    0    0    0    0  0.00000000000E+00  0.00000000000E+00  0.45593999997E+02  0.45594000000E+02  0.51100000000E-03 0.  1.
         11   -1    0    0    0    0 -0.00000000000E+00 -0.00000000000E+00 -0.45593999997E+02  0.45594000000E+02  0.51100000000E-03 0. -1.
    9900012    2    1    2    0    0  0.13494935943E+00  0.59783334458E-01 -0.11709905537E+01  0.90007743988E+02  0.90000005409E+02 0.  0.
        -12    1    1    2    0    0 -0.13494935943E+00 -0.59783334458E-01  0.11709905537E+01  0.11802560119E+01  0.00000000000E+00 0.  1.
         11    1    3    3    0    0  0.79319517815E+01 -0.33611858967E+01  0.13704238541E+01  0.87230437061E+01  0.51100000000E-03 0. -1.
        -11    1    3    3    0    0 -0.29462652792E+02 -0.22110421722E+02  0.19021285681E+02  0.41457544156E+02  0.51100000000E-03 0.  1.
         12    1    3    3    0    0  0.21665650370E+02  0.25531390954E+02 -0.21562700088E+02  0.39827156126E+02  0.00000000000E+00 0. -1.
</event>
<event>
 7    1  0.3743571E-015  0.9000780E+02  0.7816164E-02  0.1186339E+00
        -11   -1    0    0    0    0  0.00000000000E+00  0.00000000000E+00  0.45593999997E+02  0.45594000000E+02  0.51100000000E-03 0.  1.
         11   -1    0    0    0    0 -0.00000000000E+00 -0.00000000000E+00 -0.45593999997E+02  0.45594000000E+02  0.51100000000E-03 0. -1.
    9900012    2    1    2    0    0  0.53824723409E+00  0.15969789028E+00 -0.10380994780E+01  0.90007803395E+02  0.90000065599E+02 0.  0.
        -12    1    1    2    0    0 -0.53824723409E+00 -0.15969789028E+00  0.10380994780E+01  0.11801966054E+01  0.00000000000E+00 0.  1.
         11    1    3    3    0    0  0.47550617546E+01 -0.60645931373E+01 -0.80818468483E+01  0.11167190826E+02  0.51100000000E-03 0. -1.
        -11    1    3    3    0    0  0.35917377864E+02  0.50691079467E+01 -0.56944601438E+01  0.36717581137E+02  0.51100000000E-03 0.  1.
         12    1    3    3    0    0 -0.40134192384E+02  0.11551830809E+01  0.12738207514E+02  0.42123031431E+02  0.00000000000E+00 0. -1.
</event>
<event>
 7    1  0.3743571E-015  0.9000761E+02  0.7816164E-02  0.1186339E+00
        -11   -1    0    0    0    0  0.00000000000E+00  0.00000000000E+00  0.45593999997E+02  0.45594000000E+02  0.51100000000E-03 0. -1.
         11   -1    0    0    0    0 -0.00000000000E+00 -0.00000000000E+00 -0.45593999997E+02  0.45594000000E+02  0.51100000000E-03 0.  1.
    9900012    2    1    2    0    0  0.44433498117E+00 -0.54956261118E+00  0.94544084024E+00  0.90007614037E+02  0.89999873742E+02 0.  0.
        -12    1    1    2    0    0 -0.44433498117E+00  0.54956261118E+00 -0.94544084024E+00  0.11803859629E+01  0.00000000000E+00 0.  1.
         11    1    3    3    0    0  0.11020890696E+02  0.26812880490E+01  0.26784358182E+02  0.29086958948E+02  0.51100000000E-03 0. -1.
        -11    1    3    3    0    0  0.71416333743E+01  0.22232148285E+02 -0.60388057014E+01  0.24119256191E+02  0.51100000000E-03 0.  1.
         12    1    3    3    0    0 -0.17718189090E+02 -0.25462998945E+02 -0.19800111641E+02  0.36801398898E+02  0.00000000000E+00 0. -1.
</event>
<event>
 7    1  0.3743571E-015  0.9000770E+02  0.7816164E-02  0.1186339E+00
        -11   -1    0    0    0    0  0.00000000000E+00  0.00000000000E+00  0.45593999997E+02  0.45594000000E+02  0.51100000000E-03 0.  1.
         11   -1    0    0    0    0 -0.00000000000E+00 -0.00000000000E+00 -0.45593999997E+02  0.45594000000E+02  0.51100000000E-03 0. -1.
    9900012    2    1    2    0    0 -0.11222226895E+01 -0.25408400003E+00 -0.26300458314E+00  0.90007697558E+02  0.89999958366E+02 0.  0.
        -12    1    1    2    0    0  0.11222226895E+01  0.25408400003E+00  0.26300458314E+00  0.11803024421E+01  0.00000000000E+00 0.  1.
         11    1    3    3    0    0 -0.39892807456E+02 -0.88805371053E+01 -0.18558110429E+02  0.44885448521E+02  0.51100000000E-03 0. -1.
        -11    1    3    3    0    0  0.60644816515E+01  0.63508090949E+00  0.77088258503E+01  0.98288993135E+01  0.51100000000E-03 0.  1.
        -12    1    3    3    0    0  0.32706103115E+02  0.79913721957E+01  0.10586279996E+02  0.35293349723E+02  0.00000000000E+00 0.  1.
</event>
<event>
 7    1  0.3743571E-015  0.9000767E+02  0.7816164E-02  0.1186339E+00
        -11   -1    0    0    0    0  0.00000000000E+00  0.00000000000E+00  0.45593999997E+02  0.45594000000E+02  0.51100000000E-03 0. -1.
         11   -1    0    0    0    0 -0.00000000000E+00 -0.00000000000E+00 -0.45593999997E+02  0.45594000000E+02  0.51100000000E-03 0.  1.
    9900012    2    1    2    0    0  0.98476911341E+00  0.64105919785E+00  0.11159065894E+00  0.90007669717E+02  0.89999930157E+02 0.  0.
        -12    1    1    2    0    0 -0.98476911341E+00 -0.64105919785E+00 -0.11159065894E+00  0.11803302830E+01  0.00000000000E+00 0.  1.
         11    1    3    3    0    0 -0.30324081339E+02  0.87295601473E+01 -0.20435987580E+02  0.37595009217E+02  0.51100000000E-03 0. -1.
        -11    1    3    3    0    0  0.17696205969E+01  0.91614516499E+01 -0.41594703520E+01  0.10215916369E+02  0.51100000000E-03 0.  1.
        -12    1    3    3    0    0  0.29539229856E+02 -0.17249952599E+02  0.24707048591E+02  0.42196744130E+02  0.00000000000E+00 0.  1.
</event>
<event>
 7    1  0.3743571E-015  0.9000782E+02  0.7816164E-02  0.1186339E+00
        -11   -1    0    0    0    0  0.00000000000E+00  0.00000000000E+00  0.45593999997E+02  0.45594000000E+02  0.51100000000E-03 0.  1.
         11   -1    0    0    0    0 -0.00000000000E+00 -0.00000000000E+00 -0.45593999997E+02  0.45594000000E+02  0.51100000000E-03 0. -1.
    9900012    2    1    2    0    0  0.15633191782E+00  0.40119645780E+00 -0.10988256635E+01  0.90007823697E+02  0.90000086170E+02 0.  0.
        -12    1    1    2    0    0 -0.15633191782E+00 -0.40119645780E+00  0.10988256635E+01  0.11801763025E+01  0.00000000000E+00 0.  1.
         11    1    3    3    0    0  0.12601812197E+02 -0.29396827284E+02 -0.26741538128E+02  0.41690394418E+02  0.51100000000E-03 0. -1.
        -11    1    3    3    0    0  0.77020306955E+00  0.91127802081E+01 -0.38703385149E+01  0.99305335391E+01  0.51100000000E-03 0.  1.
        -12    1    3    3    0    0 -0.13215683348E+02  0.20685243534E+02  0.29513050980E+02  0.38386895740E+02  0.00000000000E+00 0.  1.
</event>
<event>
 7    1  0.3743571E-015  0.9000772E+02  0.7816164E-02  0.1186339E+00
        -11   -1    0    0    0    0  0.00000000000E+00  0.00000000000E+00  0.45593999997E+02  0.45594000000E+02  0.51100000000E-03 0. -1.
         11   -1    0    0    0    0 -0.00000000000E+00 -0.00000000000E+00 -0.45593999997E+02  0.45594000000E+02  0.51100000000E-03 0.  1.
    9900012    2    1    2    0    0 -0.15215955072E+00 -0.10754003889E+00  0.11654756947E+01  0.90007724192E+02  0.89999985351E+02 0.  0.
        -12    1    1    2    0    0  0.15215955072E+00  0.10754003889E+00 -0.11654756947E+01  0.11802758083E+01  0.00000000000E+00 0.  1.
         11    1    3    3    0    0 -0.12047378856E+01  0.14911194464E+01 -0.80092717341E+01  0.82354881184E+01  0.51100000000E-03 0. -1.
        -11    1    3    3    0    0  0.66218753299E+01  0.34527409859E+01 -0.35597812705E+02  0.36372722236E+02  0.51100000000E-03 0.  1.
         12    1    3    3    0    0 -0.55692969950E+01 -0.50514004712E+01  0.44772560134E+02  0.45399513837E+02  0.00000000000E+00 0. -1.
</event>
<event>
 7    1  0.3743571E-015  0.9000741E+02  0.7816164E-02  0.1186340E+00
        -11   -1    0    0    0    0  0.00000000000E+00  0.00000000000E+00  0.45593999997E+02  0.45594000000E+02  0.51100000000E-03 0.  1.
         11   -1    0    0    0    0 -0.00000000000E+00 -0.00000000000E+00 -0.45593999997E+02  0.45594000000E+02  0.51100000000E-03 0. -1.
    9900012    2    1    2    0    0 -0.10921888518E+01  0.34443401334E+00 -0.28684759004E+00  0.90007409971E+02  0.89999666982E+02 0.  0.
        -12    1    1    2    0    0  0.10921888518E+01 -0.34443401334E+00  0.28684759004E+00  0.11805900294E+01  0.00000000000E+00 0.  1.
         11    1    3    3    0    0 -0.17688625757E+02  0.56040534799E+01 -0.10111308109E+02  0.21131290744E+02  0.51100000000E-03 0. -1.
        -11    1    3    3    0    0 -0.71848497278E+01  0.15370005605E+02 -0.19503080112E+02  0.25850130987E+02  0.51100000000E-03 0.  1.
         12    1    3    3    0    0  0.23781286633E+02 -0.20629625071E+02  0.29327540631E+02  0.43025988240E+02  0.00000000000E+00 0. -1.
</event>
<event>
 7    1  0.4857785E-015  0.9000761E+02  0.7816164E-02  0.1186339E+00
        -11   -1    0    0    0    0  0.00000000000E+00  0.00000000000E+00  0.45593999997E+02  0.45594000000E+02  0.51100000000E-03 0. -1.
         11   -1    0    0    0    0 -0.00000000000E+00 -0.00000000000E+00 -0.45593999997E+02  0.45594000000E+02  0.51100000000E-03 0.  1.
    9900012    2    1    2    0    0 -0.42736182040E-01  0.60473082154E-01  0.11780606248E+01  0.90007614381E+02  0.89999874090E+02 0.  0.
        -12    1    1    2    0    0  0.42736182040E-01 -0.60473082154E-01 -0.11780606248E+01  0.11803856194E+01  0.00000000000E+00 0.  1.
         11    1    3    3    0    0  0.18793682463E+02  0.27171746359E+01  0.32213506815E+02  0.37393790395E+02  0.51100000000E-03 0. -1.
        -11    1    3    3    0    0  0.89654821222E+01 -0.15700828531E+01  0.21052428608E+01  0.93422201651E+01  0.51100000000E-03 0.  1.
        -12    1    3    3    0    0 -0.27801900767E+02 -0.10866187006E+01 -0.33140689051E+02  0.43271603821E+02  0.00000000000E+00 0.  1.
</event>
<event>
 7    1  0.3743571E-015  0.9000773E+02  0.7816164E-02  0.1186339E+00
        -11   -1    0    0    0    0  0.00000000000E+00  0.00000000000E+00  0.45593999997E+02  0.45594000000E+02  0.51100000000E-03 0.  1.
         11   -1    0    0    0    0 -0.00000000000E+00 -0.00000000000E+00 -0.45593999997E+02  0.45594000000E+02  0.51100000000E-03 0. -1.
    9900012    2    1    2    0    0 -0.57680949391E+00  0.85144563283E+00 -0.57911208295E+00  0.90007728988E+02  0.89999990210E+02 0.  0.
        -12    1    1    2    0    0  0.57680949391E+00 -0.85144563283E+00  0.57911208295E+00  0.11802710123E+01  0.00000000000E+00 0.  1.
         11    1    3    3    0    0  0.86468463796E+01 -0.11060726841E+02  0.31044211645E+01  0.14378632118E+02  0.51100000000E-03 0. -1.
        -11    1    3    3    0    0  0.31258249193E+02  0.14765183481E+02 -0.55064846153E+01  0.35005858923E+02  0.51100000000E-03 0.  1.
         12    1    3    3    0    0 -0.40481905066E+02 -0.28530110081E+01  0.18229513679E+01  0.40623237947E+02  0.00000000000E+00 0. -1.
</event>
<event>
 7    1  0.3743571E-015  0.9000772E+02  0.7816164E-02  0.1186339E+00
        -11   -1    0    0    0    0  0.00000000000E+00  0.00000000000E+00  0.45593999997E+02  0.45594000000E+02  0.51100000000E-03 0.  1.
         11   -1    0    0    0    0 -0.00000000000E+00 -0.00000000000E+00 -0.45593999997E+02  0.45594000000E+02  0.51100000000E-03 0. -1.
    9900012    2    1    2    0    0  0.85253256328E+00 -0.78574086701E+00 -0.22102071055E+00  0.90007724339E+02  0.89999985500E+02 0.  0.
        -12    1    1    2    0    0 -0.85253256328E+00  0.78574086701E+00  0.22102071055E+00  0.11802756610E+01  0.00000000000E+00 0.  1.
         11    1    3    3    0    0 -0.10408980369E+02  0.22184534815E+02 -0.31566722866E+02  0.39961962540E+02  0.51100000000E-03 0. -1.
        -11    1    3    3    0    0  0.93705406037E+01  0.45494459122E+00 -0.16606484973E+01  0.95274214496E+01  0.51100000000E-03 0.  1.
        -12    1    3    3    0    0  0.18909723287E+01 -0.23425220274E+02  0.33006350653E+02  0.40518340349E+02  0.00000000000E+00 0.  1.
</event>
<event>
 7    1  0.4214526E-015  0.9000775E+02  0.7816164E-02  0.1186339E+00
        -11   -1    0    0    0    0  0.00000000000E+00  0.00000000000E+00  0.45593999997E+02  0.45594000000E+02  0.51100000000E-03 0.  1.
         11   -1    0    0    0    0 -0.00000000000E+00 -0.00000000000E+00 -0.45593999997E+02  0.45594000000E+02  0.51100000000E-03 0. -1.
    9900012    2    1    2    0    0  0.65119014270E-01 -0.11214590952E+01 -0.36204876414E+00  0.90007749901E+02  0.90000011400E+02 0.  0.
        -12    1    1    2    0    0 -0.65119014270E-01  0.11214590952E+01  0.36204876414E+00  0.11802500988E+01  0.00000000000E+00 0.  1.
         11    1    3    3    0    0  0.84604808463E+00 -0.58598046988E+01  0.74034948560E+01  0.94797070004E+01  0.51100000000E-03 0. -1.
        -11    1    3    3    0    0  0.16017784789E+01  0.79843106707E+01  0.35831613871E+02  0.36745332548E+02  0.51100000000E-03 0.  1.
         12    1    3    3    0    0 -0.23827075493E+01 -0.32459650670E+01 -0.43597157492E+02  0.43782710353E+02  0.00000000000E+00 0. -1.
</event>
<event>
 7    1  0.3743571E-015  0.9000775E+02  0.7816164E-02  0.1186339E+00
        -11   -1    0    0    0    0  0.00000000000E+00  0.00000000000E+00  0.45593999997E+02  0.45594000000E+02  0.51100000000E-03 0.  1.
         11   -1    0    0    0    0 -0.00000000000E+00 -0.00000000000E+00 -0.45593999997E+02  0.45594000000E+02  0.51100000000E-03 0. -1.
    9900012    2    1    2    0    0  0.10589778306E+01 -0.62928217604E-01 -0.51729305989E+00  0.90007751672E+02  0.90000013194E+02 0.  0.
        -12    1    1    2    0    0 -0.10589778306E+01  0.62928217604E-01  0.51729305989E+00  0.11802483282E+01  0.00000000000E+00 0.  1.
         11    1    3    3    0    0 -0.45518651818E+01  0.87601418046E+01  0.12828180883E+01  0.99551586415E+01  0.51100000000E-03 0. -1.
        -11    1    3    3    0    0 -0.78619550598E+01 -0.16079130601E+02  0.35488334794E+02  0.39746329202E+02  0.51100000000E-03 0.  1.
         12    1    3    3    0    0  0.13472798072E+02  0.72560605788E+01 -0.37288445943E+02  0.40306263829E+02  0.00000000000E+00 0. -1.
</event>
<event>
 7    1  0.3743571E-015  0.9000781E+02  0.7816164E-02  0.1186339E+00
        -11   -1    0    0    0    0  0.00000000000E+00  0.00000000000E+00  0.45593999997E+02  0.45594000000E+02  0.51100000000E-03 0. -1.
         11   -1    0    0    0    0 -0.00000000000E+00 -0.00000000000E+00 -0.45593999997E+02  0.45594000000E+02  0.51100000000E-03 0.  1.
    9900012    2    1    2    0    0  0.33031197097E+00 -0.26240181728E+00  0.11022212384E+01  0.90007808333E+02  0.90000070603E+02 0.  0.
        -12    1    1    2    0    0 -0.33031197097E+00  0.26240181728E+00 -0.11022212384E+01  0.11801916667E+01  0.00000000000E+00 0.  1.
         11    1    3    3    0    0  0.54895969734E+01 -0.16564689123E+01  0.75554847380E+01  0.94849836097E+01  0.51100000000E-03 0. -1.
        -11    1    3    3    0    0  0.57290730122E+01 -0.26135966273E+02 -0.31793319330E+02  0.41553894702E+02  0.51100000000E-03 0.  1.
         12    1    3    3    0    0 -0.10888358015E+02  0.27530033368E+02  0.25340055831E+02  0.38968930021E+02  0.00000000000E+00 0. -1.
</event>
<event>
 7    1  0.3743571E-015  0.9000772E+02  0.7816164E-02  0.1186339E+00
        -11   -1    0    0    0    0  0.00000000000E+00  0.00000000000E+00  0.45593999997E+02  0.45594000000E+02  0.51100000000E-03 0. -1.
         11   -1    0    0    0    0 -0.00000000000E+00 -0.00000000000E+00 -0.45593999997E+02  0.45594000000E+02  0.51100000000E-03 0.  1.
    9900012    2    1    2    0    0 -0.30269672141E+00  0.11344704799E+01  0.12007394959E+00  0.90007717691E+02  0.89999978765E+02 0.  0.
        -12    1    1    2    0    0  0.30269672141E+00 -0.11344704799E+01 -0.12007394959E+00  0.11802823087E+01  0.00000000000E+00 0.  1.
         11    1    3    3    0    0 -0.30099918190E+02 -0.41347977601E+01  0.23974418995E+02  0.38702382277E+02  0.51100000000E-03 0. -1.
        -11    1    3    3    0    0 -0.25287692413E+01  0.95634222030E+01  0.14912799504E+01  0.10003880960E+02  0.51100000000E-03 0.  1.
        -12    1    3    3    0    0  0.32325990710E+02 -0.42941539631E+01 -0.25345624995E+02  0.41301454454E+02  0.00000000000E+00 0.  1.
</event>
<event>
 7    1  0.3743571E-015  0.9000776E+02  0.7816164E-02  0.1186339E+00
        -11   -1    0    0    0    0  0.00000000000E+00  0.00000000000E+00  0.45593999997E+02  0.45594000000E+02  0.51100000000E-03 0.  1.
         11   -1    0    0    0    0 -0.00000000000E+00 -0.00000000000E+00 -0.45593999997E+02  0.45594000000E+02  0.51100000000E-03 0. -1.
    9900012    2    1    2    0    0 -0.14194603457E-01 -0.72984878145E+00  0.92740708685E+00  0.90007760772E+02  0.90000022414E+02 0.  0.
        -12    1    1    2    0    0  0.14194603457E-01  0.72984878145E+00 -0.92740708685E+00  0.11802392280E+01  0.00000000000E+00 0.  1.
         11    1    3    3    0    0 -0.49051987087E+01 -0.17390794455E+02 -0.23366581494E+02  0.29538074364E+02  0.51100000000E-03 0. -1.
        -11    1    3    3    0    0 -0.12969524976E+02 -0.12491190024E+02 -0.85632990119E+00  0.18026971667E+02  0.51100000000E-03 0.  1.
        -12    1    3    3    0    0  0.17860529081E+02  0.29152135698E+02  0.25150318483E+02  0.42442714741E+02  0.00000000000E+00 0.  1.
</event>
<event>
 7    1  0.3743571E-015  0.9000775E+02  0.7816164E-02  0.1186339E+00
        -11   -1    0    0    0    0  0.00000000000E+00  0.00000000000E+00  0.45593999997E+02  0.45594000000E+02  0.51100000000E-03 0.  1.
         11   -1    0    0    0    0 -0.00000000000E+00 -0.00000000000E+00 -0.45593999997E+02  0.45594000000E+02  0.51100000000E-03 0. -1.
    9900012    2    1    2    0    0  0.41953173828E+00  0.15204278641E+00 -0.10926447651E+01  0.90007747285E+02  0.90000008749E+02 0.  0.
        -12    1    1    2    0    0 -0.41953173828E+00 -0.15204278641E+00  0.10926447651E+01  0.11802527149E+01  0.00000000000E+00 0.  1.
         11    1    3    3    0    0 -0.36332634051E+01 -0.22795677075E+01  0.88913856440E+01  0.98718676468E+01  0.51100000000E-03 0. -1.
        -11    1    3    3    0    0 -0.18133316199E+02  0.19819575039E+02  0.23972348425E+02  0.36004252532E+02  0.51100000000E-03 0.  1.
         12    1    3    3    0    0  0.22186111342E+02 -0.17387964545E+02 -0.33956378834E+02  0.44131627106E+02  0.00000000000E+00 0. -1.
</event>
<event>
 7    1  0.3743571E-015  0.9000783E+02  0.7816164E-02  0.1186339E+00
        -11   -1    0    0    0    0  0.00000000000E+00  0.00000000000E+00  0.45593999997E+02  0.45594000000E+02  0.51100000000E-03 0. -1.
         11   -1    0    0    0    0 -0.00000000000E+00 -0.00000000000E+00 -0.45593999997E+02  0.45594000000E+02  0.51100000000E-03 0.  1.
    9900012    2    1    2    0    0 -0.46623074017E+00 -0.52120110384E+00  0.95067244340E+00  0.90007830610E+02  0.90000093174E+02 0.  0.
        -12    1    1    2    0    0  0.46623074017E+00  0.52120110384E+00 -0.95067244340E+00  0.11801693897E+01  0.00000000000E+00 0.  1.
         11    1    3    3    0    0  0.14854255188E+01  0.55485589964E+01  0.99091521897E+01  0.11453571202E+02  0.51100000000E-03 0. -1.
        -11    1    3    3    0    0  0.18203292789E+02  0.29871053144E+02 -0.12615614194E+02  0.37185930216E+02  0.51100000000E-03 0.  1.
         12    1    3    3    0    0 -0.20154949048E+02 -0.35940813244E+02  0.36571344479E+01  0.41368329192E+02  0.00000000000E+00 0. -1.
</event>
<event>
 7    1  0.3743571E-015  0.9000777E+02  0.7816164E-02  0.1186339E+00
        -11   -1    0    0    0    0  0.00000000000E+00  0.00000000000E+00  0.45593999997E+02  0.45594000000E+02  0.51100000000E-03 0.  1.
         11   -1    0    0    0    0 -0.00000000000E+00 -0.00000000000E+00 -0.45593999997E+02  0.45594000000E+02  0.51100000000E-03 0. -1.
    9900012    2    1    2    0    0  0.75432675051E+00 -0.10493142048E+00 -0.90162798181E+00  0.90007765927E+02  0.90000027637E+02 0.  0.
        -12    1    1    2    0    0 -0.75432675051E+00  0.10493142048E+00  0.90162798181E+00  0.11802340730E+01  0.00000000000E+00 0.  1.
         11    1    3    3    0    0 -0.31384473636E+02 -0.85790797147E+01  0.17924535607E+02  0.37146665680E+02  0.51100000000E-03 0. -1.
        -11    1    3    3    0    0  0.19997296458E+01 -0.19763238124E+01  0.96803013055E+01  0.10080327777E+02  0.51100000000E-03 0.  1.
        -12    1    3    3    0    0  0.30139070741E+02  0.10450472107E+02 -0.28506464894E+02  0.42780772470E+02  0.00000000000E+00 0.  1.
</event>
<event>
 7    1  0.3743571E-015  0.9000824E+02  0.7816164E-02  0.1186338E+00
        -11   -1    0    0    0    0  0.00000000000E+00  0.00000000000E+00  0.45593999997E+02  0.45594000000E+02  0.51100000000E-03 0. -1.
         11   -1    0    0    0    0 -0.00000000000E+00 -0.00000000000E+00 -0.45593999997E+02  0.45594000000E+02  0.51100000000E-03 0.  1.
    9900012    2    1    2    0    0  0.75892603964E+00 -0.48338213913E+00  0.76302286061E+00  0.90008241164E+02  0.90000509146E+02 0.  0.
        -12    1    1    2    0    0 -0.75892603964E+00  0.48338213913E+00 -0.76302286061E+00  0.11797588363E+01  0.00000000000E+00 0.  1.
         11    1    3    3    0    0  0.21766116938E+01  0.53118405311E+00  0.93303723879E+01  0.95956054589E+01  0.51100000000E-03 0. -1.
        -11    1    3    3    0    0  0.19684863824E+02 -0.19926081050E+02  0.24254009500E+02  0.37051309651E+02  0.51100000000E-03 0.  1.
         12    1    3    3    0    0 -0.21102549478E+02  0.18911514857E+02 -0.32821359028E+02  0.43361326053E+02  0.00000000000E+00 0. -1.
</event>
<event>
 7    1  0.3743571E-015  0.9000758E+02  0.7816164E-02  0.1186339E+00
        -11   -1    0    0    0    0  0.00000000000E+00  0.00000000000E+00  0.45593999997E+02  0.45594000000E+02  0.51100000000E-03 0.  1.
         11   -1    0    0    0    0 -0.00000000000E+00 -0.00000000000E+00 -0.45593999997E+02  0.45594000000E+02  0.51100000000E-03 0. -1.
    9900012    2    1    2    0    0  0.33352572740E+00 -0.10250893696E+01 -0.48098939771E+00  0.90007577013E+02  0.89999836230E+02 0.  0.
        -12    1    1    2    0    0 -0.33352572740E+00  0.10250893696E+01  0.48098939771E+00  0.11804229866E+01  0.00000000000E+00 0.  1.
         11    1    3    3    0    0  0.20219875975E+02  0.28293301888E+02 -0.11722886400E+02  0.36698506537E+02  0.51100000000E-03 0. -1.
        -11    1    3    3    0    0  0.55334577527E+01  0.11517180701E+01 -0.75271333989E+01  0.94129350725E+01  0.51100000000E-03 0.  1.
        -12    1    3    3    0    0 -0.25419808000E+02 -0.30470109328E+02  0.18769030401E+02  0.43896135404E+02  0.00000000000E+00 0.  1.
</event>
<event>
 7    1  0.3743571E-015  0.9000775E+02  0.7816164E-02  0.1186339E+00
        -11   -1    0    0    0    0  0.00000000000E+00  0.00000000000E+00  0.45593999997E+02  0.45594000000E+02  0.51100000000E-03 0.  1.
         11   -1    0    0    0    0 -0.00000000000E+00 -0.00000000000E+00 -0.45593999997E+02  0.45594000000E+02  0.51100000000E-03 0. -1.
    9900012    2    1    2    0    0 -0.52358678322E+00  0.73479325854E+00 -0.76086758137E+00  0.90007752683E+02  0.90000014219E+02 0.  0.
        -12    1    1    2    0    0  0.52358678322E+00 -0.73479325854E+00  0.76086758137E+00  0.11802473168E+01  0.00000000000E+00 0.  1.
         11    1    3    3    0    0 -0.70593540284E+01 -0.29402715863E+01  0.34907038413E+01  0.84062292300E+01  0.51100000000E-03 0. -1.
        -11    1    3    3    0    0  0.88772803266E+01 -0.34611064633E+02  0.14917966982E+02  0.38720506714E+02  0.51100000000E-03 0.  1.
         12    1    3    3    0    0 -0.23415130814E+01  0.38286129478E+02 -0.19169538405E+02  0.42881016739E+02  0.00000000000E+00 0. -1.
</event>
<event>
 7    1  0.3743571E-015  0.9000772E+02  0.7816164E-02  0.1186339E+00
        -11   -1    0    0    0    0  0.00000000000E+00  0.00000000000E+00  0.45593999997E+02  0.45594000000E+02  0.51100000000E-03 0. -1.
         11   -1    0    0    0    0 -0.00000000000E+00 -0.00000000000E+00 -0.45593999997E+02  0.45594000000E+02  0.51100000000E-03 0.  1.
    9900012    2    1    2    0    0 -0.36780349349E+00 -0.85058528051E+00  0.73094828207E+00  0.90007720321E+02  0.89999981429E+02 0.  0.
        -12    1    1    2    0    0  0.36780349349E+00  0.85058528051E+00 -0.73094828207E+00  0.11802796788E+01  0.00000000000E+00 0.  1.
         11    1    3    3    0    0 -0.37143923834E+02  0.18567366169E+02  0.77730840715E+01  0.42247354953E+02  0.51100000000E-03 0.  1.
        -11    1    3    3    0    0  0.85270949194E+01 -0.14525501660E+02 -0.88631197430E+01  0.19033035440E+02  0.51100000000E-03 0. -1.
        -12    1    3    3    0    0  0.28249025422E+02 -0.48924497900E+01  0.18209839536E+01  0.28727329928E+02  0.00000000000E+00 0.  1.
</event>
<event>
 7    1  0.3743571E-015  0.9000776E+02  0.7816164E-02  0.1186339E+00
        -11   -1    0    0    0    0  0.00000000000E+00  0.00000000000E+00  0.45593999997E+02  0.45594000000E+02  0.51100000000E-03 0.  1.
         11   -1    0    0    0    0 -0.00000000000E+00 -0.00000000000E+00 -0.45593999997E+02  0.45594000000E+02  0.51100000000E-03 0. -1.
    9900012    2    1    2    0    0 -0.25257140439E+00 -0.10795504866E+01 -0.40466570699E+00  0.90007755999E+02  0.90000017578E+02 0.  0.
        -12    1    1    2    0    0  0.25257140439E+00  0.10795504866E+01  0.40466570699E+00  0.11802440010E+01  0.00000000000E+00 0.  1.
         11    1    3    3    0    0  0.24289725230E+02  0.11548719039E+01  0.27732990284E+02  0.36884186736E+02  0.51100000000E-03 0. -1.
        -11    1    3    3    0    0  0.20763619852E+01  0.10284267379E+02  0.23575953103E+01  0.10753403672E+02  0.51100000000E-03 0.  1.
        -12    1    3    3    0    0 -0.26618658619E+02 -0.12518689770E+02 -0.30495251301E+02  0.42370165591E+02  0.00000000000E+00 0.  1.
</event>
<event>
 7    1  0.3743571E-015  0.9000775E+02  0.7816164E-02  0.1186339E+00
        -11   -1    0    0    0    0  0.00000000000E+00  0.00000000000E+00  0.45593999997E+02  0.45594000000E+02  0.51100000000E-03 0. -1.
         11   -1    0    0    0    0 -0.00000000000E+00 -0.00000000000E+00 -0.45593999997E+02  0.45594000000E+02  0.51100000000E-03 0.  1.
    9900012    2    1    2    0    0  0.73261519919E+00 -0.67305188474E+00 -0.63502422692E+00  0.90007754416E+02  0.90000015974E+02 0.  0.
        -12    1    1    2    0    0 -0.73261519919E+00  0.67305188474E+00  0.63502422692E+00  0.11802455839E+01  0.00000000000E+00 0.  1.
         11    1    3    3    0    0 -0.94567112043E+01  0.37496177986E+00  0.23263993197E+01  0.97458769330E+01  0.51100000000E-03 0. -1.
        -11    1    3    3    0    0 -0.19450291662E+02  0.39381651744E+01 -0.32526158285E+02  0.38102151694E+02  0.51100000000E-03 0.  1.
         12    1    3    3    0    0  0.29639618066E+02 -0.49861788390E+01  0.29564734738E+02  0.42159725789E+02  0.00000000000E+00 0. -1.
</event>
<event>
 7    1  0.3743571E-015  0.9000781E+02  0.7816164E-02  0.1186339E+00
        -11   -1    0    0    0    0  0.00000000000E+00  0.00000000000E+00  0.45593999997E+02  0.45594000000E+02  0.51100000000E-03 0.  1.
         11   -1    0    0    0    0 -0.00000000000E+00 -0.00000000000E+00 -0.45593999997E+02  0.45594000000E+02  0.51100000000E-03 0. -1.
    9900012    2    1    2    0    0 -0.11248268967E+01 -0.28517119642E+00 -0.21515847908E+00  0.90007808774E+02  0.90000071050E+02 0.  0.
        -12    1    1    2    0    0  0.11248268967E+01  0.28517119642E+00  0.21515847908E+00  0.11801912260E+01  0.00000000000E+00 0.  1.
         11    1    3    3    0    0 -0.68744389165E+01  0.64267055218E+01  0.54387251946E+01  0.10869231173E+02  0.51100000000E-03 0. -1.
        -11    1    3    3    0    0  0.18675003266E+02 -0.85102078758E+01  0.32710464413E+02  0.38615461508E+02  0.51100000000E-03 0.  1.
         12    1    3    3    0    0 -0.12925391247E+02  0.17983311576E+01 -0.38364348087E+02  0.40523116094E+02  0.00000000000E+00 0. -1.
</event>
<event>
 7    1  0.3743571E-015  0.9000772E+02  0.7816164E-02  0.1186339E+00
        -11   -1    0    0    0    0  0.00000000000E+00  0.00000000000E+00  0.45593999997E+02  0.45594000000E+02  0.51100000000E-03 0. -1.
         11   -1    0    0    0    0 -0.00000000000E+00 -0.00000000000E+00 -0.45593999997E+02  0.45594000000E+02  0.51100000000E-03 0.  1.
    9900012    2    1    2    0    0 -0.40868710800E+00  0.42304023095E+00  0.10232714354E+01  0.90007715026E+02  0.89999976064E+02 0.  0.
        -12    1    1    2    0    0  0.40868710800E+00 -0.42304023095E+00 -0.10232714354E+01  0.11802849739E+01  0.00000000000E+00 0.  1.
         11    1    3    3    0    0 -0.62539718550E+01 -0.27490434318E+01  0.63215089356E+01  0.93075710708E+01  0.51100000000E-03 0. -1.
        -11    1    3    3    0    0  0.76715116945E+01 -0.25376249862E+02  0.26805195432E+02  0.37700459562E+02  0.51100000000E-03 0.  1.
         12    1    3    3    0    0 -0.18262269475E+01  0.28548333525E+02 -0.32103432932E+02  0.42999684394E+02  0.00000000000E+00 0. -1.
</event>
<event>
 7    1  0.3743571E-015  0.9000767E+02  0.7816164E-02  0.1186339E+00
        -11   -1    0    0    0    0  0.00000000000E+00  0.00000000000E+00  0.45593999997E+02  0.45594000000E+02  0.51100000000E-03 0.  1.
         11   -1    0    0    0    0 -0.00000000000E+00 -0.00000000000E+00 -0.45593999997E+02  0.45594000000E+02  0.51100000000E-03 0. -1.
    9900012    2    1    2    0    0 -0.73779795847E+00  0.91355663433E+00  0.11939664026E+00  0.90007666526E+02  0.89999926924E+02 0.  0.
        -12    1    1    2    0    0  0.73779795847E+00 -0.91355663433E+00 -0.11939664026E+00  0.11803334738E+01  0.00000000000E+00 0.  1.
         11    1    3    3    0    0 -0.61066568266E+00  0.19048019764E+02 -0.25038360622E+01  0.19221580705E+02  0.51100000000E-03 0. -1.
        -11    1    3    3    0    0 -0.12671034474E+02  0.23755974348E+02  0.26876528404E+01  0.27057806820E+02  0.51100000000E-03 0.  1.
        -12    1    3    3    0    0  0.12543902198E+02 -0.41890437478E+02 -0.64420137934E-01  0.43728279001E+02  0.00000000000E+00 0.  1.
</event>
<event>
 7    1  0.3743571E-015  0.9000774E+02  0.7816164E-02  0.1186339E+00
        -11   -1    0    0    0    0  0.00000000000E+00  0.00000000000E+00  0.45593999997E+02  0.45594000000E+02  0.51100000000E-03 0.  1.
         11   -1    0    0    0    0 -0.00000000000E+00 -0.00000000000E+00 -0.45593999997E+02  0.45594000000E+02  0.51100000000E-03 0. -1.
    9900012    2    1    2    0    0 -0.65507984995E+00 -0.85849180745E+00 -0.47631253515E+00  0.90007740950E+02  0.90000002331E+02 0.  0.
        -12    1    1    2    0    0  0.65507984995E+00  0.85849180745E+00  0.47631253515E+00  0.11802590497E+01  0.00000000000E+00 0.  1.
         11    1    3    3    0    0 -0.66000264659E+01 -0.64688541781E+01  0.36200420820E+00  0.92486469840E+01  0.51100000000E-03 0. -1.
        -11    1    3    3    0    0  0.17000581989E+02 -0.28113795758E+02  0.21090102166E+02  0.39040974751E+02  0.51100000000E-03 0.  1.
         12    1    3    3    0    0 -0.11055635373E+02  0.33724158129E+02 -0.21928418909E+02  0.41718119215E+02  0.00000000000E+00 0. -1.
</event>
<event>
 7    1  0.3743571E-015  0.9000771E+02  0.7816164E-02  0.1186339E+00
        -11   -1    0    0    0    0  0.00000000000E+00  0.00000000000E+00  0.45593999997E+02  0.45594000000E+02  0.51100000000E-03 0. -1.
         11   -1    0    0    0    0 -0.00000000000E+00 -0.00000000000E+00 -0.45593999997E+02  0.45594000000E+02  0.51100000000E-03 0.  1.
    9900012    2    1    2    0    0 -0.10061423215E+00  0.11638293135E+01  0.16871253813E+00  0.90007709436E+02  0.89999970401E+02 0.  0.
        -12    1    1    2    0    0  0.10061423215E+00 -0.11638293135E+01 -0.16871253813E+00  0.11802905639E+01  0.00000000000E+00 0.  1.
         11    1    3    3    0    0  0.13185752996E+01  0.80208714101E+01  0.21954008565E+01  0.84197864688E+01  0.51100000000E-03 0. -1.
        -11    1    3    3    0    0 -0.20080790946E+02 -0.60772301075E+01 -0.36660102950E+02  0.42239010871E+02  0.51100000000E-03 0.  1.
         12    1    3    3    0    0  0.18661601414E+02 -0.77981198902E+00  0.34633414632E+02  0.39348912096E+02  0.00000000000E+00 0. -1.
</event>
<event>
 7    1  0.4352551E-015  0.9000771E+02  0.7816164E-02  0.1186339E+00
        -11   -1    0    0    0    0  0.00000000000E+00  0.00000000000E+00  0.45593999997E+02  0.45594000000E+02  0.51100000000E-03 0.  1.
         11   -1    0    0    0    0 -0.00000000000E+00 -0.00000000000E+00 -0.45593999997E+02  0.45594000000E+02  0.51100000000E-03 0. -1.
    9900012    2    1    2    0    0  0.32247961471E+00  0.98795350254E+00 -0.55950557287E+00  0.90007706938E+02  0.89999967870E+02 0.  0.
        -12    1    1    2    0    0 -0.32247961471E+00 -0.98795350254E+00  0.55950557287E+00  0.11802930616E+01  0.00000000000E+00 0.  1.
         11    1    3    3    0    0 -0.17702263511E+02 -0.28379833437E+02 -0.20455008643E+02  0.39207046027E+02  0.51100000000E-03 0. -1.
        -11    1    3    3    0    0 -0.85992177778E+01  0.38857310988E+01  0.13125914024E+01  0.95272424663E+01  0.51100000000E-03 0.  1.
        -12    1    3    3    0    0  0.26623960904E+02  0.25482055841E+02  0.18582911668E+02  0.41273418445E+02  0.00000000000E+00 0.  1.
</event>
<event>
 7    1  0.3743571E-015  0.9000776E+02  0.7816164E-02  0.1186339E+00
        -11   -1    0    0    0    0  0.00000000000E+00  0.00000000000E+00  0.45593999997E+02  0.45594000000E+02  0.51100000000E-03 0. -1.
         11   -1    0    0    0    0 -0.00000000000E+00 -0.00000000000E+00 -0.45593999997E+02  0.45594000000E+02  0.51100000000E-03 0.  1.
    9900012    2    1    2    0    0  0.38846784884E-01  0.11472878174E+01  0.27419787438E+00  0.90007761514E+02  0.90000023166E+02 0.  0.
        -12    1    1    2    0    0 -0.38846784884E-01 -0.11472878174E+01 -0.27419787438E+00  0.11802384856E+01  0.00000000000E+00 0.  1.
         11    1    3    3    0    0 -0.55129394766E+01 -0.19872215578E+01 -0.59811203660E+01  0.83734910453E+01  0.51100000000E-03 0. -1.
        -11    1    3    3    0    0 -0.26509942112E+02  0.18700801851E+02 -0.19326854248E+02  0.37762737136E+02  0.51100000000E-03 0.  1.
         12    1    3    3    0    0  0.32061728374E+02 -0.15566292475E+02  0.25582172488E+02  0.43871533333E+02  0.00000000000E+00 0. -1.
</event>
<event>
 7    1  0.3743571E-015  0.9000775E+02  0.7816164E-02  0.1186339E+00
        -11   -1    0    0    0    0  0.00000000000E+00  0.00000000000E+00  0.45593999997E+02  0.45594000000E+02  0.51100000000E-03 0. -1.
         11   -1    0    0    0    0 -0.00000000000E+00 -0.00000000000E+00 -0.45593999997E+02  0.45594000000E+02  0.51100000000E-03 0.  1.
    9900012    2    1    2    0    0 -0.18334110901E-01  0.11797168977E+01  0.30470066879E-01  0.90007747263E+02  0.90000008727E+02 0.  0.
        -12    1    1    2    0    0  0.18334110901E-01 -0.11797168977E+01 -0.30470066879E-01  0.11802527371E+01  0.00000000000E+00 0.  1.
         11    1    3    3    0    0 -0.11666799464E+01  0.24381141723E+01 -0.74154144534E+01  0.78926494025E+01  0.51100000000E-03 0. -1.
        -11    1    3    3    0    0  0.20367380168E+02  0.34929739943E+02 -0.19054915230E+00  0.40434554735E+02  0.51100000000E-03 0.  1.
         12    1    3    3    0    0 -0.19219034332E+02 -0.36188137218E+02  0.76364336726E+01  0.41680543125E+02  0.00000000000E+00 0. -1.
</event>
<event>
 7    1  0.3743571E-015  0.9000771E+02  0.7816164E-02  0.1186339E+00
        -11   -1    0    0    0    0  0.00000000000E+00  0.00000000000E+00  0.45593999997E+02  0.45594000000E+02  0.51100000000E-03 0.  1.
         11   -1    0    0    0    0 -0.00000000000E+00 -0.00000000000E+00 -0.45593999997E+02  0.45594000000E+02  0.51100000000E-03 0. -1.
    9900012    2    1    2    0    0 -0.69438183058E+00  0.95167469140E+00  0.72295196058E-01  0.90007712984E+02  0.89999973995E+02 0.  0.
        -12    1    1    2    0    0  0.69438183058E+00 -0.95167469140E+00 -0.72295196058E-01  0.11802870161E+01  0.00000000000E+00 0.  1.
         11    1    3    3    0    0 -0.57325088827E+01 -0.15279517915E+01  0.69377575745E+01  0.91284596286E+01  0.51100000000E-03 0. -1.
        -11    1    3    3    0    0  0.40107795304E+02 -0.57538074922E+01  0.90179214965E+01  0.41509811530E+02  0.51100000000E-03 0.  1.
         12    1    3    3    0    0 -0.35069668252E+02  0.82334339752E+01 -0.15883383875E+02  0.39369441826E+02  0.00000000000E+00 0. -1.
</event>
<event>
 7    1  0.3743571E-015  0.9000775E+02  0.7816164E-02  0.1186339E+00
        -11   -1    0    0    0    0  0.00000000000E+00  0.00000000000E+00  0.45593999997E+02  0.45594000000E+02  0.51100000000E-03 0. -1.
         11   -1    0    0    0    0 -0.00000000000E+00 -0.00000000000E+00 -0.45593999997E+02  0.45594000000E+02  0.51100000000E-03 0.  1.
    9900012    2    1    2    0    0  0.65321561754E+00 -0.96396037149E+00  0.19256769795E+00  0.90007748942E+02  0.90000010428E+02 0.  0.
        -12    1    1    2    0    0 -0.65321561754E+00  0.96396037149E+00 -0.19256769795E+00  0.11802510577E+01  0.00000000000E+00 0.  1.
         11    1    3    3    0    0 -0.17221869451E+02 -0.31237457513E+02 -0.15891372558E+02  0.39050060964E+02  0.51100000000E-03 0. -1.
        -11    1    3    3    0    0  0.60937599056E+01 -0.67333690352E+01  0.45143871195E+00  0.90926324859E+01  0.51100000000E-03 0.  1.
        -12    1    3    3    0    0  0.11781325163E+02  0.37006866177E+02  0.15632501544E+02  0.41865055492E+02  0.00000000000E+00 0.  1.
</event>
<event>
 7    1  0.3743571E-015  0.9000694E+02  0.7816164E-02  0.1186341E+00
        -11   -1    0    0    0    0  0.00000000000E+00  0.00000000000E+00  0.45593999997E+02  0.45594000000E+02  0.51100000000E-03 0.  1.
         11   -1    0    0    0    0 -0.00000000000E+00 -0.00000000000E+00 -0.45593999997E+02  0.45594000000E+02  0.51100000000E-03 0. -1.
    9900012    2    1    2    0    0 -0.36739156235E+00 -0.10929383660E+01  0.25574534036E+00  0.90006942630E+02  0.89999193469E+02 0.  0.
        -12    1    1    2    0    0  0.36739156235E+00  0.10929383660E+01 -0.25574534036E+00  0.11810573700E+01  0.00000000000E+00 0.  1.
         11    1    3    3    0    0  0.81943647501E+01  0.11114135660E+02  0.86528176269E+01  0.16295486439E+02  0.51100000000E-03 0. -1.
        -11    1    3    3    0    0  0.28671902725E+02  0.93118076155E+01 -0.17586269320E+01  0.30197359750E+02  0.51100000000E-03 0.  1.
         12    1    3    3    0    0 -0.37233659037E+02 -0.21518881641E+02 -0.66384453546E+01  0.43514096441E+02  0.00000000000E+00 0. -1.
</event>
<event>
 7    1  0.3743571E-015  0.9000771E+02  0.7816164E-02  0.1186339E+00
        -11   -1    0    0    0    0  0.00000000000E+00  0.00000000000E+00  0.45593999997E+02  0.45594000000E+02  0.51100000000E-03 0.  1.
         11   -1    0    0    0    0 -0.00000000000E+00 -0.00000000000E+00 -0.45593999997E+02  0.45594000000E+02  0.51100000000E-03 0. -1.
    9900012    2    1    2    0    0 -0.94165964734E-02  0.39401309845E+00 -0.11125420256E+01  0.90007709886E+02  0.89999970857E+02 0.  0.
        -12    1    1    2    0    0  0.94165964733E-02 -0.39401309845E+00  0.11125420256E+01  0.11802901138E+01  0.00000000000E+00 0.  1.
         11    1    3    3    0    0  0.32455212253E+02 -0.10737791242E+02  0.15227418021E+02  0.37423458191E+02  0.51100000000E-03 0. -1.
        -11    1    3    3    0    0  0.24415068384E+01  0.41797604859E+01  0.80810935795E+01  0.94199483578E+01  0.51100000000E-03 0.  1.
        -12    1    3    3    0    0 -0.34906135687E+02  0.69520438544E+01 -0.24421053626E+02  0.43164303337E+02  0.00000000000E+00 0.  1.
</event>
<event>
 7    1  0.3743571E-015  0.9000766E+02  0.7816164E-02  0.1186339E+00
        -11   -1    0    0    0    0  0.00000000000E+00  0.00000000000E+00  0.45593999997E+02  0.45594000000E+02  0.51100000000E-03 0.  1.
         11   -1    0    0    0    0 -0.00000000000E+00 -0.00000000000E+00 -0.45593999997E+02  0.45594000000E+02  0.51100000000E-03 0. -1.
    9900012    2    1    2    0    0 -0.69020561516E+00 -0.12830798928E+00 -0.94886709643E+00  0.90007662973E+02  0.89999923324E+02 0.  0.
        -12    1    1    2    0    0  0.69020561516E+00  0.12830798928E+00  0.94886709643E+00  0.11803370273E+01  0.00000000000E+00 0.  1.
         11    1    3    3    0    0  0.19052483055E+01  0.70150245944E+01 -0.40352320785E+01  0.83140627466E+01  0.51100000000E-03 0. -1.
        -11    1    3    3    0    0  0.20717390665E+02  0.15320055324E+02 -0.27125117845E+02  0.37412382836E+02  0.51100000000E-03 0.  1.
         12    1    3    3    0    0 -0.23312844585E+02 -0.22463387908E+02  0.30211482827E+02  0.44281217390E+02  0.00000000000E+00 0. -1.
</event>
<event>
 7    1  0.3743571E-015  0.9000801E+02  0.7816164E-02  0.1186339E+00
        -11   -1    0    0    0    0  0.00000000000E+00  0.00000000000E+00  0.45593999997E+02  0.45594000000E+02  0.51100000000E-03 0. -1.
         11   -1    0    0    0    0 -0.00000000000E+00 -0.00000000000E+00 -0.45593999997E+02  0.45594000000E+02  0.51100000000E-03 0.  1.
    9900012    2    1    2    0    0  0.11277834655E+01  0.34669290599E+00  0.17183704224E-01  0.90008005595E+02  0.90000270468E+02 0.  0.
        -12    1    1    2    0    0 -0.11277834655E+01 -0.34669290599E+00 -0.17183704224E-01  0.11799944050E+01  0.00000000000E+00 0.  1.
         11    1    3    3    0    0 -0.25775891065E+01 -0.26507298991E+02  0.28287089405E+01  0.26782129488E+02  0.51100000000E-03 0. -1.
        -11    1    3    3    0    0 -0.25639718615E+02  0.20655399638E+02 -0.42548067585E+01  0.33198555475E+02  0.51100000000E-03 0.  1.
         12    1    3    3    0    0  0.29345091187E+02  0.61985922595E+01  0.14432815223E+01  0.30027320631E+02  0.00000000000E+00 0. -1.
</event>
<event>
 7    1  0.3743571E-015  0.9000815E+02  0.7816164E-02  0.1186338E+00
        -11   -1    0    0    0    0  0.00000000000E+00  0.00000000000E+00  0.45593999997E+02  0.45594000000E+02  0.51100000000E-03 0.  1.
         11   -1    0    0    0    0 -0.00000000000E+00 -0.00000000000E+00 -0.45593999997E+02  0.45594000000E+02  0.51100000000E-03 0. -1.
    9900012    2    1    2    0    0  0.39636839609E+00 -0.62516206167E+00 -0.91875067122E+00  0.90008153271E+02  0.90000420093E+02 0.  0.
        -12    1    1    2    0    0 -0.39636839609E+00  0.62516206167E+00  0.91875067122E+00  0.11798467293E+01  0.00000000000E+00 0.  1.
         11    1    3    3    0    0 -0.29691331028E+01 -0.83363025155E+01  0.19176251750E+01  0.90546660670E+01  0.51100000000E-03 0. -1.
        -11    1    3    3    0    0  0.79154765487E-01 -0.15757270074E+02  0.33816289489E+02  0.37307362018E+02  0.51100000000E-03 0.  1.
         12    1    3    3    0    0  0.32863467334E+01  0.23468410528E+02 -0.36652665335E+02  0.43646125186E+02  0.00000000000E+00 0. -1.
</event>
<event>
 7    1  0.3743571E-015  0.9000770E+02  0.7816164E-02  0.1186339E+00
        -11   -1    0    0    0    0  0.00000000000E+00  0.00000000000E+00  0.45593999997E+02  0.45594000000E+02  0.51100000000E-03 0.  1.
         11   -1    0    0    0    0 -0.00000000000E+00 -0.00000000000E+00 -0.45593999997E+02  0.45594000000E+02  0.51100000000E-03 0. -1.
    9900012    2    1    2    0    0 -0.79067983976E+00 -0.87053461886E+00 -0.10054769235E+00  0.90007697085E+02  0.89999957887E+02 0.  0.
        -12    1    1    2    0    0  0.79067983976E+00  0.87053461886E+00  0.10054769235E+00  0.11803029145E+01  0.00000000000E+00 0.  1.
         11    1    3    3    0    0 -0.26160926552E+02 -0.76464669467E+01  0.23026183935E+02  0.35680074015E+02  0.51100000000E-03 0. -1.
        -11    1    3    3    0    0 -0.56144756121E+01 -0.80802668264E+01  0.39265302883E+01  0.10593898657E+02  0.51100000000E-03 0.  1.
        -12    1    3    3    0    0  0.30984722325E+02  0.14856199154E+02 -0.27053261915E+02  0.43733724414E+02  0.00000000000E+00 0.  1.
</event>
<event>
 7    1  0.5355411E-015  0.9000780E+02  0.7816164E-02  0.1186339E+00
        -11   -1    0    0    0    0  0.00000000000E+00  0.00000000000E+00  0.45593999997E+02  0.45594000000E+02  0.51100000000E-03 0. -1.
         11   -1    0    0    0    0 -0.00000000000E+00 -0.00000000000E+00 -0.45593999997E+02  0.45594000000E+02  0.51100000000E-03 0.  1.
    9900012    2    1    2    0    0  0.10112605585E+01 -0.29960099689E+00  0.52957857285E+00  0.90007804195E+02  0.90000066410E+02 0.  0.
        -12    1    1    2    0    0 -0.10112605585E+01  0.29960099689E+00 -0.52957857285E+00  0.11801958055E+01  0.00000000000E+00 0.  1.
         11    1    3    3    0    0  0.28308819660E+02  0.17930127631E+02  0.17981946011E+02  0.38029319347E+02  0.51100000000E-03 0. -1.
        -11    1    3    3    0    0  0.36168079384E+01  0.75268151617E+01 -0.55135541726E+01  0.10006674074E+02  0.51100000000E-03 0.  1.
        -12    1    3    3    0    0 -0.30914367040E+02 -0.25756543789E+02 -0.11938813266E+02  0.41971810774E+02  0.00000000000E+00 0.  1.
</event>
<event>
 7    1  0.3743571E-015  0.9000782E+02  0.7816164E-02  0.1186339E+00
        -11   -1    0    0    0    0  0.00000000000E+00  0.00000000000E+00  0.45593999997E+02  0.45594000000E+02  0.51100000000E-03 0.  1.
         11   -1    0    0    0    0 -0.00000000000E+00 -0.00000000000E+00 -0.45593999997E+02  0.45594000000E+02  0.51100000000E-03 0. -1.
    9900012    2    1    2    0    0  0.89393100008E-01  0.12446875541E+00 -0.11701844542E+01  0.90007824058E+02  0.90000086535E+02 0.  0.
        -12    1    1    2    0    0 -0.89393100008E-01 -0.12446875541E+00  0.11701844542E+01  0.11801759421E+01  0.00000000000E+00 0.  1.
         11    1    3    3    0    0 -0.12018860496E+02 -0.20340538552E+01 -0.36354921965E+02  0.38344109510E+02  0.51100000000E-03 0. -1.
        -11    1    3    3    0    0  0.89916107658E+01  0.64824498739E+01 -0.42491426356E+01  0.11871243992E+02  0.51100000000E-03 0.  1.
        -12    1    3    3    0    0  0.31166428307E+01 -0.43239272633E+01  0.39433880147E+02  0.39792470556E+02  0.00000000000E+00 0.  1.
</event>
<event>
 7    1  0.3743571E-015  0.9000813E+02  0.7816164E-02  0.1186338E+00
        -11   -1    0    0    0    0  0.00000000000E+00  0.00000000000E+00  0.45593999997E+02  0.45594000000E+02  0.51100000000E-03 0. -1.
         11   -1    0    0    0    0 -0.00000000000E+00 -0.00000000000E+00 -0.45593999997E+02  0.45594000000E+02  0.51100000000E-03 0.  1.
    9900012    2    1    2    0    0  0.10353817671E+01 -0.47995721104E+00  0.29953252209E+00  0.90008129643E+02  0.90000396153E+02 0.  0.
        -12    1    1    2    0    0 -0.10353817671E+01  0.47995721104E+00 -0.29953252209E+00  0.11798703573E+01  0.00000000000E+00 0.  1.
         11    1    3    3    0    0  0.19786484707E+02  0.24519051253E+00  0.50862754477E+01  0.20431233287E+02  0.51100000000E-03 0. -1.
        -11    1    3    3    0    0  0.13219963668E+02  0.14895791827E+02  0.18392713295E+02  0.27109849800E+02  0.51100000000E-03 0.  1.
        -12    1    3    3    0    0 -0.31971066608E+02 -0.15620939550E+02 -0.23179456221E+02  0.42467046556E+02  0.00000000000E+00 0.  1.
</event>
<event>
 7    1  0.3743571E-015  0.9000771E+02  0.7816164E-02  0.1186339E+00
        -11   -1    0    0    0    0  0.00000000000E+00  0.00000000000E+00  0.45593999997E+02  0.45594000000E+02  0.51100000000E-03 0. -1.
         11   -1    0    0    0    0 -0.00000000000E+00 -0.00000000000E+00 -0.45593999997E+02  0.45594000000E+02  0.51100000000E-03 0.  1.
    9900012    2    1    2    0    0 -0.95684561373E+00  0.67953590817E+00  0.12558636913E+00  0.90007705751E+02  0.89999966667E+02 0.  0.
        -12    1    1    2    0    0  0.95684561373E+00 -0.67953590817E+00 -0.12558636913E+00  0.11802942494E+01  0.00000000000E+00 0.  1.
         11    1    3    3    0    0 -0.17868724173E+02 -0.32024809766E+02  0.40161599504E+01  0.36891859335E+02  0.51100000000E-03 0. -1.
        -11    1    3    3    0    0 -0.25683879224E+01 -0.59166597665E+01  0.59272231777E+01  0.87598775204E+01  0.51100000000E-03 0.  1.
        -12    1    3    3    0    0  0.19480266482E+02  0.38621005441E+02 -0.98177967590E+01  0.44355968896E+02  0.00000000000E+00 0.  1.
</event>
<event>
 7    1  0.3743571E-015  0.9000777E+02  0.7816164E-02  0.1186339E+00
        -11   -1    0    0    0    0  0.00000000000E+00  0.00000000000E+00  0.45593999997E+02  0.45594000000E+02  0.51100000000E-03 0.  1.
         11   -1    0    0    0    0 -0.00000000000E+00 -0.00000000000E+00 -0.45593999997E+02  0.45594000000E+02  0.51100000000E-03 0. -1.
    9900012    2    1    2    0    0  0.11569055643E+01  0.15561162071E+00 -0.17408247036E+00  0.90007766901E+02  0.90000028624E+02 0.  0.
        -12    1    1    2    0    0 -0.11569055643E+01 -0.15561162071E+00  0.17408247036E+00  0.11802330989E+01  0.00000000000E+00 0.  1.
         11    1    3    3    0    0  0.12641583827E+02 -0.34814341615E+01 -0.31116484646E+02  0.33766338896E+02  0.51100000000E-03 0. -1.
        -11    1    3    3    0    0 -0.24567357140E+02 -0.58916546683E+01  0.51377179613E+01  0.25781054627E+02  0.51100000000E-03 0.  1.
         12    1    3    3    0    0  0.13082678877E+02  0.95287004504E+01  0.25804684214E+02  0.30460373377E+02  0.00000000000E+00 0. -1.
</event>
<event>
 7    1  0.3743571E-015  0.9000776E+02  0.7816164E-02  0.1186339E+00
        -11   -1    0    0    0    0  0.00000000000E+00  0.00000000000E+00  0.45593999997E+02  0.45594000000E+02  0.51100000000E-03 0.  1.
         11   -1    0    0    0    0 -0.00000000000E+00 -0.00000000000E+00 -0.45593999997E+02  0.45594000000E+02  0.51100000000E-03 0. -1.
    9900012    2    1    2    0    0 -0.91952789317E-01  0.41255332843E+00  0.11019562367E+01  0.90007761417E+02  0.90000023068E+02 0.  0.
        -12    1    1    2    0    0  0.91952789317E-01 -0.41255332843E+00 -0.11019562367E+01  0.11802385826E+01  0.00000000000E+00 0.  1.
         11    1    3    3    0    0  0.49455384774E+01  0.47891039465E+01  0.10449423576E+02  0.12513365685E+02  0.51100000000E-03 0. -1.
        -11    1    3    3    0    0  0.10679049556E+02  0.32380049138E+02 -0.14761204966E+02  0.37153773078E+02  0.51100000000E-03 0.  1.
         12    1    3    3    0    0 -0.15716540823E+02 -0.36756599756E+02  0.54137376267E+01  0.40340622655E+02  0.00000000000E+00 0. -1.
</event>
<event>
 7    1  0.3743571E-015  0.9000780E+02  0.7816164E-02  0.1186339E+00
        -11   -1    0    0    0    0  0.00000000000E+00  0.00000000000E+00  0.45593999997E+02  0.45594000000E+02  0.51100000000E-03 0.  1.
         11   -1    0    0    0    0 -0.00000000000E+00 -0.00000000000E+00 -0.45593999997E+02  0.45594000000E+02  0.51100000000E-03 0. -1.
    9900012    2    1    2    0    0 -0.63171379940E+00  0.97401763801E+00 -0.21235225333E+00  0.90007802490E+02  0.90000064683E+02 0.  0.
        -12    1    1    2    0    0  0.63171379940E+00 -0.97401763801E+00  0.21235225333E+00  0.11801975102E+01  0.00000000000E+00 0.  1.
         11    1    3    3    0    0 -0.38265965117E+00  0.31223221264E+02 -0.23569424813E+02  0.39122292377E+02  0.51100000000E-03 0. -1.
        -11    1    3    3    0    0  0.96753886465E+01 -0.74111610649E-01 -0.24240121085E+01  0.99746916220E+01  0.51100000000E-03 0.  1.
        -12    1    3    3    0    0 -0.99244427947E+01 -0.30175092016E+02  0.25781084668E+02  0.40910818491E+02  0.00000000000E+00 0.  1.
</event>
<event>
 7    1  0.3743571E-015  0.9000777E+02  0.7816164E-02  0.1186339E+00
        -11   -1    0    0    0    0  0.00000000000E+00  0.00000000000E+00  0.45593999997E+02  0.45594000000E+02  0.51100000000E-03 0. -1.
         11   -1    0    0    0    0 -0.00000000000E+00 -0.00000000000E+00 -0.45593999997E+02  0.45594000000E+02  0.51100000000E-03 0.  1.
    9900012    2    1    2    0    0 -0.97798823702E+00  0.37800270141E+00  0.54184887581E+00  0.90007768142E+02  0.90000029882E+02 0.  0.
        -12    1    1    2    0    0  0.97798823702E+00 -0.37800270141E+00 -0.54184887581E+00  0.11802318578E+01  0.00000000000E+00 0.  1.
         11    1    3    3    0    0  0.15971371154E+02 -0.18914458739E+00  0.35649698073E+02  0.39064324456E+02  0.51100000000E-03 0. -1.
        -11    1    3    3    0    0 -0.92890489739E+01  0.14096602586E+02 -0.59506835284E+01  0.17900035476E+02  0.51100000000E-03 0.  1.
        -12    1    3    3    0    0 -0.76603104171E+01 -0.13529455297E+02 -0.29157165669E+02  0.33043408211E+02  0.00000000000E+00 0.  1.
</event>
<event>
 7    1  0.3743571E-015  0.9000788E+02  0.7816164E-02  0.1186339E+00
        -11   -1    0    0    0    0  0.00000000000E+00  0.00000000000E+00  0.45593999997E+02  0.45594000000E+02  0.51100000000E-03 0. -1.
         11   -1    0    0    0    0 -0.00000000000E+00 -0.00000000000E+00 -0.45593999997E+02  0.45594000000E+02  0.51100000000E-03 0.  1.
    9900012    2    1    2    0    0 -0.59069221164E+00  0.81740035912E+00 -0.61288791074E+00  0.90007876181E+02  0.90000139347E+02 0.  0.
        -12    1    1    2    0    0  0.59069221164E+00 -0.81740035912E+00  0.61288791074E+00  0.11801238185E+01  0.00000000000E+00 0.  1.
         11    1    3    3    0    0  0.77020779751E+01  0.83481547752E+01 -0.34421677124E+01  0.11868538752E+02  0.51100000000E-03 0. -1.
        -11    1    3    3    0    0  0.12771616986E+01 -0.36019126392E+02 -0.19238074644E+02  0.40854768686E+02  0.51100000000E-03 0.  1.
         12    1    3    3    0    0 -0.95699318853E+01  0.28488371976E+02  0.22067354446E+02  0.37284568744E+02  0.00000000000E+00 0. -1.
</event>
<event>
 7    1  0.3743571E-015  0.9000783E+02  0.7816164E-02  0.1186339E+00
        -11   -1    0    0    0    0  0.00000000000E+00  0.00000000000E+00  0.45593999997E+02  0.45594000000E+02  0.51100000000E-03 0.  1.
         11   -1    0    0    0    0 -0.00000000000E+00 -0.00000000000E+00 -0.45593999997E+02  0.45594000000E+02  0.51100000000E-03 0. -1.
    9900012    2    1    2    0    0 -0.23577198324E+00 -0.11507764980E+01  0.11372726455E+00  0.90007826764E+02  0.90000089277E+02 0.  0.
        -12    1    1    2    0    0  0.23577198324E+00  0.11507764980E+01 -0.11372726455E+00  0.11801732361E+01  0.00000000000E+00 0.  1.
         11    1    3    3    0    0  0.89047025666E+01  0.37233771850E+02 -0.69050969571E+00  0.38290002584E+02  0.51100000000E-03 0. -1.
        -11    1    3    3    0    0 -0.77742216122E+01  0.43728713120E+01 -0.29352814530E+00  0.89244991019E+01  0.51100000000E-03 0.  1.
        -12    1    3    3    0    0 -0.13662529376E+01 -0.42757419660E+02  0.10977651056E+01  0.42793325078E+02  0.00000000000E+00 0.  1.
</event>
<event>
 7    1  0.3743571E-015  0.9000764E+02  0.7816164E-02  0.1186339E+00
        -11   -1    0    0    0    0  0.00000000000E+00  0.00000000000E+00  0.45593999997E+02  0.45594000000E+02  0.51100000000E-03 0.  1.
         11   -1    0    0    0    0 -0.00000000000E+00 -0.00000000000E+00 -0.45593999997E+02  0.45594000000E+02  0.51100000000E-03 0. -1.
    9900012    2    1    2    0    0  0.57790403535E+00  0.92694803144E+00  0.44726894640E+00  0.90007637667E+02  0.89999897684E+02 0.  0.
        -12    1    1    2    0    0 -0.57790403535E+00 -0.92694803144E+00 -0.44726894640E+00  0.11803623331E+01  0.00000000000E+00 0.  1.
         11    1    3    3    0    0 -0.77810395003E+01 -0.83248031176E+01  0.55311795535E+01  0.12666525576E+02  0.51100000000E-03 0. -1.
        -11    1    3    3    0    0  0.11418723108E+02  0.35627598589E+01  0.34871966076E+02  0.36866441562E+02  0.51100000000E-03 0.  1.
         12    1    3    3    0    0 -0.30597795723E+01  0.56889912901E+01 -0.39955876683E+02  0.40474670529E+02  0.00000000000E+00 0. -1.
</event>
<event>
 7    1  0.3743571E-015  0.9000778E+02  0.7816164E-02  0.1186339E+00
        -11   -1    0    0    0    0  0.00000000000E+00  0.00000000000E+00  0.45593999997E+02  0.45594000000E+02  0.51100000000E-03 0.  1.
         11   -1    0    0    0    0 -0.00000000000E+00 -0.00000000000E+00 -0.45593999997E+02  0.45594000000E+02  0.51100000000E-03 0. -1.
    9900012    2    1    2    0    0  0.35217032636E+00 -0.95686660115E+00 -0.59439094692E+00  0.90007780432E+02  0.90000042334E+02 0.  0.
        -12    1    1    2    0    0 -0.35217032636E+00  0.95686660115E+00  0.59439094692E+00  0.11802195681E+01  0.00000000000E+00 0.  1.
         11    1    3    3    0    0 -0.46300846680E+00  0.22516767558E+02 -0.31087998273E+02  0.38388576881E+02  0.51100000000E-03 0. -1.
        -11    1    3    3    0    0 -0.24288521560E+01  0.64149393752E+01 -0.22003241483E+01  0.72036238520E+01  0.51100000000E-03 0.  1.
        -12    1    3    3    0    0  0.32440309492E+01 -0.29888573534E+02  0.32693931475E+02  0.44415579698E+02  0.00000000000E+00 0.  1.
</event>
<event>
 7    1  0.3743571E-015  0.9000791E+02  0.7816164E-02  0.1186339E+00
        -11   -1    0    0    0    0  0.00000000000E+00  0.00000000000E+00  0.45593999997E+02  0.45594000000E+02  0.51100000000E-03 0.  1.
         11   -1    0    0    0    0 -0.00000000000E+00 -0.00000000000E+00 -0.45593999997E+02  0.45594000000E+02  0.51100000000E-03 0. -1.
    9900012    2    1    2    0    0  0.48108416702E+00  0.27519441868E+00 -0.10418425388E+01  0.90007911097E+02  0.90000174723E+02 0.  0.
        -12    1    1    2    0    0 -0.48108416702E+00 -0.27519441868E+00  0.10418425388E+01  0.11800889033E+01  0.00000000000E+00 0.  1.
         11    1    3    3    0    0 -0.85638439388E+00 -0.59096191713E+00  0.75113963832E+01  0.75831198134E+01  0.51100000000E-03 0. -1.
        -11    1    3    3    0    0 -0.32917624736E+02  0.23496633552E+02  0.21301751442E+00  0.40443876956E+02  0.51100000000E-03 0.  1.
         12    1    3    3    0    0  0.34255093297E+02 -0.22630477217E+02 -0.87662564365E+01  0.41980914327E+02  0.00000000000E+00 0. -1.
</event>
<event>
 7    1  0.3743571E-015  0.9000773E+02  0.7816164E-02  0.1186339E+00
        -11   -1    0    0    0    0  0.00000000000E+00  0.00000000000E+00  0.45593999997E+02  0.45594000000E+02  0.51100000000E-03 0. -1.
         11   -1    0    0    0    0 -0.00000000000E+00 -0.00000000000E+00 -0.45593999997E+02  0.45594000000E+02  0.51100000000E-03 0.  1.
    9900012    2    1    2    0    0 -0.67644749676E+00  0.44450193865E+00  0.85899538407E+00  0.90007730429E+02  0.89999991671E+02 0.  0.
        -12    1    1    2    0    0  0.67644749676E+00 -0.44450193865E+00 -0.85899538407E+00  0.11802695706E+01  0.00000000000E+00 0.  1.
         11    1    3    3    0    0 -0.33030276079E+01 -0.74012214087E+01 -0.77054153159E+01  0.11183089697E+02  0.51100000000E-03 0. -1.
        -11    1    3    3    0    0  0.28813261954E+02 -0.13686106688E+02 -0.17202892460E+02  0.36241593369E+02  0.51100000000E-03 0.  1.
         12    1    3    3    0    0 -0.26186681843E+02  0.21531830035E+02  0.25767303160E+02  0.42583047363E+02  0.00000000000E+00 0. -1.
</event>
<event>
 7    1  0.3743571E-015  0.9000780E+02  0.7816164E-02  0.1186339E+00
        -11   -1    0    0    0    0  0.00000000000E+00  0.00000000000E+00  0.45593999997E+02  0.45594000000E+02  0.51100000000E-03 0.  1.
         11   -1    0    0    0    0 -0.00000000000E+00 -0.00000000000E+00 -0.45593999997E+02  0.45594000000E+02  0.51100000000E-03 0. -1.
    9900012    2    1    2    0    0  0.58083416534E+00  0.91073549322E+00  0.47547301123E+00  0.90007795759E+02  0.90000057863E+02 0.  0.
        -12    1    1    2    0    0 -0.58083416534E+00 -0.91073549322E+00 -0.47547301123E+00  0.11802042411E+01  0.00000000000E+00 0.  1.
         11    1    3    3    0    0 -0.57296260148E+01  0.24514322809E+01 -0.62609734147E+01  0.88339075645E+01  0.51100000000E-03 0. -1.
        -11    1    3    3    0    0  0.13119875812E+02 -0.38406463497E+02 -0.71206974658E+01  0.41205484008E+02  0.51100000000E-03 0.  1.
         12    1    3    3    0    0 -0.68094156317E+01  0.36865766710E+02  0.13857143892E+02  0.39968404186E+02  0.00000000000E+00 0. -1.
</event>
<event>
 7    1  0.3743571E-015  0.9000771E+02  0.7816164E-02  0.1186339E+00
        -11   -1    0    0    0    0  0.00000000000E+00  0.00000000000E+00  0.45593999997E+02  0.45594000000E+02  0.51100000000E-03 0. -1.
         11   -1    0    0    0    0 -0.00000000000E+00 -0.00000000000E+00 -0.45593999997E+02  0.45594000000E+02  0.51100000000E-03 0.  1.
    9900012    2    1    2    0    0 -0.11682990355E-01  0.11793064850E+01 -0.46613206466E-01  0.90007714836E+02  0.89999975872E+02 0.  0.
        -12    1    1    2    0    0  0.11682990355E-01 -0.11793064850E+01  0.46613206466E-01  0.11802851642E+01  0.00000000000E+00 0.  1.
         11    1    3    3    0    0 -0.40472515629E+01  0.23616692706E+01 -0.64257938615E+01  0.79528959486E+01  0.51100000000E-03 0. -1.
        -11    1    3    3    0    0  0.26826431585E+02  0.19809966607E+02 -0.22070154478E+02  0.39989797793E+02  0.51100000000E-03 0.  1.
         12    1    3    3    0    0 -0.22790863013E+02 -0.20992329392E+02  0.28449335133E+02  0.42065021095E+02  0.00000000000E+00 0. -1.
</event>
<event>
 7    1  0.3743571E-015  0.9000768E+02  0.7816164E-02  0.1186339E+00
        -11   -1    0    0    0    0  0.00000000000E+00  0.00000000000E+00  0.45593999997E+02  0.45594000000E+02  0.51100000000E-03 0.  1.
         11   -1    0    0    0    0 -0.00000000000E+00 -0.00000000000E+00 -0.45593999997E+02  0.45594000000E+02  0.51100000000E-03 0. -1.
    9900012    2    1    2    0    0 -0.83676596364E-01  0.48728596437E+00 -0.10717735275E+01  0.90007683145E+02  0.89999943763E+02 0.  0.
        -12    1    1    2    0    0  0.83676596364E-01 -0.48728596437E+00  0.10717735275E+01  0.11803168550E+01  0.00000000000E+00 0.  1.
         11    1    3    3    0    0  0.33854634501E+01 -0.16872770660E+02 -0.33944592838E+02  0.38057681692E+02  0.51100000000E-03 0. -1.
        -11    1    3    3    0    0 -0.12723227503E+01 -0.77327271307E+01 -0.27640629898E+01  0.83098687433E+01  0.51100000000E-03 0.  1.
        -12    1    3    3    0    0 -0.21968172961E+01  0.25092783755E+02  0.35636882301E+02  0.43640132710E+02  0.00000000000E+00 0.  1.
</event>
<event>
 7    1  0.3743571E-015  0.9000786E+02  0.7816164E-02  0.1186339E+00
        -11   -1    0    0    0    0  0.00000000000E+00  0.00000000000E+00  0.45593999997E+02  0.45594000000E+02  0.51100000000E-03 0.  1.
         11   -1    0    0    0    0 -0.00000000000E+00 -0.00000000000E+00 -0.45593999997E+02  0.45594000000E+02  0.51100000000E-03 0. -1.
    9900012    2    1    2    0    0  0.22711992310E+00  0.62944453150E+00 -0.97207773363E+00  0.90007864839E+02  0.90000127855E+02 0.  0.
        -12    1    1    2    0    0 -0.22711992310E+00 -0.62944453150E+00  0.97207773363E+00  0.11801351609E+01  0.00000000000E+00 0.  1.
         11    1    3    3    0    0  0.78215560824E+01 -0.12620340557E+01  0.49507908435E+01  0.93423658537E+01  0.51100000000E-03 0. -1.
        -11    1    3    3    0    0  0.13735125244E+01 -0.16624441044E+02  0.32810450498E+02  0.36807393806E+02  0.51100000000E-03 0.  1.
         12    1    3    3    0    0 -0.89679486837E+01  0.18515919631E+02 -0.38733319075E+02  0.43858105179E+02  0.00000000000E+00 0. -1.
</event>
<event>
 7    1  0.3743571E-015  0.9000773E+02  0.7816164E-02  0.1186339E+00
        -11   -1    0    0    0    0  0.00000000000E+00  0.00000000000E+00  0.45593999997E+02  0.45594000000E+02  0.51100000000E-03 0. -1.
         11   -1    0    0    0    0 -0.00000000000E+00 -0.00000000000E+00 -0.45593999997E+02  0.45594000000E+02  0.51100000000E-03 0.  1.
    9900012    2    1    2    0    0 -0.36210611145E+00  0.13440649269E+00  0.11152782266E+01  0.90007732461E+02  0.89999993729E+02 0.  0.
        -12    1    1    2    0    0  0.36210611145E+00 -0.13440649269E+00 -0.11152782266E+01  0.11802675391E+01  0.00000000000E+00 0.  1.
         11    1    3    3    0    0 -0.24661754923E+01  0.73176239505E+01  0.19259630812E+02  0.20750012557E+02  0.51100000000E-03 0. -1.
        -11    1    3    3    0    0  0.32459644006E+02 -0.14197104304E+02 -0.66355532294E+01  0.36044650456E+02  0.51100000000E-03 0.  1.
         12    1    3    3    0    0 -0.30355574625E+02  0.70138868462E+01 -0.11508799356E+02  0.33213069447E+02  0.00000000000E+00 0. -1.
</event>
<event>
 7    1  0.3743571E-015  0.9000759E+02  0.7816164E-02  0.1186339E+00
        -11   -1    0    0    0    0  0.00000000000E+00  0.00000000000E+00  0.45593999997E+02  0.45594000000E+02  0.51100000000E-03 0. -1.
         11   -1    0    0    0    0 -0.00000000000E+00 -0.00000000000E+00 -0.45593999997E+02  0.45594000000E+02  0.51100000000E-03 0.  1.
    9900012    2    1    2    0    0 -0.13833218420E+00  0.49244208123E+00  0.10638307341E+01  0.90007588704E+02  0.89999848075E+02 0.  0.
        -12    1    1    2    0    0  0.13833218420E+00 -0.49244208123E+00 -0.10638307341E+01  0.11804112958E+01  0.00000000000E+00 0.  1.
         11    1    3    3    0    0 -0.30959077751E+02  0.17186646843E+02 -0.99648128063E+01  0.36785089634E+02  0.51100000000E-03 0. -1.
        -11    1    3    3    0    0 -0.12680843187E+01  0.30809450725E+01  0.14958790214E+02  0.15325327576E+02  0.51100000000E-03 0.  1.
        -12    1    3    3    0    0  0.32088829885E+02 -0.19775149835E+02 -0.39301466734E+01  0.37897171494E+02  0.00000000000E+00 0.  1.
</event>
<event>
 7    1  0.3743571E-015  0.9000735E+02  0.7816164E-02  0.1186340E+00
        -11   -1    0    0    0    0  0.00000000000E+00  0.00000000000E+00  0.45593999997E+02  0.45594000000E+02  0.51100000000E-03 0. -1.
         11   -1    0    0    0    0 -0.00000000000E+00 -0.00000000000E+00 -0.45593999997E+02  0.45594000000E+02  0.51100000000E-03 0.  1.
    9900012    2    1    2    0    0  0.55347950186E+00  0.95514784759E+00  0.41866713551E+00  0.90007352237E+02  0.89999608486E+02 0.  0.
        -12    1    1    2    0    0 -0.55347950186E+00 -0.95514784759E+00 -0.41866713551E+00  0.11806477629E+01  0.00000000000E+00 0.  1.
         11    1    3    3    0    0  0.18113542488E+02 -0.21738625484E+02 -0.23436544684E+02  0.36741528089E+02  0.51100000000E-03 0. -1.
        -11    1    3    3    0    0  0.31281940140E+01  0.14330606932E+01 -0.86198073034E+01  0.92811819802E+01  0.51100000000E-03 0.  1.
        -12    1    3    3    0    0 -0.20688257000E+02  0.21260712638E+02  0.32475019123E+02  0.43984642167E+02  0.00000000000E+00 0.  1.
</event>
<event>
 7    1  0.3743571E-015  0.9000767E+02  0.7816164E-02  0.1186339E+00
        -11   -1    0    0    0    0  0.00000000000E+00  0.00000000000E+00  0.45593999997E+02  0.45594000000E+02  0.51100000000E-03 0. -1.
         11   -1    0    0    0    0 -0.00000000000E+00 -0.00000000000E+00 -0.45593999997E+02  0.45594000000E+02  0.51100000000E-03 0.  1.
    9900012    2    1    2    0    0 -0.82272375188E+00 -0.84631985778E+00  0.64778223578E-02  0.90007672234E+02  0.89999932707E+02 0.  0.
        -12    1    1    2    0    0  0.82272375188E+00  0.84631985778E+00 -0.64778223578E-02  0.11803277662E+01  0.00000000000E+00 0.  1.
         11    1    3    3    0    0  0.81444373327E+01 -0.49227943474E+01  0.93285937296E+00  0.95622168206E+01  0.51100000000E-03 0. -1.
        -11    1    3    3    0    0  0.10763139074E+02  0.33034069930E+02 -0.20468254503E+02  0.40324240619E+02  0.51100000000E-03 0.  1.
         12    1    3    3    0    0 -0.19730300159E+02 -0.28957595440E+02  0.19541872953E+02  0.40121214794E+02  0.00000000000E+00 0. -1.
</event>
<event>
 7    1  0.3743571E-015  0.9000732E+02  0.7816164E-02  0.1186340E+00
        -11   -1    0    0    0    0  0.00000000000E+00  0.00000000000E+00  0.45593999997E+02  0.45594000000E+02  0.51100000000E-03 0.  1.
         11   -1    0    0    0    0 -0.00000000000E+00 -0.00000000000E+00 -0.45593999997E+02  0.45594000000E+02  0.51100000000E-03 0. -1.
    9900012    2    1    2    0    0 -0.94272734931E+00  0.39099159563E+00 -0.59362625357E+00  0.90007321631E+02  0.89999577475E+02 0.  0.
        -12    1    1    2    0    0  0.94272734931E+00 -0.39099159563E+00  0.59362625357E+00  0.11806783694E+01  0.00000000000E+00 0.  1.
         11    1    3    3    0    0  0.87914198800E+01 -0.57990720207E+01 -0.71781882285E+01  0.12745379018E+02  0.51100000000E-03 0. -1.
        -11    1    3    3    0    0 -0.13422077869E+02 -0.30121844142E+02  0.19776459742E+02  0.38452386519E+02  0.51100000000E-03 0.  1.
         12    1    3    3    0    0  0.36879306397E+01  0.36311907759E+02 -0.13191897767E+02  0.38809556093E+02  0.00000000000E+00 0. -1.
</event>
<event>
 7    1  0.3743571E-015  0.9000765E+02  0.7816164E-02  0.1186339E+00
        -11   -1    0    0    0    0  0.00000000000E+00  0.00000000000E+00  0.45593999997E+02  0.45594000000E+02  0.51100000000E-03 0. -1.
         11   -1    0    0    0    0 -0.00000000000E+00 -0.00000000000E+00 -0.45593999997E+02  0.45594000000E+02  0.51100000000E-03 0.  1.
    9900012    2    1    2    0    0  0.11152995257E+01  0.21103352274E+00  0.32371570507E+00  0.90007652578E+02  0.89999912792E+02 0.  0.
        -12    1    1    2    0    0 -0.11152995257E+01 -0.21103352274E+00 -0.32371570507E+00  0.11803474224E+01  0.00000000000E+00 0.  1.
         11    1    3    3    0    0  0.14413653100E+02 -0.85997665060E+01  0.27552248101E+02  0.32261986227E+02  0.51100000000E-03 0. -1.
        -11    1    3    3    0    0  0.14713517915E+02  0.14753200861E+02 -0.48242641732E+01  0.21387334340E+02  0.51100000000E-03 0.  1.
        -12    1    3    3    0    0 -0.28011871490E+02 -0.59424008322E+01 -0.22404268223E+02  0.36358332011E+02  0.00000000000E+00 0.  1.
</event>
<event>
 7    1  0.3743571E-015  0.9000773E+02  0.7816164E-02  0.1186339E+00
        -11   -1    0    0    0    0  0.00000000000E+00  0.00000000000E+00  0.45593999997E+02  0.45594000000E+02  0.51100000000E-03 0. -1.
         11   -1    0    0    0    0 -0.00000000000E+00 -0.00000000000E+00 -0.45593999997E+02  0.45594000000E+02  0.51100000000E-03 0.  1.
    9900012    2    1    2    0    0 -0.53204118009E+00 -0.26660723940E-01  0.10532178056E+01  0.90007726151E+02  0.89999987337E+02 0.  0.
        -12    1    1    2    0    0  0.53204118009E+00  0.26660723940E-01 -0.10532178056E+01  0.11802738485E+01  0.00000000000E+00 0.  1.
         11    1    3    3    0    0 -0.91443458415E+01 -0.17793575509E+01 -0.27047887379E+01  0.97005699080E+01  0.51100000000E-03 0. -1.
        -11    1    3    3    0    0 -0.13206236160E+02  0.99165214240E+01 -0.32935005460E+02  0.36843678638E+02  0.51100000000E-03 0.  1.
         12    1    3    3    0    0  0.21818540821E+02 -0.81638245970E+01  0.36693012004E+02  0.43463477605E+02  0.00000000000E+00 0. -1.
</event>
<event>
 7    1  0.3743571E-015  0.9000777E+02  0.7816164E-02  0.1186339E+00
        -11   -1    0    0    0    0  0.00000000000E+00  0.00000000000E+00  0.45593999997E+02  0.45594000000E+02  0.51100000000E-03 0. -1.
         11   -1    0    0    0    0 -0.00000000000E+00 -0.00000000000E+00 -0.45593999997E+02  0.45594000000E+02  0.51100000000E-03 0.  1.
    9900012    2    1    2    0    0  0.59424662943E+00  0.15094435704E+00  0.10084781053E+01  0.90007770639E+02  0.90000032412E+02 0.  0.
        -12    1    1    2    0    0 -0.59424662943E+00 -0.15094435704E+00 -0.10084781053E+01  0.11802293609E+01  0.00000000000E+00 0.  1.
         11    1    3    3    0    0 -0.50943577360E+01 -0.61603298865E+01 -0.94525327595E+01  0.12379520220E+02  0.51100000000E-03 0. -1.
        -11    1    3    3    0    0 -0.23764492599E+02  0.30099904154E+02  0.33114232301E-02  0.38350428287E+02  0.51100000000E-03 0.  1.
         12    1    3    3    0    0  0.29453096964E+02 -0.23788629911E+02  0.10457699442E+02  0.39277822132E+02  0.00000000000E+00 0. -1.
</event>
<event>
 7    1  0.3743571E-015  0.9000767E+02  0.7816164E-02  0.1186339E+00
        -11   -1    0    0    0    0  0.00000000000E+00  0.00000000000E+00  0.45593999997E+02  0.45594000000E+02  0.51100000000E-03 0. -1.
         11   -1    0    0    0    0 -0.00000000000E+00 -0.00000000000E+00 -0.45593999997E+02  0.45594000000E+02  0.51100000000E-03 0.  1.
    9900012    2    1    2    0    0 -0.42561375179E+00 -0.10962270221E+01 -0.10157026028E+00  0.90007670695E+02  0.89999931148E+02 0.  0.
        -12    1    1    2    0    0  0.42561375179E+00  0.10962270221E+01  0.10157026028E+00  0.11803293047E+01  0.00000000000E+00 0.  1.
         11    1    3    3    0    0  0.49092375454E+01 -0.34857343264E+02 -0.15650923639E+02  0.38523842017E+02  0.51100000000E-03 0. -1.
        -11    1    3    3    0    0 -0.44004078670E+01  0.96156149147E-01 -0.88581642339E+01  0.98914058281E+01  0.51100000000E-03 0.  1.
        -12    1    3    3    0    0 -0.93444343024E+00  0.33664960093E+02  0.24407517613E+02  0.41592422851E+02  0.00000000000E+00 0.  1.
</event>
<event>
 7    1  0.3743571E-015  0.9000774E+02  0.7816164E-02  0.1186339E+00
        -11   -1    0    0    0    0  0.00000000000E+00  0.00000000000E+00  0.45593999997E+02  0.45594000000E+02  0.51100000000E-03 0. -1.
         11   -1    0    0    0    0 -0.00000000000E+00 -0.00000000000E+00 -0.45593999997E+02  0.45594000000E+02  0.51100000000E-03 0.  1.
    9900012    2    1    2    0    0  0.95284728469E+00 -0.18007913236E+00  0.67279783612E+00  0.90007744362E+02  0.90000005788E+02 0.  0.
        -12    1    1    2    0    0 -0.95284728469E+00  0.18007913236E+00 -0.67279783612E+00  0.11802556376E+01  0.00000000000E+00 0.  1.
         11    1    3    3    0    0 -0.10141166572E+02  0.17087865218E+01 -0.29698324651E+00  0.10288411448E+02  0.51100000000E-03 0. -1.
        -11    1    3    3    0    0  0.11931469788E+02  0.37581826179E+02 -0.51605773627E+01  0.39766634120E+02  0.51100000000E-03 0.  1.
         12    1    3    3    0    0 -0.83745593199E+00 -0.39470691834E+02  0.61303584453E+01  0.39952698794E+02  0.00000000000E+00 0. -1.
</event>
<event>
 7    1  0.3743571E-015  0.9000776E+02  0.7816164E-02  0.1186339E+00
        -11   -1    0    0    0    0  0.00000000000E+00  0.00000000000E+00  0.45593999997E+02  0.45594000000E+02  0.51100000000E-03 0.  1.
         11   -1    0    0    0    0 -0.00000000000E+00 -0.00000000000E+00 -0.45593999997E+02  0.45594000000E+02  0.51100000000E-03 0. -1.
    9900012    2    1    2    0    0  0.73400895677E+00  0.92368331360E+00 -0.31703036030E-01  0.90007760577E+02  0.90000022217E+02 0.  0.
        -12    1    1    2    0    0 -0.73400895677E+00 -0.92368331360E+00  0.31703036030E-01  0.11802394227E+01  0.00000000000E+00 0.  1.
         11    1    3    3    0    0 -0.20995094873E+02 -0.19507756178E+02  0.24224405951E+02  0.37525569999E+02  0.51100000000E-03 0. -1.
        -11    1    3    3    0    0  0.85665836146E+01  0.48315297939E+01  0.90852774291E+01  0.13389260667E+02  0.51100000000E-03 0.  1.
        -12    1    3    3    0    0  0.13162520215E+02  0.15599909698E+02 -0.33341386416E+02  0.39092929912E+02  0.00000000000E+00 0.  1.
</event>
<event>
 7    1  0.3743571E-015  0.9000774E+02  0.7816164E-02  0.1186339E+00
        -11   -1    0    0    0    0  0.00000000000E+00  0.00000000000E+00  0.45593999997E+02  0.45594000000E+02  0.51100000000E-03 0. -1.
         11   -1    0    0    0    0 -0.00000000000E+00 -0.00000000000E+00 -0.45593999997E+02  0.45594000000E+02  0.51100000000E-03 0.  1.
    9900012    2    1    2    0    0 -0.25476387771E-01 -0.10283964720E+01  0.57858508093E+00  0.90007741958E+02  0.90000003352E+02 0.  0.
        -12    1    1    2    0    0  0.25476387771E-01  0.10283964720E+01 -0.57858508093E+00  0.11802580421E+01  0.00000000000E+00 0.  1.
         11    1    3    3    0    0  0.48537863901E+01  0.19237020921E+02  0.28560366781E+02  0.34775232094E+02  0.51100000000E-03 0. -1.
        -11    1    3    3    0    0 -0.30508808453E+00  0.19031823012E+01  0.10452093721E+02  0.10628332185E+02  0.51100000000E-03 0.  1.
        -12    1    3    3    0    0 -0.45741746934E+01 -0.22168599694E+02 -0.38433875422E+02  0.44604177679E+02  0.00000000000E+00 0.  1.
</event>
<event>
 7    1  0.3743571E-015  0.9000720E+02  0.7816164E-02  0.1186340E+00
        -11   -1    0    0    0    0  0.00000000000E+00  0.00000000000E+00  0.45593999997E+02  0.45594000000E+02  0.51100000000E-03 0. -1.
         11   -1    0    0    0    0 -0.00000000000E+00 -0.00000000000E+00 -0.45593999997E+02  0.45594000000E+02  0.51100000000E-03 0.  1.
    9900012    2    1    2    0    0  0.97192075055E+00  0.67042943639E+00 -0.13769490683E-01  0.90007197233E+02  0.89999451435E+02 0.  0.
        -12    1    1    2    0    0 -0.97192075055E+00 -0.67042943639E+00  0.13769490683E-01  0.11808027665E+01  0.00000000000E+00 0.  1.
         11    1    3    3    0    0  0.68769864105E+01 -0.94579376202E+01  0.21094339505E+01  0.11882560245E+02  0.51100000000E-03 0. -1.
        -11    1    3    3    0    0  0.11013747904E+02 -0.22251258632E+02 -0.24827011221E+02  0.35111275113E+02  0.51100000000E-03 0.  1.
         12    1    3    3    0    0 -0.16918813564E+02  0.32379625689E+02  0.22703807780E+02  0.43013361876E+02  0.00000000000E+00 0. -1.
</event>
<event>
 7    1  0.3743571E-015  0.9000777E+02  0.7816164E-02  0.1186339E+00
        -11   -1    0    0    0    0  0.00000000000E+00  0.00000000000E+00  0.45593999997E+02  0.45594000000E+02  0.51100000000E-03 0. -1.
         11   -1    0    0    0    0 -0.00000000000E+00 -0.00000000000E+00 -0.45593999997E+02  0.45594000000E+02  0.51100000000E-03 0.  1.
    9900012    2    1    2    0    0 -0.11759037706E+01  0.33740636424E-01  0.95178682731E-01  0.90007768205E+02  0.90000029945E+02 0.  0.
        -12    1    1    2    0    0  0.11759037706E+01 -0.33740636424E-01 -0.95178682731E-01  0.11802317950E+01  0.00000000000E+00 0.  1.
         11    1    3    3    0    0  0.30051172921E+01 -0.50178500313E+01 -0.79093209130E+01  0.98370171517E+01  0.51100000000E-03 0. -1.
        -11    1    3    3    0    0 -0.22807752063E+02 -0.28826838806E+02  0.16965158716E+02  0.40484525442E+02  0.51100000000E-03 0.  1.
         12    1    3    3    0    0  0.18626731001E+02  0.33878429474E+02 -0.89606591203E+01  0.39686225611E+02  0.00000000000E+00 0. -1.
</event>
<event>
 7    1  0.3743571E-015  0.9000732E+02  0.7816164E-02  0.1186340E+00
        -11   -1    0    0    0    0  0.00000000000E+00  0.00000000000E+00  0.45593999997E+02  0.45594000000E+02  0.51100000000E-03 0. -1.
         11   -1    0    0    0    0 -0.00000000000E+00 -0.00000000000E+00 -0.45593999997E+02  0.45594000000E+02  0.51100000000E-03 0.  1.
    9900012    2    1    2    0    0  0.15641009685E+00  0.27122188162E+00  0.11384104352E+01  0.90007320642E+02  0.89999576473E+02 0.  0.
        -12    1    1    2    0    0 -0.15641009685E+00 -0.27122188162E+00 -0.11384104352E+01  0.11806793580E+01  0.00000000000E+00 0.  1.
         11    1    3    3    0    0  0.58879958611E+01 -0.59845461444E+01 -0.13132870001E+01  0.84975296893E+01  0.51100000000E-03 0. -1.
        -11    1    3    3    0    0  0.27147542836E+02  0.21125826370E+02  0.21640289056E+02  0.40639780174E+02  0.51100000000E-03 0.  1.
         12    1    3    3    0    0 -0.32879128601E+02 -0.14870058344E+02 -0.19188591621E+02  0.40870010779E+02  0.00000000000E+00 0. -1.
</event>
<event>
 7    1  0.5047745E-015  0.9000774E+02  0.7816164E-02  0.1186339E+00
        -11   -1    0    0    0    0  0.00000000000E+00  0.00000000000E+00  0.45593999997E+02  0.45594000000E+02  0.51100000000E-03 0. -1.
         11   -1    0    0    0    0 -0.00000000000E+00 -0.00000000000E+00 -0.45593999997E+02  0.45594000000E+02  0.51100000000E-03 0.  1.
    9900012    2    1    2    0    0  0.65106357422E+00  0.78185690042E+00  0.59818256803E+00  0.90007743089E+02  0.90000004498E+02 0.  0.
        -12    1    1    2    0    0 -0.65106357422E+00 -0.78185690042E+00 -0.59818256803E+00  0.11802569106E+01  0.00000000000E+00 0.  1.
         11    1    3    3    0    0 -0.77707815629E+01  0.54357550000E+01 -0.56494434986E+00  0.95000863626E+01  0.51100000000E-03 0. -1.
        -11    1    3    3    0    0  0.85361775051E+01  0.18881126466E+02 -0.33033628303E+02  0.38994664534E+02  0.51100000000E-03 0.  1.
         12    1    3    3    0    0 -0.11433236796E+00 -0.23535024565E+02  0.34196755221E+02  0.41512992193E+02  0.00000000000E+00 0. -1.
</event>
<event>
 7    1  0.3743571E-015  0.9000777E+02  0.7816164E-02  0.1186339E+00
        -11   -1    0    0    0    0  0.00000000000E+00  0.00000000000E+00  0.45593999997E+02  0.45594000000E+02  0.51100000000E-03 0.  1.
         11   -1    0    0    0    0 -0.00000000000E+00 -0.00000000000E+00 -0.45593999997E+02  0.45594000000E+02  0.51100000000E-03 0. -1.
    9900012    2    1    2    0    0 -0.10000055366E+01  0.22961482665E+00 -0.58326998024E+00  0.90007772093E+02  0.90000033885E+02 0.  0.
        -12    1    1    2    0    0  0.10000055366E+01 -0.22961482665E+00  0.58326998024E+00  0.11802279067E+01  0.00000000000E+00 0.  1.
         11    1    3    3    0    0 -0.30308302029E+02 -0.22506416614E+02 -0.79837225376E-01  0.37751004423E+02  0.51100000000E-03 0. -1.
        -11    1    3    3    0    0  0.10460262057E+02  0.30642099328E+00 -0.15996251013E+02  0.19115203971E+02  0.51100000000E-03 0.  1.
        -12    1    3    3    0    0  0.18848034436E+02  0.22429610447E+02  0.15492818258E+02  0.33141563700E+02  0.00000000000E+00 0.  1.
</event>
<event>
 7    1  0.3743571E-015  0.9000770E+02  0.7816164E-02  0.1186339E+00
        -11   -1    0    0    0    0  0.00000000000E+00  0.00000000000E+00  0.45593999997E+02  0.45594000000E+02  0.51100000000E-03 0.  1.
         11   -1    0    0    0    0 -0.00000000000E+00 -0.00000000000E+00 -0.45593999997E+02  0.45594000000E+02  0.51100000000E-03 0. -1.
    9900012    2    1    2    0    0 -0.52813739253E-01 -0.89368647800E+00 -0.76918735963E+00  0.90007697494E+02  0.89999958301E+02 0.  0.
        -12    1    1    2    0    0  0.52813739253E-01  0.89368647800E+00  0.76918735963E+00  0.11803025062E+01  0.00000000000E+00 0.  1.
         11    1    3    3    0    0 -0.35562669914E+02  0.16780148908E+00 -0.60313902165E+01  0.36070892932E+02  0.51100000000E-03 0. -1.
        -11    1    3    3    0    0 -0.50891824213E+01 -0.10734107234E+02  0.22694573385E+01  0.12094266109E+02  0.51100000000E-03 0.  1.
        -12    1    3    3    0    0  0.40599038596E+02  0.96726192674E+01  0.29927455184E+01  0.41842538452E+02  0.00000000000E+00 0.  1.
</event>
<event>
 7    1  0.3743571E-015  0.9000762E+02  0.7816164E-02  0.1186339E+00
        -11   -1    0    0    0    0  0.00000000000E+00  0.00000000000E+00  0.45593999997E+02  0.45594000000E+02  0.51100000000E-03 0. -1.
         11   -1    0    0    0    0 -0.00000000000E+00 -0.00000000000E+00 -0.45593999997E+02  0.45594000000E+02  0.51100000000E-03 0.  1.
    9900012    2    1    2    0    0  0.30785048324E+00  0.52587251475E+00  0.10109291821E+01  0.90007622250E+02  0.89999882064E+02 0.  0.
        -12    1    1    2    0    0 -0.30785048324E+00 -0.52587251475E+00 -0.10109291821E+01  0.11803777501E+01  0.00000000000E+00 0.  1.
         11    1    3    3    0    0  0.22726617503E+02 -0.11176595421E+02  0.28697634641E+02  0.38274922110E+02  0.51100000000E-03 0. -1.
        -11    1    3    3    0    0 -0.39951533619E+01  0.23808337537E+01  0.87176190434E+01  0.98806124201E+01  0.51100000000E-03 0.  1.
        -12    1    3    3    0    0 -0.18423613658E+02  0.93216341818E+01 -0.36404324502E+02  0.41852087719E+02  0.00000000000E+00 0.  1.
</event>
<event>
 7    1  0.3743571E-015  0.9000773E+02  0.7816164E-02  0.1186339E+00
        -11   -1    0    0    0    0  0.00000000000E+00  0.00000000000E+00  0.45593999997E+02  0.45594000000E+02  0.51100000000E-03 0.  1.
         11   -1    0    0    0    0 -0.00000000000E+00 -0.00000000000E+00 -0.45593999997E+02  0.45594000000E+02  0.51100000000E-03 0. -1.
    9900012    2    1    2    0    0 -0.83427481594E+00 -0.55094219877E+00 -0.62728867515E+00  0.90007727634E+02  0.89999988839E+02 0.  0.
        -12    1    1    2    0    0  0.83427481594E+00  0.55094219877E+00  0.62728867515E+00  0.11802723655E+01  0.00000000000E+00 0.  1.
         11    1    3    3    0    0  0.25036755472E+02  0.28565631864E+02  0.21025266069E+02  0.43415391993E+02  0.51100000000E-03 0. -1.
        -11    1    3    3    0    0  0.20934372017E+00 -0.58215066127E+01 -0.80576942851E+00  0.58807336845E+01  0.51100000000E-03 0.  1.
        -12    1    3    3    0    0 -0.26080374008E+02 -0.23295067450E+02 -0.20846785316E+02  0.40711601957E+02  0.00000000000E+00 0.  1.
</event>
<event>
 7    1  0.3743571E-015  0.9000770E+02  0.7816164E-02  0.1186339E+00
        -11   -1    0    0    0    0  0.00000000000E+00  0.00000000000E+00  0.45593999997E+02  0.45594000000E+02  0.51100000000E-03 0. -1.
         11   -1    0    0    0    0 -0.00000000000E+00 -0.00000000000E+00 -0.45593999997E+02  0.45594000000E+02  0.51100000000E-03 0.  1.
    9900012    2    1    2    0    0 -0.98259431860E-01  0.11881929171E+00  0.11701834959E+01  0.90007702430E+02  0.89999963302E+02 0.  0.
        -12    1    1    2    0    0  0.98259431860E-01 -0.11881929171E+00 -0.11701834959E+01  0.11802975701E+01  0.00000000000E+00 0.  1.
         11    1    3    3    0    0  0.31039259757E+02  0.51335065751E+00  0.23559658148E+02  0.38971228714E+02  0.51100000000E-03 0. -1.
        -11    1    3    3    0    0  0.20878692861E+01 -0.10044723217E+02 -0.88035386237E+00  0.10297120270E+02  0.51100000000E-03 0.  1.
        -12    1    3    3    0    0 -0.33225388475E+02  0.96501918516E+01 -0.21509120790E+02  0.40739353446E+02  0.00000000000E+00 0.  1.
</event>
<event>
 7    1  0.3743571E-015  0.9000781E+02  0.7816164E-02  0.1186339E+00
        -11   -1    0    0    0    0  0.00000000000E+00  0.00000000000E+00  0.45593999997E+02  0.45594000000E+02  0.51100000000E-03 0.  1.
         11   -1    0    0    0    0 -0.00000000000E+00 -0.00000000000E+00 -0.45593999997E+02  0.45594000000E+02  0.51100000000E-03 0. -1.
    9900012    2    1    2    0    0  0.42726470389E+00 -0.29986462636E+00 -0.10584770750E+01  0.90007810337E+02  0.90000072634E+02 0.  0.
        -12    1    1    2    0    0 -0.42726470389E+00  0.29986462636E+00  0.10584770750E+01  0.11801896626E+01  0.00000000000E+00 0.  1.
         11    1    3    3    0    0  0.22383081827E+01 -0.10039191253E+02 -0.20679506015E+01  0.10491511068E+02  0.51100000000E-03 0. -1.
        -11    1    3    3    0    0 -0.14777861468E+02 -0.16538198831E+02  0.30652426553E+02  0.37834752068E+02  0.51100000000E-03 0.  1.
         12    1    3    3    0    0  0.12966817989E+02  0.26277525458E+02 -0.29642953027E+02  0.41681547202E+02  0.00000000000E+00 0. -1.
</event>
<event>
 7    1  0.3743571E-015  0.9000780E+02  0.7816164E-02  0.1186339E+00
        -11   -1    0    0    0    0  0.00000000000E+00  0.00000000000E+00  0.45593999997E+02  0.45594000000E+02  0.51100000000E-03 0. -1.
         11   -1    0    0    0    0 -0.00000000000E+00 -0.00000000000E+00 -0.45593999997E+02  0.45594000000E+02  0.51100000000E-03 0.  1.
    9900012    2    1    2    0    0  0.11170837403E+01  0.13078454556E-01  0.38056170443E+00  0.90007799026E+02  0.90000061173E+02 0.  0.
        -12    1    1    2    0    0 -0.11170837403E+01 -0.13078454556E-01 -0.38056170443E+00  0.11802009743E+01  0.00000000000E+00 0.  1.
         11    1    3    3    0    0 -0.27426269336E+01 -0.88412615268E+01  0.36081383719E+01  0.99352187019E+01  0.51100000000E-03 0. -1.
        -11    1    3    3    0    0 -0.35920418712E+02  0.15883958701E+02 -0.52529695180E+01  0.39625374617E+02  0.51100000000E-03 0.  1.
         12    1    3    3    0    0  0.39780129386E+02 -0.70296187199E+01  0.20253928505E+01  0.40447205707E+02  0.00000000000E+00 0. -1.
</event>
<event>
 7    1  0.3743571E-015  0.9000766E+02  0.7816164E-02  0.1186339E+00
        -11   -1    0    0    0    0  0.00000000000E+00  0.00000000000E+00  0.45593999997E+02  0.45594000000E+02  0.51100000000E-03 0. -1.
         11   -1    0    0    0    0 -0.00000000000E+00 -0.00000000000E+00 -0.45593999997E+02  0.45594000000E+02  0.51100000000E-03 0.  1.
    9900012    2    1    2    0    0 -0.47819499842E+00 -0.68102497573E+00  0.83710487396E+00  0.90007656811E+02  0.89999917081E+02 0.  0.
        -12    1    1    2    0    0  0.47819499842E+00  0.68102497573E+00 -0.83710487396E+00  0.11803431891E+01  0.00000000000E+00 0.  1.
         11    1    3    3    0    0 -0.32692761596E+02  0.10618847484E+02 -0.93228693043E+01  0.35615901996E+02  0.51100000000E-03 0. -1.
        -11    1    3    3    0    0 -0.46787205109E+01 -0.71569090014E+01 -0.91681245776E+01  0.12536597649E+02  0.51100000000E-03 0.  1.
        -12    1    3    3    0    0  0.36893287109E+02 -0.41429634584E+01  0.19328098756E+02  0.41855157166E+02  0.00000000000E+00 0.  1.
</event>
<event>
 7    1  0.3743571E-015  0.9000784E+02  0.7816164E-02  0.1186339E+00
        -11   -1    0    0    0    0  0.00000000000E+00  0.00000000000E+00  0.45593999997E+02  0.45594000000E+02  0.51100000000E-03 0.  1.
         11   -1    0    0    0    0 -0.00000000000E+00 -0.00000000000E+00 -0.45593999997E+02  0.45594000000E+02  0.51100000000E-03 0. -1.
    9900012    2    1    2    0    0 -0.65900767302E+00 -0.76683364948E-01 -0.97601293572E+00  0.90007842086E+02  0.90000104801E+02 0.  0.
        -12    1    1    2    0    0  0.65900767302E+00  0.76683364948E-01  0.97601293572E+00  0.11801579141E+01  0.00000000000E+00 0.  1.
         11    1    3    3    0    0  0.80872938229E+00 -0.79677870322E+01 -0.43705036345E+01  0.91236492526E+01  0.51100000000E-03 0. -1.
        -11    1    3    3    0    0 -0.11436247433E+02 -0.30991245935E+02  0.18659490455E+02  0.37939710914E+02  0.51100000000E-03 0.  1.
         12    1    3    3    0    0  0.99685103780E+01  0.38882349602E+02 -0.15264999756E+02  0.42944481919E+02  0.00000000000E+00 0. -1.
</event>
<event>
 7    1  0.3743571E-015  0.9000767E+02  0.7816164E-02  0.1186339E+00
        -11   -1    0    0    0    0  0.00000000000E+00  0.00000000000E+00  0.45593999997E+02  0.45594000000E+02  0.51100000000E-03 0.  1.
         11   -1    0    0    0    0 -0.00000000000E+00 -0.00000000000E+00 -0.45593999997E+02  0.45594000000E+02  0.51100000000E-03 0. -1.
    9900012    2    1    2    0    0  0.30219114814E+00  0.65359862112E+00 -0.93523674810E+00  0.90007670206E+02  0.89999930653E+02 0.  0.
        -12    1    1    2    0    0 -0.30219114814E+00 -0.65359862112E+00  0.93523674810E+00  0.11803297940E+01  0.00000000000E+00 0.  1.
         11    1    3    3    0    0  0.63633678420E+01  0.37291930096E+02  0.64597625577E+01  0.38378497015E+02  0.51100000000E-03 0. -1.
        -11    1    3    3    0    0  0.83742774251E+01  0.10822639785E+01  0.44431437035E+01  0.95415587795E+01  0.51100000000E-03 0.  1.
        -12    1    3    3    0    0 -0.14435454119E+02 -0.37720595453E+02 -0.11838143009E+02  0.42087614412E+02  0.00000000000E+00 0.  1.
</event>
<event>
 7    1  0.3743571E-015  0.9000762E+02  0.7816164E-02  0.1186339E+00
        -11   -1    0    0    0    0  0.00000000000E+00  0.00000000000E+00  0.45593999997E+02  0.45594000000E+02  0.51100000000E-03 0. -1.
         11   -1    0    0    0    0 -0.00000000000E+00 -0.00000000000E+00 -0.45593999997E+02  0.45594000000E+02  0.51100000000E-03 0.  1.
    9900012    2    1    2    0    0  0.97237390497E-02  0.10555665543E+01 -0.52817886922E+00  0.90007623696E+02  0.89999883529E+02 0.  0.
        -12    1    1    2    0    0 -0.97237390497E-02 -0.10555665543E+01  0.52817886922E+00  0.11803763042E+01  0.00000000000E+00 0.  1.
         11    1    3    3    0    0  0.87909939092E+01 -0.30489154805E+02  0.23339275248E+02  0.39390251382E+02  0.51100000000E-03 0. -1.
        -11    1    3    3    0    0 -0.93315801500E+01 -0.31184711055E+01 -0.37075513441E+01  0.10514237365E+02  0.51100000000E-03 0.  1.
        -12    1    3    3    0    0  0.55030997985E+00  0.34663192464E+02 -0.20159902773E+02  0.40103134949E+02  0.00000000000E+00 0.  1.
</event>
<event>
 7    1  0.3743571E-015  0.9000772E+02  0.7816164E-02  0.1186339E+00
        -11   -1    0    0    0    0  0.00000000000E+00  0.00000000000E+00  0.45593999997E+02  0.45594000000E+02  0.51100000000E-03 0.  1.
         11   -1    0    0    0    0 -0.00000000000E+00 -0.00000000000E+00 -0.45593999997E+02  0.45594000000E+02  0.51100000000E-03 0. -1.
    9900012    2    1    2    0    0 -0.82870196533E+00  0.80607364554E+00 -0.23782064029E+00  0.90007720234E+02  0.89999981341E+02 0.  0.
        -12    1    1    2    0    0  0.82870196533E+00 -0.80607364554E+00  0.23782064029E+00  0.11802797661E+01  0.00000000000E+00 0.  1.
         11    1    3    3    0    0  0.58876924665E+01  0.70088574105E+01  0.12575824775E+01  0.92396168064E+01  0.51100000000E-03 0. -1.
        -11    1    3    3    0    0 -0.58648506469E+01  0.30161808765E+02  0.21709381129E+02  0.37622179766E+02  0.51100000000E-03 0.  1.
         12    1    3    3    0    0 -0.85154378494E+00 -0.36364592530E+02 -0.23204784247E+02  0.43145923662E+02  0.00000000000E+00 0. -1.
</event>
<event>
 7    1  0.3743571E-015  0.9000777E+02  0.7816164E-02  0.1186339E+00
        -11   -1    0    0    0    0  0.00000000000E+00  0.00000000000E+00  0.45593999997E+02  0.45594000000E+02  0.51100000000E-03 0.  1.
         11   -1    0    0    0    0 -0.00000000000E+00 -0.00000000000E+00 -0.45593999997E+02  0.45594000000E+02  0.51100000000E-03 0. -1.
    9900012    2    1    2    0    0  0.49513735563E-01 -0.65201931145E+00 -0.98252541538E+00  0.90007772486E+02  0.90000034283E+02 0.  0.
        -12    1    1    2    0    0 -0.49513735563E-01  0.65201931145E+00  0.98252541538E+00  0.11802275138E+01  0.00000000000E+00 0.  1.
         11    1    3    3    0    0 -0.34052029861E+02  0.17531742840E+02  0.10494472035E+02  0.39711921235E+02  0.51100000000E-03 0. -1.
        -11    1    3    3    0    0 -0.64996793062E+00 -0.53250914021E+01  0.70572952184E+01  0.88647883682E+01  0.51100000000E-03 0.  1.
        -12    1    3    3    0    0  0.34751511527E+02 -0.12858670750E+02 -0.18534292669E+02  0.41431062883E+02  0.00000000000E+00 0.  1.
</event>
<event>
 7    1  0.3743571E-015  0.9000739E+02  0.7816164E-02  0.1186340E+00
        -11   -1    0    0    0    0  0.00000000000E+00  0.00000000000E+00  0.45593999997E+02  0.45594000000E+02  0.51100000000E-03 0.  1.
         11   -1    0    0    0    0 -0.00000000000E+00 -0.00000000000E+00 -0.45593999997E+02  0.45594000000E+02  0.51100000000E-03 0. -1.
    9900012    2    1    2    0    0 -0.83844920976E+00  0.81465586426E+00 -0.16489426189E+00  0.90007385172E+02  0.89999641856E+02 0.  0.
        -12    1    1    2    0    0  0.83844920976E+00 -0.81465586426E+00  0.16489426189E+00  0.11806148280E+01  0.00000000000E+00 0.  1.
         11    1    3    3    0    0 -0.90687111352E+01  0.36027928277E+01  0.10814505792E+00  0.97587567563E+01  0.51100000000E-03 0. -1.
        -11    1    3    3    0    0 -0.21444010387E+02 -0.21767857194E+02  0.22812762292E+02  0.38132759039E+02  0.51100000000E-03 0.  1.
         12    1    3    3    0    0  0.29674272312E+02  0.18979720231E+02 -0.23085801612E+02  0.42115869377E+02  0.00000000000E+00 0. -1.
</event>
<event>
 7    1  0.3743571E-015  0.9000783E+02  0.7816164E-02  0.1186339E+00
        -11   -1    0    0    0    0  0.00000000000E+00  0.00000000000E+00  0.45593999997E+02  0.45594000000E+02  0.51100000000E-03 0.  1.
         11   -1    0    0    0    0 -0.00000000000E+00 -0.00000000000E+00 -0.45593999997E+02  0.45594000000E+02  0.51100000000E-03 0. -1.
    9900012    2    1    2    0    0 -0.47581016575E+00 -0.85333954619E+00 -0.66197448325E+00  0.90007833100E+02  0.90000095697E+02 0.  0.
        -12    1    1    2    0    0  0.47581016575E+00  0.85333954619E+00  0.66197448325E+00  0.11801668998E+01  0.00000000000E+00 0.  1.
         11    1    3    3    0    0  0.12122401721E+02  0.25365463182E+02 -0.24980626677E+02  0.37608390757E+02  0.51100000000E-03 0. -1.
        -11    1    3    3    0    0  0.12853090532E+01 -0.36915370784E+01 -0.90228616093E+01  0.98331834746E+01  0.51100000000E-03 0.  1.
        -12    1    3    3    0    0 -0.13883520940E+02 -0.22527265650E+02  0.33341513803E+02  0.42566258868E+02  0.00000000000E+00 0.  1.
</event>
<event>
 7    1  0.3743571E-015  0.9000780E+02  0.7816164E-02  0.1186339E+00
        -11   -1    0    0    0    0  0.00000000000E+00  0.00000000000E+00  0.45593999997E+02  0.45594000000E+02  0.51100000000E-03 0.  1.
         11   -1    0    0    0    0 -0.00000000000E+00 -0.00000000000E+00 -0.45593999997E+02  0.45594000000E+02  0.51100000000E-03 0. -1.
    9900012    2    1    2    0    0 -0.74048317703E+00 -0.58423749829E+00  0.70938147496E+00  0.90007800497E+02  0.90000062664E+02 0.  0.
        -12    1    1    2    0    0  0.74048317703E+00  0.58423749829E+00 -0.70938147496E+00  0.11801995030E+01  0.00000000000E+00 0.  1.
         11    1    3    3    0    0  0.19263345041E+02  0.10220068171E+02 -0.29041965303E+02  0.36317516497E+02  0.51100000000E-03 0. -1.
        -11    1    3    3    0    0  0.64847765537E+01  0.63544493310E+01 -0.15835017542E+01  0.92162265227E+01  0.51100000000E-03 0.  1.
        -12    1    3    3    0    0 -0.26488604772E+02 -0.17158755000E+02  0.31334848532E+02  0.44474057477E+02  0.00000000000E+00 0.  1.
</event>
<event>
 7    1  0.3743571E-015  0.9000777E+02  0.7816164E-02  0.1186339E+00
        -11   -1    0    0    0    0  0.00000000000E+00  0.00000000000E+00  0.45593999997E+02  0.45594000000E+02  0.51100000000E-03 0.  1.
         11   -1    0    0    0    0 -0.00000000000E+00 -0.00000000000E+00 -0.45593999997E+02  0.45594000000E+02  0.51100000000E-03 0. -1.
    9900012    2    1    2    0    0 -0.34816108783E+00  0.96444311991E+00  0.58444648773E+00  0.90007769357E+02  0.90000031112E+02 0.  0.
        -12    1    1    2    0    0  0.34816108783E+00 -0.96444311991E+00 -0.58444648773E+00  0.11802306434E+01  0.00000000000E+00 0.  1.
         11    1    3    3    0    0 -0.58773052484E+01 -0.54694915106E+01 -0.11371975087E+02  0.13920483900E+02  0.51100000000E-03 0. -1.
        -11    1    3    3    0    0  0.36095334437E+02 -0.13323995541E+02  0.29220936737E+01  0.38586793816E+02  0.51100000000E-03 0.  1.
         12    1    3    3    0    0 -0.30566190276E+02  0.19757930172E+02  0.90343279009E+01  0.37500491641E+02  0.00000000000E+00 0. -1.
</event>
<event>
 7    1  0.3743571E-015  0.9000777E+02  0.7816164E-02  0.1186339E+00
        -11   -1    0    0    0    0  0.00000000000E+00  0.00000000000E+00  0.45593999997E+02  0.45594000000E+02  0.51100000000E-03 0. -1.
         11   -1    0    0    0    0 -0.00000000000E+00 -0.00000000000E+00 -0.45593999997E+02  0.45594000000E+02  0.51100000000E-03 0.  1.
    9900012    2    1    2    0    0  0.84592551770E+00  0.76816243999E+00 -0.29542627093E+00  0.90007771125E+02  0.90000032904E+02 0.  0.
        -12    1    1    2    0    0 -0.84592551770E+00 -0.76816243999E+00  0.29542627093E+00  0.11802288750E+01  0.00000000000E+00 0.  1.
         11    1    3    3    0    0  0.10805153972E+01 -0.41329230439E+01 -0.69211558312E+01  0.81333243334E+01  0.51100000000E-03 0. -1.
        -11    1    3    3    0    0 -0.62443919002E+01  0.15211848410E+02 -0.34947141689E+02  0.38622473700E+02  0.51100000000E-03 0.  1.
         12    1    3    3    0    0  0.60098020207E+01 -0.10310762926E+02  0.41572871249E+02  0.43251973092E+02  0.00000000000E+00 0. -1.
</event>
<event>
 7    1  0.3743571E-015  0.9000776E+02  0.7816164E-02  0.1186339E+00
        -11   -1    0    0    0    0  0.00000000000E+00  0.00000000000E+00  0.45593999997E+02  0.45594000000E+02  0.51100000000E-03 0.  1.
         11   -1    0    0    0    0 -0.00000000000E+00 -0.00000000000E+00 -0.45593999997E+02  0.45594000000E+02  0.51100000000E-03 0. -1.
    9900012    2    1    2    0    0 -0.83915313119E+00 -0.36210387534E+00 -0.74677553920E+00  0.90007758118E+02  0.90000019725E+02 0.  0.
        -12    1    1    2    0    0  0.83915313119E+00  0.36210387534E+00  0.74677553920E+00  0.11802418820E+01  0.00000000000E+00 0.  1.
         11    1    3    3    0    0 -0.27871201606E+02 -0.30017417328E+02 -0.11512680933E+02  0.42548690280E+02  0.51100000000E-03 0. -1.
        -11    1    3    3    0    0  0.96053900556E+01 -0.21934382955E+01  0.33342374534E+01  0.10401530144E+02  0.51100000000E-03 0.  1.
        -12    1    3    3    0    0  0.17426658419E+02  0.31848751748E+02  0.74316679401E+01  0.37057537694E+02  0.00000000000E+00 0.  1.
</event>
<event>
 7    1  0.3743571E-015  0.9000774E+02  0.7816164E-02  0.1186339E+00
        -11   -1    0    0    0    0  0.00000000000E+00  0.00000000000E+00  0.45593999997E+02  0.45594000000E+02  0.51100000000E-03 0. -1.
         11   -1    0    0    0    0 -0.00000000000E+00 -0.00000000000E+00 -0.45593999997E+02  0.45594000000E+02  0.51100000000E-03 0.  1.
    9900012    2    1    2    0    0 -0.52670944399E+00 -0.91285486159E+00  0.53130427949E+00  0.90007741099E+02  0.90000002481E+02 0.  0.
        -12    1    1    2    0    0  0.52670944399E+00  0.91285486159E+00 -0.53130427949E+00  0.11802589013E+01  0.00000000000E+00 0.  1.
         11    1    3    3    0    0  0.23031868069E+02  0.29410388537E+02  0.52132592173E+01  0.37717581743E+02  0.51100000000E-03 0. -1.
        -11    1    3    3    0    0  0.20505545026E+01  0.46479650916E+01  0.57850160479E+01  0.76990105985E+01  0.51100000000E-03 0.  1.
        -12    1    3    3    0    0 -0.25609132016E+02 -0.34971208490E+02 -0.10466970986E+02  0.44591148757E+02  0.00000000000E+00 0.  1.
</event>
<event>
 7    1  0.3743571E-015  0.9000808E+02  0.7816164E-02  0.1186338E+00
        -11   -1    0    0    0    0  0.00000000000E+00  0.00000000000E+00  0.45593999997E+02  0.45594000000E+02  0.51100000000E-03 0.  1.
         11   -1    0    0    0    0 -0.00000000000E+00 -0.00000000000E+00 -0.45593999997E+02  0.45594000000E+02  0.51100000000E-03 0. -1.
    9900012    2    1    2    0    0 -0.24257819371E+00 -0.83023821333E+00 -0.80254652597E+00  0.90008076021E+02  0.90000341823E+02 0.  0.
        -12    1    1    2    0    0  0.24257819371E+00  0.83023821333E+00  0.80254652597E+00  0.11799239794E+01  0.00000000000E+00 0.  1.
         11    1    3    3    0    0  0.88339486471E+01 -0.27675666462E+02 -0.28609825882E+02  0.40773806543E+02  0.51100000000E-03 0. -1.
        -11    1    3    3    0    0  0.33943397853E+01 -0.48071174698E+01  0.77853004305E+01  0.97591405359E+01  0.51100000000E-03 0.  1.
        -12    1    3    3    0    0 -0.12470866626E+02  0.31652545718E+02  0.20021978925E+02  0.39475128941E+02  0.00000000000E+00 0.  1.
</event>
<event>
 7    1  0.3743571E-015  0.9000786E+02  0.7816164E-02  0.1186339E+00
        -11   -1    0    0    0    0  0.00000000000E+00  0.00000000000E+00  0.45593999997E+02  0.45594000000E+02  0.51100000000E-03 0.  1.
         11   -1    0    0    0    0 -0.00000000000E+00 -0.00000000000E+00 -0.45593999997E+02  0.45594000000E+02  0.51100000000E-03 0. -1.
    9900012    2    1    2    0    0  0.29915824191E+00  0.10845062907E+01 -0.35649771655E+00  0.90007855869E+02  0.90000118766E+02 0.  0.
        -12    1    1    2    0    0 -0.29915824191E+00 -0.10845062907E+01  0.35649771655E+00  0.11801441311E+01  0.00000000000E+00 0.  1.
         11    1    3    3    0    0 -0.29956843302E+02 -0.16186605511E+02  0.37650482641E+01  0.34257761855E+02  0.51100000000E-03 0. -1.
        -11    1    3    3    0    0 -0.58781170652E+01 -0.39301506758E+01  0.93681469203E+01  0.11737142819E+02  0.51100000000E-03 0.  1.
        -12    1    3    3    0    0  0.36134118609E+02  0.21201262478E+02 -0.13489692901E+02  0.44012951195E+02  0.00000000000E+00 0.  1.
</event>
<event>
 7    1  0.3743571E-015  0.9000760E+02  0.7816164E-02  0.1186339E+00
        -11   -1    0    0    0    0  0.00000000000E+00  0.00000000000E+00  0.45593999997E+02  0.45594000000E+02  0.51100000000E-03 0. -1.
         11   -1    0    0    0    0 -0.00000000000E+00 -0.00000000000E+00 -0.45593999997E+02  0.45594000000E+02  0.51100000000E-03 0.  1.
    9900012    2    1    2    0    0 -0.93304287549E+00 -0.68332854784E+00  0.23631351740E+00  0.90007597107E+02  0.89999856588E+02 0.  0.
        -12    1    1    2    0    0  0.93304287549E+00  0.68332854784E+00 -0.23631351740E+00  0.11804028932E+01  0.00000000000E+00 0.  1.
         11    1    3    3    0    0  0.21675980637E+02 -0.33326707031E+02 -0.18369766675E+02  0.43794587178E+02  0.51100000000E-03 0. -1.
        -11    1    3    3    0    0 -0.72841314240E+01  0.17022871887E+01  0.54842462872E+01  0.92754142697E+01  0.51100000000E-03 0.  1.
        -12    1    3    3    0    0 -0.15324892089E+02  0.30941091295E+02  0.13121833905E+02  0.36937595659E+02  0.00000000000E+00 0.  1.
</event>
<event>
 7    1  0.3743571E-015  0.9000774E+02  0.7816164E-02  0.1186339E+00
        -11   -1    0    0    0    0  0.00000000000E+00  0.00000000000E+00  0.45593999997E+02  0.45594000000E+02  0.51100000000E-03 0.  1.
         11   -1    0    0    0    0 -0.00000000000E+00 -0.00000000000E+00 -0.45593999997E+02  0.45594000000E+02  0.51100000000E-03 0. -1.
    9900012    2    1    2    0    0  0.78945919783E-01  0.10768301922E+00 -0.11726791576E+01  0.90007743885E+02  0.90000005304E+02 0.  0.
        -12    1    1    2    0    0 -0.78945919783E-01 -0.10768301922E+00  0.11726791576E+01  0.11802561152E+01  0.00000000000E+00 0.  1.
         11    1    3    3    0    0  0.85861401710E+01 -0.34449636095E+01 -0.39991855040E+01  0.10078842308E+02  0.51100000000E-03 0. -1.
        -11    1    3    3    0    0  0.23729770320E+02  0.29215117861E+02 -0.50602619301E+01  0.37976721319E+02  0.51100000000E-03 0.  1.
         12    1    3    3    0    0 -0.32236964571E+02 -0.25662471233E+02  0.78867682766E+01  0.41952180258E+02  0.00000000000E+00 0. -1.
</event>
<event>
 7    1  0.3743571E-015  0.9000774E+02  0.7816164E-02  0.1186339E+00
        -11   -1    0    0    0    0  0.00000000000E+00  0.00000000000E+00  0.45593999997E+02  0.45594000000E+02  0.51100000000E-03 0. -1.
         11   -1    0    0    0    0 -0.00000000000E+00 -0.00000000000E+00 -0.45593999997E+02  0.45594000000E+02  0.51100000000E-03 0.  1.
    9900012    2    1    2    0    0  0.83984548864E+00 -0.51905624776E+00  0.64673370529E+00  0.90007735488E+02  0.89999996796E+02 0.  0.
        -12    1    1    2    0    0 -0.83984548864E+00  0.51905624776E+00 -0.64673370529E+00  0.11802645122E+01  0.00000000000E+00 0.  1.
         11    1    3    3    0    0  0.78359367227E+01  0.59878118170E+01 -0.20679314886E+01  0.10076315576E+02  0.51100000000E-03 0. -1.
        -11    1    3    3    0    0  0.34399855401E+02  0.52357907429E+00  0.12869653322E+02  0.36732167967E+02  0.51100000000E-03 0.  1.
         12    1    3    3    0    0 -0.41395946635E+02 -0.70304471391E+01 -0.10154988128E+02  0.43199251945E+02  0.00000000000E+00 0. -1.
</event>
<event>
 7    1  0.3743571E-015  0.9000769E+02  0.7816164E-02  0.1186339E+00
        -11   -1    0    0    0    0  0.00000000000E+00  0.00000000000E+00  0.45593999997E+02  0.45594000000E+02  0.51100000000E-03 0.  1.
         11   -1    0    0    0    0 -0.00000000000E+00 -0.00000000000E+00 -0.45593999997E+02  0.45594000000E+02  0.51100000000E-03 0. -1.
    9900012    2    1    2    0    0  0.13244534993E+00 -0.38282370123E+00 -0.11086159077E+01  0.90007692842E+02  0.89999953587E+02 0.  0.
        -12    1    1    2    0    0 -0.13244534993E+00  0.38282370123E+00  0.11086159077E+01  0.11803071582E+01  0.00000000000E+00 0.  1.
         11    1    3    3    0    0  0.33650367710E+02  0.14691913326E+02  0.11341295732E+02  0.38429475060E+02  0.51100000000E-03 0. -1.
        -11    1    3    3    0    0 -0.91684345314E+00  0.93012449337E+01 -0.22582162613E+01  0.96152639162E+01  0.51100000000E-03 0.  1.
        -12    1    3    3    0    0 -0.32601078907E+02 -0.24375981961E+02 -0.10191695378E+02  0.41962953866E+02  0.00000000000E+00 0.  1.
</event>
<event>
 7    1  0.3743571E-015  0.9000773E+02  0.7816164E-02  0.1186339E+00
        -11   -1    0    0    0    0  0.00000000000E+00  0.00000000000E+00  0.45593999997E+02  0.45594000000E+02  0.51100000000E-03 0. -1.
         11   -1    0    0    0    0 -0.00000000000E+00 -0.00000000000E+00 -0.45593999997E+02  0.45594000000E+02  0.51100000000E-03 0.  1.
    9900012    2    1    2    0    0  0.45073770852E+00  0.80210942874E+00  0.73925342115E+00  0.90007728998E+02  0.89999990221E+02 0.  0.
        -12    1    1    2    0    0 -0.45073770852E+00 -0.80210942874E+00 -0.73925342115E+00  0.11802710020E+01  0.00000000000E+00 0.  1.
         11    1    3    3    0    0  0.15343065674E+02  0.32709976275E+02  0.18111812346E+02  0.40415219397E+02  0.51100000000E-03 0. -1.
        -11    1    3    3    0    0 -0.10926185892E+02  0.13295249385E+01  0.15904439467E+01  0.11121091984E+02  0.51100000000E-03 0.  1.
        -12    1    3    3    0    0 -0.39661420732E+01 -0.33237391785E+02 -0.18963002871E+02  0.38471417617E+02  0.00000000000E+00 0.  1.
</event>
<event>
 7    1  0.3743571E-015  0.9000775E+02  0.7816164E-02  0.1186339E+00
        -11   -1    0    0    0    0  0.00000000000E+00  0.00000000000E+00  0.45593999997E+02  0.45594000000E+02  0.51100000000E-03 0.  1.
         11   -1    0    0    0    0 -0.00000000000E+00 -0.00000000000E+00 -0.45593999997E+02  0.45594000000E+02  0.51100000000E-03 0. -1.
    9900012    2    1    2    0    0  0.11631652804E+01  0.75607840432E-01  0.18528843890E+00  0.90007745019E+02  0.90000006453E+02 0.  0.
        -12    1    1    2    0    0 -0.11631652804E+01 -0.75607840432E-01 -0.18528843890E+00  0.11802549812E+01  0.00000000000E+00 0.  1.
         11    1    3    3    0    0  0.32147725227E+02  0.16882347219E+02 -0.81692303757E+01  0.37218627192E+02  0.51100000000E-03 0. -1.
        -11    1    3    3    0    0  0.55550704394E+01  0.17743063754E+01 -0.69142909869E+01  0.90451307792E+01  0.51100000000E-03 0.  1.
        -12    1    3    3    0    0 -0.36539630386E+02 -0.18581045754E+02  0.15268809801E+02  0.43743987047E+02  0.00000000000E+00 0.  1.
</event>
<event>
 7    1  0.3743571E-015  0.9000783E+02  0.7816164E-02  0.1186339E+00
        -11   -1    0    0    0    0  0.00000000000E+00  0.00000000000E+00  0.45593999997E+02  0.45594000000E+02  0.51100000000E-03 0. -1.
         11   -1    0    0    0    0 -0.00000000000E+00 -0.00000000000E+00 -0.45593999997E+02  0.45594000000E+02  0.51100000000E-03 0.  1.
    9900012    2    1    2    0    0  0.10502575074E+00 -0.94771463541E+00  0.69541773455E+00  0.90007830832E+02  0.90000093399E+02 0.  0.
        -12    1    1    2    0    0 -0.10502575074E+00  0.94771463541E+00 -0.69541773455E+00  0.11801691675E+01  0.00000000000E+00 0.  1.
         11    1    3    3    0    0  0.78580001827E+01  0.65591550484E+01  0.25682632714E+01  0.10553040240E+02  0.51100000000E-03 0. -1.
        -11    1    3    3    0    0  0.21896006613E+02  0.24655401891E+02 -0.11016323545E+02  0.34766123349E+02  0.51100000000E-03 0.  1.
         12    1    3    3    0    0 -0.29648981045E+02 -0.32162271575E+02  0.91434780079E+01  0.44688667243E+02  0.00000000000E+00 0. -1.
</event>
<event>
 7    1  0.3743571E-015  0.9000773E+02  0.7816164E-02  0.1186339E+00
        -11   -1    0    0    0    0  0.00000000000E+00  0.00000000000E+00  0.45593999997E+02  0.45594000000E+02  0.51100000000E-03 0.  1.
         11   -1    0    0    0    0 -0.00000000000E+00 -0.00000000000E+00 -0.45593999997E+02  0.45594000000E+02  0.51100000000E-03 0. -1.
    9900012    2    1    2    0    0 -0.58120599889E+00 -0.47359679356E+00 -0.91156365789E+00  0.90007727727E+02  0.89999988933E+02 0.  0.
        -12    1    1    2    0    0  0.58120599889E+00  0.47359679356E+00  0.91156365789E+00  0.11802722730E+01  0.00000000000E+00 0.  1.
         11    1    3    3    0    0 -0.75115418121E+01  0.13740666249E+02 -0.37468930066E+02  0.40609726543E+02  0.51100000000E-03 0. -1.
        -11    1    3    3    0    0 -0.56537250479E+01  0.55214508312E+01  0.29335823110E+01  0.84295273673E+01  0.51100000000E-03 0.  1.
        -12    1    3    3    0    0  0.12584060861E+02 -0.19735713874E+02  0.33623784097E+02  0.40968473817E+02  0.00000000000E+00 0.  1.
</event>
<event>
 7    1  0.3743571E-015  0.9000774E+02  0.7816164E-02  0.1186339E+00
        -11   -1    0    0    0    0  0.00000000000E+00  0.00000000000E+00  0.45593999997E+02  0.45594000000E+02  0.51100000000E-03 0. -1.
         11   -1    0    0    0    0 -0.00000000000E+00 -0.00000000000E+00 -0.45593999997E+02  0.45594000000E+02  0.51100000000E-03 0.  1.
    9900012    2    1    2    0    0  0.20907061912E+00  0.44884370289E+00  0.10713778644E+01  0.90007736588E+02  0.89999997911E+02 0.  0.
        -12    1    1    2    0    0 -0.20907061912E+00 -0.44884370289E+00 -0.10713778644E+01  0.11802634121E+01  0.00000000000E+00 0.  1.
         11    1    3    3    0    0  0.21356764664E+02 -0.64437436673E+01  0.26912594695E+02  0.34955986366E+02  0.51100000000E-03 0. -1.
        -11    1    3    3    0    0  0.13120030009E+02  0.20636994681E+01 -0.11584990501E+02  0.17624019068E+02  0.51100000000E-03 0.  1.
        -12    1    3    3    0    0 -0.34267724054E+02  0.48288879021E+01 -0.14256226330E+02  0.37427731154E+02  0.00000000000E+00 0.  1.
</event>
<event>
 7    1  0.3743571E-015  0.9000878E+02  0.7816164E-02  0.1186337E+00
        -11   -1    0    0    0    0  0.00000000000E+00  0.00000000000E+00  0.45593999997E+02  0.45594000000E+02  0.51100000000E-03 0. -1.
         11   -1    0    0    0    0 -0.00000000000E+00 -0.00000000000E+00 -0.45593999997E+02  0.45594000000E+02  0.51100000000E-03 0.  1.
    9900012    2    1    2    0    0 -0.90259107517E+00 -0.67075900417E+00 -0.35492281057E+00  0.90008780558E+02  0.90001055655E+02 0.  0.
        -12    1    1    2    0    0  0.90259107517E+00  0.67075900417E+00  0.35492281057E+00  0.11792194419E+01  0.00000000000E+00 0.  1.
         11    1    3    3    0    0 -0.17805508539E+01  0.71273065752E+01  0.37055998618E+01  0.82280210839E+01  0.51100000000E-03 0. -1.
        -11    1    3    3    0    0  0.11888217679E+00  0.24015749946E+02 -0.31603913184E+02  0.39693547426E+02  0.51100000000E-03 0.  1.
         12    1    3    3    0    0  0.75907760194E+00 -0.31813815525E+02  0.27543390512E+02  0.42087212048E+02  0.00000000000E+00 0. -1.
</event>
<event>
 7    1  0.3743571E-015  0.9000773E+02  0.7816164E-02  0.1186339E+00
        -11   -1    0    0    0    0  0.00000000000E+00  0.00000000000E+00  0.45593999997E+02  0.45594000000E+02  0.51100000000E-03 0.  1.
         11   -1    0    0    0    0 -0.00000000000E+00 -0.00000000000E+00 -0.45593999997E+02  0.45594000000E+02  0.51100000000E-03 0. -1.
    9900012    2    1    2    0    0 -0.37233781767E+00 -0.91856835399E+00 -0.64080310851E+00  0.90007732278E+02  0.89999993544E+02 0.  0.
        -12    1    1    2    0    0  0.37233781767E+00  0.91856835399E+00  0.64080310851E+00  0.11802677219E+01  0.00000000000E+00 0.  1.
         11    1    3    3    0    0  0.98812677394E+00  0.22055428814E+02  0.27333155130E+02  0.35135732585E+02  0.51100000000E-03 0. -1.
        -11    1    3    3    0    0  0.35896001479E+01  0.18715910015E+01  0.91052412822E+01  0.99646124443E+01  0.51100000000E-03 0.  1.
        -12    1    3    3    0    0 -0.49500647395E+01 -0.24845588170E+02 -0.37079199520E+02  0.44907387249E+02  0.00000000000E+00 0.  1.
</event>
<event>
 7    1  0.3743571E-015  0.9000765E+02  0.7816164E-02  0.1186339E+00
        -11   -1    0    0    0    0  0.00000000000E+00  0.00000000000E+00  0.45593999997E+02  0.45594000000E+02  0.51100000000E-03 0.  1.
         11   -1    0    0    0    0 -0.00000000000E+00 -0.00000000000E+00 -0.45593999997E+02  0.45594000000E+02  0.51100000000E-03 0. -1.
    9900012    2    1    2    0    0 -0.61058210270E+00 -0.53703153715E+00 -0.85557971468E+00  0.90007648347E+02  0.89999908505E+02 0.  0.
        -12    1    1    2    0    0  0.61058210270E+00  0.53703153715E+00  0.85557971468E+00  0.11803516528E+01  0.00000000000E+00 0.  1.
         11    1    3    3    0    0  0.15286553642E+02 -0.92567586700E+01  0.71413613302E+01  0.19244878416E+02  0.51100000000E-03 0. -1.
        -11    1    3    3    0    0 -0.39767087008E+02 -0.10612292742E+01  0.77654469880E+01  0.40532080921E+02  0.51100000000E-03 0.  1.
         12    1    3    3    0    0  0.23869951262E+02  0.97809564071E+01 -0.15762388033E+02  0.30230689010E+02  0.00000000000E+00 0. -1.
</event>
<event>
 7    1  0.3743571E-015  0.9000779E+02  0.7816164E-02  0.1186339E+00
        -11   -1    0    0    0    0  0.00000000000E+00  0.00000000000E+00  0.45593999997E+02  0.45594000000E+02  0.51100000000E-03 0.  1.
         11   -1    0    0    0    0 -0.00000000000E+00 -0.00000000000E+00 -0.45593999997E+02  0.45594000000E+02  0.51100000000E-03 0. -1.
    9900012    2    1    2    0    0 -0.31691143480E+00  0.94121772511E+00 -0.63762938736E+00  0.90007790316E+02  0.90000052348E+02 0.  0.
        -12    1    1    2    0    0  0.31691143480E+00 -0.94121772511E+00  0.63762938736E+00  0.11802096844E+01  0.00000000000E+00 0.  1.
         11    1    3    3    0    0  0.16848900077E+02  0.30658212751E+02  0.15982955595E+02  0.38461231295E+02  0.51100000000E-03 0. -1.
        -11    1    3    3    0    0  0.17307055864E+01 -0.74796801673E+01  0.96158219681E+01  0.12304673487E+02  0.51100000000E-03 0.  1.
        -12    1    3    3    0    0 -0.18896517098E+02 -0.22237314859E+02 -0.26236406950E+02  0.39241885534E+02  0.00000000000E+00 0.  1.
</event>
<event>
 7    1  0.3743571E-015  0.9000776E+02  0.7816164E-02  0.1186339E+00
        -11   -1    0    0    0    0  0.00000000000E+00  0.00000000000E+00  0.45593999997E+02  0.45594000000E+02  0.51100000000E-03 0. -1.
         11   -1    0    0    0    0 -0.00000000000E+00 -0.00000000000E+00 -0.45593999997E+02  0.45594000000E+02  0.51100000000E-03 0.  1.
    9900012    2    1    2    0    0 -0.54940839427E+00  0.12495168608E+00  0.10370684009E+01  0.90007757069E+02  0.90000018662E+02 0.  0.
        -12    1    1    2    0    0  0.54940839427E+00 -0.12495168608E+00 -0.10370684009E+01  0.11802429308E+01  0.00000000000E+00 0.  1.
         11    1    3    3    0    0  0.68913619775E+00  0.11682665853E+02  0.61568937139E+01  0.13223726048E+02  0.51100000000E-03 0. -1.
        -11    1    3    3    0    0 -0.10796255261E+02  0.25332457851E+02 -0.21862098015E+02  0.35160259929E+02  0.51100000000E-03 0.  1.
         12    1    3    3    0    0  0.95577106690E+01 -0.36890172017E+02  0.16742272702E+02  0.41623771092E+02  0.00000000000E+00 0. -1.
</event>
<event>
 7    1  0.3743571E-015  0.9000765E+02  0.7816164E-02  0.1186339E+00
        -11   -1    0    0    0    0  0.00000000000E+00  0.00000000000E+00  0.45593999997E+02  0.45594000000E+02  0.51100000000E-03 0.  1.
         11   -1    0    0    0    0 -0.00000000000E+00 -0.00000000000E+00 -0.45593999997E+02  0.45594000000E+02  0.51100000000E-03 0. -1.
    9900012    2    1    2    0    0  0.90572565611E+00  0.64501834390E+00  0.39601800692E+00  0.90007653487E+02  0.89999913713E+02 0.  0.
        -12    1    1    2    0    0 -0.90572565611E+00 -0.64501834390E+00 -0.39601800692E+00  0.11803465126E+01  0.00000000000E+00 0.  1.
         11    1    3    3    0    0  0.38508453095E+01  0.62449475372E+01  0.18749796863E+01  0.75725773964E+01  0.51100000000E-03 0. -1.
        -11    1    3    3    0    0 -0.17595616373E+02 -0.15000684696E+02  0.35039031146E+02  0.41980471184E+02  0.51100000000E-03 0.  1.
         12    1    3    3    0    0  0.14650496720E+02  0.94007555032E+01 -0.36517992826E+02  0.40454604907E+02  0.00000000000E+00 0. -1.
</event>
<event>
 7    1  0.3743571E-015  0.9000773E+02  0.7816164E-02  0.1186339E+00
        -11   -1    0    0    0    0  0.00000000000E+00  0.00000000000E+00  0.45593999997E+02  0.45594000000E+02  0.51100000000E-03 0.  1.
         11   -1    0    0    0    0 -0.00000000000E+00 -0.00000000000E+00 -0.45593999997E+02  0.45594000000E+02  0.51100000000E-03 0. -1.
    9900012    2    1    2    0    0 -0.67445113834E+00 -0.38137853853E+00 -0.89033375781E+00  0.90007733874E+02  0.89999995161E+02 0.  0.
        -12    1    1    2    0    0  0.67445113834E+00  0.38137853853E+00  0.89033375781E+00  0.11802661259E+01  0.00000000000E+00 0.  1.
         11    1    3    3    0    0 -0.83036491575E+01 -0.23007496740E+02 -0.34527717332E+02  0.42313812875E+02  0.51100000000E-03 0. -1.
        -11    1    3    3    0    0  0.32619442233E+00 -0.47252677945E+01  0.89760948713E+01  0.10149129910E+02  0.51100000000E-03 0.  1.
        -12    1    3    3    0    0  0.73030035968E+01  0.27351385996E+02  0.24661288703E+02  0.37544791089E+02  0.00000000000E+00 0.  1.
</event>
<event>
 7    1  0.3743571E-015  0.9000782E+02  0.7816164E-02  0.1186339E+00
        -11   -1    0    0    0    0  0.00000000000E+00  0.00000000000E+00  0.45593999997E+02  0.45594000000E+02  0.51100000000E-03 0.  1.
         11   -1    0    0    0    0 -0.00000000000E+00 -0.00000000000E+00 -0.45593999997E+02  0.45594000000E+02  0.51100000000E-03 0. -1.
    9900012    2    1    2    0    0 -0.34355312065E+00  0.11248496778E+01 -0.97465855510E-01  0.90007824107E+02  0.90000086586E+02 0.  0.
        -12    1    1    2    0    0  0.34355312065E+00 -0.11248496778E+01  0.97465855510E-01  0.11801758926E+01  0.00000000000E+00 0.  1.
         11    1    3    3    0    0 -0.16299533223E+02  0.81731981384E+01 -0.35706294616E+02  0.40092585680E+02  0.51100000000E-03 0. -1.
        -11    1    3    3    0    0 -0.76978336080E+01 -0.57355052568E+01  0.39654919922E+01  0.10386423341E+02  0.51100000000E-03 0.  1.
        -12    1    3    3    0    0  0.23653813710E+02 -0.13128432038E+01  0.31643336768E+02  0.39528815086E+02  0.00000000000E+00 0.  1.
</event>
<event>
 7    1  0.3743571E-015  0.9000774E+02  0.7816164E-02  0.1186339E+00
        -11   -1    0    0    0    0  0.00000000000E+00  0.00000000000E+00  0.45593999997E+02  0.45594000000E+02  0.51100000000E-03 0. -1.
         11   -1    0    0    0    0 -0.00000000000E+00 -0.00000000000E+00 -0.45593999997E+02  0.45594000000E+02  0.51100000000E-03 0.  1.
    9900012    2    1    2    0    0 -0.70980980411E-01 -0.11724135412E+01  0.11582538694E+00  0.90007742684E+02  0.90000004088E+02 0.  0.
        -12    1    1    2    0    0  0.70980980411E-01  0.11724135412E+01 -0.11582538694E+00  0.11802573158E+01  0.00000000000E+00 0.  1.
         11    1    3    3    0    0  0.81291855627E+01 -0.79441571570E+01  0.76468434974E+01  0.13699179048E+02  0.51100000000E-03 0. -1.
        -11    1    3    3    0    0  0.79314960066E+01  0.34516878968E+02 -0.21363181806E+02  0.41360719285E+02  0.51100000000E-03 0.  1.
         12    1    3    3    0    0 -0.16131662550E+02 -0.27745135352E+02  0.13832163696E+02  0.34947844352E+02  0.00000000000E+00 0. -1.
</event>
<event>
 7    1  0.3743571E-015  0.9000757E+02  0.7816164E-02  0.1186339E+00
        -11   -1    0    0    0    0  0.00000000000E+00  0.00000000000E+00  0.45593999997E+02  0.45594000000E+02  0.51100000000E-03 0. -1.
         11   -1    0    0    0    0 -0.00000000000E+00 -0.00000000000E+00 -0.45593999997E+02  0.45594000000E+02  0.51100000000E-03 0.  1.
    9900012    2    1    2    0    0  0.55514045843E+00  0.19337147309E+00  0.10236408829E+01  0.90007570370E+02  0.89999829498E+02 0.  0.
        -12    1    1    2    0    0 -0.55514045843E+00 -0.19337147309E+00 -0.10236408829E+01  0.11804296304E+01  0.00000000000E+00 0.  1.
         11    1    3    3    0    0  0.11491322470E+02  0.15156469090E+01 -0.15470987458E+01  0.11693638974E+02  0.51100000000E-03 0. -1.
        -11    1    3    3    0    0  0.10783021559E+02 -0.13328262378E+02 -0.31677765578E+02  0.36019397055E+02  0.51100000000E-03 0.  1.
        -12    1    3    3    0    0 -0.21719203571E+02  0.12005986942E+02  0.34248505206E+02  0.42294534340E+02  0.00000000000E+00 0.  1.
</event>
<event>
 7    1  0.3743571E-015  0.9000769E+02  0.7816164E-02  0.1186339E+00
        -11   -1    0    0    0    0  0.00000000000E+00  0.00000000000E+00  0.45593999997E+02  0.45594000000E+02  0.51100000000E-03 0.  1.
         11   -1    0    0    0    0 -0.00000000000E+00 -0.00000000000E+00 -0.45593999997E+02  0.45594000000E+02  0.51100000000E-03 0. -1.
    9900012    2    1    2    0    0 -0.11155957575E+01  0.34418759246E+00 -0.17355242574E+00  0.90007686721E+02  0.89999947385E+02 0.  0.
        -12    1    1    2    0    0  0.11155957575E+01 -0.34418759246E+00  0.17355242574E+00  0.11803132794E+01  0.00000000000E+00 0.  1.
         11    1    3    3    0    0  0.17967672005E+02 -0.21333682967E+02  0.59456573263E+01  0.28518662442E+02  0.51100000000E-03 0. -1.
        -11    1    3    3    0    0 -0.25204379114E+02 -0.76668257046E+00  0.15608850317E+02  0.29656107923E+02  0.51100000000E-03 0.  1.
         12    1    3    3    0    0  0.61211113510E+01  0.22444553129E+02 -0.21728060069E+02  0.31832916356E+02  0.00000000000E+00 0. -1.
</event>
<event>
 7    1  0.3743571E-015  0.9000774E+02  0.7816164E-02  0.1186339E+00
        -11   -1    0    0    0    0  0.00000000000E+00  0.00000000000E+00  0.45593999997E+02  0.45594000000E+02  0.51100000000E-03 0. -1.
         11   -1    0    0    0    0 -0.00000000000E+00 -0.00000000000E+00 -0.45593999997E+02  0.45594000000E+02  0.51100000000E-03 0.  1.
    9900012    2    1    2    0    0 -0.97922433405E+00  0.24448077814E+00  0.61184420744E+00  0.90007743892E+02  0.90000005311E+02 0.  0.
        -12    1    1    2    0    0  0.97922433405E+00 -0.24448077814E+00 -0.61184420744E+00  0.11802561084E+01  0.00000000000E+00 0.  1.
         11    1    3    3    0    0  0.36846581088E+01  0.30092331812E+01 -0.63177589267E+01  0.79086198439E+01  0.51100000000E-03 0. -1.
        -11    1    3    3    0    0  0.96047552037E+01 -0.29394800189E+02 -0.23787231099E+02  0.39014586558E+02  0.51100000000E-03 0.  1.
         12    1    3    3    0    0 -0.14268637647E+02  0.26630047786E+02  0.30716834233E+02  0.43084537490E+02  0.00000000000E+00 0. -1.
</event>
<event>
 7    1  0.3743571E-015  0.9000773E+02  0.7816164E-02  0.1186339E+00
        -11   -1    0    0    0    0  0.00000000000E+00  0.00000000000E+00  0.45593999997E+02  0.45594000000E+02  0.51100000000E-03 0.  1.
         11   -1    0    0    0    0 -0.00000000000E+00 -0.00000000000E+00 -0.45593999997E+02  0.45594000000E+02  0.51100000000E-03 0. -1.
    9900012    2    1    2    0    0 -0.59285299246E+00  0.82874051841E+00 -0.59561254942E+00  0.90007728918E+02  0.89999990140E+02 0.  0.
        -12    1    1    2    0    0  0.59285299246E+00 -0.82874051841E+00  0.59561254942E+00  0.11802710818E+01  0.00000000000E+00 0.  1.
         11    1    3    3    0    0 -0.63841289805E+01  0.74140034327E+01  0.30641887090E+01  0.10252502253E+02  0.51100000000E-03 0. -1.
        -11    1    3    3    0    0 -0.23106134353E+02 -0.25155179425E+02  0.18532345994E+02  0.38860318384E+02  0.51100000000E-03 0.  1.
         12    1    3    3    0    0  0.28897410341E+02  0.18569916510E+02 -0.22192147253E+02  0.40894908281E+02  0.00000000000E+00 0. -1.
</event>
<event>
 7    1  0.3743571E-015  0.9000770E+02  0.7816164E-02  0.1186339E+00
        -11   -1    0    0    0    0  0.00000000000E+00  0.00000000000E+00  0.45593999997E+02  0.45594000000E+02  0.51100000000E-03 0.  1.
         11   -1    0    0    0    0 -0.00000000000E+00 -0.00000000000E+00 -0.45593999997E+02  0.45594000000E+02  0.51100000000E-03 0. -1.
    9900012    2    1    2    0    0 -0.14537054401E+00 -0.11623112236E+01 -0.14492793205E+00  0.90007701698E+02  0.89999962561E+02 0.  0.
        -12    1    1    2    0    0  0.14537054401E+00  0.11623112236E+01  0.14492793205E+00  0.11802983017E+01  0.00000000000E+00 0.  1.
         11    1    3    3    0    0 -0.70689499870E+01  0.43821898821E+01  0.19795505027E+01  0.85494012969E+01  0.51100000000E-03 0. -1.
        -11    1    3    3    0    0 -0.36908905556E+02 -0.53557842223E+01 -0.44718304507E+01  0.37562601105E+02  0.51100000000E-03 0.  1.
         12    1    3    3    0    0  0.43832484999E+02 -0.18871688332E+00  0.23473520159E+01  0.43895699296E+02  0.00000000000E+00 0. -1.
</event>
<event>
 7    1  0.3743571E-015  0.9000766E+02  0.7816164E-02  0.1186339E+00
        -11   -1    0    0    0    0  0.00000000000E+00  0.00000000000E+00  0.45593999997E+02  0.45594000000E+02  0.51100000000E-03 0.  1.
         11   -1    0    0    0    0 -0.00000000000E+00 -0.00000000000E+00 -0.45593999997E+02  0.45594000000E+02  0.51100000000E-03 0. -1.
    9900012    2    1    2    0    0  0.15246951295E+00  0.86636323602E+00 -0.78700375708E+00  0.90007658048E+02  0.89999918335E+02 0.  0.
        -12    1    1    2    0    0 -0.15246951295E+00 -0.86636323602E+00  0.78700375708E+00  0.11803419516E+01  0.00000000000E+00 0.  1.
         11    1    3    3    0    0  0.97752897259E+01 -0.31399716891E+00 -0.11098313779E+01  0.98430995827E+01  0.51100000000E-03 0. -1.
        -11    1    3    3    0    0  0.32169215917E+02  0.86794986309E+01  0.13133497063E+02  0.35814534683E+02  0.51100000000E-03 0.  1.
         12    1    3    3    0    0 -0.41792036130E+02 -0.74991382260E+01 -0.12810669442E+02  0.44350023783E+02  0.00000000000E+00 0. -1.
</event>
<event>
 7    1  0.3743571E-015  0.9000785E+02  0.7816164E-02  0.1186339E+00
        -11   -1    0    0    0    0  0.00000000000E+00  0.00000000000E+00  0.45593999997E+02  0.45594000000E+02  0.51100000000E-03 0. -1.
         11   -1    0    0    0    0 -0.00000000000E+00 -0.00000000000E+00 -0.45593999997E+02  0.45594000000E+02  0.51100000000E-03 0.  1.
    9900012    2    1    2    0    0 -0.58139993482E+00  0.10269386218E+01  0.10860030751E-01  0.90007853078E+02  0.90000115939E+02 0.  0.
        -12    1    1    2    0    0  0.58139993482E+00 -0.10269386218E+01 -0.10860030751E-01  0.11801469219E+01  0.00000000000E+00 0.  1.
         11    1    3    3    0    0 -0.55470400870E+01  0.98681193727E+01 -0.42600816294E+01  0.12095359831E+02  0.51100000000E-03 0. -1.
        -11    1    3    3    0    0  0.16012227474E+02  0.31619835194E+02 -0.20245902699E+01  0.35500765800E+02  0.51100000000E-03 0.  1.
         12    1    3    3    0    0 -0.11046587321E+02 -0.40461015945E+02  0.62955319301E+01  0.42411727447E+02  0.00000000000E+00 0. -1.
</event>
<event>
 7    1  0.3743571E-015  0.9000771E+02  0.7816164E-02  0.1186339E+00
        -11   -1    0    0    0    0  0.00000000000E+00  0.00000000000E+00  0.45593999997E+02  0.45594000000E+02  0.51100000000E-03 0.  1.
         11   -1    0    0    0    0 -0.00000000000E+00 -0.00000000000E+00 -0.45593999997E+02  0.45594000000E+02  0.51100000000E-03 0. -1.
    9900012    2    1    2    0    0 -0.43355376441E-01  0.91984719417E+00 -0.73829831287E+00  0.90007710651E+02  0.89999971631E+02 0.  0.
        -12    1    1    2    0    0  0.43355376441E-01 -0.91984719417E+00  0.73829831287E+00  0.11802893493E+01  0.00000000000E+00 0.  1.
         11    1    3    3    0    0  0.60394505470E+01 -0.99684582685E+01  0.17169930588E+01  0.11781052100E+02  0.51100000000E-03 0. -1.
        -11    1    3    3    0    0  0.33752210284E+02 -0.49717053461E+01 -0.78629472195E+01  0.35010791084E+02  0.51100000000E-03 0.  1.
         12    1    3    3    0    0 -0.39835016207E+02  0.15860010809E+02  0.54076558478E+01  0.43215867466E+02  0.00000000000E+00 0. -1.
</event>
<event>
 7    1  0.3743571E-015  0.9000778E+02  0.7816164E-02  0.1186339E+00
        -11   -1    0    0    0    0  0.00000000000E+00  0.00000000000E+00  0.45593999997E+02  0.45594000000E+02  0.51100000000E-03 0.  1.
         11   -1    0    0    0    0 -0.00000000000E+00 -0.00000000000E+00 -0.45593999997E+02  0.45594000000E+02  0.51100000000E-03 0. -1.
    9900012    2    1    2    0    0  0.87904105594E+00  0.64305094413E+00  0.45463973744E+00  0.90007777569E+02  0.90000039433E+02 0.  0.
        -12    1    1    2    0    0 -0.87904105594E+00 -0.64305094413E+00 -0.45463973744E+00  0.11802224306E+01  0.00000000000E+00 0.  1.
         11    1    3    3    0    0  0.22491444992E+01 -0.54915456236E+01  0.38174802691E+01  0.70561235945E+01  0.51100000000E-03 0. -1.
        -11    1    3    3    0    0 -0.39111456726E+02 -0.10548976213E+02 -0.84310600357E+01  0.41377164233E+02  0.51100000000E-03 0.  1.
         12    1    3    3    0    0  0.37741353283E+02  0.16683572780E+02  0.50682195040E+01  0.41574489742E+02  0.00000000000E+00 0. -1.
</event>
<event>
 7    1  0.3743571E-015  0.9000780E+02  0.7816164E-02  0.1186339E+00
        -11   -1    0    0    0    0  0.00000000000E+00  0.00000000000E+00  0.45593999997E+02  0.45594000000E+02  0.51100000000E-03 0.  1.
         11   -1    0    0    0    0 -0.00000000000E+00 -0.00000000000E+00 -0.45593999997E+02  0.45594000000E+02  0.51100000000E-03 0. -1.
    9900012    2    1    2    0    0 -0.91720627462E+00  0.68746653260E+00  0.28104164578E+00  0.90007804258E+02  0.90000066474E+02 0.  0.
        -12    1    1    2    0    0  0.91720627462E+00 -0.68746653260E+00 -0.28104164578E+00  0.11801957424E+01  0.00000000000E+00 0.  1.
         11    1    3    3    0    0  0.95163912711E+01 -0.35058326322E+02 -0.11351376737E+02  0.38059186820E+02  0.51100000000E-03 0. -1.
        -11    1    3    3    0    0 -0.48883525299E+01 -0.56187187852E+01  0.65270719315E+01  0.99029621580E+01  0.51100000000E-03 0.  1.
        -12    1    3    3    0    0 -0.55452450158E+01  0.41364511640E+02  0.51053464514E+01  0.42045655279E+02  0.00000000000E+00 0.  1.
</event>
<event>
 7    1  0.3743571E-015  0.9000768E+02  0.7816164E-02  0.1186339E+00
        -11   -1    0    0    0    0  0.00000000000E+00  0.00000000000E+00  0.45593999997E+02  0.45594000000E+02  0.51100000000E-03 0.  1.
         11   -1    0    0    0    0 -0.00000000000E+00 -0.00000000000E+00 -0.45593999997E+02  0.45594000000E+02  0.51100000000E-03 0. -1.
    9900012    2    1    2    0    0 -0.11329401468E+01 -0.29212609580E+00 -0.15578494800E+00  0.90007678018E+02  0.89999938567E+02 0.  0.
        -12    1    1    2    0    0  0.11329401468E+01  0.29212609580E+00  0.15578494800E+00  0.11803219824E+01  0.00000000000E+00 0.  1.
         11    1    3    3    0    0 -0.86021949105E+01 -0.10792146933E+01  0.12871351212E+01  0.87646550825E+01  0.51100000000E-03 0. -1.
        -11    1    3    3    0    0  0.12758013727E+02 -0.38098368489E+02  0.77949240867E+01  0.40926928025E+02  0.51100000000E-03 0.  1.
         12    1    3    3    0    0 -0.52887589629E+01  0.38885457086E+02 -0.92378441559E+01  0.40316094910E+02  0.00000000000E+00 0. -1.
</event>
<event>
 7    1  0.3743571E-015  0.9000776E+02  0.7816164E-02  0.1186339E+00
        -11   -1    0    0    0    0  0.00000000000E+00  0.00000000000E+00  0.45593999997E+02  0.45594000000E+02  0.51100000000E-03 0.  1.
         11   -1    0    0    0    0 -0.00000000000E+00 -0.00000000000E+00 -0.45593999997E+02  0.45594000000E+02  0.51100000000E-03 0. -1.
    9900012    2    1    2    0    0 -0.52314251077E+00  0.93623335598E-01 -0.10538119599E+01  0.90007761438E+02  0.90000023089E+02 0.  0.
        -12    1    1    2    0    0  0.52314251077E+00 -0.93623335598E-01  0.10538119599E+01  0.11802385616E+01  0.00000000000E+00 0.  1.
         11    1    3    3    0    0 -0.29316738000E+02 -0.19272319359E+02 -0.20718449294E+02  0.40744908416E+02  0.51100000000E-03 0. -1.
        -11    1    3    3    0    0  0.79319791477E+01 -0.16301559607E+01 -0.60072064017E+01  0.10082669818E+02  0.51100000000E-03 0.  1.
        -12    1    3    3    0    0  0.20861616341E+02  0.20996098655E+02  0.25671843736E+02  0.39180183204E+02  0.00000000000E+00 0.  1.
</event>
<event>
 7    1  0.3743571E-015  0.9000757E+02  0.7816164E-02  0.1186339E+00
        -11   -1    0    0    0    0  0.00000000000E+00  0.00000000000E+00  0.45593999997E+02  0.45594000000E+02  0.51100000000E-03 0. -1.
         11   -1    0    0    0    0 -0.00000000000E+00 -0.00000000000E+00 -0.45593999997E+02  0.45594000000E+02  0.51100000000E-03 0.  1.
    9900012    2    1    2    0    0 -0.66586740267E+00  0.65491926321E+00  0.72187767474E+00  0.90007573799E+02  0.89999832973E+02 0.  0.
        -12    1    1    2    0    0  0.66586740267E+00 -0.65491926321E+00 -0.72187767474E+00  0.11804262012E+01  0.00000000000E+00 0.  1.
         11    1    3    3    0    0  0.10656697989E+02 -0.36038626375E+02 -0.16935585628E+02  0.41220891109E+02  0.51100000000E-03 0. -1.
        -11    1    3    3    0    0 -0.79676849613E+01  0.42124550351E+01  0.12976022225E+02  0.15798921929E+02  0.51100000000E-03 0.  1.
        -12    1    3    3    0    0 -0.33548804299E+01  0.32481090603E+02  0.46814410777E+01  0.32987760761E+02  0.00000000000E+00 0.  1.
</event>
<event>
 7    1  0.3743571E-015  0.9000772E+02  0.7816164E-02  0.1186339E+00
        -11   -1    0    0    0    0  0.00000000000E+00  0.00000000000E+00  0.45593999997E+02  0.45594000000E+02  0.51100000000E-03 0. -1.
         11   -1    0    0    0    0 -0.00000000000E+00 -0.00000000000E+00 -0.45593999997E+02  0.45594000000E+02  0.51100000000E-03 0.  1.
    9900012    2    1    2    0    0  0.21219991497E+00  0.13627817163E+00  0.11530212855E+01  0.90007720953E+02  0.89999982070E+02 0.  0.
        -12    1    1    2    0    0 -0.21219991497E+00 -0.13627817163E+00 -0.11530212855E+01  0.11802790470E+01  0.00000000000E+00 0.  1.
         11    1    3    3    0    0  0.18632847429E+02  0.27532035376E+02 -0.14965335861E+02  0.36457608986E+02  0.51100000000E-03 0. -1.
        -11    1    3    3    0    0  0.86565573839E+01  0.37996098843E+01  0.77711255735E+00  0.94856167539E+01  0.51100000000E-03 0.  1.
        -12    1    3    3    0    0 -0.27077204898E+02 -0.31195367089E+02  0.15341244589E+02  0.44064495213E+02  0.00000000000E+00 0.  1.
</event>
<event>
 7    1  0.5550914E-015  0.9000768E+02  0.7816164E-02  0.1186339E+00
        -11   -1    0    0    0    0  0.00000000000E+00  0.00000000000E+00  0.45593999997E+02  0.45594000000E+02  0.51100000000E-03 0. -1.
         11   -1    0    0    0    0 -0.00000000000E+00 -0.00000000000E+00 -0.45593999997E+02  0.45594000000E+02  0.51100000000E-03 0.  1.
    9900012    2    1    2    0    0  0.98773568878E+00 -0.36215124883E+00  0.53514682240E+00  0.90007679095E+02  0.89999939659E+02 0.  0.
        -12    1    1    2    0    0 -0.98773568878E+00  0.36215124883E+00 -0.53514682240E+00  0.11803209053E+01  0.00000000000E+00 0.  1.
         11    1    3    3    0    0 -0.26892170631E+01  0.13989216248E+01 -0.92441913339E+01  0.97285119007E+01  0.51100000000E-03 0. -1.
        -11    1    3    3    0    0 -0.92791991852E+01 -0.36810663013E+02 -0.81588089032E+01  0.38829043408E+02  0.51100000000E-03 0.  1.
         12    1    3    3    0    0  0.12956151937E+02  0.35049590140E+02  0.17938147059E+02  0.41450123786E+02  0.00000000000E+00 0. -1.
</event>
<event>
 7    1  0.3743571E-015  0.9000799E+02  0.7816164E-02  0.1186339E+00
        -11   -1    0    0    0    0  0.00000000000E+00  0.00000000000E+00  0.45593999997E+02  0.45594000000E+02  0.51100000000E-03 0.  1.
         11   -1    0    0    0    0 -0.00000000000E+00 -0.00000000000E+00 -0.45593999997E+02  0.45594000000E+02  0.51100000000E-03 0. -1.
    9900012    2    1    2    0    0  0.15203902856E+00 -0.53176767939E+00 -0.10423662284E+01  0.90007991489E+02  0.90000256177E+02 0.  0.
        -12    1    1    2    0    0 -0.15203902856E+00  0.53176767939E+00  0.10423662284E+01  0.11800085106E+01  0.00000000000E+00 0.  1.
         11    1    3    3    0    0  0.58865502436E+01 -0.11743956696E+02 -0.86499074368E+01  0.15728728225E+02  0.51100000000E-03 0. -1.
        -11    1    3    3    0    0 -0.69215273725E+01  0.31584790538E+02 -0.21427709834E+02  0.38789860576E+02  0.51100000000E-03 0.  1.
         12    1    3    3    0    0  0.11870161575E+01 -0.20372601521E+02  0.29035251043E+02  0.35489402689E+02  0.00000000000E+00 0. -1.
</event>
<event>
 7    1  0.3743571E-015  0.9000781E+02  0.7816164E-02  0.1186339E+00
        -11   -1    0    0    0    0  0.00000000000E+00  0.00000000000E+00  0.45593999997E+02  0.45594000000E+02  0.51100000000E-03 0.  1.
         11   -1    0    0    0    0 -0.00000000000E+00 -0.00000000000E+00 -0.45593999997E+02  0.45594000000E+02  0.51100000000E-03 0. -1.
    9900012    2    1    2    0    0 -0.38345802195E+00 -0.97507990076E+00  0.54315865618E+00  0.90007812645E+02  0.90000074972E+02 0.  0.
        -12    1    1    2    0    0  0.38345802195E+00  0.97507990076E+00 -0.54315865618E+00  0.11801873551E+01  0.00000000000E+00 0.  1.
         11    1    3    3    0    0  0.22411769252E+02  0.15842835382E+02 -0.24570364181E+02  0.36837285869E+02  0.51100000000E-03 0. -1.
        -11    1    3    3    0    0 -0.11339435201E+01 -0.21256583338E+00 -0.92302360232E+01  0.93020572695E+01  0.51100000000E-03 0.  1.
        -12    1    3    3    0    0 -0.21661283754E+02 -0.16605349449E+02  0.34343758860E+02  0.43868469507E+02  0.00000000000E+00 0.  1.
</event>
<event>
 7    1  0.3743571E-015  0.9000778E+02  0.7816164E-02  0.1186339E+00
        -11   -1    0    0    0    0  0.00000000000E+00  0.00000000000E+00  0.45593999997E+02  0.45594000000E+02  0.51100000000E-03 0. -1.
         11   -1    0    0    0    0 -0.00000000000E+00 -0.00000000000E+00 -0.45593999997E+02  0.45594000000E+02  0.51100000000E-03 0.  1.
    9900012    2    1    2    0    0 -0.79769164129E+00  0.55815990778E+00  0.66713789652E+00  0.90007776542E+02  0.90000038393E+02 0.  0.
        -12    1    1    2    0    0  0.79769164129E+00 -0.55815990778E+00 -0.66713789652E+00  0.11802234577E+01  0.00000000000E+00 0.  1.
         11    1    3    3    0    0 -0.94819068099E+01 -0.27679007485E+02  0.23729366941E+02  0.37671167593E+02  0.51100000000E-03 0. -1.
        -11    1    3    3    0    0  0.35993316753E+01 -0.74938834742E+01  0.18061539215E+01  0.85073891578E+01  0.51100000000E-03 0.  1.
        -12    1    3    3    0    0  0.50848834934E+01  0.35731050867E+02 -0.24868382966E+02  0.43829219792E+02  0.00000000000E+00 0.  1.
</event>
<event>
 7    1  0.3743571E-015  0.9000769E+02  0.7816164E-02  0.1186339E+00
        -11   -1    0    0    0    0  0.00000000000E+00  0.00000000000E+00  0.45593999997E+02  0.45594000000E+02  0.51100000000E-03 0. -1.
         11   -1    0    0    0    0 -0.00000000000E+00 -0.00000000000E+00 -0.45593999997E+02  0.45594000000E+02  0.51100000000E-03 0.  1.
    9900012    2    1    2    0    0  0.51830897196E+00 -0.42263961229E+00 -0.97254937740E+00  0.90007694648E+02  0.89999955417E+02 0.  0.
        -12    1    1    2    0    0 -0.51830897196E+00  0.42263961229E+00  0.97254937740E+00  0.11803053519E+01  0.00000000000E+00 0.  1.
         11    1    3    3    0    0 -0.40821890305E+01 -0.14913965019E+02  0.32388371636E+02  0.35890071571E+02  0.51100000000E-03 0. -1.
        -11    1    3    3    0    0  0.62757592845E+01 -0.29123294126E+01  0.71777293580E+01  0.99692836354E+01  0.51100000000E-03 0.  1.
        -12    1    3    3    0    0 -0.16752612820E+01  0.17403654820E+02 -0.40538650372E+02  0.44148339441E+02  0.00000000000E+00 0.  1.
</event>
<event>
 7    1  0.3743571E-015  0.9000776E+02  0.7816164E-02  0.1186339E+00
        -11   -1    0    0    0    0  0.00000000000E+00  0.00000000000E+00  0.45593999997E+02  0.45594000000E+02  0.51100000000E-03 0. -1.
         11   -1    0    0    0    0 -0.00000000000E+00 -0.00000000000E+00 -0.45593999997E+02  0.45594000000E+02  0.51100000000E-03 0.  1.
    9900012    2    1    2    0    0  0.30972109459E+00 -0.11353986561E+01  0.88946431655E-01  0.90007759036E+02  0.90000020656E+02 0.  0.
        -12    1    1    2    0    0 -0.30972109459E+00  0.11353986561E+01 -0.88946431655E-01  0.11802409637E+01  0.00000000000E+00 0.  1.
         11    1    3    3    0    0  0.96464175524E+01 -0.70334061897E+01 -0.22246737436E+01  0.12143778150E+02  0.51100000000E-03 0. -1.
        -11    1    3    3    0    0  0.82301876312E+01 -0.76781894031E+01 -0.33714946666E+02  0.35544172658E+02  0.51100000000E-03 0.  1.
         12    1    3    3    0    0 -0.17566884089E+02  0.13576196937E+02  0.36028566842E+02  0.42319808229E+02  0.00000000000E+00 0. -1.
</event>
<event>
 7    1  0.3743571E-015  0.9000780E+02  0.7816164E-02  0.1186339E+00
        -11   -1    0    0    0    0  0.00000000000E+00  0.00000000000E+00  0.45593999997E+02  0.45594000000E+02  0.51100000000E-03 0.  1.
         11   -1    0    0    0    0 -0.00000000000E+00 -0.00000000000E+00 -0.45593999997E+02  0.45594000000E+02  0.51100000000E-03 0. -1.
    9900012    2    1    2    0    0 -0.62445116932E+00 -0.10014410155E+01 -0.71026474277E-02  0.90007799247E+02  0.90000061397E+02 0.  0.
        -12    1    1    2    0    0  0.62445116932E+00  0.10014410155E+01  0.71026474277E-02  0.11802007533E+01  0.00000000000E+00 0.  1.
         11    1    3    3    0    0 -0.54349130597E+01  0.48862527361E+01  0.24771380959E+01  0.77168620030E+01  0.51100000000E-03 0. -1.
        -11    1    3    3    0    0 -0.28254454863E+01  0.25997213859E+02  0.27437530347E+02  0.37903249761E+02  0.51100000000E-03 0.  1.
         12    1    3    3    0    0  0.76359073767E+01 -0.31884907611E+02 -0.29921771091E+02  0.44387687482E+02  0.00000000000E+00 0. -1.
</event>
<event>
 7    1  0.3743571E-015  0.9000764E+02  0.7816164E-02  0.1186339E+00
        -11   -1    0    0    0    0  0.00000000000E+00  0.00000000000E+00  0.45593999997E+02  0.45594000000E+02  0.51100000000E-03 0. -1.
         11   -1    0    0    0    0 -0.00000000000E+00 -0.00000000000E+00 -0.45593999997E+02  0.45594000000E+02  0.51100000000E-03 0.  1.
    9900012    2    1    2    0    0 -0.43980841678E+00  0.41070780775E+00  0.10154533846E+01  0.90007636529E+02  0.89999896531E+02 0.  0.
        -12    1    1    2    0    0  0.43980841678E+00 -0.41070780775E+00 -0.10154533846E+01  0.11803634708E+01  0.00000000000E+00 0.  1.
         11    1    3    3    0    0 -0.28044205332E+02 -0.17359274911E+02  0.22686730704E+02  0.40031358064E+02  0.51100000000E-03 0. -1.
        -11    1    3    3    0    0  0.70330714454E+01 -0.85043289865E+01 -0.19257337706E+01  0.11202506696E+02  0.51100000000E-03 0.  1.
        -12    1    3    3    0    0  0.20571325470E+02  0.26274311705E+02 -0.19745543549E+02  0.38773771769E+02  0.00000000000E+00 0.  1.
</event>
<event>
 7    1  0.3743571E-015  0.9000773E+02  0.7816164E-02  0.1186339E+00
        -11   -1    0    0    0    0  0.00000000000E+00  0.00000000000E+00  0.45593999997E+02  0.45594000000E+02  0.51100000000E-03 0. -1.
         11   -1    0    0    0    0 -0.00000000000E+00 -0.00000000000E+00 -0.45593999997E+02  0.45594000000E+02  0.51100000000E-03 0.  1.
    9900012    2    1    2    0    0  0.58961838459E+00 -0.82294295670E+00  0.60675442335E+00  0.90007730590E+02  0.89999991834E+02 0.  0.
        -12    1    1    2    0    0 -0.58961838459E+00  0.82294295670E+00 -0.60675442335E+00  0.11802694098E+01  0.00000000000E+00 0.  1.
         11    1    3    3    0    0 -0.22261841904E+02 -0.32604235019E+02 -0.48994840143E+01  0.39782291161E+02  0.51100000000E-03 0. -1.
        -11    1    3    3    0    0 -0.33446450576E+00  0.31808735229E+00 -0.86461786882E+01  0.86584901824E+01  0.51100000000E-03 0.  1.
        -12    1    3    3    0    0  0.23185924794E+02  0.31463204710E+02  0.14152417126E+02  0.41566949247E+02  0.00000000000E+00 0.  1.
</event>
<event>
 7    1  0.3743571E-015  0.9000768E+02  0.7816164E-02  0.1186339E+00
        -11   -1    0    0    0    0  0.00000000000E+00  0.00000000000E+00  0.45593999997E+02  0.45594000000E+02  0.51100000000E-03 0.  1.
         11   -1    0    0    0    0 -0.00000000000E+00 -0.00000000000E+00 -0.45593999997E+02  0.45594000000E+02  0.51100000000E-03 0. -1.
    9900012    2    1    2    0    0 -0.60902171336E+00 -0.42865217901E+00 -0.91569611769E+00  0.90007682450E+02  0.89999943059E+02 0.  0.
        -12    1    1    2    0    0  0.60902171336E+00  0.42865217901E+00  0.91569611769E+00  0.11803175496E+01  0.00000000000E+00 0.  1.
         11    1    3    3    0    0  0.44345931877E+01 -0.70651521603E+01  0.39658331914E+01  0.92363317909E+01  0.51100000000E-03 0. -1.
        -11    1    3    3    0    0 -0.15722093065E+02  0.28807309755E+02  0.25581299098E+02  0.41610673744E+02  0.51100000000E-03 0.  1.
         12    1    3    3    0    0  0.10678478164E+02 -0.22170809773E+02 -0.30462828407E+02  0.39160676915E+02  0.00000000000E+00 0. -1.
</event>
<event>
 7    1  0.3743571E-015  0.9000772E+02  0.7816164E-02  0.1186339E+00
        -11   -1    0    0    0    0  0.00000000000E+00  0.00000000000E+00  0.45593999997E+02  0.45594000000E+02  0.51100000000E-03 0. -1.
         11   -1    0    0    0    0 -0.00000000000E+00 -0.00000000000E+00 -0.45593999997E+02  0.45594000000E+02  0.51100000000E-03 0.  1.
    9900012    2    1    2    0    0 -0.46126380633E+00  0.44522561285E+00  0.99099306567E+00  0.90007721473E+02  0.89999982596E+02 0.  0.
        -12    1    1    2    0    0  0.46126380633E+00 -0.44522561285E+00 -0.99099306567E+00  0.11802785271E+01  0.00000000000E+00 0.  1.
         11    1    3    3    0    0 -0.37383735308E+02  0.10652043045E+02  0.56029852464E+01  0.39273440524E+02  0.51100000000E-03 0. -1.
        -11    1    3    3    0    0 -0.16562403342E+01  0.75314955234E+01 -0.28991230833E+01  0.82384143970E+01  0.51100000000E-03 0.  1.
        -12    1    3    3    0    0  0.38578711836E+02 -0.17738312956E+02 -0.17128690974E+01  0.42495866552E+02  0.00000000000E+00 0.  1.
</event>
<event>
 7    1  0.3743571E-015  0.9000772E+02  0.7816164E-02  0.1186339E+00
        -11   -1    0    0    0    0  0.00000000000E+00  0.00000000000E+00  0.45593999997E+02  0.45594000000E+02  0.51100000000E-03 0. -1.
         11   -1    0    0    0    0 -0.00000000000E+00 -0.00000000000E+00 -0.45593999997E+02  0.45594000000E+02  0.51100000000E-03 0.  1.
    9900012    2    1    2    0    0  0.10550814036E+01 -0.46908863119E+00  0.24459633329E+00  0.90007716865E+02  0.89999977928E+02 0.  0.
        -12    1    1    2    0    0 -0.10550814036E+01  0.46908863119E+00 -0.24459633329E+00  0.11802831349E+01  0.00000000000E+00 0.  1.
         11    1    3    3    0    0 -0.33303203267E+02  0.11231850647E+02  0.20473443111E+02  0.40674558263E+02  0.51100000000E-03 0. -1.
        -11    1    3    3    0    0  0.29829612512E+01 -0.10984646065E+02  0.10272592927E+01  0.11428725604E+02  0.51100000000E-03 0.  1.
        -12    1    3    3    0    0  0.31375323420E+02 -0.71629321272E+00 -0.21256106071E+02  0.37904432998E+02  0.00000000000E+00 0.  1.
</event>
<event>
 7    1  0.3743571E-015  0.9000761E+02  0.7816164E-02  0.1186339E+00
        -11   -1    0    0    0    0  0.00000000000E+00  0.00000000000E+00  0.45593999997E+02  0.45594000000E+02  0.51100000000E-03 0.  1.
         11   -1    0    0    0    0 -0.00000000000E+00 -0.00000000000E+00 -0.45593999997E+02  0.45594000000E+02  0.51100000000E-03 0. -1.
    9900012    2    1    2    0    0 -0.28780514120E+00 -0.95689927757E+00 -0.62836516493E+00  0.90007605656E+02  0.89999865251E+02 0.  0.
        -12    1    1    2    0    0  0.28780514120E+00  0.95689927757E+00  0.62836516493E+00  0.11803943439E+01  0.00000000000E+00 0.  1.
         11    1    3    3    0    0  0.14175153644E+02  0.25849642393E+02 -0.22225941775E+02  0.36920610514E+02  0.51100000000E-03 0. -1.
        -11    1    3    3    0    0 -0.32616527918E+01  0.44367860620E+01 -0.72554107535E+01  0.91084814847E+01  0.51100000000E-03 0.  1.
        -12    1    3    3    0    0 -0.11201305993E+02 -0.31243327732E+02  0.28852987363E+02  0.43978513658E+02  0.00000000000E+00 0.  1.
</event>
<event>
 7    1  0.3743571E-015  0.9000777E+02  0.7816164E-02  0.1186339E+00
        -11   -1    0    0    0    0  0.00000000000E+00  0.00000000000E+00  0.45593999997E+02  0.45594000000E+02  0.51100000000E-03 0. -1.
         11   -1    0    0    0    0 -0.00000000000E+00 -0.00000000000E+00 -0.45593999997E+02  0.45594000000E+02  0.51100000000E-03 0.  1.
    9900012    2    1    2    0    0  0.64252006999E+00  0.90672554104E+00 -0.39742875840E+00  0.90007774231E+02  0.90000036051E+02 0.  0.
        -12    1    1    2    0    0 -0.64252006999E+00 -0.90672554104E+00  0.39742875840E+00  0.11802257687E+01  0.00000000000E+00 0.  1.
         11    1    3    3    0    0 -0.73615149233E+00  0.15738824199E+01  0.10881598931E+02  0.11019447375E+02  0.51100000000E-03 0. -1.
        -11    1    3    3    0    0 -0.32538439823E+02  0.39307326382E+00  0.15229164174E+02  0.35928150723E+02  0.51100000000E-03 0.  1.
         12    1    3    3    0    0  0.33917111385E+02 -0.10602301427E+01 -0.26508191864E+02  0.43060176133E+02  0.00000000000E+00 0. -1.
</event>
<event>
 7    1  0.3743571E-015  0.9000780E+02  0.7816164E-02  0.1186339E+00
        -11   -1    0    0    0    0  0.00000000000E+00  0.00000000000E+00  0.45593999997E+02  0.45594000000E+02  0.51100000000E-03 0.  1.
         11   -1    0    0    0    0 -0.00000000000E+00 -0.00000000000E+00 -0.45593999997E+02  0.45594000000E+02  0.51100000000E-03 0. -1.
    9900012    2    1    2    0    0  0.54481778271E+00  0.93771771123E+00 -0.46554981117E+00  0.90007797666E+02  0.90000059795E+02 0.  0.
        -12    1    1    2    0    0 -0.54481778271E+00 -0.93771771123E+00  0.46554981117E+00  0.11802023339E+01  0.00000000000E+00 0.  1.
         11    1    3    3    0    0 -0.32855967846E+00 -0.35371688661E+02  0.35996990455E+01  0.35555901672E+02  0.51100000000E-03 0. -1.
        -11    1    3    3    0    0 -0.30568753569E+01 -0.80502379112E+01 -0.49059296745E+01  0.99105480982E+01  0.51100000000E-03 0.  1.
        -12    1    3    3    0    0  0.39302528181E+01  0.44359644284E+02  0.84068081781E+00  0.44541347896E+02  0.00000000000E+00 0.  1.
</event>
<event>
 7    1  0.3743571E-015  0.9000789E+02  0.7816164E-02  0.1186339E+00
        -11   -1    0    0    0    0  0.00000000000E+00  0.00000000000E+00  0.45593999997E+02  0.45594000000E+02  0.51100000000E-03 0. -1.
         11   -1    0    0    0    0 -0.00000000000E+00 -0.00000000000E+00 -0.45593999997E+02  0.45594000000E+02  0.51100000000E-03 0.  1.
    9900012    2    1    2    0    0 -0.25058902034E+00 -0.11314956429E+01 -0.22267972841E+00  0.90007888349E+02  0.90000151675E+02 0.  0.
        -12    1    1    2    0    0  0.25058902034E+00  0.11314956429E+01  0.22267972841E+00  0.11801116509E+01  0.00000000000E+00 0.  1.
         11    1    3    3    0    0  0.91584108581E+01 -0.34735190199E+02  0.18240849002E+02  0.40288193062E+02  0.51100000000E-03 0. -1.
        -11    1    3    3    0    0  0.59120323889E+01  0.54243606271E+01  0.54603242268E+01  0.97052025277E+01  0.51100000000E-03 0.  1.
        -12    1    3    3    0    0 -0.15321032267E+02  0.28179333929E+02 -0.23923852958E+02  0.40014492759E+02  0.00000000000E+00 0.  1.
</event>
<event>
 7    1  0.3743571E-015  0.9000771E+02  0.7816164E-02  0.1186339E+00
        -11   -1    0    0    0    0  0.00000000000E+00  0.00000000000E+00  0.45593999997E+02  0.45594000000E+02  0.51100000000E-03 0. -1.
         11   -1    0    0    0    0 -0.00000000000E+00 -0.00000000000E+00 -0.45593999997E+02  0.45594000000E+02  0.51100000000E-03 0.  1.
    9900012    2    1    2    0    0  0.26285237629E+00 -0.99848061633E+00  0.57186646912E+00  0.90007709285E+02  0.89999970248E+02 0.  0.
        -12    1    1    2    0    0 -0.26285237629E+00  0.99848061633E+00 -0.57186646912E+00  0.11802907148E+01  0.00000000000E+00 0.  1.
         11    1    3    3    0    0 -0.88238291040E+01  0.12487685886E+02  0.51763535653E+01  0.16143013825E+02  0.51100000000E-03 0. -1.
        -11    1    3    3    0    0  0.49729533293E+01 -0.70629084348E-02 -0.37630411327E+02  0.37957583849E+02  0.51100000000E-03 0.  1.
         12    1    3    3    0    0  0.41137281509E+01 -0.13479103594E+02  0.33025924231E+02  0.35907111612E+02  0.00000000000E+00 0. -1.
</event>
<event>
 7    1  0.3743571E-015  0.9000776E+02  0.7816164E-02  0.1186339E+00
        -11   -1    0    0    0    0  0.00000000000E+00  0.00000000000E+00  0.45593999997E+02  0.45594000000E+02  0.51100000000E-03 0. -1.
         11   -1    0    0    0    0 -0.00000000000E+00 -0.00000000000E+00 -0.45593999997E+02  0.45594000000E+02  0.51100000000E-03 0.  1.
    9900012    2    1    2    0    0  0.64622515232E+00  0.68447146670E+00 -0.71194210499E+00  0.90007758628E+02  0.90000020242E+02 0.  0.
        -12    1    1    2    0    0 -0.64622515232E+00 -0.68447146670E+00  0.71194210499E+00  0.11802413724E+01  0.00000000000E+00 0.  1.
         11    1    3    3    0    0 -0.28393245808E+02  0.13270769668E+02 -0.73466056285E+01  0.32191029024E+02  0.51100000000E-03 0. -1.
        -11    1    3    3    0    0  0.31426845462E+01 -0.74959964288E+01 -0.19221567881E+02  0.20869477729E+02  0.51100000000E-03 0.  1.
        -12    1    3    3    0    0  0.25896786414E+02 -0.50903017727E+01  0.25856231404E+02  0.36947251875E+02  0.00000000000E+00 0.  1.
</event>
<event>
 7    1  0.3743571E-015  0.9000769E+02  0.7816164E-02  0.1186339E+00
        -11   -1    0    0    0    0  0.00000000000E+00  0.00000000000E+00  0.45593999997E+02  0.45594000000E+02  0.51100000000E-03 0.  1.
         11   -1    0    0    0    0 -0.00000000000E+00 -0.00000000000E+00 -0.45593999997E+02  0.45594000000E+02  0.51100000000E-03 0. -1.
    9900012    2    1    2    0    0 -0.43860552756E-01 -0.44071846633E+00 -0.10940592199E+01  0.90007694069E+02  0.89999954830E+02 0.  0.
        -12    1    1    2    0    0  0.43860552756E-01  0.44071846633E+00  0.10940592199E+01  0.11803059312E+01  0.00000000000E+00 0.  1.
         11    1    3    3    0    0  0.81856327339E+01 -0.19840589919E+02 -0.24194801129E+02  0.32342572463E+02  0.51100000000E-03 0. -1.
        -11    1    3    3    0    0  0.13308230023E+02 -0.63341567725E+01 -0.31356686466E+01  0.15068607981E+02  0.51100000000E-03 0.  1.
        -12    1    3    3    0    0 -0.21537723310E+02  0.25734028225E+02  0.26236410556E+02  0.42596513624E+02  0.00000000000E+00 0.  1.
</event>
<event>
 7    1  0.3743571E-015  0.9000772E+02  0.7816164E-02  0.1186339E+00
        -11   -1    0    0    0    0  0.00000000000E+00  0.00000000000E+00  0.45593999997E+02  0.45594000000E+02  0.51100000000E-03 0.  1.
         11   -1    0    0    0    0 -0.00000000000E+00 -0.00000000000E+00 -0.45593999997E+02  0.45594000000E+02  0.51100000000E-03 0. -1.
    9900012    2    1    2    0    0  0.27509365951E+00  0.72665536854E+00 -0.88845977687E+00  0.90007718118E+02  0.89999979197E+02 0.  0.
        -12    1    1    2    0    0 -0.27509365951E+00 -0.72665536854E+00  0.88845977687E+00  0.11802818821E+01  0.00000000000E+00 0.  1.
         11    1    3    3    0    0  0.14694398771E+02 -0.49134736571E+01  0.17514557572E+02  0.23384338901E+02  0.51100000000E-03 0. -1.
        -11    1    3    3    0    0  0.20579899404E+02  0.24525015954E+01  0.84628350956E+01  0.22386750583E+02  0.51100000000E-03 0.  1.
         12    1    3    3    0    0 -0.34999204515E+02  0.31876274302E+01 -0.26865852445E+02  0.44236628634E+02  0.00000000000E+00 0. -1.
</event>
<event>
 7    1  0.3743571E-015  0.9000772E+02  0.7816164E-02  0.1186339E+00
        -11   -1    0    0    0    0  0.00000000000E+00  0.00000000000E+00  0.45593999997E+02  0.45594000000E+02  0.51100000000E-03 0. -1.
         11   -1    0    0    0    0 -0.00000000000E+00 -0.00000000000E+00 -0.45593999997E+02  0.45594000000E+02  0.51100000000E-03 0.  1.
    9900012    2    1    2    0    0 -0.10532288621E+01 -0.44801210229E+00  0.28818498882E+00  0.90007721869E+02  0.89999982997E+02 0.  0.
        -12    1    1    2    0    0  0.10532288621E+01  0.44801210229E+00 -0.28818498882E+00  0.11802781315E+01  0.00000000000E+00 0.  1.
         11    1    3    3    0    0  0.23574136005E+02  0.13268100639E+02  0.26054148024E+02  0.37557968694E+02  0.51100000000E-03 0. -1.
        -11    1    3    3    0    0 -0.70869568688E+01  0.19055360258E+01  0.82949341597E+01  0.11075285919E+02  0.51100000000E-03 0.  1.
        -12    1    3    3    0    0 -0.17540407998E+02 -0.15621648767E+02 -0.34060897195E+02  0.41374467255E+02  0.00000000000E+00 0.  1.
</event>
<event>
 7    1  0.3743571E-015  0.9000772E+02  0.7816164E-02  0.1186339E+00
        -11   -1    0    0    0    0  0.00000000000E+00  0.00000000000E+00  0.45593999997E+02  0.45594000000E+02  0.51100000000E-03 0.  1.
         11   -1    0    0    0    0 -0.00000000000E+00 -0.00000000000E+00 -0.45593999997E+02  0.45594000000E+02  0.51100000000E-03 0. -1.
    9900012    2    1    2    0    0  0.10231518376E+00 -0.10741032038E+01 -0.47842297638E+00  0.90007722645E+02  0.89999983784E+02 0.  0.
        -12    1    1    2    0    0 -0.10231518376E+00  0.10741032038E+01  0.47842297638E+00  0.11802773545E+01  0.00000000000E+00 0.  1.
         11    1    3    3    0    0 -0.95056537165E+01 -0.50321847194E+01 -0.37305935346E+02  0.38825418838E+02  0.51100000000E-03 0. -1.
        -11    1    3    3    0    0 -0.38223462605E+01 -0.86448208144E+01 -0.59741184185E+00  0.94710167890E+01  0.51100000000E-03 0.  1.
        -12    1    3    3    0    0  0.13430315161E+02  0.12602902330E+02  0.37424924212E+02  0.41711287018E+02  0.00000000000E+00 0.  1.
</event>
<event>
 7    1  0.3743571E-015  0.9000777E+02  0.7816164E-02  0.1186339E+00
        -11   -1    0    0    0    0  0.00000000000E+00  0.00000000000E+00  0.45593999997E+02  0.45594000000E+02  0.51100000000E-03 0.  1.
         11   -1    0    0    0    0 -0.00000000000E+00 -0.00000000000E+00 -0.45593999997E+02  0.45594000000E+02  0.51100000000E-03 0. -1.
    9900012    2    1    2    0    0 -0.68693102278E+00  0.95066017299E+00  0.13156969995E+00  0.90007771386E+02  0.90000033169E+02 0.  0.
        -12    1    1    2    0    0  0.68693102278E+00 -0.95066017299E+00 -0.13156969995E+00  0.11802286137E+01  0.00000000000E+00 0.  1.
         11    1    3    3    0    0  0.47119232765E+01  0.30873844844E+02 -0.21670938623E+02  0.38013498884E+02  0.51100000000E-03 0. -1.
        -11    1    3    3    0    0 -0.51955092602E+01 -0.11191570663E+01 -0.86022139692E+01  0.10111573292E+02  0.51100000000E-03 0.  1.
        -12    1    3    3    0    0 -0.20334503912E+00 -0.28804027604E+02  0.30404722292E+02  0.41882699210E+02  0.00000000000E+00 0.  1.
</event>
<event>
 7    1  0.3743571E-015  0.9000756E+02  0.7816164E-02  0.1186339E+00
        -11   -1    0    0    0    0  0.00000000000E+00  0.00000000000E+00  0.45593999997E+02  0.45594000000E+02  0.51100000000E-03 0. -1.
         11   -1    0    0    0    0 -0.00000000000E+00 -0.00000000000E+00 -0.45593999997E+02  0.45594000000E+02  0.51100000000E-03 0.  1.
    9900012    2    1    2    0    0 -0.28219537625E+00 -0.11451009240E+01  0.50492924190E-01  0.90007559450E+02  0.89999818435E+02 0.  0.
        -12    1    1    2    0    0  0.28219537625E+00  0.11451009240E+01 -0.50492924190E-01  0.11804405499E+01  0.00000000000E+00 0.  1.
         11    1    3    3    0    0  0.91767162275E+01  0.32649208012E+01  0.33396226754E+02  0.34787638469E+02  0.51100000000E-03 0. -1.
        -11    1    3    3    0    0  0.13575442791E+01 -0.19863280218E+01  0.10099904495E+02  0.10382509164E+02  0.51100000000E-03 0.  1.
        -12    1    3    3    0    0 -0.10816455883E+02 -0.24236937035E+01 -0.43445638325E+02  0.44837411817E+02  0.00000000000E+00 0.  1.
</event>
<event>
 7    1  0.3743571E-015  0.9000769E+02  0.7816164E-02  0.1186339E+00
        -11   -1    0    0    0    0  0.00000000000E+00  0.00000000000E+00  0.45593999997E+02  0.45594000000E+02  0.51100000000E-03 0. -1.
         11   -1    0    0    0    0 -0.00000000000E+00 -0.00000000000E+00 -0.45593999997E+02  0.45594000000E+02  0.51100000000E-03 0.  1.
    9900012    2    1    2    0    0  0.58531473492E+00 -0.96684095436E+00  0.34024231382E+00  0.90007686651E+02  0.89999947315E+02 0.  0.
        -12    1    1    2    0    0 -0.58531473492E+00  0.96684095436E+00 -0.34024231382E+00  0.11803133491E+01  0.00000000000E+00 0.  1.
         11    1    3    3    0    0  0.38390304935E+01 -0.68115108737E+01 -0.53744282851E+01  0.94878509245E+01  0.51100000000E-03 0. -1.
        -11    1    3    3    0    0 -0.31882259560E+02  0.26694291381E+02 -0.83519560691E+01  0.42412484453E+02  0.51100000000E-03 0.  1.
         12    1    3    3    0    0  0.28628543802E+02 -0.20849621462E+02  0.14066626668E+02  0.38107351274E+02  0.00000000000E+00 0. -1.
</event>
<event>
 7    1  0.3743571E-015  0.9000779E+02  0.7816164E-02  0.1186339E+00
        -11   -1    0    0    0    0  0.00000000000E+00  0.00000000000E+00  0.45593999997E+02  0.45594000000E+02  0.51100000000E-03 0.  1.
         11   -1    0    0    0    0 -0.00000000000E+00 -0.00000000000E+00 -0.45593999997E+02  0.45594000000E+02  0.51100000000E-03 0. -1.
    9900012    2    1    2    0    0  0.58485336788E+00 -0.10072802313E+01  0.19032510354E+00  0.90007792149E+02  0.90000054205E+02 0.  0.
        -12    1    1    2    0    0 -0.58485336788E+00  0.10072802313E+01 -0.19032510354E+00  0.11802078509E+01  0.00000000000E+00 0.  1.
         11    1    3    3    0    0 -0.54769051688E+01 -0.77812572349E-01  0.30200618623E+01  0.62548636226E+01  0.51100000000E-03 0. -1.
        -11    1    3    3    0    0  0.36806642921E+02  0.57723419530E+01  0.22354920574E+02  0.43448721142E+02  0.51100000000E-03 0.  1.
         12    1    3    3    0    0 -0.30744884385E+02 -0.67018096120E+01 -0.25184657333E+02  0.40304207384E+02  0.00000000000E+00 0. -1.
</event>
<event>
 7    1  0.3743571E-015  0.9000775E+02  0.7816164E-02  0.1186339E+00
        -11   -1    0    0    0    0  0.00000000000E+00  0.00000000000E+00  0.45593999997E+02  0.45594000000E+02  0.51100000000E-03 0.  1.
         11   -1    0    0    0    0 -0.00000000000E+00 -0.00000000000E+00 -0.45593999997E+02  0.45594000000E+02  0.51100000000E-03 0. -1.
    9900012    2    1    2    0    0  0.28120928100E+00  0.52983662263E+00 -0.10164584873E+01  0.90007748602E+02  0.90000010083E+02 0.  0.
        -12    1    1    2    0    0 -0.28120928100E+00 -0.52983662263E+00  0.10164584873E+01  0.11802513982E+01  0.00000000000E+00 0.  1.
         11    1    3    3    0    0 -0.90117915633E+01 -0.30088207640E+01 -0.25248244669E+01  0.98305711136E+01  0.51100000000E-03 0. -1.
        -11    1    3    3    0    0 -0.91505231532E+01 -0.51399463773E+01  0.37430929979E+02  0.38874485747E+02  0.51100000000E-03 0.  1.
         12    1    3    3    0    0  0.18443523997E+02  0.86786037639E+01 -0.35922564000E+02  0.41302691741E+02  0.00000000000E+00 0. -1.
</event>
<event>
 7    1  0.3743571E-015  0.9000784E+02  0.7816164E-02  0.1186339E+00
        -11   -1    0    0    0    0  0.00000000000E+00  0.00000000000E+00  0.45593999997E+02  0.45594000000E+02  0.51100000000E-03 0.  1.
         11   -1    0    0    0    0 -0.00000000000E+00 -0.00000000000E+00 -0.45593999997E+02  0.45594000000E+02  0.51100000000E-03 0. -1.
    9900012    2    1    2    0    0  0.10478922470E+01  0.23636579879E-01 -0.54235707050E+00  0.90007835587E+02  0.90000098217E+02 0.  0.
        -12    1    1    2    0    0 -0.10478922470E+01 -0.23636579879E-01  0.54235707050E+00  0.11801644127E+01  0.00000000000E+00 0.  1.
         11    1    3    3    0    0 -0.32766683339E+02 -0.22177866452E+01 -0.23178866809E+02  0.40197437499E+02  0.51100000000E-03 0. -1.
        -11    1    3    3    0    0  0.27155207864E+01 -0.96160904995E+01  0.84414916385E+00  0.10027753373E+02  0.51100000000E-03 0.  1.
        -12    1    3    3    0    0  0.31099054800E+02  0.11857513725E+02  0.21792360575E+02  0.39782644716E+02  0.00000000000E+00 0.  1.
</event>
<event>
 7    1  0.3743571E-015  0.9000770E+02  0.7816164E-02  0.1186339E+00
        -11   -1    0    0    0    0  0.00000000000E+00  0.00000000000E+00  0.45593999997E+02  0.45594000000E+02  0.51100000000E-03 0. -1.
         11   -1    0    0    0    0 -0.00000000000E+00 -0.00000000000E+00 -0.45593999997E+02  0.45594000000E+02  0.51100000000E-03 0.  1.
    9900012    2    1    2    0    0 -0.97500933533E+00 -0.39035240305E+00  0.53860255536E+00  0.90007698803E+02  0.89999959627E+02 0.  0.
        -12    1    1    2    0    0  0.97500933533E+00  0.39035240305E+00 -0.53860255536E+00  0.11803011968E+01  0.00000000000E+00 0.  1.
         11    1    3    3    0    0 -0.29283256737E+02 -0.22367736924E+02 -0.38112384183E+01  0.37045246912E+02  0.51100000000E-03 0. -1.
        -11    1    3    3    0    0 -0.71555684492E+01 -0.56978052199E+00 -0.63647419320E+01  0.95935785710E+01  0.51100000000E-03 0.  1.
        -12    1    3    3    0    0  0.35463815851E+02  0.22547165043E+02  0.10714582906E+02  0.43368873320E+02  0.00000000000E+00 0.  1.
</event>
<event>
 7    1  0.3743571E-015  0.9000770E+02  0.7816164E-02  0.1186339E+00
        -11   -1    0    0    0    0  0.00000000000E+00  0.00000000000E+00  0.45593999997E+02  0.45594000000E+02  0.51100000000E-03 0. -1.
         11   -1    0    0    0    0 -0.00000000000E+00 -0.00000000000E+00 -0.45593999997E+02  0.45594000000E+02  0.51100000000E-03 0.  1.
    9900012    2    1    2    0    0 -0.63933638094E+00  0.53046711041E+00  0.83842289145E+00  0.90007703720E+02  0.89999964609E+02 0.  0.
        -12    1    1    2    0    0  0.63933638094E+00 -0.53046711041E+00 -0.83842289145E+00  0.11802962798E+01  0.00000000000E+00 0.  1.
         11    1    3    3    0    0 -0.12055408882E+02 -0.25691384006E+02 -0.22074479570E+02  0.35953619345E+02  0.51100000000E-03 0. -1.
        -11    1    3    3    0    0 -0.40644709772E+01 -0.55044907495E+01 -0.54677344831E+01  0.87587364028E+01  0.51100000000E-03 0.  1.
        -12    1    3    3    0    0  0.15480543478E+02  0.31726341866E+02  0.28380636944E+02  0.45295347972E+02  0.00000000000E+00 0.  1.
</event>
<event>
 7    1  0.3858408E-015  0.9000770E+02  0.7816164E-02  0.1186339E+00
        -11   -1    0    0    0    0  0.00000000000E+00  0.00000000000E+00  0.45593999997E+02  0.45594000000E+02  0.51100000000E-03 0.  1.
         11   -1    0    0    0    0 -0.00000000000E+00 -0.00000000000E+00 -0.45593999997E+02  0.45594000000E+02  0.51100000000E-03 0. -1.
    9900012    2    1    2    0    0  0.83671649474E+00  0.22138581663E+00 -0.80250115139E+00  0.90007697382E+02  0.89999958187E+02 0.  0.
        -12    1    1    2    0    0 -0.83671649474E+00 -0.22138581663E+00  0.80250115139E+00  0.11803026181E+01  0.00000000000E+00 0.  1.
         11    1    3    3    0    0 -0.70057192016E+01 -0.56718412871E+01  0.31566815391E+01  0.95506294933E+01  0.51100000000E-03 0. -1.
        -11    1    3    3    0    0  0.14920694617E+02 -0.12868737383E+02  0.32984796999E+02  0.38421717336E+02  0.51100000000E-03 0.  1.
         12    1    3    3    0    0 -0.70782589210E+01  0.18761964487E+02 -0.36943979690E+02  0.42035350553E+02  0.00000000000E+00 0. -1.
</event>
<event>
 7    1  0.3743571E-015  0.9000768E+02  0.7816164E-02  0.1186339E+00
        -11   -1    0    0    0    0  0.00000000000E+00  0.00000000000E+00  0.45593999997E+02  0.45594000000E+02  0.51100000000E-03 0.  1.
         11   -1    0    0    0    0 -0.00000000000E+00 -0.00000000000E+00 -0.45593999997E+02  0.45594000000E+02  0.51100000000E-03 0. -1.
    9900012    2    1    2    0    0  0.67325972038E+00 -0.90795469697E+00 -0.33984670370E+00  0.90007679635E+02  0.89999940206E+02 0.  0.
        -12    1    1    2    0    0 -0.67325972038E+00  0.90795469697E+00  0.33984670370E+00  0.11803203653E+01  0.00000000000E+00 0.  1.
         11    1    3    3    0    0  0.20623195477E+02  0.68224403480E+01 -0.34000040638E+02  0.40346804677E+02  0.51100000000E-03 0. -1.
        -11    1    3    3    0    0 -0.42995149543E+01  0.86996490989E+01  0.81287505637E+00  0.97380947523E+01  0.51100000000E-03 0.  1.
        -12    1    3    3    0    0 -0.15650420802E+02 -0.16430044144E+02  0.32847318878E+02  0.39922780205E+02  0.00000000000E+00 0.  1.
</event>
<event>
 7    1  0.3743571E-015  0.9000771E+02  0.7816164E-02  0.1186339E+00
        -11   -1    0    0    0    0  0.00000000000E+00  0.00000000000E+00  0.45593999997E+02  0.45594000000E+02  0.51100000000E-03 0.  1.
         11   -1    0    0    0    0 -0.00000000000E+00 -0.00000000000E+00 -0.45593999997E+02  0.45594000000E+02  0.51100000000E-03 0. -1.
    9900012    2    1    2    0    0 -0.10327493531E+01  0.45273103935E+00  0.34863357583E+00  0.90007711056E+02  0.89999972042E+02 0.  0.
        -12    1    1    2    0    0  0.10327493531E+01 -0.45273103935E+00 -0.34863357583E+00  0.11802889436E+01  0.00000000000E+00 0.  1.
         11    1    3    3    0    0  0.27192934901E+01 -0.89162764281E+01 -0.24654903010E+01  0.96422603736E+01  0.51100000000E-03 0. -1.
        -11    1    3    3    0    0  0.11195604161E+02 -0.30277504330E+02  0.15948218285E+02  0.36005756313E+02  0.51100000000E-03 0.  1.
         12    1    3    3    0    0 -0.14947647004E+02  0.39646511797E+02 -0.13134094408E+02  0.44359694370E+02  0.00000000000E+00 0. -1.
</event>
<event>
 7    1  0.3743571E-015  0.9000773E+02  0.7816164E-02  0.1186339E+00
        -11   -1    0    0    0    0  0.00000000000E+00  0.00000000000E+00  0.45593999997E+02  0.45594000000E+02  0.51100000000E-03 0. -1.
         11   -1    0    0    0    0 -0.00000000000E+00 -0.00000000000E+00 -0.45593999997E+02  0.45594000000E+02  0.51100000000E-03 0.  1.
    9900012    2    1    2    0    0 -0.83941633969E-01 -0.20774782173E+00  0.11588027193E+01  0.90007733463E+02  0.89999994745E+02 0.  0.
        -12    1    1    2    0    0  0.83941633969E-01  0.20774782173E+00 -0.11588027193E+01  0.11802665367E+01  0.00000000000E+00 0.  1.
         11    1    3    3    0    0 -0.19840413591E+02  0.34893243798E+02  0.20267743939E+02  0.44966230872E+02  0.51100000000E-03 0. -1.
        -11    1    3    3    0    0  0.30104787290E+01 -0.61461583222E+01 -0.60481215872E+01  0.91333465550E+01  0.51100000000E-03 0.  1.
        -12    1    3    3    0    0  0.16745993228E+02 -0.28954833297E+02 -0.13060819632E+02  0.35908156036E+02  0.00000000000E+00 0.  1.
</event>
<event>
 7    1  0.3743571E-015  0.9000782E+02  0.7816164E-02  0.1186339E+00
        -11   -1    0    0    0    0  0.00000000000E+00  0.00000000000E+00  0.45593999997E+02  0.45594000000E+02  0.51100000000E-03 0.  1.
         11   -1    0    0    0    0 -0.00000000000E+00 -0.00000000000E+00 -0.45593999997E+02  0.45594000000E+02  0.51100000000E-03 0. -1.
    9900012    2    1    2    0    0 -0.77875933352E+00 -0.77441948007E+00 -0.43200135335E+00  0.90007823403E+02  0.90000085872E+02 0.  0.
        -12    1    1    2    0    0  0.77875933352E+00  0.77441948007E+00  0.43200135335E+00  0.11801765969E+01  0.00000000000E+00 0.  1.
         11    1    3    3    0    0 -0.75395420802E+01  0.35599716008E+02  0.18958316431E+02  0.41031722323E+02  0.51100000000E-03 0. -1.
        -11    1    3    3    0    0  0.22218030277E+01  0.21304578231E+01 -0.79917255203E+01  0.85640490589E+01  0.51100000000E-03 0.  1.
        -12    1    3    3    0    0  0.45389797189E+01 -0.38504593311E+02 -0.11398592264E+02  0.40412052021E+02  0.00000000000E+00 0.  1.
</event>
<event>
 7    1  0.3743571E-015  0.9000820E+02  0.7816164E-02  0.1186338E+00
        -11   -1    0    0    0    0  0.00000000000E+00  0.00000000000E+00  0.45593999997E+02  0.45594000000E+02  0.51100000000E-03 0. -1.
         11   -1    0    0    0    0 -0.00000000000E+00 -0.00000000000E+00 -0.45593999997E+02  0.45594000000E+02  0.51100000000E-03 0.  1.
    9900012    2    1    2    0    0  0.26092060119E+00 -0.10053713079E+01  0.55953113256E+00  0.90008200816E+02  0.90000468265E+02 0.  0.
        -12    1    1    2    0    0 -0.26092060119E+00  0.10053713079E+01 -0.55953113256E+00  0.11797991843E+01  0.00000000000E+00 0.  1.
         11    1    3    3    0    0  0.41061507919E+01  0.65361260348E+01  0.14124743056E+01  0.78470696309E+01  0.51100000000E-03 0. -1.
        -11    1    3    3    0    0 -0.17043496933E+02  0.12419616305E+02 -0.34761949971E+02  0.40658588551E+02  0.51100000000E-03 0.  1.
         12    1    3    3    0    0  0.13198266742E+02 -0.19961113647E+02  0.33909006798E+02  0.41502542634E+02  0.00000000000E+00 0. -1.
</event>
<event>
 7    1  0.3743571E-015  0.9000765E+02  0.7816164E-02  0.1186339E+00
        -11   -1    0    0    0    0  0.00000000000E+00  0.00000000000E+00  0.45593999997E+02  0.45594000000E+02  0.51100000000E-03 0.  1.
         11   -1    0    0    0    0 -0.00000000000E+00 -0.00000000000E+00 -0.45593999997E+02  0.45594000000E+02  0.51100000000E-03 0. -1.
    9900012    2    1    2    0    0  0.13452239078E+00 -0.11264065586E+01 -0.32610025368E+00  0.90007648618E+02  0.89999908780E+02 0.  0.
        -12    1    1    2    0    0 -0.13452239078E+00  0.11264065586E+01  0.32610025368E+00  0.11803513817E+01  0.00000000000E+00 0.  1.
         11    1    3    3    0    0 -0.19302403259E+01 -0.64310918317E+01  0.79921696717E+01  0.10438368943E+02  0.51100000000E-03 0. -1.
        -11    1    3    3    0    0  0.16628583975E+02  0.33744844397E+02  0.14487907901E+02  0.40312824312E+02  0.51100000000E-03 0.  1.
         12    1    3    3    0    0 -0.14563821259E+02 -0.28440159124E+02 -0.22806177826E+02  0.39256455363E+02  0.00000000000E+00 0. -1.
</event>
<event>
 7    1  0.3743571E-015  0.9000774E+02  0.7816164E-02  0.1186339E+00
        -11   -1    0    0    0    0  0.00000000000E+00  0.00000000000E+00  0.45593999997E+02  0.45594000000E+02  0.51100000000E-03 0. -1.
         11   -1    0    0    0    0 -0.00000000000E+00 -0.00000000000E+00 -0.45593999997E+02  0.45594000000E+02  0.51100000000E-03 0.  1.
    9900012    2    1    2    0    0 -0.10790790038E+01  0.11078574881E+00 -0.46511792225E+00  0.90007737461E+02  0.89999998796E+02 0.  0.
        -12    1    1    2    0    0  0.10790790038E+01 -0.11078574881E+00  0.46511792225E+00  0.11802625386E+01  0.00000000000E+00 0.  1.
         11    1    3    3    0    0 -0.13025444091E+01  0.82027571686E+00 -0.79687320272E+01  0.81160436526E+01  0.51100000000E-03 0. -1.
        -11    1    3    3    0    0 -0.24495335832E+02 -0.59204024868E+01 -0.28414360951E+02  0.37979580719E+02  0.51100000000E-03 0.  1.
         12    1    3    3    0    0  0.24718801237E+02  0.52109125187E+01  0.35917975056E+02  0.43912113089E+02  0.00000000000E+00 0. -1.
</event>
<event>
 7    1  0.3743571E-015  0.9000776E+02  0.7816164E-02  0.1186339E+00
        -11   -1    0    0    0    0  0.00000000000E+00  0.00000000000E+00  0.45593999997E+02  0.45594000000E+02  0.51100000000E-03 0.  1.
         11   -1    0    0    0    0 -0.00000000000E+00 -0.00000000000E+00 -0.45593999997E+02  0.45594000000E+02  0.51100000000E-03 0. -1.
    9900012    2    1    2    0    0 -0.59001238042E+00 -0.51293311855E+00 -0.88417072906E+00  0.90007757283E+02  0.90000018879E+02 0.  0.
        -12    1    1    2    0    0  0.59001238042E+00  0.51293311855E+00  0.88417072906E+00  0.11802427171E+01  0.00000000000E+00 0.  1.
         11    1    3    3    0    0 -0.19970150599E+02 -0.38556355846E+02 -0.53749563819E+00  0.43424513733E+02  0.51100000000E-03 0. -1.
        -11    1    3    3    0    0  0.40029344959E+01  0.14447035345E+01  0.49563500288E+01  0.65326915395E+01  0.51100000000E-03 0.  1.
        -12    1    3    3    0    0  0.15377203723E+02  0.36598719193E+02 -0.53030251197E+01  0.40050552011E+02  0.00000000000E+00 0.  1.
</event>
<event>
 7    1  0.3743571E-015  0.9000779E+02  0.7816164E-02  0.1186339E+00
        -11   -1    0    0    0    0  0.00000000000E+00  0.00000000000E+00  0.45593999997E+02  0.45594000000E+02  0.51100000000E-03 0.  1.
         11   -1    0    0    0    0 -0.00000000000E+00 -0.00000000000E+00 -0.45593999997E+02  0.45594000000E+02  0.51100000000E-03 0. -1.
    9900012    2    1    2    0    0 -0.11732668084E+01  0.64799449375E-01 -0.11018168105E+00  0.90007790707E+02  0.90000052744E+02 0.  0.
        -12    1    1    2    0    0  0.11732668084E+01 -0.64799449375E-01  0.11018168105E+00  0.11802092930E+01  0.00000000000E+00 0.  1.
         11    1    3    3    0    0 -0.41189481383E+01  0.80873580414E+01 -0.28340741642E+01  0.95080529282E+01  0.51100000000E-03 0. -1.
        -11    1    3    3    0    0 -0.67808779275E+01  0.28754150853E+02  0.22955630883E+02  0.37413132537E+02  0.51100000000E-03 0.  1.
         12    1    3    3    0    0  0.97265592574E+01 -0.36776709445E+02 -0.20231738400E+02  0.43086605242E+02  0.00000000000E+00 0. -1.
</event>
<event>
 7    1  0.6473724E-015  0.9000773E+02  0.7816164E-02  0.1186339E+00
        -11   -1    0    0    0    0  0.00000000000E+00  0.00000000000E+00  0.45593999997E+02  0.45594000000E+02  0.51100000000E-03 0. -1.
         11   -1    0    0    0    0 -0.00000000000E+00 -0.00000000000E+00 -0.45593999997E+02  0.45594000000E+02  0.51100000000E-03 0.  1.
    9900012    2    1    2    0    0  0.67890372677E+00  0.76755020432E+00  0.58564727501E+00  0.90007734641E+02  0.89999995938E+02 0.  0.
        -12    1    1    2    0    0 -0.67890372677E+00 -0.76755020432E+00 -0.58564727501E+00  0.11802653588E+01  0.00000000000E+00 0.  1.
         11    1    3    3    0    0  0.60152165884E+01  0.61688640179E+01 -0.37426915509E+01  0.93939051615E+01  0.51100000000E-03 0. -1.
        -11    1    3    3    0    0 -0.21785547923E+02 -0.18923140215E+02 -0.29098613856E+02  0.40980784064E+02  0.51100000000E-03 0.  1.
         12    1    3    3    0    0  0.16449235061E+02  0.13521826402E+02  0.33426952682E+02  0.39633045416E+02  0.00000000000E+00 0. -1.
</event>
<event>
 7    1  0.3743571E-015  0.9000770E+02  0.7816164E-02  0.1186339E+00
        -11   -1    0    0    0    0  0.00000000000E+00  0.00000000000E+00  0.45593999997E+02  0.45594000000E+02  0.51100000000E-03 0. -1.
         11   -1    0    0    0    0 -0.00000000000E+00 -0.00000000000E+00 -0.45593999997E+02  0.45594000000E+02  0.51100000000E-03 0.  1.
    9900012    2    1    2    0    0  0.25116087473E+00  0.11854261164E+00  0.11471606418E+01  0.90007698482E+02  0.89999959302E+02 0.  0.
        -12    1    1    2    0    0 -0.25116087473E+00 -0.11854261164E+00 -0.11471606418E+01  0.11803015182E+01  0.00000000000E+00 0.  1.
         11    1    3    3    0    0 -0.18080979967E+02  0.29852730677E+02 -0.10563044978E+02  0.36464849992E+02  0.51100000000E-03 0. -1.
        -11    1    3    3    0    0  0.16517666320E+02  0.38078832463E+01  0.10480512002E+02  0.19929234997E+02  0.51100000000E-03 0.  1.
        -12    1    3    3    0    0  0.18144745215E+01 -0.33542071312E+02  0.12296936178E+01  0.33613613493E+02  0.00000000000E+00 0.  1.
</event>
<event>
 7    1  0.3743571E-015  0.9000769E+02  0.7816164E-02  0.1186339E+00
        -11   -1    0    0    0    0  0.00000000000E+00  0.00000000000E+00  0.45593999997E+02  0.45594000000E+02  0.51100000000E-03 0.  1.
         11   -1    0    0    0    0 -0.00000000000E+00 -0.00000000000E+00 -0.45593999997E+02  0.45594000000E+02  0.51100000000E-03 0. -1.
    9900012    2    1    2    0    0 -0.26150621144E+00 -0.11328538203E+01 -0.20342092600E+00  0.90007693536E+02  0.89999954290E+02 0.  0.
        -12    1    1    2    0    0  0.26150621144E+00  0.11328538203E+01  0.20342092600E+00  0.11803064644E+01  0.00000000000E+00 0.  1.
         11    1    3    3    0    0  0.34499414539E+02  0.60947976639E+01 -0.12993636731E+00  0.35033884253E+02  0.51100000000E-03 0. -1.
        -11    1    3    3    0    0  0.90070574243E+01 -0.14914283877E+01  0.52177741841E+01  0.10515541345E+02  0.51100000000E-03 0.  1.
        -12    1    3    3    0    0 -0.43767978175E+02 -0.57362230965E+01 -0.52912587428E+01  0.44458267938E+02  0.00000000000E+00 0.  1.
</event>
<event>
 7    1  0.3743571E-015  0.9000777E+02  0.7816164E-02  0.1186339E+00
        -11   -1    0    0    0    0  0.00000000000E+00  0.00000000000E+00  0.45593999997E+02  0.45594000000E+02  0.51100000000E-03 0. -1.
         11   -1    0    0    0    0 -0.00000000000E+00 -0.00000000000E+00 -0.45593999997E+02  0.45594000000E+02  0.51100000000E-03 0.  1.
    9900012    2    1    2    0    0  0.10247555321E+01  0.19434816927E-01  0.58518818223E+00  0.90007768319E+02  0.90000030061E+02 0.  0.
        -12    1    1    2    0    0 -0.10247555321E+01 -0.19434816927E-01 -0.58518818223E+00  0.11802316812E+01  0.00000000000E+00 0.  1.
         11    1    3    3    0    0 -0.77614713411E+01  0.59598892176E+01  0.28541797594E+01  0.10193481212E+02  0.51100000000E-03 0. -1.
        -11    1    3    3    0    0  0.32892134866E+02  0.22825981151E+02  0.81628655735E+01  0.40860131255E+02  0.51100000000E-03 0.  1.
         12    1    3    3    0    0 -0.24105907993E+02 -0.28766435551E+02 -0.10431857151E+02  0.38954155852E+02  0.00000000000E+00 0. -1.
</event>
<event>
 7    1  0.3743571E-015  0.9000774E+02  0.7816164E-02  0.1186339E+00
        -11   -1    0    0    0    0  0.00000000000E+00  0.00000000000E+00  0.45593999997E+02  0.45594000000E+02  0.51100000000E-03 0.  1.
         11   -1    0    0    0    0 -0.00000000000E+00 -0.00000000000E+00 -0.45593999997E+02  0.45594000000E+02  0.51100000000E-03 0. -1.
    9900012    2    1    2    0    0 -0.36204334985E+00 -0.11121314968E+01  0.15844776609E+00  0.90007738356E+02  0.89999999702E+02 0.  0.
        -12    1    1    2    0    0  0.36204334985E+00  0.11121314968E+01 -0.15844776609E+00  0.11802616438E+01  0.00000000000E+00 0.  1.
         11    1    3    3    0    0 -0.77394366168E+01 -0.85616789675E+00  0.75628062697E+01  0.10854857970E+02  0.51100000000E-03 0. -1.
        -11    1    3    3    0    0 -0.11731734145E+02  0.10073758430E+02  0.31219729685E+02  0.34839427620E+02  0.51100000000E-03 0.  1.
         12    1    3    3    0    0  0.19109127412E+02 -0.10329722030E+02 -0.38624088189E+02  0.44313452767E+02  0.00000000000E+00 0. -1.
</event>
<event>
 7    1  0.3743571E-015  0.9000767E+02  0.7816164E-02  0.1186339E+00
        -11   -1    0    0    0    0  0.00000000000E+00  0.00000000000E+00  0.45593999997E+02  0.45594000000E+02  0.51100000000E-03 0. -1.
         11   -1    0    0    0    0 -0.00000000000E+00 -0.00000000000E+00 -0.45593999997E+02  0.45594000000E+02  0.51100000000E-03 0.  1.
    9900012    2    1    2    0    0 -0.29578259760E-01  0.10846121331E+01  0.46467693991E+00  0.90007668262E+02  0.89999928683E+02 0.  0.
        -12    1    1    2    0    0  0.29578259760E-01 -0.10846121331E+01 -0.46467693991E+00  0.11803317378E+01  0.00000000000E+00 0.  1.
         11    1    3    3    0    0  0.83574378134E+01 -0.13867206074E+01  0.15848128192E+02  0.17970334674E+02  0.51100000000E-03 0. -1.
        -11    1    3    3    0    0 -0.38825209105E+02  0.30180846285E+01 -0.26308581080E+01  0.39031104410E+02  0.51100000000E-03 0.  1.
         12    1    3    3    0    0  0.30438193031E+02 -0.54675188796E+00 -0.12752593144E+02  0.33006229178E+02  0.00000000000E+00 0. -1.
</event>
<event>
 7    1  0.3743571E-015  0.9000778E+02  0.7816164E-02  0.1186339E+00
        -11   -1    0    0    0    0  0.00000000000E+00  0.00000000000E+00  0.45593999997E+02  0.45594000000E+02  0.51100000000E-03 0.  1.
         11   -1    0    0    0    0 -0.00000000000E+00 -0.00000000000E+00 -0.45593999997E+02  0.45594000000E+02  0.51100000000E-03 0. -1.
    9900012    2    1    2    0    0 -0.19756767201E+00 -0.16868044968E-01 -0.11634468546E+01  0.90007777098E+02  0.90000038955E+02 0.  0.
        -12    1    1    2    0    0  0.19756767201E+00  0.16868044968E-01  0.11634468546E+01  0.11802229025E+01  0.00000000000E+00 0.  1.
         11    1    3    3    0    0 -0.36800834554E+02 -0.17888754545E+02 -0.56521829861E+01  0.41306853376E+02  0.51100000000E-03 0. -1.
        -11    1    3    3    0    0  0.14371709907E+02  0.56194547863E+01 -0.11012482450E+02  0.18957823918E+02  0.51100000000E-03 0.  1.
        -12    1    3    3    0    0  0.22231556975E+02  0.12252431713E+02  0.15501218581E+02  0.29743099804E+02  0.00000000000E+00 0.  1.
</event>
<event>
 7    1  0.3743571E-015  0.9000776E+02  0.7816164E-02  0.1186339E+00
        -11   -1    0    0    0    0  0.00000000000E+00  0.00000000000E+00  0.45593999997E+02  0.45594000000E+02  0.51100000000E-03 0. -1.
         11   -1    0    0    0    0 -0.00000000000E+00 -0.00000000000E+00 -0.45593999997E+02  0.45594000000E+02  0.51100000000E-03 0.  1.
    9900012    2    1    2    0    0 -0.85784512475E+00  0.81054819053E+00 -0.90617341528E-02  0.90007759032E+02  0.90000020651E+02 0.  0.
        -12    1    1    2    0    0  0.85784512475E+00 -0.81054819053E+00  0.90617341528E-02  0.11802409679E+01  0.00000000000E+00 0.  1.
         11    1    3    3    0    0  0.16179756898E+02  0.82380049768E+01  0.33488236907E+02  0.38093454433E+02  0.51100000000E-03 0. -1.
        -11    1    3    3    0    0  0.39892371631E+01 -0.57600736109E+01  0.45901368886E+01  0.83762651620E+01  0.51100000000E-03 0.  1.
        -12    1    3    3    0    0 -0.21026839186E+02 -0.16673831753E+01 -0.38087435529E+02  0.43538039437E+02  0.00000000000E+00 0.  1.
</event>
<event>
 7    1  0.3743571E-015  0.9000763E+02  0.7816164E-02  0.1186339E+00
        -11   -1    0    0    0    0  0.00000000000E+00  0.00000000000E+00  0.45593999997E+02  0.45594000000E+02  0.51100000000E-03 0.  1.
         11   -1    0    0    0    0 -0.00000000000E+00 -0.00000000000E+00 -0.45593999997E+02  0.45594000000E+02  0.51100000000E-03 0. -1.
    9900012    2    1    2    0    0  0.27095536368E+00  0.11343934554E+01  0.18167302759E+00  0.90007631240E+02  0.89999891172E+02 0.  0.
        -12    1    1    2    0    0 -0.27095536368E+00 -0.11343934554E+01 -0.18167302759E+00  0.11803687601E+01  0.00000000000E+00 0.  1.
         11    1    3    3    0    0 -0.11587159658E+02 -0.11068885550E+01  0.55419104250E+00  0.11653093974E+02  0.51100000000E-03 0. -1.
        -11    1    3    3    0    0  0.48479077343E+01  0.34987650422E+02  0.18542961083E+02  0.39893349038E+02  0.51100000000E-03 0.  1.
         12    1    3    3    0    0  0.70102072869E+01 -0.32746368412E+02 -0.18915479098E+02  0.38461188228E+02  0.00000000000E+00 0. -1.
</event>
<event>
 7    1  0.3743571E-015  0.9000770E+02  0.7816164E-02  0.1186339E+00
        -11   -1    0    0    0    0  0.00000000000E+00  0.00000000000E+00  0.45593999997E+02  0.45594000000E+02  0.51100000000E-03 0.  1.
         11   -1    0    0    0    0 -0.00000000000E+00 -0.00000000000E+00 -0.45593999997E+02  0.45594000000E+02  0.51100000000E-03 0. -1.
    9900012    2    1    2    0    0  0.99026801097E+00  0.62716613963E+00  0.13831359196E+00  0.90007703957E+02  0.89999964849E+02 0.  0.
        -12    1    1    2    0    0 -0.99026801097E+00 -0.62716613963E+00 -0.13831359196E+00  0.11802960434E+01  0.00000000000E+00 0.  1.
         11    1    3    3    0    0 -0.65669173363E+01 -0.47404365267E+00 -0.74538286438E+01  0.99452844302E+01  0.51100000000E-03 0. -1.
        -11    1    3    3    0    0  0.19216806681E+01 -0.31149628043E+02  0.27626119199E+02  0.41679667058E+02  0.51100000000E-03 0.  1.
         12    1    3    3    0    0  0.56355046791E+01  0.32250837836E+02 -0.20033976963E+02  0.38382752468E+02  0.00000000000E+00 0. -1.
</event>
<event>
 7    1  0.3743571E-015  0.9000771E+02  0.7816164E-02  0.1186339E+00
        -11   -1    0    0    0    0  0.00000000000E+00  0.00000000000E+00  0.45593999997E+02  0.45594000000E+02  0.51100000000E-03 0.  1.
         11   -1    0    0    0    0 -0.00000000000E+00 -0.00000000000E+00 -0.45593999997E+02  0.45594000000E+02  0.51100000000E-03 0. -1.
    9900012    2    1    2    0    0  0.84791608948E+00 -0.56496393252E+00 -0.59577358798E+00  0.90007706770E+02  0.89999967700E+02 0.  0.
        -12    1    1    2    0    0 -0.84791608948E+00  0.56496393252E+00  0.59577358798E+00  0.11802932297E+01  0.00000000000E+00 0.  1.
         11    1    3    3    0    0 -0.52262575527E+01  0.53329804482E+01  0.52319354282E+01  0.91174336880E+01  0.51100000000E-03 0. -1.
        -11    1    3    3    0    0  0.65865103705E+01  0.23179369631E+02  0.27562542802E+02  0.36610914511E+02  0.51100000000E-03 0.  1.
         12    1    3    3    0    0 -0.51233672832E+00 -0.29077314012E+02 -0.33390251818E+02  0.44279358572E+02  0.00000000000E+00 0. -1.
</event>
<event>
 7    1  0.3743571E-015  0.9000763E+02  0.7816164E-02  0.1186339E+00
        -11   -1    0    0    0    0  0.00000000000E+00  0.00000000000E+00  0.45593999997E+02  0.45594000000E+02  0.51100000000E-03 0.  1.
         11   -1    0    0    0    0 -0.00000000000E+00 -0.00000000000E+00 -0.45593999997E+02  0.45594000000E+02  0.51100000000E-03 0. -1.
    9900012    2    1    2    0    0 -0.76179469452E+00  0.89783726753E+00 -0.82637864560E-01  0.90007630595E+02  0.89999890519E+02 0.  0.
        -12    1    1    2    0    0  0.76179469452E+00 -0.89783726753E+00  0.82637864560E-01  0.11803694050E+01  0.00000000000E+00 0.  1.
         11    1    3    3    0    0 -0.27772986050E+02 -0.19354153133E+02  0.18436209373E+02  0.38546281454E+02  0.51100000000E-03 0. -1.
        -11    1    3    3    0    0  0.67369537101E+01 -0.34458450062E+01  0.76421874502E+01  0.10754693040E+02  0.51100000000E-03 0.  1.
        -12    1    3    3    0    0  0.20274237645E+02  0.23697835407E+02 -0.26161034687E+02  0.40706656101E+02  0.00000000000E+00 0.  1.
</event>
<event>
 7    1  0.3743571E-015  0.9000767E+02  0.7816164E-02  0.1186339E+00
        -11   -1    0    0    0    0  0.00000000000E+00  0.00000000000E+00  0.45593999997E+02  0.45594000000E+02  0.51100000000E-03 0. -1.
         11   -1    0    0    0    0 -0.00000000000E+00 -0.00000000000E+00 -0.45593999997E+02  0.45594000000E+02  0.51100000000E-03 0.  1.
    9900012    2    1    2    0    0 -0.11342538114E+00  0.20320945824E+00  0.11571619673E+01  0.90007668174E+02  0.89999928594E+02 0.  0.
        -12    1    1    2    0    0  0.11342538114E+00 -0.20320945824E+00 -0.11571619673E+01  0.11803318260E+01  0.00000000000E+00 0.  1.
         11    1    3    3    0    0 -0.30464684990E+02 -0.17878844591E+02  0.18246318201E+02  0.39757744448E+02  0.51100000000E-03 0. -1.
        -11    1    3    3    0    0  0.31143091063E+01  0.20798082340E+01  0.86988416428E+01  0.94707111501E+01  0.51100000000E-03 0.  1.
        -12    1    3    3    0    0  0.27236950502E+02  0.16002245815E+02 -0.25787997877E+02  0.40779212576E+02  0.00000000000E+00 0.  1.
</event>
<event>
 7    1  0.3743571E-015  0.9000771E+02  0.7816164E-02  0.1186339E+00
        -11   -1    0    0    0    0  0.00000000000E+00  0.00000000000E+00  0.45593999997E+02  0.45594000000E+02  0.51100000000E-03 0.  1.
         11   -1    0    0    0    0 -0.00000000000E+00 -0.00000000000E+00 -0.45593999997E+02  0.45594000000E+02  0.51100000000E-03 0. -1.
    9900012    2    1    2    0    0  0.35662393598E+00  0.70605754487E+00 -0.87600488380E+00  0.90007710864E+02  0.89999971847E+02 0.  0.
        -12    1    1    2    0    0 -0.35662393598E+00 -0.70605754487E+00  0.87600488380E+00  0.11802891361E+01  0.00000000000E+00 0.  1.
         11    1    3    3    0    0  0.54258145612E+01  0.61570990918E+00 -0.94785045049E+01  0.10938949230E+02  0.51100000000E-03 0. -1.
        -11    1    3    3    0    0  0.24089707680E+02  0.23793119687E+02 -0.12354534787E+02  0.36042490072E+02  0.51100000000E-03 0.  1.
         12    1    3    3    0    0 -0.29158898305E+02 -0.23702772052E+02  0.20957034408E+02  0.43026271561E+02  0.00000000000E+00 0. -1.
</event>
<event>
 7    1  0.3743571E-015  0.9000766E+02  0.7816164E-02  0.1186339E+00
        -11   -1    0    0    0    0  0.00000000000E+00  0.00000000000E+00  0.45593999997E+02  0.45594000000E+02  0.51100000000E-03 0.  1.
         11   -1    0    0    0    0 -0.00000000000E+00 -0.00000000000E+00 -0.45593999997E+02  0.45594000000E+02  0.51100000000E-03 0. -1.
    9900012    2    1    2    0    0  0.10354453706E+01  0.28574798524E+00 -0.48929268378E+00  0.90007658373E+02  0.89999918663E+02 0.  0.
        -12    1    1    2    0    0 -0.10354453706E+01 -0.28574798524E+00  0.48929268378E+00  0.11803416273E+01  0.00000000000E+00 0.  1.
         11    1    3    3    0    0 -0.49536767084E+00 -0.84550296137E+01 -0.39243653931E+01  0.93345358159E+01  0.51100000000E-03 0. -1.
        -11    1    3    3    0    0  0.20164256364E+02 -0.10652868407E+02 -0.30050572295E+02  0.37724232736E+02  0.51100000000E-03 0.  1.
         12    1    3    3    0    0 -0.18633443323E+02  0.19393646006E+02  0.33485645004E+02  0.42948889821E+02  0.00000000000E+00 0. -1.
</event>
<event>
 7    1  0.3743571E-015  0.9000770E+02  0.7816164E-02  0.1186339E+00
        -11   -1    0    0    0    0  0.00000000000E+00  0.00000000000E+00  0.45593999997E+02  0.45594000000E+02  0.51100000000E-03 0. -1.
         11   -1    0    0    0    0 -0.00000000000E+00 -0.00000000000E+00 -0.45593999997E+02  0.45594000000E+02  0.51100000000E-03 0.  1.
    9900012    2    1    2    0    0 -0.80126265127E+00 -0.86649874787E+00  0.16291749212E-01  0.90007700319E+02  0.89999961163E+02 0.  0.
        -12    1    1    2    0    0  0.80126265127E+00  0.86649874787E+00 -0.16291749212E-01  0.11802996812E+01  0.00000000000E+00 0.  1.
         11    1    3    3    0    0 -0.32101570982E+02 -0.54006491874E+01  0.17393021561E+02  0.36907926932E+02  0.51100000000E-03 0. -1.
        -11    1    3    3    0    0 -0.92725125448E+01 -0.10355546495E+00 -0.42876927882E+01  0.10216384993E+02  0.51100000000E-03 0.  1.
        -12    1    3    3    0    0  0.40572820876E+02  0.46377059045E+01 -0.13089037023E+02  0.42883388393E+02  0.00000000000E+00 0.  1.
</event>
<event>
 7    1  0.3743571E-015  0.9000758E+02  0.7816164E-02  0.1186339E+00
        -11   -1    0    0    0    0  0.00000000000E+00  0.00000000000E+00  0.45593999997E+02  0.45594000000E+02  0.51100000000E-03 0.  1.
         11   -1    0    0    0    0 -0.00000000000E+00 -0.00000000000E+00 -0.45593999997E+02  0.45594000000E+02  0.51100000000E-03 0. -1.
    9900012    2    1    2    0    0  0.57686779581E+00  0.96076441524E+00 -0.37086993416E+00  0.90007580912E+02  0.89999840180E+02 0.  0.
        -12    1    1    2    0    0 -0.57686779581E+00 -0.96076441524E+00  0.37086993416E+00  0.11804190881E+01  0.00000000000E+00 0.  1.
         11    1    3    3    0    0 -0.31357396816E+02 -0.18677827236E+02  0.85733228661E+01  0.37491991553E+02  0.51100000000E-03 0. -1.
        -11    1    3    3    0    0  0.57429463754E+01 -0.17159853811E+01  0.11536217635E+02  0.13000398320E+02  0.51100000000E-03 0.  1.
        -12    1    3    3    0    0  0.26191318237E+02  0.21354577033E+02 -0.20480410436E+02  0.39515191039E+02  0.00000000000E+00 0.  1.
</event>
<event>
 7    1  0.3743571E-015  0.9000774E+02  0.7816164E-02  0.1186339E+00
        -11   -1    0    0    0    0  0.00000000000E+00  0.00000000000E+00  0.45593999997E+02  0.45594000000E+02  0.51100000000E-03 0. -1.
         11   -1    0    0    0    0 -0.00000000000E+00 -0.00000000000E+00 -0.45593999997E+02  0.45594000000E+02  0.51100000000E-03 0.  1.
    9900012    2    1    2    0    0 -0.62613583545E+00  0.99332317267E+00  0.11945468503E+00  0.90007743065E+02  0.90000004474E+02 0.  0.
        -12    1    1    2    0    0  0.62613583545E+00 -0.99332317267E+00 -0.11945468503E+00  0.11802569346E+01  0.00000000000E+00 0.  1.
         11    1    3    3    0    0  0.11923891083E+02 -0.18245502022E+02 -0.20487628200E+02  0.29913549306E+02  0.51100000000E-03 0. -1.
        -11    1    3    3    0    0  0.14359019740E+02 -0.60799147167E+01 -0.34951828769E+01  0.15980084932E+02  0.51100000000E-03 0.  1.
        -12    1    3    3    0    0 -0.26909046658E+02  0.25318739911E+02  0.24102265762E+02  0.44114108827E+02  0.00000000000E+00 0.  1.
</event>
<event>
 7    1  0.3743571E-015  0.9000767E+02  0.7816164E-02  0.1186339E+00
        -11   -1    0    0    0    0  0.00000000000E+00  0.00000000000E+00  0.45593999997E+02  0.45594000000E+02  0.51100000000E-03 0. -1.
         11   -1    0    0    0    0 -0.00000000000E+00 -0.00000000000E+00 -0.45593999997E+02  0.45594000000E+02  0.51100000000E-03 0.  1.
    9900012    2    1    2    0    0  0.62096709178E+00  0.24473742512E+00  0.97348865423E+00  0.90007670937E+02  0.89999931394E+02 0.  0.
        -12    1    1    2    0    0 -0.62096709178E+00 -0.24473742512E+00 -0.97348865423E+00  0.11803290627E+01  0.00000000000E+00 0.  1.
         11    1    3    3    0    0  0.22686303463E+02 -0.25007262215E+02 -0.11828496800E+02  0.35776317098E+02  0.51100000000E-03 0. -1.
        -11    1    3    3    0    0  0.62818723959E+01 -0.72114027834E+01  0.31129837135E+01  0.10057679591E+02  0.51100000000E-03 0.  1.
        -12    1    3    3    0    0 -0.28347208767E+02  0.32463402424E+02  0.96890017409E+01  0.44173674248E+02  0.00000000000E+00 0.  1.
</event>
<event>
 7    1  0.3743571E-015  0.9000773E+02  0.7816164E-02  0.1186339E+00
        -11   -1    0    0    0    0  0.00000000000E+00  0.00000000000E+00  0.45593999997E+02  0.45594000000E+02  0.51100000000E-03 0.  1.
         11   -1    0    0    0    0 -0.00000000000E+00 -0.00000000000E+00 -0.45593999997E+02  0.45594000000E+02  0.51100000000E-03 0. -1.
    9900012    2    1    2    0    0  0.77777830644E+00 -0.87821214394E+00 -0.12980591004E+00  0.90007726626E+02  0.89999987817E+02 0.  0.
        -12    1    1    2    0    0 -0.77777830644E+00  0.87821214394E+00  0.12980591004E+00  0.11802733743E+01  0.00000000000E+00 0.  1.
         11    1    3    3    0    0 -0.28318537685E+02  0.99797381126E+01  0.24392722594E+02  0.38685134939E+02  0.51100000000E-03 0. -1.
        -11    1    3    3    0    0 -0.18177680077E+01 -0.17153143248E+01  0.62650664722E+01  0.67451939872E+01  0.51100000000E-03 0.  1.
        -12    1    3    3    0    0  0.30914083999E+02 -0.91426359317E+01 -0.30787594976E+02  0.44577397700E+02  0.00000000000E+00 0.  1.
</event>
<event>
 7    1  0.3743571E-015  0.9000781E+02  0.7816164E-02  0.1186339E+00
        -11   -1    0    0    0    0  0.00000000000E+00  0.00000000000E+00  0.45593999997E+02  0.45594000000E+02  0.51100000000E-03 0. -1.
         11   -1    0    0    0    0 -0.00000000000E+00 -0.00000000000E+00 -0.45593999997E+02  0.45594000000E+02  0.51100000000E-03 0.  1.
    9900012    2    1    2    0    0  0.75563053101E-01 -0.74065410586E+00 -0.91573815401E+00  0.90007807369E+02  0.90000069626E+02 0.  0.
        -12    1    1    2    0    0 -0.75563053101E-01  0.74065410586E+00  0.91573815401E+00  0.11801926310E+01  0.00000000000E+00 0.  1.
         11    1    3    3    0    0  0.42595290021E+01  0.11651992852E+01 -0.82912213216E+01  0.93939144109E+01  0.51100000000E-03 0. -1.
        -11    1    3    3    0    0 -0.16562119777E+02  0.27631771030E+02 -0.20475382410E+02  0.38171453560E+02  0.51100000000E-03 0.  1.
         12    1    3    3    0    0  0.12378153828E+02 -0.29537624421E+02  0.27850865578E+02  0.42442439398E+02  0.00000000000E+00 0. -1.
</event>
<event>
 7    1  0.3743571E-015  0.9000775E+02  0.7816164E-02  0.1186339E+00
        -11   -1    0    0    0    0  0.00000000000E+00  0.00000000000E+00  0.45593999997E+02  0.45594000000E+02  0.51100000000E-03 0. -1.
         11   -1    0    0    0    0 -0.00000000000E+00 -0.00000000000E+00 -0.45593999997E+02  0.45594000000E+02  0.51100000000E-03 0.  1.
    9900012    2    1    2    0    0  0.90894454566E+00 -0.30439608480E+00  0.68858622492E+00  0.90007750809E+02  0.90000012320E+02 0.  0.
        -12    1    1    2    0    0 -0.90894454566E+00  0.30439608480E+00 -0.68858622492E+00  0.11802491909E+01  0.00000000000E+00 0.  1.
         11    1    3    3    0    0 -0.91567240145E+01  0.20819873746E+01 -0.32775913945E+02  0.34094586099E+02  0.51100000000E-03 0. -1.
        -11    1    3    3    0    0  0.50748233126E+01 -0.18760425389E+01 -0.10421003385E+02  0.11741834570E+02  0.51100000000E-03 0.  1.
        -12    1    3    3    0    0  0.49908452476E+01 -0.51034092055E+00  0.43885503554E+02  0.44171330140E+02  0.00000000000E+00 0.  1.
</event>
<event>
 7    1  0.3743571E-015  0.9000767E+02  0.7816164E-02  0.1186339E+00
        -11   -1    0    0    0    0  0.00000000000E+00  0.00000000000E+00  0.45593999997E+02  0.45594000000E+02  0.51100000000E-03 0.  1.
         11   -1    0    0    0    0 -0.00000000000E+00 -0.00000000000E+00 -0.45593999997E+02  0.45594000000E+02  0.51100000000E-03 0. -1.
    9900012    2    1    2    0    0 -0.57200063079E+00  0.94104544724E+00 -0.42476479075E+00  0.90007671070E+02  0.89999931528E+02 0.  0.
        -12    1    1    2    0    0  0.57200063079E+00 -0.94104544724E+00  0.42476479075E+00  0.11803289299E+01  0.00000000000E+00 0.  1.
         11    1    3    3    0    0  0.22425197117E+02 -0.10027495059E+02 -0.27811010778E+02  0.37106501367E+02  0.51100000000E-03 0. -1.
        -11    1    3    3    0    0  0.32541755082E+01 -0.75175155310E+01 -0.29720599914E+01  0.87141172158E+01  0.51100000000E-03 0.  1.
        -12    1    3    3    0    0 -0.26251373256E+02  0.18486056037E+02  0.30358305979E+02  0.44187052488E+02  0.00000000000E+00 0.  1.
</event>
<event>
 7    1  0.3743571E-015  0.9000778E+02  0.7816164E-02  0.1186339E+00
        -11   -1    0    0    0    0  0.00000000000E+00  0.00000000000E+00  0.45593999997E+02  0.45594000000E+02  0.51100000000E-03 0.  1.
         11   -1    0    0    0    0 -0.00000000000E+00 -0.00000000000E+00 -0.45593999997E+02  0.45594000000E+02  0.51100000000E-03 0. -1.
    9900012    2    1    2    0    0  0.44494887496E+00  0.10914876167E+01  0.59969679146E-01  0.90007779224E+02  0.90000041109E+02 0.  0.
        -12    1    1    2    0    0 -0.44494887496E+00 -0.10914876167E+01 -0.59969679146E-01  0.11802207765E+01  0.00000000000E+00 0.  1.
         11    1    3    3    0    0  0.57682002883E+01 -0.23899924479E+01  0.52467817219E+01  0.81555451790E+01  0.51100000000E-03 0. -1.
        -11    1    3    3    0    0  0.13338516658E+02 -0.33689137932E+02  0.99767539387E+01  0.37582039070E+02  0.51100000000E-03 0.  1.
         12    1    3    3    0    0 -0.18661768071E+02  0.37170617997E+02 -0.15163565982E+02  0.44270194975E+02  0.00000000000E+00 0. -1.
</event>
<event>
 7    1  0.3743571E-015  0.9000758E+02  0.7816164E-02  0.1186339E+00
        -11   -1    0    0    0    0  0.00000000000E+00  0.00000000000E+00  0.45593999997E+02  0.45594000000E+02  0.51100000000E-03 0. -1.
         11   -1    0    0    0    0 -0.00000000000E+00 -0.00000000000E+00 -0.45593999997E+02  0.45594000000E+02  0.51100000000E-03 0.  1.
    9900012    2    1    2    0    0  0.90233367361E+00 -0.50161937437E+00  0.57233276092E+00  0.90007579378E+02  0.89999838626E+02 0.  0.
        -12    1    1    2    0    0 -0.90233367361E+00  0.50161937437E+00 -0.57233276092E+00  0.11804206218E+01  0.00000000000E+00 0.  1.
         11    1    3    3    0    0  0.70279042661E+01  0.54331842405E+00  0.38214121819E+01  0.80180935770E+01  0.51100000000E-03 0. -1.
        -11    1    3    3    0    0  0.19990677489E+01 -0.39605287338E+02  0.91123360538E+01  0.40689184381E+02  0.51100000000E-03 0.  1.
         12    1    3    3    0    0 -0.81246383414E+01  0.38560349540E+02 -0.12361415475E+02  0.41300301420E+02  0.00000000000E+00 0. -1.
</event>
<event>
 7    1  0.3743571E-015  0.9000776E+02  0.7816164E-02  0.1186339E+00
        -11   -1    0    0    0    0  0.00000000000E+00  0.00000000000E+00  0.45593999997E+02  0.45594000000E+02  0.51100000000E-03 0.  1.
         11   -1    0    0    0    0 -0.00000000000E+00 -0.00000000000E+00 -0.45593999997E+02  0.45594000000E+02  0.51100000000E-03 0. -1.
    9900012    2    1    2    0    0 -0.50350443114E+00  0.15498991962E+00 -0.10561395512E+01  0.90007758779E+02  0.90000020395E+02 0.  0.
        -12    1    1    2    0    0  0.50350443114E+00 -0.15498991962E+00  0.10561395512E+01  0.11802412206E+01  0.00000000000E+00 0.  1.
         11    1    3    3    0    0  0.24878158362E+01 -0.82868949846E+01  0.41498008754E+01  0.95959733059E+01  0.51100000000E-03 0. -1.
        -11    1    3    3    0    0  0.22894316997E+02 -0.12760748859E+02  0.24343311804E+02  0.35771263495E+02  0.51100000000E-03 0.  1.
         12    1    3    3    0    0 -0.25885637264E+02  0.21202633764E+02 -0.29549252231E+02  0.44640521978E+02  0.00000000000E+00 0. -1.
</event>
<event>
 7    1  0.3743571E-015  0.9000780E+02  0.7816164E-02  0.1186339E+00
        -11   -1    0    0    0    0  0.00000000000E+00  0.00000000000E+00  0.45593999997E+02  0.45594000000E+02  0.51100000000E-03 0.  1.
         11   -1    0    0    0    0 -0.00000000000E+00 -0.00000000000E+00 -0.45593999997E+02  0.45594000000E+02  0.51100000000E-03 0. -1.
    9900012    2    1    2    0    0 -0.82417370835E+00 -0.18892166295E+00 -0.82335767896E+00  0.90007800202E+02  0.90000062364E+02 0.  0.
        -12    1    1    2    0    0  0.82417370835E+00  0.18892166295E+00  0.82335767896E+00  0.11801997982E+01  0.00000000000E+00 0.  1.
         11    1    3    3    0    0 -0.34791386702E+02  0.97573869832E+01 -0.11512081429E+02  0.37923280560E+02  0.51100000000E-03 0. -1.
        -11    1    3    3    0    0 -0.22462967959E+01  0.62442198860E+01 -0.60965806684E+01  0.90113499204E+01  0.51100000000E-03 0.  1.
        -12    1    3    3    0    0  0.36213509789E+02 -0.16190528532E+02  0.16785304418E+02  0.43073169721E+02  0.00000000000E+00 0.  1.
</event>
<event>
 7    1  0.3743571E-015  0.9000708E+02  0.7816164E-02  0.1186340E+00
        -11   -1    0    0    0    0  0.00000000000E+00  0.00000000000E+00  0.45593999997E+02  0.45594000000E+02  0.51100000000E-03 0.  1.
         11   -1    0    0    0    0 -0.00000000000E+00 -0.00000000000E+00 -0.45593999997E+02  0.45594000000E+02  0.51100000000E-03 0. -1.
    9900012    2    1    2    0    0 -0.82578888090E-02  0.42605087991E+00 -0.11013546273E+01  0.90007081053E+02  0.89999333720E+02 0.  0.
        -12    1    1    2    0    0  0.82578888090E-02 -0.42605087991E+00  0.11013546273E+01  0.11809189473E+01  0.00000000000E+00 0.  1.
         11    1    3    3    0    0 -0.24810363983E+01  0.91134011571E+01 -0.18656662735E+01  0.96275818961E+01  0.51100000000E-03 0. -1.
        -11    1    3    3    0    0  0.72174598122E+01 -0.33822205212E+02 -0.26068588316E+02  0.43308250814E+02  0.51100000000E-03 0.  1.
         12    1    3    3    0    0 -0.47446813027E+01  0.25134854935E+02  0.26832899962E+02  0.37071248342E+02  0.00000000000E+00 0. -1.
</event>
<event>
 7    1  0.3743571E-015  0.9000774E+02  0.7816164E-02  0.1186339E+00
        -11   -1    0    0    0    0  0.00000000000E+00  0.00000000000E+00  0.45593999997E+02  0.45594000000E+02  0.51100000000E-03 0.  1.
         11   -1    0    0    0    0 -0.00000000000E+00 -0.00000000000E+00 -0.45593999997E+02  0.45594000000E+02  0.51100000000E-03 0. -1.
    9900012    2    1    2    0    0  0.25991851676E+00  0.86208916913E+00 -0.76306447304E+00  0.90007736148E+02  0.89999997465E+02 0.  0.
        -12    1    1    2    0    0 -0.25991851676E+00 -0.86208916913E+00  0.76306447304E+00  0.11802638522E+01  0.00000000000E+00 0.  1.
         11    1    3    3    0    0  0.69736457082E+01 -0.10353349602E+01 -0.38315712084E+02  0.38958919976E+02  0.51100000000E-03 0. -1.
        -11    1    3    3    0    0  0.96270404771E+01  0.27016049676E+01 -0.95570909017E-01  0.99993855715E+01  0.51100000000E-03 0.  1.
        -12    1    3    3    0    0 -0.16340767669E+02 -0.80418083818E+00  0.37648218520E+02  0.41049430600E+02  0.00000000000E+00 0.  1.
</event>
<event>
 7    1  0.3743571E-015  0.9000773E+02  0.7816164E-02  0.1186339E+00
        -11   -1    0    0    0    0  0.00000000000E+00  0.00000000000E+00  0.45593999997E+02  0.45594000000E+02  0.51100000000E-03 0.  1.
         11   -1    0    0    0    0 -0.00000000000E+00 -0.00000000000E+00 -0.45593999997E+02  0.45594000000E+02  0.51100000000E-03 0. -1.
    9900012    2    1    2    0    0 -0.10530160982E+01  0.30808195049E+00 -0.43506947512E+00  0.90007727642E+02  0.89999988847E+02 0.  0.
        -12    1    1    2    0    0  0.10530160982E+01 -0.30808195049E+00  0.43506947512E+00  0.11802723582E+01  0.00000000000E+00 0.  1.
         11    1    3    3    0    0  0.59926536785E+01  0.47795347945E+01 -0.52810414298E+01  0.93083430216E+01  0.51100000000E-03 0. -1.
        -11    1    3    3    0    0 -0.18425432899E+02 -0.25631167269E+02 -0.26492844868E+02  0.41210728488E+02  0.51100000000E-03 0.  1.
         12    1    3    3    0    0  0.11379763122E+02  0.21159714425E+02  0.31338816822E+02  0.39488656132E+02  0.00000000000E+00 0. -1.
</event>
<event>
 7    1  0.3743571E-015  0.9000776E+02  0.7816164E-02  0.1186339E+00
        -11   -1    0    0    0    0  0.00000000000E+00  0.00000000000E+00  0.45593999997E+02  0.45594000000E+02  0.51100000000E-03 0.  1.
         11   -1    0    0    0    0 -0.00000000000E+00 -0.00000000000E+00 -0.45593999997E+02  0.45594000000E+02  0.51100000000E-03 0. -1.
    9900012    2    1    2    0    0 -0.10984146597E+01 -0.18855537700E+00 -0.38845880391E+00  0.90007759288E+02  0.90000020911E+02 0.  0.
        -12    1    1    2    0    0  0.10984146597E+01  0.18855537700E+00  0.38845880391E+00  0.11802407115E+01  0.00000000000E+00 0.  1.
         11    1    3    3    0    0 -0.54956715415E+01  0.49227905499E+01  0.39026190975E+01  0.83466585274E+01  0.51100000000E-03 0. -1.
        -11    1    3    3    0    0 -0.32955877982E+02 -0.64811254631E+01  0.18034854433E+02  0.38122839028E+02  0.51100000000E-03 0.  1.
         12    1    3    3    0    0  0.37353134864E+02  0.13697795362E+01 -0.22325932334E+02  0.43538261733E+02  0.00000000000E+00 0. -1.
</event>
<event>
 7    1  0.3743571E-015  0.9000776E+02  0.7816164E-02  0.1186339E+00
        -11   -1    0    0    0    0  0.00000000000E+00  0.00000000000E+00  0.45593999997E+02  0.45594000000E+02  0.51100000000E-03 0.  1.
         11   -1    0    0    0    0 -0.00000000000E+00 -0.00000000000E+00 -0.45593999997E+02  0.45594000000E+02  0.51100000000E-03 0. -1.
    9900012    2    1    2    0    0 -0.21546362478E+00 -0.35355812344E+00 -0.11052273820E+01  0.90007764648E+02  0.90000026341E+02 0.  0.
        -12    1    1    2    0    0  0.21546362478E+00  0.35355812344E+00  0.11052273820E+01  0.11802353520E+01  0.00000000000E+00 0.  1.
         11    1    3    3    0    0 -0.62138010618E+01 -0.33161893398E+02  0.41695783534E+01  0.33995703865E+02  0.51100000000E-03 0. -1.
        -11    1    3    3    0    0  0.90107297530E-01 -0.11241778508E+02  0.10843736313E+00  0.11242662597E+02  0.51100000000E-03 0.  1.
        -12    1    3    3    0    0  0.59082301395E+01  0.44050113783E+02 -0.53832430985E+01  0.44769398186E+02  0.00000000000E+00 0.  1.
</event>
<event>
 7    1  0.3743571E-015  0.9000769E+02  0.7816164E-02  0.1186339E+00
        -11   -1    0    0    0    0  0.00000000000E+00  0.00000000000E+00  0.45593999997E+02  0.45594000000E+02  0.51100000000E-03 0. -1.
         11   -1    0    0    0    0 -0.00000000000E+00 -0.00000000000E+00 -0.45593999997E+02  0.45594000000E+02  0.51100000000E-03 0.  1.
    9900012    2    1    2    0    0  0.36231815711E+00  0.48323366802E+00  0.10140698853E+01  0.90007692008E+02  0.89999952742E+02 0.  0.
        -12    1    1    2    0    0 -0.36231815711E+00 -0.48323366802E+00 -0.10140698853E+01  0.11803079925E+01  0.00000000000E+00 0.  1.
         11    1    3    3    0    0 -0.21004968040E+02  0.24124748559E+02  0.20314866638E+02  0.37893350105E+02  0.51100000000E-03 0. -1.
        -11    1    3    3    0    0 -0.21760498137E+00  0.30329807694E+01  0.78112307897E+01  0.83822223179E+01  0.51100000000E-03 0.  1.
        -12    1    3    3    0    0  0.21584891179E+02 -0.26674495660E+02 -0.27112027542E+02  0.43732119585E+02  0.00000000000E+00 0.  1.
</event>
<event>
 7    1  0.3743571E-015  0.9000770E+02  0.7816164E-02  0.1186339E+00
        -11   -1    0    0    0    0  0.00000000000E+00  0.00000000000E+00  0.45593999997E+02  0.45594000000E+02  0.51100000000E-03 0. -1.
         11   -1    0    0    0    0 -0.00000000000E+00 -0.00000000000E+00 -0.45593999997E+02  0.45594000000E+02  0.51100000000E-03 0.  1.
    9900012    2    1    2    0    0 -0.25848542997E+00  0.63729002787E+00  0.95924645462E+00  0.90007700437E+02  0.89999961283E+02 0.  0.
        -12    1    1    2    0    0  0.25848542997E+00 -0.63729002787E+00 -0.95924645462E+00  0.11802995627E+01  0.00000000000E+00 0.  1.
         11    1    3    3    0    0  0.48339359454E+01 -0.30605329428E+01  0.26301398020E+02  0.26916488194E+02  0.51100000000E-03 0. -1.
        -11    1    3    3    0    0 -0.47649090304E+01 -0.17577017850E+02  0.10783960961E+02  0.21164822910E+02  0.51100000000E-03 0.  1.
        -12    1    3    3    0    0 -0.32751234497E+00  0.21274840820E+02 -0.36126112526E+02  0.41926389333E+02  0.00000000000E+00 0.  1.
</event>
<event>
 7    1  0.3743571E-015  0.9000816E+02  0.7816164E-02  0.1186338E+00
        -11   -1    0    0    0    0  0.00000000000E+00  0.00000000000E+00  0.45593999997E+02  0.45594000000E+02  0.51100000000E-03 0. -1.
         11   -1    0    0    0    0 -0.00000000000E+00 -0.00000000000E+00 -0.45593999997E+02  0.45594000000E+02  0.51100000000E-03 0.  1.
    9900012    2    1    2    0    0 -0.11481677407E+01 -0.48791644051E-01  0.26710974670E+00  0.90008162129E+02  0.90000429068E+02 0.  0.
        -12    1    1    2    0    0  0.11481677407E+01  0.48791644051E-01 -0.26710974670E+00  0.11798378711E+01  0.00000000000E+00 0.  1.
         11    1    3    3    0    0 -0.85177193512E+01 -0.16778492499E+02  0.34908092888E+02  0.39656579565E+02  0.51100000000E-03 0. -1.
        -11    1    3    3    0    0 -0.67817151270E+01  0.53300483556E+01  0.25194588527E+01  0.89860307538E+01  0.51100000000E-03 0.  1.
        -12    1    3    3    0    0  0.14151266737E+02  0.11399652499E+02 -0.37160441994E+02  0.41365551810E+02  0.00000000000E+00 0.  1.
</event>
<event>
 7    1  0.3743571E-015  0.9000773E+02  0.7816164E-02  0.1186339E+00
        -11   -1    0    0    0    0  0.00000000000E+00  0.00000000000E+00  0.45593999997E+02  0.45594000000E+02  0.51100000000E-03 0. -1.
         11   -1    0    0    0    0 -0.00000000000E+00 -0.00000000000E+00 -0.45593999997E+02  0.45594000000E+02  0.51100000000E-03 0.  1.
    9900012    2    1    2    0    0 -0.11314381550E+01  0.28643653409E+00  0.17561349458E+00  0.90007729571E+02  0.89999990801E+02 0.  0.
        -12    1    1    2    0    0  0.11314381550E+01 -0.28643653409E+00 -0.17561349458E+00  0.11802704292E+01  0.00000000000E+00 0.  1.
         11    1    3    3    0    0  0.61810598310E+01  0.36648320352E+02  0.46557153097E+01  0.37456382240E+02  0.51100000000E-03 0. -1.
        -11    1    3    3    0    0  0.66492811990E+01  0.49342201274E+01  0.18979514627E+01  0.84948036320E+01  0.51100000000E-03 0.  1.
        -12    1    3    3    0    0 -0.13961779185E+02 -0.41296103945E+02 -0.63780532778E+01  0.44056543698E+02  0.00000000000E+00 0.  1.
</event>
<event>
 7    1  0.3743571E-015  0.9000757E+02  0.7816164E-02  0.1186339E+00
        -11   -1    0    0    0    0  0.00000000000E+00  0.00000000000E+00  0.45593999997E+02  0.45594000000E+02  0.51100000000E-03 0.  1.
         11   -1    0    0    0    0 -0.00000000000E+00 -0.00000000000E+00 -0.45593999997E+02  0.45594000000E+02  0.51100000000E-03 0. -1.
    9900012    2    1    2    0    0  0.11209793496E+01 -0.22815692733E+00 -0.29113792036E+00  0.90007571445E+02  0.89999830588E+02 0.  0.
        -12    1    1    2    0    0 -0.11209793496E+01  0.22815692733E+00  0.29113792036E+00  0.11804285554E+01  0.00000000000E+00 0.  1.
         11    1    3    3    0    0  0.56253293875E+01  0.52235237357E+01 -0.54059047869E+01  0.93890008926E+01  0.51100000000E-03 0. -1.
        -11    1    3    3    0    0 -0.16841805680E+02  0.36601506905E+01  0.39429735864E+02  0.43031932239E+02  0.51100000000E-03 0.  1.
         12    1    3    3    0    0  0.12337455642E+02 -0.91118313536E+01 -0.34314968998E+02  0.37586638313E+02  0.00000000000E+00 0. -1.
</event>
<event>
 7    1  0.3743571E-015  0.9000769E+02  0.7816164E-02  0.1186339E+00
        -11   -1    0    0    0    0  0.00000000000E+00  0.00000000000E+00  0.45593999997E+02  0.45594000000E+02  0.51100000000E-03 0.  1.
         11   -1    0    0    0    0 -0.00000000000E+00 -0.00000000000E+00 -0.45593999997E+02  0.45594000000E+02  0.51100000000E-03 0. -1.
    9900012    2    1    2    0    0 -0.25862531814E+00  0.84107782719E+00 -0.78665633674E+00  0.90007691922E+02  0.89999952655E+02 0.  0.
        -12    1    1    2    0    0  0.25862531814E+00 -0.84107782719E+00  0.78665633674E+00  0.11803080779E+01  0.00000000000E+00 0.  1.
         11    1    3    3    0    0  0.51883297299E+01 -0.32246363316E+02 -0.19317824674E+02  0.37946344526E+02  0.51100000000E-03 0. -1.
        -11    1    3    3    0    0  0.54067272276E+01  0.11703431257E+01 -0.76052627203E+01  0.94043832148E+01  0.51100000000E-03 0.  1.
        -12    1    3    3    0    0 -0.10853682276E+02  0.31917098017E+02  0.26136431057E+02  0.42656964182E+02  0.00000000000E+00 0.  1.
</event>
<event>
 7    1  0.4191904E-015  0.9000784E+02  0.7816164E-02  0.1186339E+00
        -11   -1    0    0    0    0  0.00000000000E+00  0.00000000000E+00  0.45593999997E+02  0.45594000000E+02  0.51100000000E-03 0.  1.
         11   -1    0    0    0    0 -0.00000000000E+00 -0.00000000000E+00 -0.45593999997E+02  0.45594000000E+02  0.51100000000E-03 0. -1.
    9900012    2    1    2    0    0  0.67719049054E+00  0.24593913615E-01 -0.96621868591E+00  0.90007843074E+02  0.90000105802E+02 0.  0.
        -12    1    1    2    0    0 -0.67719049054E+00 -0.24593913615E-01  0.96621868591E+00  0.11801569260E+01  0.00000000000E+00 0.  1.
         11    1    3    3    0    0  0.24930034327E+02  0.26864989930E+01 -0.27149031415E+02  0.36956647513E+02  0.51100000000E-03 0. -1.
        -11    1    3    3    0    0  0.16383883012E+01 -0.15937362574E+01 -0.90392417977E+01  0.93237440989E+01  0.51100000000E-03 0.  1.
        -12    1    3    3    0    0 -0.25891232138E+02 -0.10681688220E+01  0.35222054527E+02  0.43727451462E+02  0.00000000000E+00 0.  1.
</event>
<event>
 7    1  0.3743571E-015  0.9000772E+02  0.7816164E-02  0.1186339E+00
        -11   -1    0    0    0    0  0.00000000000E+00  0.00000000000E+00  0.45593999997E+02  0.45594000000E+02  0.51100000000E-03 0. -1.
         11   -1    0    0    0    0 -0.00000000000E+00 -0.00000000000E+00 -0.45593999997E+02  0.45594000000E+02  0.51100000000E-03 0.  1.
    9900012    2    1    2    0    0  0.60970187753E+00  0.77600276941E+00 -0.64741351204E+00  0.90007719977E+02  0.89999981080E+02 0.  0.
        -12    1    1    2    0    0 -0.60970187753E+00 -0.77600276941E+00  0.64741351204E+00  0.11802800232E+01  0.00000000000E+00 0.  1.
         11    1    3    3    0    0  0.14549213174E+02  0.25274791794E+02  0.18186455187E+02  0.34369199245E+02  0.51100000000E-03 0. -1.
        -11    1    3    3    0    0  0.24618738368E+01  0.11826863392E+02 -0.74301653115E+01  0.14182484878E+02  0.51100000000E-03 0.  1.
        -12    1    3    3    0    0 -0.16401385133E+02 -0.36325652417E+02 -0.11403703387E+02  0.41456035854E+02  0.00000000000E+00 0.  1.
</event>
<event>
 7    1  0.3743571E-015  0.9000768E+02  0.7816164E-02  0.1186339E+00
        -11   -1    0    0    0    0  0.00000000000E+00  0.00000000000E+00  0.45593999997E+02  0.45594000000E+02  0.51100000000E-03 0. -1.
         11   -1    0    0    0    0 -0.00000000000E+00 -0.00000000000E+00 -0.45593999997E+02  0.45594000000E+02  0.51100000000E-03 0.  1.
    9900012    2    1    2    0    0  0.83503658727E+00 -0.71724720021E+00  0.42592774998E+00  0.90007684747E+02  0.89999945386E+02 0.  0.
        -12    1    1    2    0    0 -0.83503658727E+00  0.71724720021E+00 -0.42592774998E+00  0.11803152530E+01  0.00000000000E+00 0.  1.
         11    1    3    3    0    0 -0.24350692253E+02 -0.16045734068E+02  0.26549756691E+02  0.39437436220E+02  0.51100000000E-03 0. -1.
        -11    1    3    3    0    0 -0.66347837699E+01  0.84512761576E+01 -0.65713540055E+01  0.12594725805E+02  0.51100000000E-03 0.  1.
        -12    1    3    3    0    0  0.31820512610E+02  0.68772107104E+01 -0.19552474935E+02  0.37975522722E+02  0.00000000000E+00 0.  1.
</event>
<event>
 7    1  0.3743571E-015  0.9000772E+02  0.7816164E-02  0.1186339E+00
        -11   -1    0    0    0    0  0.00000000000E+00  0.00000000000E+00  0.45593999997E+02  0.45594000000E+02  0.51100000000E-03 0.  1.
         11   -1    0    0    0    0 -0.00000000000E+00 -0.00000000000E+00 -0.45593999997E+02  0.45594000000E+02  0.51100000000E-03 0. -1.
    9900012    2    1    2    0    0 -0.72458575794E-01 -0.20717913161E+00 -0.11596911544E+01  0.90007721638E+02  0.89999982764E+02 0.  0.
        -12    1    1    2    0    0  0.72458575794E-01  0.20717913161E+00  0.11596911544E+01  0.11802783618E+01  0.00000000000E+00 0.  1.
         11    1    3    3    0    0  0.41654830900E+02  0.35813073636E+01 -0.15538902571E+01  0.41837366970E+02  0.51100000000E-03 0. -1.
        -11    1    3    3    0    0 -0.57222427005E+01 -0.97921979920E+01 -0.22869856319E+01  0.11569853352E+02  0.51100000000E-03 0.  1.
        -12    1    3    3    0    0 -0.36005046776E+02  0.60037114968E+01  0.26811847346E+01  0.36600501317E+02  0.00000000000E+00 0.  1.
</event>
<event>
 7    1  0.3743571E-015  0.9000771E+02  0.7816164E-02  0.1186339E+00
        -11   -1    0    0    0    0  0.00000000000E+00  0.00000000000E+00  0.45593999997E+02  0.45594000000E+02  0.51100000000E-03 0. -1.
         11   -1    0    0    0    0 -0.00000000000E+00 -0.00000000000E+00 -0.45593999997E+02  0.45594000000E+02  0.51100000000E-03 0.  1.
    9900012    2    1    2    0    0  0.28039591897E+00 -0.88996419667E+00  0.72278790076E+00  0.90007711691E+02  0.89999972685E+02 0.  0.
        -12    1    1    2    0    0 -0.28039591897E+00  0.88996419667E+00 -0.72278790076E+00  0.11802883089E+01  0.00000000000E+00 0.  1.
         11    1    3    3    0    0  0.18711584490E+02 -0.13307168247E+02  0.65740715497E+01  0.23883520215E+02  0.51100000000E-03 0. -1.
        -11    1    3    3    0    0  0.13847825623E+02  0.21051644931E+02 -0.17565803817E+02  0.30716306627E+02  0.51100000000E-03 0.  1.
         12    1    3    3    0    0 -0.32279014194E+02 -0.86344408809E+01  0.11714520168E+02  0.35407884849E+02  0.00000000000E+00 0. -1.
</event>
<event>
 7    1  0.3743571E-015  0.9000782E+02  0.7816164E-02  0.1186339E+00
        -11   -1    0    0    0    0  0.00000000000E+00  0.00000000000E+00  0.45593999997E+02  0.45594000000E+02  0.51100000000E-03 0. -1.
         11   -1    0    0    0    0 -0.00000000000E+00 -0.00000000000E+00 -0.45593999997E+02  0.45594000000E+02  0.51100000000E-03 0.  1.
    9900012    2    1    2    0    0 -0.29588089931E+00  0.80682153813E+00  0.80890136436E+00  0.90007818693E+02  0.90000081099E+02 0.  0.
        -12    1    1    2    0    0  0.29588089931E+00 -0.80682153813E+00 -0.80890136436E+00  0.11801813074E+01  0.00000000000E+00 0.  1.
         11    1    3    3    0    0  0.36281133099E+02 -0.19275577781E+02  0.47863547151E+01  0.41361548683E+02  0.51100000000E-03 0. -1.
        -11    1    3    3    0    0 -0.82348085233E-01  0.10525961581E+02 -0.28457015269E+01  0.10904158191E+02  0.51100000000E-03 0.  1.
        -12    1    3    3    0    0 -0.36494665913E+02  0.95564377375E+01 -0.11317518238E+01  0.37742111819E+02  0.00000000000E+00 0.  1.
</event>
<event>
 7    1  0.3743571E-015  0.9000776E+02  0.7816164E-02  0.1186339E+00
        -11   -1    0    0    0    0  0.00000000000E+00  0.00000000000E+00  0.45593999997E+02  0.45594000000E+02  0.51100000000E-03 0. -1.
         11   -1    0    0    0    0 -0.00000000000E+00 -0.00000000000E+00 -0.45593999997E+02  0.45594000000E+02  0.51100000000E-03 0.  1.
    9900012    2    1    2    0    0 -0.87095736007E+00 -0.61103754350E+00 -0.51091560900E+00  0.90007759193E+02  0.90000020815E+02 0.  0.
        -12    1    1    2    0    0  0.87095736007E+00  0.61103754350E+00  0.51091560900E+00  0.11802408068E+01  0.00000000000E+00 0.  1.
         11    1    3    3    0    0 -0.24722243795E+01  0.83451411511E+01 -0.24762138008E+01  0.90490280838E+01  0.51100000000E-03 0. -1.
        -11    1    3    3    0    0 -0.26808182191E+02  0.18103065484E+02 -0.17912686813E+02  0.36976532577E+02  0.51100000000E-03 0.  1.
         12    1    3    3    0    0  0.28409449210E+02 -0.27059244178E+02  0.19877985004E+02  0.43982198533E+02  0.00000000000E+00 0. -1.
</event>
<event>
 7    1  0.3743571E-015  0.9000778E+02  0.7816164E-02  0.1186339E+00
        -11   -1    0    0    0    0  0.00000000000E+00  0.00000000000E+00  0.45593999997E+02  0.45594000000E+02  0.51100000000E-03 0. -1.
         11   -1    0    0    0    0 -0.00000000000E+00 -0.00000000000E+00 -0.45593999997E+02  0.45594000000E+02  0.51100000000E-03 0.  1.
    9900012    2    1    2    0    0  0.62115373338E+00 -0.97214316403E+00  0.24907061955E+00  0.90007775248E+02  0.90000037081E+02 0.  0.
        -12    1    1    2    0    0 -0.62115373338E+00  0.97214316403E+00 -0.24907061955E+00  0.11802247521E+01  0.00000000000E+00 0.  1.
         11    1    3    3    0    0  0.25383324607E+02 -0.22051245855E+02  0.14357208677E+02  0.36560908812E+02  0.51100000000E-03 0. -1.
        -11    1    3    3    0    0  0.62556693594E+01 -0.62791085947E+01  0.19574966988E+01  0.90770258050E+01  0.51100000000E-03 0.  1.
        -12    1    3    3    0    0 -0.31017840233E+02  0.27358211286E+02 -0.16065634756E+02  0.44369840631E+02  0.00000000000E+00 0.  1.
</event>
<event>
 7    1  0.3743571E-015  0.9000774E+02  0.7816164E-02  0.1186339E+00
        -11   -1    0    0    0    0  0.00000000000E+00  0.00000000000E+00  0.45593999997E+02  0.45594000000E+02  0.51100000000E-03 0. -1.
         11   -1    0    0    0    0 -0.00000000000E+00 -0.00000000000E+00 -0.45593999997E+02  0.45594000000E+02  0.51100000000E-03 0.  1.
    9900012    2    1    2    0    0 -0.16537639844E+00 -0.12574671001E+00  0.11618271156E+01  0.90007744166E+02  0.90000005589E+02 0.  0.
        -12    1    1    2    0    0  0.16537639844E+00  0.12574671001E+00 -0.11618271156E+01  0.11802558344E+01  0.00000000000E+00 0.  1.
         11    1    3    3    0    0 -0.70008109963E+01  0.10075124792E+01  0.28309967887E+00  0.70786002636E+01  0.51100000000E-03 0. -1.
        -11    1    3    3    0    0  0.39386086045E+01 -0.41170344603E+02  0.80972871388E+01  0.42143516367E+02  0.51100000000E-03 0.  1.
         12    1    3    3    0    0  0.28968259934E+01  0.40037085414E+02 -0.72185597021E+01  0.40785627535E+02  0.00000000000E+00 0. -1.
</event>
<event>
 7    1  0.3743571E-015  0.9000774E+02  0.7816164E-02  0.1186339E+00
        -11   -1    0    0    0    0  0.00000000000E+00  0.00000000000E+00  0.45593999997E+02  0.45594000000E+02  0.51100000000E-03 0. -1.
         11   -1    0    0    0    0 -0.00000000000E+00 -0.00000000000E+00 -0.45593999997E+02  0.45594000000E+02  0.51100000000E-03 0.  1.
    9900012    2    1    2    0    0 -0.16376914262E+00 -0.11096443179E+01  0.36726190796E+00  0.90007740641E+02  0.90000002018E+02 0.  0.
        -12    1    1    2    0    0  0.16376914262E+00  0.11096443179E+01 -0.36726190796E+00  0.11802593585E+01  0.00000000000E+00 0.  1.
         11    1    3    3    0    0 -0.21043384056E+02 -0.15717616132E+02  0.28610109955E+02  0.38838201056E+02  0.51100000000E-03 0. -1.
        -11    1    3    3    0    0  0.35213385583E+01 -0.90562349906E+01  0.96455415411E+00  0.97645062560E+01  0.51100000000E-03 0.  1.
        -12    1    3    3    0    0  0.17358276355E+02  0.23664206804E+02 -0.29207402201E+02  0.41405033329E+02  0.00000000000E+00 0.  1.
</event>
<event>
 7    1  0.3743571E-015  0.9000775E+02  0.7816164E-02  0.1186339E+00
        -11   -1    0    0    0    0  0.00000000000E+00  0.00000000000E+00  0.45593999997E+02  0.45594000000E+02  0.51100000000E-03 0.  1.
         11   -1    0    0    0    0 -0.00000000000E+00 -0.00000000000E+00 -0.45593999997E+02  0.45594000000E+02  0.51100000000E-03 0. -1.
    9900012    2    1    2    0    0  0.97362076698E+00 -0.44978924380E+00  0.49268972995E+00  0.90007749632E+02  0.90000011127E+02 0.  0.
        -12    1    1    2    0    0 -0.97362076698E+00  0.44978924380E+00 -0.49268972995E+00  0.11802503682E+01  0.00000000000E+00 0.  1.
         11    1    3    3    0    0  0.12775674042E+02  0.14274041867E+01  0.44150339127E+00  0.12862746808E+02  0.51100000000E-03 0. -1.
        -11    1    3    3    0    0  0.26310034112E+02 -0.47503391405E+01 -0.20555039171E+02  0.33723778740E+02  0.51100000000E-03 0.  1.
         12    1    3    3    0    0 -0.38112087387E+02  0.28731457100E+01  0.20606225509E+02  0.43421224084E+02  0.00000000000E+00 0. -1.
</event>
<event>
 7    1  0.3743571E-015  0.9000777E+02  0.7816164E-02  0.1186339E+00
        -11   -1    0    0    0    0  0.00000000000E+00  0.00000000000E+00  0.45593999997E+02  0.45594000000E+02  0.51100000000E-03 0.  1.
         11   -1    0    0    0    0 -0.00000000000E+00 -0.00000000000E+00 -0.45593999997E+02  0.45594000000E+02  0.51100000000E-03 0. -1.
    9900012    2    1    2    0    0  0.87855310616E+00  0.66884648326E+00 -0.41679976769E+00  0.90007774079E+02  0.90000035897E+02 0.  0.
        -12    1    1    2    0    0 -0.87855310616E+00 -0.66884648326E+00  0.41679976769E+00  0.11802259211E+01  0.00000000000E+00 0.  1.
         11    1    3    3    0    0  0.10757319877E+02 -0.71393272948E+01 -0.49597365230E+01  0.13830723473E+02  0.51100000000E-03 0. -1.
        -11    1    3    3    0    0  0.17344065982E+00  0.34950539196E+02  0.23008403816E+02  0.41844437124E+02  0.51100000000E-03 0.  1.
         12    1    3    3    0    0 -0.10052207431E+02 -0.27142365418E+02 -0.18465467060E+02  0.34332613482E+02  0.00000000000E+00 0. -1.
</event>
<event>
 7    1  0.3743571E-015  0.9000766E+02  0.7816164E-02  0.1186339E+00
        -11   -1    0    0    0    0  0.00000000000E+00  0.00000000000E+00  0.45593999997E+02  0.45594000000E+02  0.51100000000E-03 0. -1.
         11   -1    0    0    0    0 -0.00000000000E+00 -0.00000000000E+00 -0.45593999997E+02  0.45594000000E+02  0.51100000000E-03 0.  1.
    9900012    2    1    2    0    0 -0.58290947854E+00 -0.75877468043E+00  0.69113907529E+00  0.90007662888E+02  0.89999923238E+02 0.  0.
        -12    1    1    2    0    0  0.58290947854E+00  0.75877468043E+00 -0.69113907529E+00  0.11803371117E+01  0.00000000000E+00 0.  1.
         11    1    3    3    0    0 -0.28089779978E+01  0.18509079993E+01  0.97301094405E+01  0.10295205088E+02  0.51100000000E-03 0. -1.
        -11    1    3    3    0    0 -0.30723896837E+02 -0.24776992318E+02 -0.37039205130E+01  0.39643110532E+02  0.51100000000E-03 0.  1.
         12    1    3    3    0    0  0.32949965357E+02  0.22167309639E+02 -0.53350498522E+01  0.40069347269E+02  0.00000000000E+00 0. -1.
</event>
<event>
 7    1  0.3743571E-015  0.9000790E+02  0.7816164E-02  0.1186339E+00
        -11   -1    0    0    0    0  0.00000000000E+00  0.00000000000E+00  0.45593999997E+02  0.45594000000E+02  0.51100000000E-03 0. -1.
         11   -1    0    0    0    0 -0.00000000000E+00 -0.00000000000E+00 -0.45593999997E+02  0.45594000000E+02  0.51100000000E-03 0.  1.
    9900012    2    1    2    0    0  0.47316789304E+00  0.19150445453E+00  0.10639865131E+01  0.90007902923E+02  0.90000166441E+02 0.  0.
        -12    1    1    2    0    0 -0.47316789304E+00 -0.19150445453E+00 -0.10639865131E+01  0.11800970770E+01  0.00000000000E+00 0.  1.
         11    1    3    3    0    0  0.88907295624E+01  0.35022451493E+02 -0.77557330659E+01  0.36956306314E+02  0.51100000000E-03 0. -1.
        -11    1    3    3    0    0  0.30173905597E+01  0.50845025957E+01 -0.65070973955E+01  0.87919923345E+01  0.51100000000E-03 0.  1.
        -12    1    3    3    0    0 -0.11434952229E+02 -0.39915449634E+02  0.15326816974E+02  0.44259604274E+02  0.00000000000E+00 0.  1.
</event>
<event>
 7    1  0.4877740E-015  0.9000775E+02  0.7816164E-02  0.1186339E+00
        -11   -1    0    0    0    0  0.00000000000E+00  0.00000000000E+00  0.45593999997E+02  0.45594000000E+02  0.51100000000E-03 0. -1.
         11   -1    0    0    0    0 -0.00000000000E+00 -0.00000000000E+00 -0.45593999997E+02  0.45594000000E+02  0.51100000000E-03 0.  1.
    9900012    2    1    2    0    0  0.90937771034E+00 -0.33105140646E+00  0.67559245462E+00  0.90007750866E+02  0.90000012377E+02 0.  0.
        -12    1    1    2    0    0 -0.90937771034E+00  0.33105140646E+00 -0.67559245462E+00  0.11802491341E+01  0.00000000000E+00 0.  1.
         11    1    3    3    0    0  0.35674945265E+00  0.52046026431E+01  0.71429629649E+01  0.88451726395E+01  0.51100000000E-03 0. -1.
        -11    1    3    3    0    0  0.40207824403E+02 -0.45251896334E+01 -0.88675108200E+01  0.41421965584E+02  0.51100000000E-03 0.  1.
         12    1    3    3    0    0 -0.39655196145E+02 -0.10104644161E+01  0.24001403097E+01  0.39740612642E+02  0.00000000000E+00 0. -1.
</event>
<event>
 7    1  0.3743571E-015  0.9000779E+02  0.7816164E-02  0.1186339E+00
        -11   -1    0    0    0    0  0.00000000000E+00  0.00000000000E+00  0.45593999997E+02  0.45594000000E+02  0.51100000000E-03 0. -1.
         11   -1    0    0    0    0 -0.00000000000E+00 -0.00000000000E+00 -0.45593999997E+02  0.45594000000E+02  0.51100000000E-03 0.  1.
    9900012    2    1    2    0    0 -0.11757716966E+01  0.22577390436E-01 -0.99790065127E-01  0.90007785241E+02  0.90000047206E+02 0.  0.
        -12    1    1    2    0    0  0.11757716966E+01 -0.22577390436E-01  0.99790065127E-01  0.11802147594E+01  0.00000000000E+00 0.  1.
         11    1    3    3    0    0  0.36148095498E+02  0.10680599437E+02  0.64915351461E+00  0.37698559827E+02  0.51100000000E-03 0. -1.
        -11    1    3    3    0    0  0.51228848086E+01 -0.83452465767E+01  0.36210926389E-01  0.97922622861E+01  0.51100000000E-03 0.  1.
        -12    1    3    3    0    0 -0.42446752003E+02 -0.23127754695E+01 -0.78515450613E+00  0.42516963128E+02  0.00000000000E+00 0.  1.
</event>
<event>
 7    1  0.3743571E-015  0.9000773E+02  0.7816164E-02  0.1186339E+00
        -11   -1    0    0    0    0  0.00000000000E+00  0.00000000000E+00  0.45593999997E+02  0.45594000000E+02  0.51100000000E-03 0.  1.
         11   -1    0    0    0    0 -0.00000000000E+00 -0.00000000000E+00 -0.45593999997E+02  0.45594000000E+02  0.51100000000E-03 0. -1.
    9900012    2    1    2    0    0  0.35538024056E-02 -0.24946401053E+00 -0.11535967871E+01  0.90007732882E+02  0.89999994156E+02 0.  0.
        -12    1    1    2    0    0 -0.35538024056E-02  0.24946401053E+00  0.11535967871E+01  0.11802671178E+01  0.00000000000E+00 0.  1.
         11    1    3    3    0    0  0.38292270327E+01  0.27225347518E+00 -0.83557281280E+01  0.91953952842E+01  0.51100000000E-03 0. -1.
        -11    1    3    3    0    0  0.42011071625E+01 -0.39847860063E+02  0.69959182283E+01  0.40674858637E+02  0.51100000000E-03 0.  1.
         12    1    3    3    0    0 -0.80267803928E+01  0.39326142578E+02  0.20621311261E+00  0.40137478961E+02  0.00000000000E+00 0. -1.
</event>
<event>
 7    1  0.3743571E-015  0.9000778E+02  0.7816164E-02  0.1186339E+00
        -11   -1    0    0    0    0  0.00000000000E+00  0.00000000000E+00  0.45593999997E+02  0.45594000000E+02  0.51100000000E-03 0.  1.
         11   -1    0    0    0    0 -0.00000000000E+00 -0.00000000000E+00 -0.45593999997E+02  0.45594000000E+02  0.51100000000E-03 0. -1.
    9900012    2    1    2    0    0 -0.90025509502E-01 -0.12986149878E+00 -0.11695984579E+01  0.90007775803E+02  0.90000037644E+02 0.  0.
        -12    1    1    2    0    0  0.90025509502E-01  0.12986149878E+00  0.11695984579E+01  0.11802241965E+01  0.00000000000E+00 0.  1.
         11    1    3    3    0    0 -0.11149349906E+01  0.18014768787E+02 -0.16325294980E+02  0.24337013600E+02  0.51100000000E-03 0. -1.
        -11    1    3    3    0    0 -0.17498691254E+01  0.71372898238E+01 -0.20554739416E+02  0.21828885925E+02  0.51100000000E-03 0.  1.
        -12    1    3    3    0    0  0.27747786065E+01 -0.25281920110E+02  0.35710435939E+02  0.43841876279E+02  0.00000000000E+00 0.  1.
</event>
<event>
 7    1  0.3743571E-015  0.9000772E+02  0.7816164E-02  0.1186339E+00
        -11   -1    0    0    0    0  0.00000000000E+00  0.00000000000E+00  0.45593999997E+02  0.45594000000E+02  0.51100000000E-03 0. -1.
         11   -1    0    0    0    0 -0.00000000000E+00 -0.00000000000E+00 -0.45593999997E+02  0.45594000000E+02  0.51100000000E-03 0.  1.
    9900012    2    1    2    0    0 -0.56654879700E+00 -0.55234151555E+00  0.87579050358E+00  0.90007717112E+02  0.89999978178E+02 0.  0.
        -12    1    1    2    0    0  0.56654879700E+00  0.55234151555E+00 -0.87579050358E+00  0.11802828878E+01  0.00000000000E+00 0.  1.
         11    1    3    3    0    0 -0.23361990235E+02  0.15930753694E+02 -0.26470517630E+02  0.38733187383E+02  0.51100000000E-03 0. -1.
        -11    1    3    3    0    0 -0.75995768698E+01  0.16867240491E+01  0.32152801682E+01  0.84223888203E+01  0.51100000000E-03 0.  1.
        -12    1    3    3    0    0  0.30395018308E+02 -0.18169819259E+02  0.24131027965E+02  0.42852140909E+02  0.00000000000E+00 0.  1.
</event>
<event>
 7    1  0.3743571E-015  0.9000873E+02  0.7816164E-02  0.1186337E+00
        -11   -1    0    0    0    0  0.00000000000E+00  0.00000000000E+00  0.45593999997E+02  0.45594000000E+02  0.51100000000E-03 0. -1.
         11   -1    0    0    0    0 -0.00000000000E+00 -0.00000000000E+00 -0.45593999997E+02  0.45594000000E+02  0.51100000000E-03 0.  1.
    9900012    2    1    2    0    0  0.45626993492E+00  0.20104197319E+00  0.10686814069E+01  0.90008729006E+02  0.90001003423E+02 0.  0.
        -12    1    1    2    0    0 -0.45626993492E+00 -0.20104197319E+00 -0.10686814069E+01  0.11792709943E+01  0.00000000000E+00 0.  1.
         11    1    3    3    0    0  0.91270526929E+01  0.37004785514E+00  0.21378205015E+01  0.93813806570E+01  0.51100000000E-03 0. -1.
        -11    1    3    3    0    0  0.21215238588E+02 -0.14692161428E+02  0.26840101386E+02  0.37233546681E+02  0.51100000000E-03 0.  1.
         12    1    3    3    0    0 -0.29886021346E+02  0.14523155546E+02 -0.27909240481E+02  0.43393801667E+02  0.00000000000E+00 0. -1.
</event>
<event>
 7    1  0.3743571E-015  0.9000776E+02  0.7816164E-02  0.1186339E+00
        -11   -1    0    0    0    0  0.00000000000E+00  0.00000000000E+00  0.45593999997E+02  0.45594000000E+02  0.51100000000E-03 0.  1.
         11   -1    0    0    0    0 -0.00000000000E+00 -0.00000000000E+00 -0.45593999997E+02  0.45594000000E+02  0.51100000000E-03 0. -1.
    9900012    2    1    2    0    0 -0.21028904803E+00 -0.89615011704E+00  0.73868886075E+00  0.90007759453E+02  0.90000021078E+02 0.  0.
        -12    1    1    2    0    0  0.21028904803E+00  0.89615011704E+00 -0.73868886075E+00  0.11802405471E+01  0.00000000000E+00 0.  1.
         11    1    3    3    0    0 -0.52712488795E+01 -0.13667951348E+00  0.14341366638E+02  0.15280037413E+02  0.51100000000E-03 0. -1.
        -11    1    3    3    0    0  0.72836361130E+01  0.34305402720E+02  0.42331267824E+01  0.35324656735E+02  0.51100000000E-03 0.  1.
         12    1    3    3    0    0 -0.22226762816E+01 -0.35064873324E+02 -0.17835804560E+02  0.39403065304E+02  0.00000000000E+00 0. -1.
</event>
<event>
 7    1  0.3743571E-015  0.9000777E+02  0.7816164E-02  0.1186339E+00
        -11   -1    0    0    0    0  0.00000000000E+00  0.00000000000E+00  0.45593999997E+02  0.45594000000E+02  0.51100000000E-03 0. -1.
         11   -1    0    0    0    0 -0.00000000000E+00 -0.00000000000E+00 -0.45593999997E+02  0.45594000000E+02  0.51100000000E-03 0.  1.
    9900012    2    1    2    0    0 -0.93682483392E+00 -0.53590679678E+00  0.47760390327E+00  0.90007770212E+02  0.90000031979E+02 0.  0.
        -12    1    1    2    0    0  0.93682483392E+00  0.53590679678E+00 -0.47760390327E+00  0.11802297881E+01  0.00000000000E+00 0.  1.
         11    1    3    3    0    0 -0.53285629853E+01  0.24153013762E+01 -0.48379198710E+01  0.75916225647E+01  0.51100000000E-03 0. -1.
        -11    1    3    3    0    0 -0.75885507042E+01  0.38408346698E+02  0.13480500974E+01  0.39174027584E+02  0.51100000000E-03 0.  1.
         12    1    3    3    0    0  0.11980288856E+02 -0.41359554871E+02  0.39674736769E+01  0.43242120063E+02  0.00000000000E+00 0. -1.
</event>
<event>
 7    1  0.3743571E-015  0.9000774E+02  0.7816164E-02  0.1186339E+00
        -11   -1    0    0    0    0  0.00000000000E+00  0.00000000000E+00  0.45593999997E+02  0.45594000000E+02  0.51100000000E-03 0. -1.
         11   -1    0    0    0    0 -0.00000000000E+00 -0.00000000000E+00 -0.45593999997E+02  0.45594000000E+02  0.51100000000E-03 0.  1.
    9900012    2    1    2    0    0 -0.77131590251E-01 -0.48631859932E+00  0.10726408962E+01  0.90007740048E+02  0.90000001417E+02 0.  0.
        -12    1    1    2    0    0  0.77131590251E-01  0.48631859932E+00 -0.10726408962E+01  0.11802599521E+01  0.00000000000E+00 0.  1.
         11    1    3    3    0    0  0.89049953374E+01 -0.31966056146E+01 -0.34114434697E+01  0.10057592964E+02  0.51100000000E-03 0. -1.
        -11    1    3    3    0    0 -0.10040864098E+02 -0.33524601242E+02 -0.15814725821E+02  0.38403429447E+02  0.51100000000E-03 0.  1.
         12    1    3    3    0    0  0.10587371708E+01  0.36234888257E+02  0.20298810187E+02  0.41546717637E+02  0.00000000000E+00 0. -1.
</event>
<event>
 7    1  0.3743571E-015  0.9000778E+02  0.7816164E-02  0.1186339E+00
        -11   -1    0    0    0    0  0.00000000000E+00  0.00000000000E+00  0.45593999997E+02  0.45594000000E+02  0.51100000000E-03 0.  1.
         11   -1    0    0    0    0 -0.00000000000E+00 -0.00000000000E+00 -0.45593999997E+02  0.45594000000E+02  0.51100000000E-03 0. -1.
    9900012    2    1    2    0    0  0.91647277588E+00 -0.19561085215E+00 -0.71744384353E+00  0.90007783230E+02  0.90000045169E+02 0.  0.
        -12    1    1    2    0    0 -0.91647277588E+00  0.19561085215E+00  0.71744384353E+00  0.11802167695E+01  0.00000000000E+00 0.  1.
         11    1    3    3    0    0  0.63906000927E+01 -0.69875734845E+01  0.19452413826E+01  0.96669497280E+01  0.51100000000E-03 0. -1.
        -11    1    3    3    0    0  0.20726193795E+02 -0.16491539399E+02  0.24435249359E+02  0.36036473086E+02  0.51100000000E-03 0.  1.
         12    1    3    3    0    0 -0.26200321112E+02  0.23283502031E+02 -0.27097934585E+02  0.44304360417E+02  0.00000000000E+00 0. -1.
</event>
<event>
 7    1  0.4744391E-015  0.9000774E+02  0.7816164E-02  0.1186339E+00
        -11   -1    0    0    0    0  0.00000000000E+00  0.00000000000E+00  0.45593999997E+02  0.45594000000E+02  0.51100000000E-03 0. -1.
         11   -1    0    0    0    0 -0.00000000000E+00 -0.00000000000E+00 -0.45593999997E+02  0.45594000000E+02  0.51100000000E-03 0.  1.
    9900012    2    1    2    0    0  0.38455004614E+00  0.94344608397E+00  0.59586194869E+00  0.90007737015E+02  0.89999998344E+02 0.  0.
        -12    1    1    2    0    0 -0.38455004614E+00 -0.94344608397E+00 -0.59586194869E+00  0.11802629848E+01  0.00000000000E+00 0.  1.
         11    1    3    3    0    0 -0.10599133007E+00  0.39777313373E+01  0.40440820211E+02  0.40636111039E+02  0.51100000000E-03 0. -1.
        -11    1    3    3    0    0  0.30689210033E+01 -0.81255745383E+01  0.42797659430E+00  0.86963441703E+01  0.51100000000E-03 0.  1.
        -12    1    3    3    0    0 -0.25783796271E+01  0.50912892849E+01 -0.40272934856E+02  0.40675281806E+02  0.00000000000E+00 0.  1.
</event>
<event>
 7    1  0.3743571E-015  0.9000791E+02  0.7816164E-02  0.1186339E+00
        -11   -1    0    0    0    0  0.00000000000E+00  0.00000000000E+00  0.45593999997E+02  0.45594000000E+02  0.51100000000E-03 0.  1.
         11   -1    0    0    0    0 -0.00000000000E+00 -0.00000000000E+00 -0.45593999997E+02  0.45594000000E+02  0.51100000000E-03 0. -1.
    9900012    2    1    2    0    0  0.74454794281E+00 -0.80741920373E+00 -0.43165789922E+00  0.90007912736E+02  0.90000176384E+02 0.  0.
        -12    1    1    2    0    0 -0.74454794281E+00  0.80741920373E+00  0.43165789922E+00  0.11800872644E+01  0.00000000000E+00 0.  1.
         11    1    3    3    0    0  0.31383431730E+02 -0.16265105098E+02  0.88607506733E+01  0.36441546808E+02  0.51100000000E-03 0. -1.
        -11    1    3    3    0    0  0.89444101430E+01  0.54260450641E+01  0.30676698423E+01  0.10902065693E+02  0.51100000000E-03 0.  1.
        -12    1    3    3    0    0 -0.39583293930E+02  0.10031640830E+02 -0.12360078415E+02  0.42664300235E+02  0.00000000000E+00 0.  1.
</event>
<event>
 7    1  0.3743571E-015  0.9000782E+02  0.7816164E-02  0.1186339E+00
        -11   -1    0    0    0    0  0.00000000000E+00  0.00000000000E+00  0.45593999997E+02  0.45594000000E+02  0.51100000000E-03 0.  1.
         11   -1    0    0    0    0 -0.00000000000E+00 -0.00000000000E+00 -0.45593999997E+02  0.45594000000E+02  0.51100000000E-03 0. -1.
    9900012    2    1    2    0    0  0.12520823403E-01  0.10220989552E+01 -0.58990702542E+00  0.90007816394E+02  0.90000078770E+02 0.  0.
        -12    1    1    2    0    0 -0.12520823403E-01 -0.10220989552E+01  0.58990702542E+00  0.11801836060E+01  0.00000000000E+00 0.  1.
         11    1    3    3    0    0  0.30852541325E+02  0.22778153792E+02 -0.11383090734E+02  0.40003729218E+02  0.51100000000E-03 0. -1.
        -11    1    3    3    0    0 -0.53825143625E+01  0.79382785780E+01  0.73942259052E+00  0.96194840648E+01  0.51100000000E-03 0.  1.
        -12    1    3    3    0    0 -0.25457506140E+02 -0.29694333415E+02  0.10053761118E+02  0.40384603111E+02  0.00000000000E+00 0.  1.
</event>
<event>
 7    1  0.3743571E-015  0.9000788E+02  0.7816164E-02  0.1186339E+00
        -11   -1    0    0    0    0  0.00000000000E+00  0.00000000000E+00  0.45593999997E+02  0.45594000000E+02  0.51100000000E-03 0.  1.
         11   -1    0    0    0    0 -0.00000000000E+00 -0.00000000000E+00 -0.45593999997E+02  0.45594000000E+02  0.51100000000E-03 0. -1.
    9900012    2    1    2    0    0 -0.11288292427E+01  0.29227305325E+00 -0.18165023044E+00  0.90007883140E+02  0.90000146397E+02 0.  0.
        -12    1    1    2    0    0  0.11288292427E+01 -0.29227305325E+00  0.18165023044E+00  0.11801168599E+01  0.00000000000E+00 0.  1.
         11    1    3    3    0    0  0.62314935461E+01  0.37681577352E+01 -0.16073284690E+01  0.74574814516E+01  0.51100000000E-03 0. -1.
        -11    1    3    3    0    0 -0.44428870704E+01  0.39356019938E+02  0.48754617640E+00  0.39609004689E+02  0.51100000000E-03 0.  1.
         12    1    3    3    0    0 -0.29174357183E+01 -0.42831904620E+02  0.93813206218E+00  0.42941397000E+02  0.00000000000E+00 0. -1.
</event>
<event>
 7    1  0.3743571E-015  0.9000771E+02  0.7816164E-02  0.1186339E+00
        -11   -1    0    0    0    0  0.00000000000E+00  0.00000000000E+00  0.45593999997E+02  0.45594000000E+02  0.51100000000E-03 0. -1.
         11   -1    0    0    0    0 -0.00000000000E+00 -0.00000000000E+00 -0.45593999997E+02  0.45594000000E+02  0.51100000000E-03 0.  1.
    9900012    2    1    2    0    0  0.44505013315E+00  0.10922652768E+01  0.44439216751E-01  0.90007708553E+02  0.89999969506E+02 0.  0.
        -12    1    1    2    0    0 -0.44505013315E+00 -0.10922652768E+01 -0.44439216751E-01  0.11802914470E+01  0.00000000000E+00 0.  1.
         11    1    3    3    0    0 -0.76668540279E+01 -0.64876425141E+01  0.14202070770E+01  0.10143330049E+02  0.51100000000E-03 0. -1.
        -11    1    3    3    0    0 -0.32874439281E+02 -0.11174328618E+02 -0.21019657761E+01  0.34785235927E+02  0.51100000000E-03 0.  1.
         12    1    3    3    0    0  0.40986343442E+02  0.18754236409E+02  0.72619791590E+00  0.45079142577E+02  0.00000000000E+00 0. -1.
</event>
<event>
 7    1  0.3743571E-015  0.9000762E+02  0.7816164E-02  0.1186339E+00
        -11   -1    0    0    0    0  0.00000000000E+00  0.00000000000E+00  0.45593999997E+02  0.45594000000E+02  0.51100000000E-03 0.  1.
         11   -1    0    0    0    0 -0.00000000000E+00 -0.00000000000E+00 -0.45593999997E+02  0.45594000000E+02  0.51100000000E-03 0. -1.
    9900012    2    1    2    0    0 -0.61061303422E+00 -0.10101562547E+01 -0.54997321371E-02  0.90007621169E+02  0.89999880969E+02 0.  0.
        -12    1    1    2    0    0  0.61061303422E+00  0.10101562547E+01  0.54997321371E-02  0.11803788305E+01  0.00000000000E+00 0.  1.
         11    1    3    3    0    0  0.16086507404E+01  0.14567402614E+01 -0.80907312539E+01  0.83767405282E+01  0.51100000000E-03 0. -1.
        -11    1    3    3    0    0  0.11655792670E+02 -0.28363967266E+02 -0.23394995937E+02  0.38570688054E+02  0.51100000000E-03 0.  1.
         12    1    3    3    0    0 -0.13875056444E+02  0.25897070750E+02  0.31480227459E+02  0.43060192587E+02  0.00000000000E+00 0. -1.
</event>
<event>
 7    1  0.3743571E-015  0.9000775E+02  0.7816164E-02  0.1186339E+00
        -11   -1    0    0    0    0  0.00000000000E+00  0.00000000000E+00  0.45593999997E+02  0.45594000000E+02  0.51100000000E-03 0.  1.
         11   -1    0    0    0    0 -0.00000000000E+00 -0.00000000000E+00 -0.45593999997E+02  0.45594000000E+02  0.51100000000E-03 0. -1.
    9900012    2    1    2    0    0  0.76382298758E+00  0.83155295485E+00  0.34363210998E+00  0.90007750492E+02  0.90000011999E+02 0.  0.
        -12    1    1    2    0    0 -0.76382298758E+00 -0.83155295485E+00 -0.34363210998E+00  0.11802495076E+01  0.00000000000E+00 0.  1.
         11    1    3    3    0    0  0.27881940475E+02 -0.15469147748E+02 -0.22839008524E+02  0.39221390176E+02  0.51100000000E-03 0. -1.
        -11    1    3    3    0    0  0.58887633678E+00 -0.78231048886E+01  0.74601812017E+01  0.10825989528E+02  0.51100000000E-03 0.  1.
        -12    1    3    3    0    0 -0.27706993825E+02  0.24123805591E+02  0.15722459432E+02  0.39960370789E+02  0.00000000000E+00 0.  1.
</event>
<event>
 7    1  0.3743571E-015  0.9000769E+02  0.7816164E-02  0.1186339E+00
        -11   -1    0    0    0    0  0.00000000000E+00  0.00000000000E+00  0.45593999997E+02  0.45594000000E+02  0.51100000000E-03 0.  1.
         11   -1    0    0    0    0 -0.00000000000E+00 -0.00000000000E+00 -0.45593999997E+02  0.45594000000E+02  0.51100000000E-03 0. -1.
    9900012    2    1    2    0    0  0.33372868412E+00 -0.31567808337E-01 -0.11317058911E+01  0.90007690894E+02  0.89999951614E+02 0.  0.
        -12    1    1    2    0    0 -0.33372868412E+00  0.31567808337E-01  0.11317058911E+01  0.11803091057E+01  0.00000000000E+00 0.  1.
         11    1    3    3    0    0  0.64701660180E+01 -0.40619779374E+01  0.53597070694E+01  0.93321580138E+01  0.51100000000E-03 0. -1.
        -11    1    3    3    0    0  0.10418972534E+02 -0.33639678377E+02  0.95876244732E+01  0.36498020402E+02  0.51100000000E-03 0.  1.
         12    1    3    3    0    0 -0.16555409868E+02  0.37670088506E+02 -0.16079037434E+02  0.44177512478E+02  0.00000000000E+00 0. -1.
</event>
<event>
 7    1  0.3743571E-015  0.9000774E+02  0.7816164E-02  0.1186339E+00
        -11   -1    0    0    0    0  0.00000000000E+00  0.00000000000E+00  0.45593999997E+02  0.45594000000E+02  0.51100000000E-03 0. -1.
         11   -1    0    0    0    0 -0.00000000000E+00 -0.00000000000E+00 -0.45593999997E+02  0.45594000000E+02  0.51100000000E-03 0.  1.
    9900012    2    1    2    0    0  0.64973770415E+00 -0.82753401445E+00  0.53483357673E+00  0.90007737917E+02  0.89999999258E+02 0.  0.
        -12    1    1    2    0    0 -0.64973770415E+00  0.82753401445E+00 -0.53483357673E+00  0.11802620828E+01  0.00000000000E+00 0.  1.
         11    1    3    3    0    0  0.28986191442E+01 -0.15794535739E+01  0.11706819796E+02  0.12163317662E+02  0.51100000000E-03 0. -1.
        -11    1    3    3    0    0  0.29664968352E+02  0.18308102294E+02  0.92766642360E+01  0.36072890882E+02  0.51100000000E-03 0.  1.
         12    1    3    3    0    0 -0.31913849792E+02 -0.17556182735E+02 -0.20448650456E+02  0.41771529374E+02  0.00000000000E+00 0. -1.
</event>
<event>
 7    1  0.3743571E-015  0.9000777E+02  0.7816164E-02  0.1186339E+00
        -11   -1    0    0    0    0  0.00000000000E+00  0.00000000000E+00  0.45593999997E+02  0.45594000000E+02  0.51100000000E-03 0.  1.
         11   -1    0    0    0    0 -0.00000000000E+00 -0.00000000000E+00 -0.45593999997E+02  0.45594000000E+02  0.51100000000E-03 0. -1.
    9900012    2    1    2    0    0  0.31869918621E+00  0.10474796199E+01  0.44064842651E+00  0.90007765379E+02  0.90000027082E+02 0.  0.
        -12    1    1    2    0    0 -0.31869918621E+00 -0.10474796199E+01 -0.44064842651E+00  0.11802346212E+01  0.00000000000E+00 0.  1.
         11    1    3    3    0    0  0.64274522932E+01  0.60648682170E+01  0.10433798073E+02  0.13673291921E+02  0.51100000000E-03 0. -1.
        -11    1    3    3    0    0  0.15178725076E+02  0.29710022763E+02  0.32062647628E+01  0.33516552351E+02  0.51100000000E-03 0.  1.
         12    1    3    3    0    0 -0.21287478183E+02 -0.34727411360E+02 -0.13199414409E+02  0.42817921107E+02  0.00000000000E+00 0. -1.
</event>
<event>
 7    1  0.3743571E-015  0.9000777E+02  0.7816164E-02  0.1186339E+00
        -11   -1    0    0    0    0  0.00000000000E+00  0.00000000000E+00  0.45593999997E+02  0.45594000000E+02  0.51100000000E-03 0. -1.
         11   -1    0    0    0    0 -0.00000000000E+00 -0.00000000000E+00 -0.45593999997E+02  0.45594000000E+02  0.51100000000E-03 0.  1.
    9900012    2    1    2    0    0 -0.10480918131E+01  0.33649875155E+00 -0.42568818404E+00  0.90007771934E+02  0.90000033723E+02 0.  0.
        -12    1    1    2    0    0  0.10480918131E+01 -0.33649875155E+00  0.42568818404E+00  0.11802280663E+01  0.00000000000E+00 0.  1.
         11    1    3    3    0    0  0.20859111340E+02  0.14940743203E+02  0.32477723563E+02  0.41389985038E+02  0.51100000000E-03 0. -1.
        -11    1    3    3    0    0 -0.59577780066E+01 -0.67276757397E+01  0.22112708064E+01  0.92545371832E+01  0.51100000000E-03 0.  1.
        -12    1    3    3    0    0 -0.15949425146E+02 -0.78765687118E+01 -0.35114682553E+02  0.39363249713E+02  0.00000000000E+00 0.  1.
</event>
<event>
 7    1  0.3743571E-015  0.9000761E+02  0.7816164E-02  0.1186339E+00
        -11   -1    0    0    0    0  0.00000000000E+00  0.00000000000E+00  0.45593999997E+02  0.45594000000E+02  0.51100000000E-03 0.  1.
         11   -1    0    0    0    0 -0.00000000000E+00 -0.00000000000E+00 -0.45593999997E+02  0.45594000000E+02  0.51100000000E-03 0. -1.
    9900012    2    1    2    0    0  0.48687300753E+00 -0.89775801615E+00 -0.59187619748E+00  0.90007605060E+02  0.89999864647E+02 0.  0.
        -12    1    1    2    0    0 -0.48687300753E+00  0.89775801615E+00  0.59187619748E+00  0.11803949399E+01  0.00000000000E+00 0.  1.
         11    1    3    3    0    0  0.39669482137E+01  0.30655827314E+01 -0.58792526333E+01  0.77265831647E+01  0.51100000000E-03 0. -1.
        -11    1    3    3    0    0  0.31441658059E+02  0.21065947883E+02  0.97576964518E+01  0.39084071718E+02  0.51100000000E-03 0.  1.
         12    1    3    3    0    0 -0.34921733265E+02 -0.25029288631E+02 -0.44703200159E+01  0.43196950178E+02  0.00000000000E+00 0. -1.
</event>
<event>
 7    1  0.3743571E-015  0.9000784E+02  0.7816164E-02  0.1186339E+00
        -11   -1    0    0    0    0  0.00000000000E+00  0.00000000000E+00  0.45593999997E+02  0.45594000000E+02  0.51100000000E-03 0.  1.
         11   -1    0    0    0    0 -0.00000000000E+00 -0.00000000000E+00 -0.45593999997E+02  0.45594000000E+02  0.51100000000E-03 0. -1.
    9900012    2    1    2    0    0  0.10828108405E+01 -0.31802924839E+00 -0.34519141269E+00  0.90007839405E+02  0.90000102085E+02 0.  0.
        -12    1    1    2    0    0 -0.10828108405E+01  0.31802924839E+00  0.34519141269E+00  0.11801605953E+01  0.00000000000E+00 0.  1.
         11    1    3    3    0    0 -0.26659145680E+01  0.74570591478E+00  0.11291188486E+02  0.11625580221E+02  0.51100000000E-03 0. -1.
        -11    1    3    3    0    0  0.28004273266E+02  0.12505567680E+01  0.22844092523E+02  0.36161523431E+02  0.51100000000E-03 0.  1.
         12    1    3    3    0    0 -0.24255547857E+02 -0.23142919312E+01 -0.34480472422E+02  0.42220735752E+02  0.00000000000E+00 0. -1.
</event>
<event>
 7    1  0.3743571E-015  0.9000764E+02  0.7816164E-02  0.1186339E+00
        -11   -1    0    0    0    0  0.00000000000E+00  0.00000000000E+00  0.45593999997E+02  0.45594000000E+02  0.51100000000E-03 0. -1.
         11   -1    0    0    0    0 -0.00000000000E+00 -0.00000000000E+00 -0.45593999997E+02  0.45594000000E+02  0.51100000000E-03 0.  1.
    9900012    2    1    2    0    0 -0.50154879532E+00 -0.51272806580E-01  0.10672688817E+01  0.90007642867E+02  0.89999902953E+02 0.  0.
        -12    1    1    2    0    0  0.50154879532E+00  0.51272806580E-01 -0.10672688817E+01  0.11803571327E+01  0.00000000000E+00 0.  1.
         11    1    3    3    0    0  0.21432465540E+02 -0.15236444605E+02  0.24617853878E+02  0.36021362456E+02  0.51100000000E-03 0. -1.
        -11    1    3    3    0    0  0.52767731232E+01  0.11577804485E+01  0.82393230042E+01  0.98524734960E+01  0.51100000000E-03 0.  1.
        -12    1    3    3    0    0 -0.27210787458E+02  0.14027391350E+02 -0.31789908001E+02  0.44133806916E+02  0.00000000000E+00 0.  1.
</event>
<event>
 7    1  0.3743571E-015  0.9000864E+02  0.7816164E-02  0.1186337E+00
        -11   -1    0    0    0    0  0.00000000000E+00  0.00000000000E+00  0.45593999997E+02  0.45594000000E+02  0.51100000000E-03 0. -1.
         11   -1    0    0    0    0 -0.00000000000E+00 -0.00000000000E+00 -0.45593999997E+02  0.45594000000E+02  0.51100000000E-03 0.  1.
    9900012    2    1    2    0    0 -0.10796612526E+01  0.20213423378E+00  0.42936467332E+00  0.90008643950E+02  0.90000917246E+02 0.  0.
        -12    1    1    2    0    0  0.10796612526E+01 -0.20213423378E+00 -0.42936467332E+00  0.11793560496E+01  0.00000000000E+00 0.  1.
         11    1    3    3    0    0  0.81966857886E+01  0.53624370402E+01  0.28292456593E+01  0.10195392106E+02  0.51100000000E-03 0. -1.
        -11    1    3    3    0    0  0.11092531691E+02  0.28754504403E+02  0.17592173912E+02  0.35487326836E+02  0.51100000000E-03 0.  1.
         12    1    3    3    0    0 -0.20368878732E+02 -0.33914807209E+02 -0.19992054898E+02  0.44325925009E+02  0.00000000000E+00 0. -1.
</event>
<event>
 7    1  0.3743571E-015  0.9000763E+02  0.7816164E-02  0.1186339E+00
        -11   -1    0    0    0    0  0.00000000000E+00  0.00000000000E+00  0.45593999997E+02  0.45594000000E+02  0.51100000000E-03 0. -1.
         11   -1    0    0    0    0 -0.00000000000E+00 -0.00000000000E+00 -0.45593999997E+02  0.45594000000E+02  0.51100000000E-03 0.  1.
    9900012    2    1    2    0    0  0.20082090132E+00 -0.87513860872E+00  0.76620772367E+00  0.90007631035E+02  0.89999890964E+02 0.  0.
        -12    1    1    2    0    0 -0.20082090132E+00  0.87513860872E+00 -0.76620772367E+00  0.11803689655E+01  0.00000000000E+00 0.  1.
         11    1    3    3    0    0  0.36465076073E+02 -0.12430105567E+02  0.11384038574E+02  0.40172199739E+02  0.51100000000E-03 0. -1.
        -11    1    3    3    0    0 -0.34225517246E+01 -0.54343741897E+01  0.64573540736E+01  0.91073434674E+01  0.51100000000E-03 0.  1.
        -12    1    3    3    0    0 -0.32841703447E+02  0.16989341148E+02 -0.17075184924E+02  0.40728087828E+02  0.00000000000E+00 0.  1.
</event>
<event>
 7    1  0.3743571E-015  0.9000799E+02  0.7816164E-02  0.1186339E+00
        -11   -1    0    0    0    0  0.00000000000E+00  0.00000000000E+00  0.45593999997E+02  0.45594000000E+02  0.51100000000E-03 0.  1.
         11   -1    0    0    0    0 -0.00000000000E+00 -0.00000000000E+00 -0.45593999997E+02  0.45594000000E+02  0.51100000000E-03 0. -1.
    9900012    2    1    2    0    0 -0.66677473197E+00 -0.97143167698E+00 -0.64510221454E-01  0.90007987451E+02  0.90000252085E+02 0.  0.
        -12    1    1    2    0    0  0.66677473197E+00  0.97143167698E+00  0.64510221454E-01  0.11800125486E+01  0.00000000000E+00 0.  1.
         11    1    3    3    0    0  0.37897295339E+01 -0.23454176743E+01 -0.31021784284E+01  0.54301514961E+01  0.51100000000E-03 0. -1.
        -11    1    3    3    0    0  0.56546705150E+01 -0.36950025092E+02 -0.15935611857E+02  0.40635247981E+02  0.51100000000E-03 0.  1.
         12    1    3    3    0    0 -0.10111174781E+02  0.38324011090E+02  0.18973280064E+02  0.43942587974E+02  0.00000000000E+00 0. -1.
</event>
<event>
 7    1  0.3743571E-015  0.9000777E+02  0.7816164E-02  0.1186339E+00
        -11   -1    0    0    0    0  0.00000000000E+00  0.00000000000E+00  0.45593999997E+02  0.45594000000E+02  0.51100000000E-03 0.  1.
         11   -1    0    0    0    0 -0.00000000000E+00 -0.00000000000E+00 -0.45593999997E+02  0.45594000000E+02  0.51100000000E-03 0. -1.
    9900012    2    1    2    0    0  0.12124201309E+00  0.81855215302E+00 -0.84155551058E+00  0.90007769967E+02  0.90000031731E+02 0.  0.
        -12    1    1    2    0    0 -0.12124201309E+00 -0.81855215302E+00  0.84155551058E+00  0.11802300328E+01  0.00000000000E+00 0.  1.
         11    1    3    3    0    0 -0.52751372363E+01  0.45104161486E+01  0.40419748922E+01  0.80317176237E+01  0.51100000000E-03 0. -1.
        -11    1    3    3    0    0 -0.34327057612E+02 -0.13198755456E+01 -0.19596751990E+02  0.39548977794E+02  0.51100000000E-03 0.  1.
         12    1    3    3    0    0  0.39723436862E+02 -0.23719884500E+01  0.14713221587E+02  0.42427074549E+02  0.00000000000E+00 0. -1.
</event>
<event>
 7    1  0.3743571E-015  0.9000769E+02  0.7816164E-02  0.1186339E+00
        -11   -1    0    0    0    0  0.00000000000E+00  0.00000000000E+00  0.45593999997E+02  0.45594000000E+02  0.51100000000E-03 0.  1.
         11   -1    0    0    0    0 -0.00000000000E+00 -0.00000000000E+00 -0.45593999997E+02  0.45594000000E+02  0.51100000000E-03 0. -1.
    9900012    2    1    2    0    0 -0.80893066732E+00  0.85938996295E+00  0.14472316216E-01  0.90007690981E+02  0.89999951702E+02 0.  0.
        -12    1    1    2    0    0  0.80893066732E+00 -0.85938996295E+00 -0.14472316216E-01  0.11803090192E+01  0.00000000000E+00 0.  1.
         11    1    3    3    0    0 -0.31882779874E+02 -0.16674946043E+02 -0.19625040497E+02  0.40984237126E+02  0.51100000000E-03 0. -1.
        -11    1    3    3    0    0 -0.47226718233E+01 -0.52538519460E+00  0.29592908162E+01  0.55979515136E+01  0.51100000000E-03 0.  1.
        -12    1    3    3    0    0  0.35796521030E+02  0.18059721201E+02  0.16680221997E+02  0.43425502341E+02  0.00000000000E+00 0.  1.
</event>
<event>
 7    1  0.3743571E-015  0.9000767E+02  0.7816164E-02  0.1186339E+00
        -11   -1    0    0    0    0  0.00000000000E+00  0.00000000000E+00  0.45593999997E+02  0.45594000000E+02  0.51100000000E-03 0. -1.
         11   -1    0    0    0    0 -0.00000000000E+00 -0.00000000000E+00 -0.45593999997E+02  0.45594000000E+02  0.51100000000E-03 0.  1.
    9900012    2    1    2    0    0  0.42898870140E+00 -0.11801344382E+00  0.10932571688E+01  0.90007673894E+02  0.89999934390E+02 0.  0.
        -12    1    1    2    0    0 -0.42898870140E+00  0.11801344382E+00 -0.10932571688E+01  0.11803261058E+01  0.00000000000E+00 0.  1.
         11    1    3    3    0    0  0.27914875350E+02 -0.16246385667E+02 -0.16553808573E+02  0.36293441440E+02  0.51100000000E-03 0. -1.
        -11    1    3    3    0    0  0.33053555237E+01 -0.21368258346E+01  0.17474966340E+02  0.17912728676E+02  0.51100000000E-03 0.  1.
        -12    1    3    3    0    0 -0.30791242172E+02  0.18265198058E+02  0.17209940251E+00  0.35801503778E+02  0.00000000000E+00 0.  1.
</event>
<event>
 7    1  0.3743571E-015  0.9000780E+02  0.7816164E-02  0.1186339E+00
        -11   -1    0    0    0    0  0.00000000000E+00  0.00000000000E+00  0.45593999997E+02  0.45594000000E+02  0.51100000000E-03 0.  1.
         11   -1    0    0    0    0 -0.00000000000E+00 -0.00000000000E+00 -0.45593999997E+02  0.45594000000E+02  0.51100000000E-03 0. -1.
    9900012    2    1    2    0    0  0.10215480474E+01 -0.54864025902E+00  0.21976045647E+00  0.90007804590E+02  0.90000066811E+02 0.  0.
        -12    1    1    2    0    0 -0.10215480474E+01  0.54864025902E+00 -0.21976045647E+00  0.11801954097E+01  0.00000000000E+00 0.  1.
         11    1    3    3    0    0 -0.78440302681E+01 -0.12627235280E+01 -0.52311510979E+01  0.95125298226E+01  0.51100000000E-03 0. -1.
        -11    1    3    3    0    0  0.49108146497E+01  0.38854611469E+02  0.13289869311E+02  0.41357194773E+02  0.51100000000E-03 0.  1.
         12    1    3    3    0    0  0.39547636658E+01 -0.38140528200E+02 -0.78389577562E+01  0.39138079995E+02  0.00000000000E+00 0. -1.
</event>
<event>
 7    1  0.3743571E-015  0.9000770E+02  0.7816164E-02  0.1186339E+00
        -11   -1    0    0    0    0  0.00000000000E+00  0.00000000000E+00  0.45593999997E+02  0.45594000000E+02  0.51100000000E-03 0.  1.
         11   -1    0    0    0    0 -0.00000000000E+00 -0.00000000000E+00 -0.45593999997E+02  0.45594000000E+02  0.51100000000E-03 0. -1.
    9900012    2    1    2    0    0 -0.11743441875E+00 -0.27652767634E+00 -0.11414269820E+01  0.90007697516E+02  0.89999958323E+02 0.  0.
        -12    1    1    2    0    0  0.11743441875E+00  0.27652767634E+00  0.11414269820E+01  0.11803024840E+01  0.00000000000E+00 0.  1.
         11    1    3    3    0    0  0.13936855903E+02 -0.26320478526E+01 -0.47052340650E+01  0.14943321459E+02  0.51100000000E-03 0. -1.
        -11    1    3    3    0    0  0.11063079113E+02  0.22225439734E+02 -0.22704542634E+02  0.33643099550E+02  0.51100000000E-03 0.  1.
         12    1    3    3    0    0 -0.25117369435E+02 -0.19869919558E+02  0.26268349717E+02  0.41421276507E+02  0.00000000000E+00 0. -1.
</event>
<event>
 7    1  0.3743571E-015  0.9000732E+02  0.7816164E-02  0.1186340E+00
        -11   -1    0    0    0    0  0.00000000000E+00  0.00000000000E+00  0.45593999997E+02  0.45594000000E+02  0.51100000000E-03 0.  1.
         11   -1    0    0    0    0 -0.00000000000E+00 -0.00000000000E+00 -0.45593999997E+02  0.45594000000E+02  0.51100000000E-03 0. -1.
    9900012    2    1    2    0    0  0.21368593874E+00  0.16612760866E+00 -0.11492372061E+01  0.90007319595E+02  0.89999575413E+02 0.  0.
        -12    1    1    2    0    0 -0.21368593874E+00 -0.16612760866E+00  0.11492372061E+01  0.11806804050E+01  0.00000000000E+00 0.  1.
         11    1    3    3    0    0  0.61607613182E+01  0.50277469284E+01  0.54187353630E+01  0.96226769867E+01  0.51100000000E-03 0. -1.
        -11    1    3    3    0    0  0.93185519177E+01 -0.40324903695E+02 -0.12101449756E+01  0.41405286123E+02  0.51100000000E-03 0.  1.
         12    1    3    3    0    0 -0.15265627297E+02  0.35463284375E+02 -0.53578275935E+01  0.38979356485E+02  0.00000000000E+00 0. -1.
</event>
<event>
 7    1  0.3743571E-015  0.9000772E+02  0.7816164E-02  0.1186339E+00
        -11   -1    0    0    0    0  0.00000000000E+00  0.00000000000E+00  0.45593999997E+02  0.45594000000E+02  0.51100000000E-03 0.  1.
         11   -1    0    0    0    0 -0.00000000000E+00 -0.00000000000E+00 -0.45593999997E+02  0.45594000000E+02  0.51100000000E-03 0. -1.
    9900012    2    1    2    0    0 -0.48466851057E+00 -0.10751372330E+01 -0.47323773613E-01  0.90007719027E+02  0.89999980118E+02 0.  0.
        -12    1    1    2    0    0  0.48466851057E+00  0.10751372330E+01  0.47323773613E-01  0.11802809727E+01  0.00000000000E+00 0.  1.
         11    1    3    3    0    0 -0.18005376796E+02  0.34683447333E+02 -0.59175666799E+01  0.39524077575E+02  0.51100000000E-03 0. -1.
        -11    1    3    3    0    0 -0.79754357628E+01 -0.31183850320E+01 -0.50383594017E+00  0.85782137843E+01  0.51100000000E-03 0.  1.
        -12    1    3    3    0    0  0.25496144048E+02 -0.32640199534E+02  0.63740788465E+01  0.41905427668E+02  0.00000000000E+00 0.  1.
</event>
<event>
 7    1  0.3743571E-015  0.9000785E+02  0.7816164E-02  0.1186339E+00
        -11   -1    0    0    0    0  0.00000000000E+00  0.00000000000E+00  0.45593999997E+02  0.45594000000E+02  0.51100000000E-03 0.  1.
         11   -1    0    0    0    0 -0.00000000000E+00 -0.00000000000E+00 -0.45593999997E+02  0.45594000000E+02  0.51100000000E-03 0. -1.
    9900012    2    1    2    0    0 -0.23588189467E+00 -0.11541205207E+01 -0.71533426638E-01  0.90007851079E+02  0.90000113913E+02 0.  0.
        -12    1    1    2    0    0  0.23588189467E+00  0.11541205207E+01  0.71533426638E-01  0.11801489210E+01  0.00000000000E+00 0.  1.
         11    1    3    3    0    0 -0.55411376357E+01  0.89459341605E+01  0.76259317053E+00  0.10550615760E+02  0.51100000000E-03 0. -1.
        -11    1    3    3    0    0 -0.32432036974E+02 -0.64284589531E+01  0.17425596277E+02  0.37373968383E+02  0.51100000000E-03 0.  1.
         12    1    3    3    0    0  0.37737292715E+02 -0.36715957281E+01 -0.18259722875E+02  0.42083266937E+02  0.00000000000E+00 0. -1.
</event>
<event>
 7    1  0.3743571E-015  0.9000771E+02  0.7816164E-02  0.1186339E+00
        -11   -1    0    0    0    0  0.00000000000E+00  0.00000000000E+00  0.45593999997E+02  0.45594000000E+02  0.51100000000E-03 0.  1.
         11   -1    0    0    0    0 -0.00000000000E+00 -0.00000000000E+00 -0.45593999997E+02  0.45594000000E+02  0.51100000000E-03 0. -1.
    9900012    2    1    2    0    0  0.14639449829E+00 -0.22864718084E+00 -0.11486444566E+01  0.90007705558E+02  0.89999966471E+02 0.  0.
        -12    1    1    2    0    0 -0.14639449829E+00  0.22864718084E+00  0.11486444566E+01  0.11802944421E+01  0.00000000000E+00 0.  1.
         11    1    3    3    0    0  0.46084522105E+01 -0.45660854611E+01  0.83072453973E+01  0.10540270137E+02  0.51100000000E-03 0. -1.
        -11    1    3    3    0    0 -0.14877294592E+02  0.24176972826E+02  0.25359053879E+02  0.38064964512E+02  0.51100000000E-03 0.  1.
         12    1    3    3    0    0  0.10415236879E+02 -0.19839534546E+02 -0.34814943733E+02  0.41402470909E+02  0.00000000000E+00 0. -1.
</event>
<event>
 7    1  0.3743571E-015  0.9000773E+02  0.7816164E-02  0.1186339E+00
        -11   -1    0    0    0    0  0.00000000000E+00  0.00000000000E+00  0.45593999997E+02  0.45594000000E+02  0.51100000000E-03 0.  1.
         11   -1    0    0    0    0 -0.00000000000E+00 -0.00000000000E+00 -0.45593999997E+02  0.45594000000E+02  0.51100000000E-03 0. -1.
    9900012    2    1    2    0    0  0.33953961815E+00  0.10885201090E+01 -0.30475971874E+00  0.90007728139E+02  0.89999989350E+02 0.  0.
        -12    1    1    2    0    0 -0.33953961815E+00 -0.10885201090E+01  0.30475971874E+00  0.11802718611E+01  0.00000000000E+00 0.  1.
         11    1    3    3    0    0  0.46108824377E+01 -0.48695333996E+01 -0.31346715816E+01  0.74026183590E+01  0.51100000000E-03 0. -1.
        -11    1    3    3    0    0  0.25075731795E+02 -0.11908787715E+02  0.28447770117E+02  0.39747794590E+02  0.51100000000E-03 0.  1.
         12    1    3    3    0    0 -0.29347074614E+02  0.17866841224E+02 -0.25617858254E+02  0.42857315190E+02  0.00000000000E+00 0. -1.
</event>
<event>
 7    1  0.3743571E-015  0.9000761E+02  0.7816164E-02  0.1186339E+00
        -11   -1    0    0    0    0  0.00000000000E+00  0.00000000000E+00  0.45593999997E+02  0.45594000000E+02  0.51100000000E-03 0.  1.
         11   -1    0    0    0    0 -0.00000000000E+00 -0.00000000000E+00 -0.45593999997E+02  0.45594000000E+02  0.51100000000E-03 0. -1.
    9900012    2    1    2    0    0  0.96986354738E+00 -0.41234869958E+00 -0.53165955973E+00  0.90007606575E+02  0.89999866182E+02 0.  0.
        -12    1    1    2    0    0 -0.96986354738E+00  0.41234869958E+00  0.53165955973E+00  0.11803934251E+01  0.00000000000E+00 0.  1.
         11    1    3    3    0    0 -0.78918018753E+01 -0.46060398012E+01  0.13068717170E+01  0.92306041750E+01  0.51100000000E-03 0. -1.
        -11    1    3    3    0    0  0.44693918643E+02  0.13725172118E+00 -0.83683185214E+00  0.44701962927E+02  0.51100000000E-03 0.  1.
         12    1    3    3    0    0 -0.35832253220E+02  0.40564393805E+01 -0.10016994246E+01  0.36075039473E+02  0.00000000000E+00 0. -1.
</event>
<event>
 7    1  0.3743571E-015  0.9000747E+02  0.7816164E-02  0.1186340E+00
        -11   -1    0    0    0    0  0.00000000000E+00  0.00000000000E+00  0.45593999997E+02  0.45594000000E+02  0.51100000000E-03 0. -1.
         11   -1    0    0    0    0 -0.00000000000E+00 -0.00000000000E+00 -0.45593999997E+02  0.45594000000E+02  0.51100000000E-03 0.  1.
    9900012    2    1    2    0    0 -0.42208344564E+00 -0.11024743192E+01  0.73048208519E-02  0.90007467315E+02  0.89999725083E+02 0.  0.
        -12    1    1    2    0    0  0.42208344564E+00  0.11024743192E+01 -0.73048208520E-02  0.11805326849E+01  0.00000000000E+00 0.  1.
         11    1    3    3    0    0  0.21459215427E+02 -0.29036323084E+02  0.16914155192E+02  0.39870974795E+02  0.51100000000E-03 0. -1.
        -11    1    3    3    0    0 -0.67443557613E+01 -0.62302839900E+01 -0.14716127464E+00  0.91828334371E+01  0.51100000000E-03 0.  1.
        -12    1    3    3    0    0 -0.15136943112E+02  0.34164132755E+02 -0.16759689096E+02  0.40953659083E+02  0.00000000000E+00 0.  1.
</event>
<event>
 7    1  0.3743571E-015  0.9000790E+02  0.7816164E-02  0.1186339E+00
        -11   -1    0    0    0    0  0.00000000000E+00  0.00000000000E+00  0.45593999997E+02  0.45594000000E+02  0.51100000000E-03 0.  1.
         11   -1    0    0    0    0 -0.00000000000E+00 -0.00000000000E+00 -0.45593999997E+02  0.45594000000E+02  0.51100000000E-03 0. -1.
    9900012    2    1    2    0    0 -0.11528654000E+01 -0.18222962051E+00  0.17413170941E+00  0.90007903344E+02  0.90000166868E+02 0.  0.
        -12    1    1    2    0    0  0.11528654000E+01  0.18222962051E+00 -0.17413170941E+00  0.11800966559E+01  0.00000000000E+00 0.  1.
         11    1    3    3    0    0  0.16087327050E+01 -0.36976351050E+01  0.89411763219E+01  0.98084229398E+01  0.51100000000E-03 0. -1.
        -11    1    3    3    0    0  0.21924888258E+02  0.29070704490E+02  0.12845489401E+02  0.38611050010E+02  0.51100000000E-03 0.  1.
         12    1    3    3    0    0 -0.24686486363E+02 -0.25555299005E+02 -0.21612534013E+02  0.41588430394E+02  0.00000000000E+00 0. -1.
</event>
<event>
 7    1  0.3743571E-015  0.9000765E+02  0.7816164E-02  0.1186339E+00
        -11   -1    0    0    0    0  0.00000000000E+00  0.00000000000E+00  0.45593999997E+02  0.45594000000E+02  0.51100000000E-03 0.  1.
         11   -1    0    0    0    0 -0.00000000000E+00 -0.00000000000E+00 -0.45593999997E+02  0.45594000000E+02  0.51100000000E-03 0. -1.
    9900012    2    1    2    0    0 -0.10691385379E+01  0.25319769729E-01 -0.49953759455E+00  0.90007645768E+02  0.89999905892E+02 0.  0.
        -12    1    1    2    0    0  0.10691385379E+01 -0.25319769729E-01  0.49953759455E+00  0.11803542317E+01  0.00000000000E+00 0.  1.
         11    1    3    3    0    0 -0.98246243841E+01 -0.36486346015E+01  0.28835558035E+01  0.10869713569E+02  0.51100000000E-03 0. -1.
        -11    1    3    3    0    0  0.17494471741E+01 -0.11065987033E+02  0.35362847641E+02  0.37095115958E+02  0.51100000000E-03 0.  1.
         12    1    3    3    0    0  0.70060386721E+01  0.14739941404E+02 -0.38745941039E+02  0.42042816241E+02  0.00000000000E+00 0. -1.
</event>
<event>
 7    1  0.3743571E-015  0.9000738E+02  0.7816164E-02  0.1186340E+00
        -11   -1    0    0    0    0  0.00000000000E+00  0.00000000000E+00  0.45593999997E+02  0.45594000000E+02  0.51100000000E-03 0.  1.
         11   -1    0    0    0    0 -0.00000000000E+00 -0.00000000000E+00 -0.45593999997E+02  0.45594000000E+02  0.51100000000E-03 0. -1.
    9900012    2    1    2    0    0 -0.99443725306E+00  0.43835783573E+00  0.46130176271E+00  0.90007380519E+02  0.89999637141E+02 0.  0.
        -12    1    1    2    0    0  0.99443725306E+00 -0.43835783573E+00 -0.46130176271E+00  0.11806194809E+01  0.00000000000E+00 0.  1.
         11    1    3    3    0    0  0.24852195594E+02  0.66546657923E+01 -0.25921437240E+02  0.36521734782E+02  0.51100000000E-03 0. -1.
        -11    1    3    3    0    0 -0.15430570870E+01  0.22803711094E+01 -0.91786254138E+01  0.95827074629E+01  0.51100000000E-03 0.  1.
        -12    1    3    3    0    0 -0.24303575760E+02 -0.84966790660E+01  0.35561364417E+02  0.43902938274E+02  0.00000000000E+00 0.  1.
</event>
<event>
 7    1  0.3743571E-015  0.9000765E+02  0.7816164E-02  0.1186339E+00
        -11   -1    0    0    0    0  0.00000000000E+00  0.00000000000E+00  0.45593999997E+02  0.45594000000E+02  0.51100000000E-03 0. -1.
         11   -1    0    0    0    0 -0.00000000000E+00 -0.00000000000E+00 -0.45593999997E+02  0.45594000000E+02  0.51100000000E-03 0.  1.
    9900012    2    1    2    0    0  0.52107284630E+00 -0.10045745324E+01  0.33545254611E+00  0.90007654579E+02  0.89999914819E+02 0.  0.
        -12    1    1    2    0    0 -0.52107284630E+00  0.10045745324E+01 -0.33545254611E+00  0.11803454211E+01  0.00000000000E+00 0.  1.
         11    1    3    3    0    0 -0.12380581601E+02  0.29274744173E+02  0.22129047031E+02  0.38729629096E+02  0.51100000000E-03 0. -1.
        -11    1    3    3    0    0  0.62173993001E+01  0.39001637676E+00  0.65114175173E+01  0.90114774137E+01  0.51100000000E-03 0.  1.
        -12    1    3    3    0    0  0.66842551467E+01 -0.30669335082E+02 -0.28305012002E+02  0.42266548069E+02  0.00000000000E+00 0.  1.
</event>
<event>
 7    1  0.3743571E-015  0.9000777E+02  0.7816164E-02  0.1186339E+00
        -11   -1    0    0    0    0  0.00000000000E+00  0.00000000000E+00  0.45593999997E+02  0.45594000000E+02  0.51100000000E-03 0. -1.
         11   -1    0    0    0    0 -0.00000000000E+00 -0.00000000000E+00 -0.45593999997E+02  0.45594000000E+02  0.51100000000E-03 0.  1.
    9900012    2    1    2    0    0  0.79613590513E+00 -0.71219756701E+00  0.50188378479E+00  0.90007769053E+02  0.90000030805E+02 0.  0.
        -12    1    1    2    0    0 -0.79613590513E+00  0.71219756701E+00 -0.50188378479E+00  0.11802309466E+01  0.00000000000E+00 0.  1.
         11    1    3    3    0    0 -0.55022454779E+01 -0.96175270778E+01 -0.64607484720E+00  0.11099051552E+02  0.51100000000E-03 0. -1.
        -11    1    3    3    0    0 -0.11952994456E+02  0.12341209937E+02 -0.34596346765E+02  0.38627538737E+02  0.51100000000E-03 0.  1.
         12    1    3    3    0    0  0.18251375839E+02 -0.34358804259E+01  0.35744305397E+02  0.40281178764E+02  0.00000000000E+00 0. -1.
</event>
<event>
 7    1  0.3743571E-015  0.9000779E+02  0.7816164E-02  0.1186339E+00
        -11   -1    0    0    0    0  0.00000000000E+00  0.00000000000E+00  0.45593999997E+02  0.45594000000E+02  0.51100000000E-03 0.  1.
         11   -1    0    0    0    0 -0.00000000000E+00 -0.00000000000E+00 -0.45593999997E+02  0.45594000000E+02  0.51100000000E-03 0. -1.
    9900012    2    1    2    0    0  0.11359756752E+01 -0.28981173293E+00  0.13591722660E+00  0.90007786008E+02  0.90000047983E+02 0.  0.
        -12    1    1    2    0    0 -0.11359756752E+01  0.28981173293E+00 -0.13591722660E+00  0.11802139923E+01  0.00000000000E+00 0.  1.
         11    1    3    3    0    0 -0.31926198507E+02  0.23622170945E+02 -0.14159566516E+02  0.42163757369E+02  0.51100000000E-03 0. -1.
        -11    1    3    3    0    0  0.81789338649E+01 -0.70818414649E+01 -0.52289445127E+01  0.12016209830E+02  0.51100000000E-03 0.  1.
        -12    1    3    3    0    0  0.24883240317E+02 -0.16830141213E+02  0.19524428255E+02  0.35827818809E+02  0.00000000000E+00 0.  1.
</event>
<event>
 7    1  0.3743571E-015  0.9000784E+02  0.7816164E-02  0.1186339E+00
        -11   -1    0    0    0    0  0.00000000000E+00  0.00000000000E+00  0.45593999997E+02  0.45594000000E+02  0.51100000000E-03 0. -1.
         11   -1    0    0    0    0 -0.00000000000E+00 -0.00000000000E+00 -0.45593999997E+02  0.45594000000E+02  0.51100000000E-03 0.  1.
    9900012    2    1    2    0    0 -0.83102310820E+00 -0.93200677388E-01  0.83276635018E+00  0.90007836636E+02  0.90000099279E+02 0.  0.
        -12    1    1    2    0    0  0.83102310820E+00  0.93200677388E-01 -0.83276635018E+00  0.11801633644E+01  0.00000000000E+00 0.  1.
         11    1    3    3    0    0  0.41069645716E+01  0.63026972782E+01 -0.58969386512E+01  0.95585059863E+01  0.51100000000E-03 0. -1.
        -11    1    3    3    0    0  0.22678965209E+02  0.26794042834E+02  0.11665208175E+02  0.36990989124E+02  0.51100000000E-03 0.  1.
         12    1    3    3    0    0 -0.27616952889E+02 -0.33189940790E+02 -0.49355031739E+01  0.43458341525E+02  0.00000000000E+00 0. -1.
</event>
<event>
 7    1  0.3743571E-015  0.9000792E+02  0.7816164E-02  0.1186339E+00
        -11   -1    0    0    0    0  0.00000000000E+00  0.00000000000E+00  0.45593999997E+02  0.45594000000E+02  0.51100000000E-03 0. -1.
         11   -1    0    0    0    0 -0.00000000000E+00 -0.00000000000E+00 -0.45593999997E+02  0.45594000000E+02  0.51100000000E-03 0.  1.
    9900012    2    1    2    0    0  0.69747031508E+00  0.62298539448E+00 -0.71973053507E+00  0.90007920475E+02  0.90000184225E+02 0.  0.
        -12    1    1    2    0    0 -0.69747031508E+00 -0.62298539448E+00  0.71973053507E+00  0.11800795250E+01  0.00000000000E+00 0.  1.
         11    1    3    3    0    0 -0.23000435142E+02  0.28542817705E+02  0.16299743063E+02  0.40117254186E+02  0.51100000000E-03 0. -1.
        -11    1    3    3    0    0  0.53069769548E+01 -0.18855358894E+01  0.77097997372E+01  0.95477883428E+01  0.51100000000E-03 0.  1.
        -12    1    3    3    0    0  0.18390928502E+02 -0.26034296421E+02 -0.24729273335E+02  0.40342877946E+02  0.00000000000E+00 0.  1.
</event>
<event>
 7    1  0.3743571E-015  0.9000798E+02  0.7816164E-02  0.1186339E+00
        -11   -1    0    0    0    0  0.00000000000E+00  0.00000000000E+00  0.45593999997E+02  0.45594000000E+02  0.51100000000E-03 0. -1.
         11   -1    0    0    0    0 -0.00000000000E+00 -0.00000000000E+00 -0.45593999997E+02  0.45594000000E+02  0.51100000000E-03 0.  1.
    9900012    2    1    2    0    0  0.11493801329E-01 -0.11142484283E+01  0.38828164654E+00  0.90007981227E+02  0.90000245779E+02 0.  0.
        -12    1    1    2    0    0 -0.11493801329E-01  0.11142484283E+01 -0.38828164654E+00  0.11800187730E+01  0.00000000000E+00 0.  1.
         11    1    3    3    0    0  0.58425340772E+01  0.81421351822E-01 -0.52455636185E+01  0.78522462911E+01  0.51100000000E-03 0. -1.
        -11    1    3    3    0    0 -0.18916497618E+02 -0.38222481998E+02  0.15881432732E+01  0.42676858033E+02  0.51100000000E-03 0.  1.
         12    1    3    3    0    0  0.13085457343E+02  0.37026812218E+02  0.40457019918E+01  0.39478876903E+02  0.00000000000E+00 0. -1.
</event>
<event>
 7    1  0.3743571E-015  0.9000753E+02  0.7816164E-02  0.1186339E+00
        -11   -1    0    0    0    0  0.00000000000E+00  0.00000000000E+00  0.45593999997E+02  0.45594000000E+02  0.51100000000E-03 0. -1.
         11   -1    0    0    0    0 -0.00000000000E+00 -0.00000000000E+00 -0.45593999997E+02  0.45594000000E+02  0.51100000000E-03 0.  1.
    9900012    2    1    2    0    0 -0.91179706691E+00 -0.52289886299E+00 -0.53731901069E+00  0.90007530250E+02  0.89999788849E+02 0.  0.
        -12    1    1    2    0    0  0.91179706691E+00  0.52289886299E+00  0.53731901069E+00  0.11804697503E+01  0.00000000000E+00 0.  1.
         11    1    3    3    0    0  0.43964901043E+01 -0.70615934864E+01 -0.43520118981E+01  0.93880368356E+01  0.51100000000E-03 0. -1.
        -11    1    3    3    0    0  0.68015899260E+01  0.92579838462E+01 -0.36590258884E+02  0.38351257292E+02  0.51100000000E-03 0.  1.
         12    1    3    3    0    0 -0.12109877097E+02 -0.27192892227E+01  0.40404951772E+02  0.42268236122E+02  0.00000000000E+00 0. -1.
</event>
<event>
 7    1  0.3743571E-015  0.9000773E+02  0.7816164E-02  0.1186339E+00
        -11   -1    0    0    0    0  0.00000000000E+00  0.00000000000E+00  0.45593999997E+02  0.45594000000E+02  0.51100000000E-03 0.  1.
         11   -1    0    0    0    0 -0.00000000000E+00 -0.00000000000E+00 -0.45593999997E+02  0.45594000000E+02  0.51100000000E-03 0. -1.
    9900012    2    1    2    0    0  0.26283364768E+00 -0.68653361366E+00 -0.92337731939E+00  0.90007730707E+02  0.89999991953E+02 0.  0.
        -12    1    1    2    0    0 -0.26283364768E+00  0.68653361366E+00  0.92337731939E+00  0.11802692926E+01  0.00000000000E+00 0.  1.
         11    1    3    3    0    0  0.57560341821E+01 -0.21856389705E+01  0.15435282771E+02  0.16617969241E+02  0.51100000000E-03 0. -1.
        -11    1    3    3    0    0 -0.37177914205E+01  0.33856719421E+02 -0.21927874578E+02  0.40508407853E+02  0.51100000000E-03 0.  1.
         12    1    3    3    0    0 -0.17754091140E+01 -0.32357614064E+02  0.55692144884E+01  0.32881353614E+02  0.00000000000E+00 0. -1.
</event>
<event>
 7    1  0.3743571E-015  0.9000774E+02  0.7816164E-02  0.1186339E+00
        -11   -1    0    0    0    0  0.00000000000E+00  0.00000000000E+00  0.45593999997E+02  0.45594000000E+02  0.51100000000E-03 0.  1.
         11   -1    0    0    0    0 -0.00000000000E+00 -0.00000000000E+00 -0.45593999997E+02  0.45594000000E+02  0.51100000000E-03 0. -1.
    9900012    2    1    2    0    0  0.27644272272E+00  0.72961463680E+00  0.88558477126E+00  0.90007737959E+02  0.89999999301E+02 0.  0.
        -12    1    1    2    0    0 -0.27644272272E+00 -0.72961463680E+00 -0.88558477126E+00  0.11802620405E+01  0.00000000000E+00 0.  1.
         11    1    3    3    0    0 -0.26262752492E+02  0.20010057331E+02 -0.11366892166E+02  0.34919060706E+02  0.51100000000E-03 0. -1.
        -11    1    3    3    0    0 -0.92282745634E+01 -0.60705558935E+01 -0.62672870370E+01  0.12700062494E+02  0.51100000000E-03 0.  1.
        -12    1    3    3    0    0  0.35767469778E+02 -0.13209886801E+02  0.18519763974E+02  0.42388614760E+02  0.00000000000E+00 0.  1.
</event>
<event>
 7    1  0.3743571E-015  0.9000772E+02  0.7816164E-02  0.1186339E+00
        -11   -1    0    0    0    0  0.00000000000E+00  0.00000000000E+00  0.45593999997E+02  0.45594000000E+02  0.51100000000E-03 0. -1.
         11   -1    0    0    0    0 -0.00000000000E+00 -0.00000000000E+00 -0.45593999997E+02  0.45594000000E+02  0.51100000000E-03 0.  1.
    9900012    2    1    2    0    0 -0.10765405307E+01 -0.21232405515E+00  0.43478966539E+00  0.90007719071E+02  0.89999980163E+02 0.  0.
        -12    1    1    2    0    0  0.10765405307E+01  0.21232405515E+00 -0.43478966539E+00  0.11802809292E+01  0.00000000000E+00 0.  1.
         11    1    3    3    0    0  0.45875137170E+01 -0.76257984600E+01 -0.12868064631E+01  0.89918827500E+01  0.51100000000E-03 0. -1.
        -11    1    3    3    0    0  0.89193418898E+01 -0.40257908446E+01 -0.36900820287E+02  0.38176330230E+02  0.51100000000E-03 0.  1.
         12    1    3    3    0    0 -0.14583396138E+02  0.11439265249E+02  0.38622416416E+02  0.42839506091E+02  0.00000000000E+00 0. -1.
</event>
<event>
 7    1  0.3743571E-015  0.9000775E+02  0.7816164E-02  0.1186339E+00
        -11   -1    0    0    0    0  0.00000000000E+00  0.00000000000E+00  0.45593999997E+02  0.45594000000E+02  0.51100000000E-03 0. -1.
         11   -1    0    0    0    0 -0.00000000000E+00 -0.00000000000E+00 -0.45593999997E+02  0.45594000000E+02  0.51100000000E-03 0.  1.
    9900012    2    1    2    0    0  0.55227898275E+00 -0.64283779914E+00  0.82142715476E+00  0.90007747874E+02  0.90000009346E+02 0.  0.
        -12    1    1    2    0    0 -0.55227898275E+00  0.64283779914E+00 -0.82142715476E+00  0.11802521262E+01  0.00000000000E+00 0.  1.
         11    1    3    3    0    0 -0.18447924116E+01 -0.63369041802E+01 -0.76401218151E+01  0.10096092078E+02  0.51100000000E-03 0. -1.
        -11    1    3    3    0    0  0.17768273772E+01  0.19287148292E+02 -0.31899101960E+02  0.37318948416E+02  0.51100000000E-03 0.  1.
         12    1    3    3    0    0  0.62024401722E+00 -0.13593081911E+02  0.40360650930E+02  0.42592707380E+02  0.00000000000E+00 0. -1.
</event>
<event>
 7    1  0.3743571E-015  0.9000774E+02  0.7816164E-02  0.1186339E+00
        -11   -1    0    0    0    0  0.00000000000E+00  0.00000000000E+00  0.45593999997E+02  0.45594000000E+02  0.51100000000E-03 0. -1.
         11   -1    0    0    0    0 -0.00000000000E+00 -0.00000000000E+00 -0.45593999997E+02  0.45594000000E+02  0.51100000000E-03 0.  1.
    9900012    2    1    2    0    0 -0.47648983222E+00 -0.86405767732E+00  0.64759788448E+00  0.90007736788E+02  0.89999998113E+02 0.  0.
        -12    1    1    2    0    0  0.47648983222E+00  0.86405767732E+00 -0.64759788448E+00  0.11802632121E+01  0.00000000000E+00 0.  1.
         11    1    3    3    0    0 -0.47483706590E+01 -0.12682622580E+01  0.88516127192E+01  0.10124552388E+02  0.51100000000E-03 0. -1.
        -11    1    3    3    0    0 -0.14435038180E+02  0.18122050817E+02 -0.35471830414E+02  0.42367792086E+02  0.51100000000E-03 0.  1.
         12    1    3    3    0    0  0.18706919007E+02 -0.17717846236E+02  0.27267815579E+02  0.37515392314E+02  0.00000000000E+00 0. -1.
</event>
<event>
 7    1  0.3743571E-015  0.9000781E+02  0.7816164E-02  0.1186339E+00
        -11   -1    0    0    0    0  0.00000000000E+00  0.00000000000E+00  0.45593999997E+02  0.45594000000E+02  0.51100000000E-03 0.  1.
         11   -1    0    0    0    0 -0.00000000000E+00 -0.00000000000E+00 -0.45593999997E+02  0.45594000000E+02  0.51100000000E-03 0. -1.
    9900012    2    1    2    0    0 -0.45530504537E+00  0.16853361615E-02  0.10888217261E+01  0.90007814305E+02  0.90000076653E+02 0.  0.
        -12    1    1    2    0    0  0.45530504537E+00 -0.16853361615E-02 -0.10888217261E+01  0.11801856955E+01  0.00000000000E+00 0.  1.
         11    1    3    3    0    0  0.29571505014E+01 -0.26790020746E+02 -0.10990755892E+02  0.29107501886E+02  0.51100000000E-03 0. -1.
        -11    1    3    3    0    0  0.60478940385E+01 -0.67981253946E+01 -0.14441871998E+02  0.17069247149E+02  0.51100000000E-03 0.  1.
        -12    1    3    3    0    0 -0.94603495854E+01  0.33589831477E+02  0.26521449616E+02  0.43831065270E+02  0.00000000000E+00 0.  1.
</event>
<event>
 7    1  0.3743571E-015  0.9000763E+02  0.7816164E-02  0.1186339E+00
        -11   -1    0    0    0    0  0.00000000000E+00  0.00000000000E+00  0.45593999997E+02  0.45594000000E+02  0.51100000000E-03 0. -1.
         11   -1    0    0    0    0 -0.00000000000E+00 -0.00000000000E+00 -0.45593999997E+02  0.45594000000E+02  0.51100000000E-03 0.  1.
    9900012    2    1    2    0    0  0.73696674542E+00  0.86535637888E+00  0.31829478402E+00  0.90007630051E+02  0.89999889968E+02 0.  0.
        -12    1    1    2    0    0 -0.73696674542E+00 -0.86535637888E+00 -0.31829478402E+00  0.11803699487E+01  0.00000000000E+00 0.  1.
         11    1    3    3    0    0  0.29449224523E+00 -0.83344323136E+01  0.61548161391E+01  0.10364904710E+02  0.51100000000E-03 0. -1.
        -11    1    3    3    0    0  0.12325209639E+02 -0.16354578772E+02 -0.34069914966E+02  0.39751001818E+02  0.51100000000E-03 0.  1.
         12    1    3    3    0    0 -0.11882735139E+02  0.25554367464E+02  0.28233393611E+02  0.39891723524E+02  0.00000000000E+00 0. -1.
</event>
<event>
 7    1  0.3743571E-015  0.9000691E+02  0.7816164E-02  0.1186341E+00
        -11   -1    0    0    0    0  0.00000000000E+00  0.00000000000E+00  0.45593999997E+02  0.45594000000E+02  0.51100000000E-03 0. -1.
         11   -1    0    0    0    0 -0.00000000000E+00 -0.00000000000E+00 -0.45593999997E+02  0.45594000000E+02  0.51100000000E-03 0.  1.
    9900012    2    1    2    0    0 -0.84874832507E+00 -0.22917691697E+00 -0.78871329067E+00  0.90006913876E+02  0.89999164335E+02 0.  0.
        -12    1    1    2    0    0  0.84874832507E+00  0.22917691697E+00  0.78871329067E+00  0.11810861245E+01  0.00000000000E+00 0.  1.
         11    1    3    3    0    0  0.38633805096E+01 -0.10290625477E+02  0.38279327560E+02  0.39826242610E+02  0.51100000000E-03 0. -1.
        -11    1    3    3    0    0 -0.70469604068E+01 -0.21038562761E+01  0.17202774164E+01  0.75528284011E+01  0.51100000000E-03 0.  1.
        -12    1    3    3    0    0  0.23348315721E+01  0.12165304836E+02 -0.40788318267E+02  0.42627842865E+02  0.00000000000E+00 0.  1.
</event>
<event>
 7    1  0.3743571E-015  0.9000779E+02  0.7816164E-02  0.1186339E+00
        -11   -1    0    0    0    0  0.00000000000E+00  0.00000000000E+00  0.45593999997E+02  0.45594000000E+02  0.51100000000E-03 0.  1.
         11   -1    0    0    0    0 -0.00000000000E+00 -0.00000000000E+00 -0.45593999997E+02  0.45594000000E+02  0.51100000000E-03 0. -1.
    9900012    2    1    2    0    0 -0.10365399588E+01 -0.14390993479E+00 -0.54568567864E+00  0.90007788995E+02  0.90000051010E+02 0.  0.
        -12    1    1    2    0    0  0.10365399588E+01  0.14390993479E+00  0.54568567864E+00  0.11802110046E+01  0.00000000000E+00 0.  1.
         11    1    3    3    0    0 -0.73548709989E+01  0.65989937232E+01  0.12460961662E+01  0.99595984600E+01  0.51100000000E-03 0. -1.
        -11    1    3    3    0    0 -0.50766104019E+01 -0.20315810420E+02  0.34101813453E+02  0.40017968555E+02  0.51100000000E-03 0.  1.
         12    1    3    3    0    0  0.11394941442E+02  0.13572906762E+02 -0.35893595298E+02  0.40030221981E+02  0.00000000000E+00 0. -1.
</event>
<event>
 7    1  0.3743571E-015  0.9000774E+02  0.7816164E-02  0.1186339E+00
        -11   -1    0    0    0    0  0.00000000000E+00  0.00000000000E+00  0.45593999997E+02  0.45594000000E+02  0.51100000000E-03 0.  1.
         11   -1    0    0    0    0 -0.00000000000E+00 -0.00000000000E+00 -0.45593999997E+02  0.45594000000E+02  0.51100000000E-03 0. -1.
    9900012    2    1    2    0    0 -0.86264536542E+00 -0.76760579851E+00 -0.24422200763E+00  0.90007737285E+02  0.89999998617E+02 0.  0.
        -12    1    1    2    0    0  0.86264536542E+00  0.76760579851E+00  0.24422200763E+00  0.11802627154E+01  0.00000000000E+00 0.  1.
         11    1    3    3    0    0  0.14664435455E+01  0.65851041127E+01  0.99103590523E+00  0.68188125999E+01  0.51100000000E-03 0. -1.
        -11    1    3    3    0    0 -0.19896633341E+02  0.31786185173E+02  0.10060746712E+02  0.38825973405E+02  0.51100000000E-03 0.  1.
         12    1    3    3    0    0  0.17567544430E+02 -0.39138895084E+02 -0.11296004625E+02  0.44362951280E+02  0.00000000000E+00 0. -1.
</event>
<event>
 7    1  0.3743571E-015  0.9000769E+02  0.7816164E-02  0.1186339E+00
        -11   -1    0    0    0    0  0.00000000000E+00  0.00000000000E+00  0.45593999997E+02  0.45594000000E+02  0.51100000000E-03 0. -1.
         11   -1    0    0    0    0 -0.00000000000E+00 -0.00000000000E+00 -0.45593999997E+02  0.45594000000E+02  0.51100000000E-03 0.  1.
    9900012    2    1    2    0    0  0.68155374122E+00  0.91673279398E+00  0.29701841104E+00  0.90007688832E+02  0.89999949524E+02 0.  0.
        -12    1    1    2    0    0 -0.68155374122E+00 -0.91673279398E+00 -0.29701841104E+00  0.11803111684E+01  0.00000000000E+00 0.  1.
         11    1    3    3    0    0  0.64307084566E+01 -0.43293580150E+01  0.32869123040E+01  0.84202817549E+01  0.51100000000E-03 0. -1.
        -11    1    3    3    0    0 -0.30255281579E+02  0.32707881918E+02 -0.42647311230E+01  0.44759083266E+02  0.51100000000E-03 0.  1.
         12    1    3    3    0    0  0.24506126863E+02 -0.27461791109E+02  0.12748372300E+01  0.36828323811E+02  0.00000000000E+00 0. -1.
</event>
<event>
 7    1  0.3743571E-015  0.9000761E+02  0.7816164E-02  0.1186339E+00
        -11   -1    0    0    0    0  0.00000000000E+00  0.00000000000E+00  0.45593999997E+02  0.45594000000E+02  0.51100000000E-03 0.  1.
         11   -1    0    0    0    0 -0.00000000000E+00 -0.00000000000E+00 -0.45593999997E+02  0.45594000000E+02  0.51100000000E-03 0. -1.
    9900012    2    1    2    0    0  0.21265948229E+00 -0.33698990618E+00 -0.11110999364E+01  0.90007606286E+02  0.89999865889E+02 0.  0.
        -12    1    1    2    0    0 -0.21265948229E+00  0.33698990618E+00  0.11110999364E+01  0.11803937144E+01  0.00000000000E+00 0.  1.
         11    1    3    3    0    0 -0.35232871236E+02 -0.14147212179E+01 -0.95308045406E+01  0.36526605196E+02  0.51100000000E-03 0. -1.
        -11    1    3    3    0    0 -0.66468701149E+01  0.54145778006E+01 -0.38860572739E+01  0.94127560512E+01  0.51100000000E-03 0.  1.
        -12    1    3    3    0    0  0.42092400833E+02 -0.43368464889E+01  0.12305761878E+02  0.44068245039E+02  0.00000000000E+00 0.  1.
</event>
<event>
 7    1  0.3743571E-015  0.9000819E+02  0.7816164E-02  0.1186338E+00
        -11   -1    0    0    0    0  0.00000000000E+00  0.00000000000E+00  0.45593999997E+02  0.45594000000E+02  0.51100000000E-03 0. -1.
         11   -1    0    0    0    0 -0.00000000000E+00 -0.00000000000E+00 -0.45593999997E+02  0.45594000000E+02  0.51100000000E-03 0.  1.
    9900012    2    1    2    0    0 -0.40759310325E-01  0.11790725722E+01 -0.93485702424E-02  0.90008186096E+02  0.90000453352E+02 0.  0.
        -12    1    1    2    0    0  0.40759310325E-01 -0.11790725722E+01  0.93485702424E-02  0.11798139038E+01  0.00000000000E+00 0.  1.
         11    1    3    3    0    0  0.10490181744E+02 -0.37520056199E+01  0.36112507824E+02  0.37791992284E+02  0.51100000000E-03 0. -1.
        -11    1    3    3    0    0 -0.54642041042E+01 -0.18780360780E+01  0.65350959548E+01  0.87230743091E+01  0.51100000000E-03 0.  1.
        -12    1    3    3    0    0 -0.50667369497E+01  0.68091142701E+01 -0.42656952349E+02  0.43493119503E+02  0.00000000000E+00 0.  1.
</event>
<event>
 7    1  0.3743571E-015  0.9000779E+02  0.7816164E-02  0.1186339E+00
        -11   -1    0    0    0    0  0.00000000000E+00  0.00000000000E+00  0.45593999997E+02  0.45594000000E+02  0.51100000000E-03 0.  1.
         11   -1    0    0    0    0 -0.00000000000E+00 -0.00000000000E+00 -0.45593999997E+02  0.45594000000E+02  0.51100000000E-03 0. -1.
    9900012    2    1    2    0    0 -0.28731727518E+00  0.11092065759E+01  0.28284964652E+00  0.90007790541E+02  0.90000052576E+02 0.  0.
        -12    1    1    2    0    0  0.28731727518E+00 -0.11092065759E+01 -0.28284964652E+00  0.11802094590E+01  0.00000000000E+00 0.  1.
         11    1    3    3    0    0  0.31428316740E+02  0.17721943026E+02  0.23836465613E+02  0.43243305273E+02  0.51100000000E-03 0. -1.
        -11    1    3    3    0    0 -0.29051819270E+01 -0.83457293610E+01 -0.32288547086E+00  0.88428239768E+01  0.51100000000E-03 0.  1.
        -12    1    3    3    0    0 -0.28810452088E+02 -0.82670070891E+01 -0.23230730496E+02  0.37921661291E+02  0.00000000000E+00 0.  1.
</event>
<event>
 7    1  0.3743571E-015  0.9000773E+02  0.7816164E-02  0.1186339E+00
        -11   -1    0    0    0    0  0.00000000000E+00  0.00000000000E+00  0.45593999997E+02  0.45594000000E+02  0.51100000000E-03 0. -1.
         11   -1    0    0    0    0 -0.00000000000E+00 -0.00000000000E+00 -0.45593999997E+02  0.45594000000E+02  0.51100000000E-03 0.  1.
    9900012    2    1    2    0    0  0.94124065863E+00 -0.53335826684E+00  0.47183232984E+00  0.90007732757E+02  0.89999994029E+02 0.  0.
        -12    1    1    2    0    0 -0.94124065863E+00  0.53335826684E+00 -0.47183232984E+00  0.11802672434E+01  0.00000000000E+00 0.  1.
         11    1    3    3    0    0 -0.21321067917E+01 -0.71118997566E+01 -0.65499003068E+01  0.99008177344E+01  0.51100000000E-03 0. -1.
        -11    1    3    3    0    0  0.14451961062E+02  0.23181570850E+02 -0.28374987937E+02  0.39387616661E+02  0.51100000000E-03 0.  1.
         12    1    3    3    0    0 -0.11378613612E+02 -0.16603029360E+02  0.35396720573E+02  0.40719298361E+02  0.00000000000E+00 0. -1.
</event>
<event>
 7    1  0.3743571E-015  0.9000788E+02  0.7816164E-02  0.1186339E+00
        -11   -1    0    0    0    0  0.00000000000E+00  0.00000000000E+00  0.45593999997E+02  0.45594000000E+02  0.51100000000E-03 0.  1.
         11   -1    0    0    0    0 -0.00000000000E+00 -0.00000000000E+00 -0.45593999997E+02  0.45594000000E+02  0.51100000000E-03 0. -1.
    9900012    2    1    2    0    0 -0.75307519022E+00 -0.36866463638E+00  0.83044705403E+00  0.90007882139E+02  0.90000145383E+02 0.  0.
        -12    1    1    2    0    0  0.75307519022E+00  0.36866463638E+00 -0.83044705403E+00  0.11801178610E+01  0.00000000000E+00 0.  1.
         11    1    3    3    0    0  0.78206423045E+01 -0.37432371459E+00  0.72190976622E+01  0.10649785708E+02  0.51100000000E-03 0. -1.
        -11    1    3    3    0    0  0.66915290739E+01  0.32428718867E+01  0.34657252335E+02  0.35445985938E+02  0.51100000000E-03 0.  1.
         12    1    3    3    0    0 -0.15265246569E+02 -0.32372128084E+01 -0.41045902943E+02  0.43912110494E+02  0.00000000000E+00 0. -1.
</event>
<event>
 7    1  0.3743571E-015  0.9000773E+02  0.7816164E-02  0.1186339E+00
        -11   -1    0    0    0    0  0.00000000000E+00  0.00000000000E+00  0.45593999997E+02  0.45594000000E+02  0.51100000000E-03 0. -1.
         11   -1    0    0    0    0 -0.00000000000E+00 -0.00000000000E+00 -0.45593999997E+02  0.45594000000E+02  0.51100000000E-03 0.  1.
    9900012    2    1    2    0    0 -0.68823181703E+00  0.95200822141E+00 -0.11421891140E+00  0.90007733654E+02  0.89999994938E+02 0.  0.
        -12    1    1    2    0    0  0.68823181703E+00 -0.95200822141E+00  0.11421891140E+00  0.11802663459E+01  0.00000000000E+00 0.  1.
         11    1    3    3    0    0 -0.80989618604E+00 -0.17170489873E+02  0.31947679093E+02  0.36278586715E+02  0.51100000000E-03 0. -1.
        -11    1    3    3    0    0  0.13406851191E+02  0.68185656262E+01  0.22781767599E+01  0.15212711318E+02  0.51100000000E-03 0.  1.
        -12    1    3    3    0    0 -0.13285186822E+02  0.11303932468E+02 -0.34340074764E+02  0.38516435621E+02  0.00000000000E+00 0.  1.
</event>
<event>
 7    1  0.3743571E-015  0.9000769E+02  0.7816164E-02  0.1186339E+00
        -11   -1    0    0    0    0  0.00000000000E+00  0.00000000000E+00  0.45593999997E+02  0.45594000000E+02  0.51100000000E-03 0. -1.
         11   -1    0    0    0    0 -0.00000000000E+00 -0.00000000000E+00 -0.45593999997E+02  0.45594000000E+02  0.51100000000E-03 0.  1.
    9900012    2    1    2    0    0 -0.64940355529E+00 -0.81272852717E+00  0.55757113105E+00  0.90007687244E+02  0.89999947915E+02 0.  0.
        -12    1    1    2    0    0  0.64940355529E+00  0.81272852717E+00 -0.55757113105E+00  0.11803127563E+01  0.00000000000E+00 0.  1.
         11    1    3    3    0    0 -0.10302856317E+02  0.91293838218E+01  0.33575023760E+02  0.36287418178E+02  0.51100000000E-03 0. -1.
        -11    1    3    3    0    0  0.28367767223E+01  0.99010580925E+01  0.40981087678E+01  0.11084798115E+02  0.51100000000E-03 0.  1.
        -12    1    3    3    0    0  0.68166760392E+01 -0.19843170441E+02 -0.37115561397E+02  0.42635470951E+02  0.00000000000E+00 0.  1.
</event>
<event>
 7    1  0.3743571E-015  0.9000779E+02  0.7816164E-02  0.1186339E+00
        -11   -1    0    0    0    0  0.00000000000E+00  0.00000000000E+00  0.45593999997E+02  0.45594000000E+02  0.51100000000E-03 0.  1.
         11   -1    0    0    0    0 -0.00000000000E+00 -0.00000000000E+00 -0.45593999997E+02  0.45594000000E+02  0.51100000000E-03 0. -1.
    9900012    2    1    2    0    0 -0.22609366180E+00  0.88444562001E+00 -0.74802147486E+00  0.90007788779E+02  0.90000050791E+02 0.  0.
        -12    1    1    2    0    0  0.22609366180E+00 -0.88444562001E+00  0.74802147486E+00  0.11802112207E+01  0.00000000000E+00 0.  1.
         11    1    3    3    0    0 -0.44774537848E+01 -0.68155556573E+01  0.50751198858E+01  0.96050108500E+01  0.51100000000E-03 0. -1.
        -11    1    3    3    0    0  0.27048158509E+01  0.30104135527E+02  0.27069389336E+02  0.40574953406E+02  0.51100000000E-03 0.  1.
         12    1    3    3    0    0  0.15465442722E+01 -0.22404134250E+02 -0.32892530696E+02  0.39827824523E+02  0.00000000000E+00 0. -1.
</event>
<event>
 7    1  0.3743571E-015  0.9000794E+02  0.7816164E-02  0.1186339E+00
        -11   -1    0    0    0    0  0.00000000000E+00  0.00000000000E+00  0.45593999997E+02  0.45594000000E+02  0.51100000000E-03 0.  1.
         11   -1    0    0    0    0 -0.00000000000E+00 -0.00000000000E+00 -0.45593999997E+02  0.45594000000E+02  0.51100000000E-03 0. -1.
    9900012    2    1    2    0    0  0.75685798441E+00 -0.89105135452E+00 -0.16040311736E+00  0.90007942508E+02  0.90000206549E+02 0.  0.
        -12    1    1    2    0    0 -0.75685798441E+00  0.89105135452E+00  0.16040311736E+00  0.11800574922E+01  0.00000000000E+00 0.  1.
         11    1    3    3    0    0 -0.25085425637E+02 -0.80287232365E+01  0.25792305037E+02  0.36864372713E+02  0.51100000000E-03 0. -1.
        -11    1    3    3    0    0 -0.19214550494E+01 -0.53989499306E+01  0.64781838775E+01  0.86491338567E+01  0.51100000000E-03 0.  1.
        -12    1    3    3    0    0  0.27763738671E+02  0.12536621813E+02 -0.32430892032E+02  0.44494435938E+02  0.00000000000E+00 0.  1.
</event>
<event>
 7    1  0.3743571E-015  0.9000864E+02  0.7816164E-02  0.1186337E+00
        -11   -1    0    0    0    0  0.00000000000E+00  0.00000000000E+00  0.45593999997E+02  0.45594000000E+02  0.51100000000E-03 0.  1.
         11   -1    0    0    0    0 -0.00000000000E+00 -0.00000000000E+00 -0.45593999997E+02  0.45594000000E+02  0.51100000000E-03 0. -1.
    9900012    2    1    2    0    0  0.75330190515E+00 -0.82877622890E+00 -0.36953243643E+00  0.90008640844E+02  0.90000914098E+02 0.  0.
        -12    1    1    2    0    0 -0.75330190515E+00  0.82877622890E+00  0.36953243643E+00  0.11793591563E+01  0.00000000000E+00 0.  1.
         11    1    3    3    0    0 -0.37800875237E+02  0.10071706935E+02 -0.14947933589E+02  0.41878230241E+02  0.51100000000E-03 0. -1.
        -11    1    3    3    0    0  0.22771502944E+01 -0.72540963895E+01 -0.23139734466E+01  0.79474399188E+01  0.51100000000E-03 0.  1.
        -12    1    3    3    0    0  0.36277026847E+02 -0.36463867744E+01  0.16892374600E+02  0.40182970684E+02  0.00000000000E+00 0.  1.
</event>
<event>
 7    1  0.3743571E-015  0.9000779E+02  0.7816164E-02  0.1186339E+00
        -11   -1    0    0    0    0  0.00000000000E+00  0.00000000000E+00  0.45593999997E+02  0.45594000000E+02  0.51100000000E-03 0. -1.
         11   -1    0    0    0    0 -0.00000000000E+00 -0.00000000000E+00 -0.45593999997E+02  0.45594000000E+02  0.51100000000E-03 0.  1.
    9900012    2    1    2    0    0 -0.76383388401E+00 -0.89962631911E+00 -0.10781021699E-01  0.90007794108E+02  0.90000056190E+02 0.  0.
        -12    1    1    2    0    0  0.76383388401E+00  0.89962631911E+00  0.10781021699E-01  0.11802058917E+01  0.00000000000E+00 0.  1.
         11    1    3    3    0    0 -0.26527408452E+01  0.84588784805E+01  0.11534011978E+01  0.89397983044E+01  0.51100000000E-03 0. -1.
        -11    1    3    3    0    0  0.36105735417E+01  0.22188076281E+02 -0.30544150676E+02  0.37924821834E+02  0.51100000000E-03 0.  1.
         12    1    3    3    0    0 -0.17216665805E+01 -0.31546581080E+02  0.29379968457E+02  0.43143173970E+02  0.00000000000E+00 0. -1.
</event>
<event>
 7    1  0.3743571E-015  0.9000777E+02  0.7816164E-02  0.1186339E+00
        -11   -1    0    0    0    0  0.00000000000E+00  0.00000000000E+00  0.45593999997E+02  0.45594000000E+02  0.51100000000E-03 0.  1.
         11   -1    0    0    0    0 -0.00000000000E+00 -0.00000000000E+00 -0.45593999997E+02  0.45594000000E+02  0.51100000000E-03 0. -1.
    9900012    2    1    2    0    0 -0.42915206688E+00  0.35241205594E+00 -0.10414305537E+01  0.90007769789E+02  0.90000031550E+02 0.  0.
        -12    1    1    2    0    0  0.42915206688E+00 -0.35241205594E+00  0.10414305537E+01  0.11802302114E+01  0.00000000000E+00 0.  1.
         11    1    3    3    0    0  0.73160252281E+01 -0.86348676382E+00 -0.39060702455E+02  0.39749318373E+02  0.51100000000E-03 0. -1.
        -11    1    3    3    0    0 -0.33542200781E+01 -0.48062034008E+01 -0.43119066954E+01  0.72761887739E+01  0.51100000000E-03 0.  1.
        -12    1    3    3    0    0 -0.43909572169E+01  0.60221022205E+01  0.42331178597E+02  0.42982262642E+02  0.00000000000E+00 0.  1.
</event>
<event>
 7    1  0.3743571E-015  0.9000774E+02  0.7816164E-02  0.1186339E+00
        -11   -1    0    0    0    0  0.00000000000E+00  0.00000000000E+00  0.45593999997E+02  0.45594000000E+02  0.51100000000E-03 0.  1.
         11   -1    0    0    0    0 -0.00000000000E+00 -0.00000000000E+00 -0.45593999997E+02  0.45594000000E+02  0.51100000000E-03 0. -1.
    9900012    2    1    2    0    0  0.90501837183E+00  0.45017853194E+00 -0.60934534643E+00  0.90007737014E+02  0.89999998343E+02 0.  0.
        -12    1    1    2    0    0 -0.90501837183E+00 -0.45017853194E+00  0.60934534643E+00  0.11802629856E+01  0.00000000000E+00 0.  1.
         11    1    3    3    0    0  0.32958860205E+01 -0.32920614013E+02 -0.21824966921E+02  0.39635323551E+02  0.51100000000E-03 0. -1.
        -11    1    3    3    0    0 -0.20047618953E+01  0.39279161214E+00 -0.67993423316E+01  0.70996064616E+01  0.51100000000E-03 0.  1.
        -12    1    3    3    0    0 -0.38610575341E+00  0.32978000933E+02  0.28014963906E+02  0.43272807002E+02  0.00000000000E+00 0.  1.
</event>
<event>
 7    1  0.3743571E-015  0.9000845E+02  0.7816164E-02  0.1186338E+00
        -11   -1    0    0    0    0  0.00000000000E+00  0.00000000000E+00  0.45593999997E+02  0.45594000000E+02  0.51100000000E-03 0.  1.
         11   -1    0    0    0    0 -0.00000000000E+00 -0.00000000000E+00 -0.45593999997E+02  0.45594000000E+02  0.51100000000E-03 0. -1.
    9900012    2    1    2    0    0  0.28598394263E+00  0.34127521225E+00 -0.10922790455E+01  0.90008453859E+02  0.90000724647E+02 0.  0.
        -12    1    1    2    0    0 -0.28598394263E+00 -0.34127521225E+00  0.10922790455E+01  0.11795461412E+01  0.00000000000E+00 0.  1.
         11    1    3    3    0    0  0.30000753389E+02  0.17989755749E+02  0.14622398236E+02  0.37914259141E+02  0.51100000000E-03 0. -1.
        -11    1    3    3    0    0 -0.10960516932E+00  0.92877383083E+01 -0.59187076731E+00  0.93072234013E+01  0.51100000000E-03 0.  1.
        -12    1    3    3    0    0 -0.29605164277E+02 -0.26936218845E+02 -0.15122806514E+02  0.42786971316E+02  0.00000000000E+00 0.  1.
</event>
<event>
 7    1  0.3743571E-015  0.9000771E+02  0.7816164E-02  0.1186339E+00
        -11   -1    0    0    0    0  0.00000000000E+00  0.00000000000E+00  0.45593999997E+02  0.45594000000E+02  0.51100000000E-03 0. -1.
         11   -1    0    0    0    0 -0.00000000000E+00 -0.00000000000E+00 -0.45593999997E+02  0.45594000000E+02  0.51100000000E-03 0.  1.
    9900012    2    1    2    0    0  0.55042451939E+00  0.99384017674E+00  0.31998970150E+00  0.90007712384E+02  0.89999973387E+02 0.  0.
        -12    1    1    2    0    0 -0.55042451939E+00 -0.99384017674E+00 -0.31998970150E+00  0.11802876164E+01  0.00000000000E+00 0.  1.
         11    1    3    3    0    0  0.37408357897E+01  0.40358896369E+01  0.37458960815E+02  0.37861009009E+02  0.51100000000E-03 0. -1.
        -11    1    3    3    0    0 -0.81402691125E+01  0.56210130801E+01  0.33517490945E+01  0.10444806917E+02  0.51100000000E-03 0.  1.
        -12    1    3    3    0    0  0.49498578422E+01 -0.86630625402E+01 -0.40490720208E+02  0.41701896458E+02  0.00000000000E+00 0.  1.
</event>
<event>
 7    1  0.3743571E-015  0.9000765E+02  0.7816164E-02  0.1186339E+00
        -11   -1    0    0    0    0  0.00000000000E+00  0.00000000000E+00  0.45593999997E+02  0.45594000000E+02  0.51100000000E-03 0.  1.
         11   -1    0    0    0    0 -0.00000000000E+00 -0.00000000000E+00 -0.45593999997E+02  0.45594000000E+02  0.51100000000E-03 0. -1.
    9900012    2    1    2    0    0 -0.82632110401E+00 -0.90134738594E-01 -0.83802899105E+00  0.90007651141E+02  0.89999911336E+02 0.  0.
        -12    1    1    2    0    0  0.82632110401E+00  0.90134738594E-01  0.83802899105E+00  0.11803488585E+01  0.00000000000E+00 0.  1.
         11    1    3    3    0    0 -0.58153226695E+01 -0.30527154113E+01  0.73667792824E+01  0.98694724474E+01  0.51100000000E-03 0. -1.
        -11    1    3    3    0    0  0.63566642781E+01 -0.38006915479E+02 -0.12133791769E+01  0.38553924498E+02  0.51100000000E-03 0.  1.
         12    1    3    3    0    0 -0.13676627126E+01  0.40969496151E+02 -0.69914290966E+01  0.41584254196E+02  0.00000000000E+00 0. -1.
</event>
<event>
 7    1  0.3743571E-015  0.9000753E+02  0.7816164E-02  0.1186339E+00
        -11   -1    0    0    0    0  0.00000000000E+00  0.00000000000E+00  0.45593999997E+02  0.45594000000E+02  0.51100000000E-03 0.  1.
         11   -1    0    0    0    0 -0.00000000000E+00 -0.00000000000E+00 -0.45593999997E+02  0.45594000000E+02  0.51100000000E-03 0. -1.
    9900012    2    1    2    0    0 -0.24589990346E+00  0.65792181461E+00 -0.94877783666E+00  0.90007530915E+02  0.89999789523E+02 0.  0.
        -12    1    1    2    0    0  0.24589990346E+00 -0.65792181461E+00  0.94877783666E+00  0.11804690847E+01  0.00000000000E+00 0.  1.
         11    1    3    3    0    0 -0.29593973533E+02 -0.25230310695E+02 -0.64336753954E+01  0.39417813569E+02  0.51100000000E-03 0. -1.
        -11    1    3    3    0    0  0.55708867307E+01 -0.74742013970E+01  0.88049292932E+00  0.93634253107E+01  0.51100000000E-03 0.  1.
        -12    1    3    3    0    0  0.23777186899E+02  0.33362433906E+02  0.46044046294E+01  0.41226292035E+02  0.00000000000E+00 0.  1.
</event>
<event>
 7    1  0.3743571E-015  0.9000772E+02  0.7816164E-02  0.1186339E+00
        -11   -1    0    0    0    0  0.00000000000E+00  0.00000000000E+00  0.45593999997E+02  0.45594000000E+02  0.51100000000E-03 0.  1.
         11   -1    0    0    0    0 -0.00000000000E+00 -0.00000000000E+00 -0.45593999997E+02  0.45594000000E+02  0.51100000000E-03 0. -1.
    9900012    2    1    2    0    0 -0.74340371180E+00  0.18297178544E+00 -0.89828947585E+00  0.90007723873E+02  0.89999985028E+02 0.  0.
        -12    1    1    2    0    0  0.74340371180E+00 -0.18297178544E+00  0.89828947585E+00  0.11802761268E+01  0.00000000000E+00 0.  1.
         11    1    3    3    0    0  0.34646200051E+02 -0.12582043284E+01 -0.58562078586E+01  0.35160168186E+02  0.51100000000E-03 0. -1.
        -11    1    3    3    0    0  0.61845374592E+01 -0.83991952690E+01  0.61490752334E+01  0.12108101058E+02  0.51100000000E-03 0.  1.
        -12    1    3    3    0    0 -0.41574141222E+02  0.98403713829E+01 -0.11911568507E+01  0.42739454629E+02  0.00000000000E+00 0.  1.
</event>
<event>
 7    1  0.3743571E-015  0.9000769E+02  0.7816164E-02  0.1186339E+00
        -11   -1    0    0    0    0  0.00000000000E+00  0.00000000000E+00  0.45593999997E+02  0.45594000000E+02  0.51100000000E-03 0.  1.
         11   -1    0    0    0    0 -0.00000000000E+00 -0.00000000000E+00 -0.45593999997E+02  0.45594000000E+02  0.51100000000E-03 0. -1.
    9900012    2    1    2    0    0  0.21803450358E+00  0.39561233363E+00 -0.10904504813E+01  0.90007690542E+02  0.89999951258E+02 0.  0.
        -12    1    1    2    0    0 -0.21803450358E+00 -0.39561233363E+00  0.10904504813E+01  0.11803094575E+01  0.00000000000E+00 0.  1.
         11    1    3    3    0    0 -0.34195521031E+02  0.14872891639E+02  0.21081623589E+01  0.37349443277E+02  0.51100000000E-03 0. -1.
        -11    1    3    3    0    0 -0.79039890223E+01 -0.44272315462E+01 -0.87625022378E+00  0.91017161208E+01  0.51100000000E-03 0.  1.
        -12    1    3    3    0    0  0.42317544557E+02 -0.10050047759E+02 -0.23223626164E+01  0.43556531145E+02  0.00000000000E+00 0.  1.
</event>
<event>
 7    1  0.3743571E-015  0.9000826E+02  0.7816164E-02  0.1186338E+00
        -11   -1    0    0    0    0  0.00000000000E+00  0.00000000000E+00  0.45593999997E+02  0.45594000000E+02  0.51100000000E-03 0. -1.
         11   -1    0    0    0    0 -0.00000000000E+00 -0.00000000000E+00 -0.45593999997E+02  0.45594000000E+02  0.51100000000E-03 0.  1.
    9900012    2    1    2    0    0  0.99233295645E+00  0.56961081065E+00  0.28741834827E+00  0.90008258300E+02  0.90000526508E+02 0.  0.
        -12    1    1    2    0    0 -0.99233295645E+00 -0.56961081065E+00 -0.28741834827E+00  0.11797417001E+01  0.00000000000E+00 0.  1.
         11    1    3    3    0    0  0.86782876778E+01  0.21191534622E+01  0.40960104172E+01  0.98275525953E+01  0.51100000000E-03 0. -1.
        -11    1    3    3    0    0  0.74636596588E+00  0.10033796867E+02 -0.40005503559E+02  0.41251357033E+02  0.51100000000E-03 0.  1.
         12    1    3    3    0    0 -0.84323206872E+01 -0.11583339518E+02  0.36196911491E+02  0.38929348672E+02  0.00000000000E+00 0. -1.
</event>
<event>
 7    1  0.3743571E-015  0.9000766E+02  0.7816164E-02  0.1186339E+00
        -11   -1    0    0    0    0  0.00000000000E+00  0.00000000000E+00  0.45593999997E+02  0.45594000000E+02  0.51100000000E-03 0. -1.
         11   -1    0    0    0    0 -0.00000000000E+00 -0.00000000000E+00 -0.45593999997E+02  0.45594000000E+02  0.51100000000E-03 0.  1.
    9900012    2    1    2    0    0 -0.32940565212E-01  0.88427840145E+00  0.78113342221E+00  0.90007659881E+02  0.89999920192E+02 0.  0.
        -12    1    1    2    0    0  0.32940565212E-01 -0.88427840145E+00 -0.78113342221E+00  0.11803401185E+01  0.00000000000E+00 0.  1.
         11    1    3    3    0    0 -0.26840983869E+02  0.21336403859E+02  0.20744827164E+02  0.40075284141E+02  0.51100000000E-03 0. -1.
        -11    1    3    3    0    0  0.52159063209E+01  0.82712929380E+01 -0.32780678805E+01  0.10313374564E+02  0.51100000000E-03 0.  1.
        -12    1    3    3    0    0  0.21592136983E+02 -0.28723418395E+02 -0.16685625861E+02  0.39619001176E+02  0.00000000000E+00 0.  1.
</event>
<event>
 7    1  0.3808874E-015  0.9000776E+02  0.7816164E-02  0.1186339E+00
        -11   -1    0    0    0    0  0.00000000000E+00  0.00000000000E+00  0.45593999997E+02  0.45594000000E+02  0.51100000000E-03 0.  1.
         11   -1    0    0    0    0 -0.00000000000E+00 -0.00000000000E+00 -0.45593999997E+02  0.45594000000E+02  0.51100000000E-03 0. -1.
    9900012    2    1    2    0    0  0.46935022005E+00  0.56148243375E+00 -0.92596276112E+00  0.90007763080E+02  0.90000024753E+02 0.  0.
        -12    1    1    2    0    0 -0.46935022005E+00 -0.56148243375E+00  0.92596276112E+00  0.11802369200E+01  0.00000000000E+00 0.  1.
         11    1    3    3    0    0  0.19038099686E+01 -0.63478347520E+01  0.71664437559E+01  0.97610150498E+01  0.51100000000E-03 0. -1.
        -11    1    3    3    0    0 -0.17894682188E+02 -0.15550986532E+02  0.26684814994E+02  0.35694988223E+02  0.51100000000E-03 0.  1.
         12    1    3    3    0    0  0.16460222440E+02  0.22460303718E+02 -0.34777221511E+02  0.44551759807E+02  0.00000000000E+00 0. -1.
</event>
<event>
 7    1  0.3743571E-015  0.9000785E+02  0.7816164E-02  0.1186339E+00
        -11   -1    0    0    0    0  0.00000000000E+00  0.00000000000E+00  0.45593999997E+02  0.45594000000E+02  0.51100000000E-03 0. -1.
         11   -1    0    0    0    0 -0.00000000000E+00 -0.00000000000E+00 -0.45593999997E+02  0.45594000000E+02  0.51100000000E-03 0.  1.
    9900012    2    1    2    0    0 -0.40373489434E+00  0.60571672063E+00  0.92890132352E+00  0.90007850739E+02  0.90000113568E+02 0.  0.
        -12    1    1    2    0    0  0.40373489434E+00 -0.60571672063E+00 -0.92890132352E+00  0.11801492615E+01  0.00000000000E+00 0.  1.
         11    1    3    3    0    0  0.70801379503E+01  0.10938480429E+01 -0.73710721847E+01  0.10278986446E+02  0.51100000000E-03 0. -1.
        -11    1    3    3    0    0  0.79114806176E+01  0.17799731349E+02 -0.29293483311E+02  0.35178546394E+02  0.51100000000E-03 0.  1.
         12    1    3    3    0    0 -0.15395353462E+02 -0.18287862671E+02  0.37593456819E+02  0.44550317899E+02  0.00000000000E+00 0. -1.
</event>
<event>
 7    1  0.3743571E-015  0.9000782E+02  0.7816164E-02  0.1186339E+00
        -11   -1    0    0    0    0  0.00000000000E+00  0.00000000000E+00  0.45593999997E+02  0.45594000000E+02  0.51100000000E-03 0.  1.
         11   -1    0    0    0    0 -0.00000000000E+00 -0.00000000000E+00 -0.45593999997E+02  0.45594000000E+02  0.51100000000E-03 0. -1.
    9900012    2    1    2    0    0  0.17764359283E+00 -0.10000032026E+01  0.60105409792E+00  0.90007817946E+02  0.90000080343E+02 0.  0.
        -12    1    1    2    0    0 -0.17764359283E+00  0.10000032026E+01 -0.60105409792E+00  0.11801820537E+01  0.00000000000E+00 0.  1.
         11    1    3    3    0    0 -0.18690989139E+02  0.25947322252E+01 -0.29634680673E+02  0.35132606068E+02  0.51100000000E-03 0. -1.
        -11    1    3    3    0    0 -0.45712613558E+01  0.41795774021E+01 -0.75310213564E+01  0.97509784419E+01  0.51100000000E-03 0.  1.
        -12    1    3    3    0    0  0.23439894088E+02 -0.77743128299E+01  0.37766756127E+02  0.45124233436E+02  0.00000000000E+00 0.  1.
</event>
<event>
 7    1  0.3743571E-015  0.9000747E+02  0.7816164E-02  0.1186340E+00
        -11   -1    0    0    0    0  0.00000000000E+00  0.00000000000E+00  0.45593999997E+02  0.45594000000E+02  0.51100000000E-03 0. -1.
         11   -1    0    0    0    0 -0.00000000000E+00 -0.00000000000E+00 -0.45593999997E+02  0.45594000000E+02  0.51100000000E-03 0.  1.
    9900012    2    1    2    0    0  0.11124333179E+01  0.46845229889E-01  0.39234819742E+00  0.90007474918E+02  0.89999732786E+02 0.  0.
        -12    1    1    2    0    0 -0.11124333179E+01 -0.46845229889E-01 -0.39234819742E+00  0.11805250824E+01  0.00000000000E+00 0.  1.
         11    1    3    3    0    0  0.12284344563E+02 -0.38021661638E+01  0.41273118134E+01  0.13505417133E+02  0.51100000000E-03 0. -1.
        -11    1    3    3    0    0 -0.12841029655E+02 -0.18316008238E+02 -0.32929659132E+02  0.39808675577E+02  0.51100000000E-03 0.  1.
         12    1    3    3    0    0  0.16691184103E+01  0.22165019632E+02  0.29194695516E+02  0.36693382207E+02  0.00000000000E+00 0. -1.
</event>
<event>
 7    1  0.3743571E-015  0.9000781E+02  0.7816164E-02  0.1186339E+00
        -11   -1    0    0    0    0  0.00000000000E+00  0.00000000000E+00  0.45593999997E+02  0.45594000000E+02  0.51100000000E-03 0. -1.
         11   -1    0    0    0    0 -0.00000000000E+00 -0.00000000000E+00 -0.45593999997E+02  0.45594000000E+02  0.51100000000E-03 0.  1.
    9900012    2    1    2    0    0  0.11026577524E+01 -0.41305898202E+00 -0.79904597006E-01  0.90007806547E+02  0.90000068794E+02 0.  0.
        -12    1    1    2    0    0 -0.11026577524E+01  0.41305898202E+00  0.79904597006E-01  0.11801934528E+01  0.00000000000E+00 0.  1.
         11    1    3    3    0    0 -0.31968901077E+02 -0.15483587927E+02  0.16478609242E+02  0.39157332570E+02  0.51100000000E-03 0. -1.
        -11    1    3    3    0    0  0.77606471564E+01 -0.66972775986E+01  0.46954194052E+01  0.11275111315E+02  0.51100000000E-03 0.  1.
        -12    1    3    3    0    0  0.25310911673E+02  0.21767806544E+02 -0.21253933244E+02  0.39575362662E+02  0.00000000000E+00 0.  1.
</event>
<event>
 7    1  0.3743571E-015  0.9000786E+02  0.7816164E-02  0.1186339E+00
        -11   -1    0    0    0    0  0.00000000000E+00  0.00000000000E+00  0.45593999997E+02  0.45594000000E+02  0.51100000000E-03 0. -1.
         11   -1    0    0    0    0 -0.00000000000E+00 -0.00000000000E+00 -0.45593999997E+02  0.45594000000E+02  0.51100000000E-03 0.  1.
    9900012    2    1    2    0    0 -0.10815574875E+01 -0.17960508471E+00 -0.43670889464E+00  0.90007856261E+02  0.90000119164E+02 0.  0.
        -12    1    1    2    0    0  0.10815574875E+01  0.17960508471E+00  0.43670889464E+00  0.11801437387E+01  0.00000000000E+00 0.  1.
         11    1    3    3    0    0 -0.11252543589E+02  0.24576990920E+01 -0.69089487350E+01  0.13431068272E+02  0.51100000000E-03 0. -1.
        -11    1    3    3    0    0  0.28226060616E+02 -0.17920565952E+02 -0.21647537507E+02  0.39830554382E+02  0.51100000000E-03 0.  1.
         12    1    3    3    0    0 -0.18055074515E+02  0.15283261775E+02  0.28119777348E+02  0.36746233607E+02  0.00000000000E+00 0. -1.
</event>
<event>
 7    1  0.3743571E-015  0.9000770E+02  0.7816164E-02  0.1186339E+00
        -11   -1    0    0    0    0  0.00000000000E+00  0.00000000000E+00  0.45593999997E+02  0.45594000000E+02  0.51100000000E-03 0. -1.
         11   -1    0    0    0    0 -0.00000000000E+00 -0.00000000000E+00 -0.45593999997E+02  0.45594000000E+02  0.51100000000E-03 0.  1.
    9900012    2    1    2    0    0 -0.28868212684E+00  0.45315265731E+00  0.10509186559E+01  0.90007697190E+02  0.89999957993E+02 0.  0.
        -12    1    1    2    0    0  0.28868212684E+00 -0.45315265731E+00 -0.10509186559E+01  0.11803028097E+01  0.00000000000E+00 0.  1.
         11    1    3    3    0    0  0.38745238273E+01 -0.67969847599E+01  0.47171138858E+01  0.91357594314E+01  0.51100000000E-03 0. -1.
        -11    1    3    3    0    0  0.31538305186E+02 -0.12123939803E+02 -0.17384483781E+02  0.37998353740E+02  0.51100000000E-03 0.  1.
         12    1    3    3    0    0 -0.35701511140E+02  0.19374077221E+02  0.13718288551E+02  0.42873584019E+02  0.00000000000E+00 0. -1.
</event>
<event>
 7    1  0.3743571E-015  0.9000779E+02  0.7816164E-02  0.1186339E+00
        -11   -1    0    0    0    0  0.00000000000E+00  0.00000000000E+00  0.45593999997E+02  0.45594000000E+02  0.51100000000E-03 0. -1.
         11   -1    0    0    0    0 -0.00000000000E+00 -0.00000000000E+00 -0.45593999997E+02  0.45594000000E+02  0.51100000000E-03 0.  1.
    9900012    2    1    2    0    0  0.84929657547E+00 -0.74661928071E+00  0.33786729282E+00  0.90007788438E+02  0.90000050445E+02 0.  0.
        -12    1    1    2    0    0 -0.84929657547E+00  0.74661928071E+00 -0.33786729282E+00  0.11802115620E+01  0.00000000000E+00 0.  1.
         11    1    3    3    0    0  0.53339921187E+01  0.71906134727E+01 -0.60587403879E+01  0.10810399132E+02  0.51100000000E-03 0. -1.
        -11    1    3    3    0    0 -0.28746630736E+02  0.12472614959E+02 -0.20646080699E+02  0.37525931715E+02  0.51100000000E-03 0.  1.
         12    1    3    3    0    0  0.24261935193E+02 -0.20409847713E+02  0.27042688379E+02  0.41671457591E+02  0.00000000000E+00 0. -1.
</event>
<event>
 7    1  0.3743571E-015  0.9000794E+02  0.7816164E-02  0.1186339E+00
        -11   -1    0    0    0    0  0.00000000000E+00  0.00000000000E+00  0.45593999997E+02  0.45594000000E+02  0.51100000000E-03 0.  1.
         11   -1    0    0    0    0 -0.00000000000E+00 -0.00000000000E+00 -0.45593999997E+02  0.45594000000E+02  0.51100000000E-03 0. -1.
    9900012    2    1    2    0    0  0.65094070176E+00 -0.92166801914E+00 -0.34547194034E+00  0.90007937885E+02  0.90000201864E+02 0.  0.
        -12    1    1    2    0    0 -0.65094070176E+00  0.92166801914E+00  0.34547194034E+00  0.11800621154E+01  0.00000000000E+00 0.  1.
         11    1    3    3    0    0 -0.25303911558E+01  0.12558779200E+02 -0.27044118453E+02  0.29925075732E+02  0.51100000000E-03 0. -1.
        -11    1    3    3    0    0 -0.11428909792E+02  0.15281185629E+02  0.14872966135E+01  0.19140184554E+02  0.51100000000E-03 0.  1.
         12    1    3    3    0    0  0.14610241650E+02 -0.28761632849E+02  0.25211349900E+02  0.40942677599E+02  0.00000000000E+00 0. -1.
</event>
<event>
 7    1  0.3743571E-015  0.9000772E+02  0.7816164E-02  0.1186339E+00
        -11   -1    0    0    0    0  0.00000000000E+00  0.00000000000E+00  0.45593999997E+02  0.45594000000E+02  0.51100000000E-03 0.  1.
         11   -1    0    0    0    0 -0.00000000000E+00 -0.00000000000E+00 -0.45593999997E+02  0.45594000000E+02  0.51100000000E-03 0. -1.
    9900012    2    1    2    0    0  0.35209953077E+00  0.84604306331E+00  0.74384012743E+00  0.90007719915E+02  0.89999981018E+02 0.  0.
        -12    1    1    2    0    0 -0.35209953077E+00 -0.84604306331E+00 -0.74384012743E+00  0.11802800853E+01  0.00000000000E+00 0.  1.
         11    1    3    3    0    0 -0.21890867554E+02  0.10480304986E+01 -0.30578543801E+02  0.37621214646E+02  0.51100000000E-03 0. -1.
        -11    1    3    3    0    0 -0.73089634056E+01 -0.53695818079E+01  0.76161184056E-01  0.90696833265E+01  0.51100000000E-03 0.  1.
        -12    1    3    3    0    0  0.29551930491E+02  0.51675943726E+01  0.31246222745E+02  0.43316821942E+02  0.00000000000E+00 0.  1.
</event>
<event>
 7    1  0.3743571E-015  0.9000775E+02  0.7816164E-02  0.1186339E+00
        -11   -1    0    0    0    0  0.00000000000E+00  0.00000000000E+00  0.45593999997E+02  0.45594000000E+02  0.51100000000E-03 0.  1.
         11   -1    0    0    0    0 -0.00000000000E+00 -0.00000000000E+00 -0.45593999997E+02  0.45594000000E+02  0.51100000000E-03 0. -1.
    9900012    2    1    2    0    0 -0.34360278357E+00  0.11114915450E+01  0.19875982591E+00  0.90007753502E+02  0.90000015048E+02 0.  0.
        -12    1    1    2    0    0  0.34360278357E+00 -0.11114915450E+01 -0.19875982591E+00  0.11802464980E+01  0.00000000000E+00 0.  1.
         11    1    3    3    0    0  0.53913988988E+01 -0.60012773169E+01 -0.48798570645E+01  0.94284419048E+01  0.51100000000E-03 0. -1.
        -11    1    3    3    0    0  0.13334691032E+02 -0.20270177855E+02  0.30252137789E+02  0.38779968234E+02  0.51100000000E-03 0.  1.
         12    1    3    3    0    0 -0.19069692714E+02  0.27382946717E+02 -0.25173520899E+02  0.41799343363E+02  0.00000000000E+00 0. -1.
</event>
<event>
 7    1  0.3743571E-015  0.9000779E+02  0.7816164E-02  0.1186339E+00
        -11   -1    0    0    0    0  0.00000000000E+00  0.00000000000E+00  0.45593999997E+02  0.45594000000E+02  0.51100000000E-03 0.  1.
         11   -1    0    0    0    0 -0.00000000000E+00 -0.00000000000E+00 -0.45593999997E+02  0.45594000000E+02  0.51100000000E-03 0. -1.
    9900012    2    1    2    0    0  0.51882390490E+00 -0.82403989204E+00 -0.66684417413E+00  0.90007787671E+02  0.90000049669E+02 0.  0.
        -12    1    1    2    0    0 -0.51882390490E+00  0.82403989204E+00  0.66684417413E+00  0.11802123286E+01  0.00000000000E+00 0.  1.
         11    1    3    3    0    0  0.12731944303E+02  0.11142720694E+02 -0.25465455949E+02  0.30573715462E+02  0.51100000000E-03 0. -1.
        -11    1    3    3    0    0  0.18673611810E+01 -0.16620630973E+02 -0.11450150972E+02  0.20269148212E+02  0.51100000000E-03 0.  1.
        -12    1    3    3    0    0 -0.14080481579E+02  0.46538703867E+01  0.36248762746E+02  0.39164923997E+02  0.00000000000E+00 0.  1.
</event>
<event>
 7    1  0.3743571E-015  0.9000807E+02  0.7816164E-02  0.1186338E+00
        -11   -1    0    0    0    0  0.00000000000E+00  0.00000000000E+00  0.45593999997E+02  0.45594000000E+02  0.51100000000E-03 0. -1.
         11   -1    0    0    0    0 -0.00000000000E+00 -0.00000000000E+00 -0.45593999997E+02  0.45594000000E+02  0.51100000000E-03 0.  1.
    9900012    2    1    2    0    0  0.10805608959E+01  0.28631581639E+00 -0.37767477317E+00  0.90008073379E+02  0.90000339147E+02 0.  0.
        -12    1    1    2    0    0 -0.10805608959E+01 -0.28631581639E+00  0.37767477317E+00  0.11799266209E+01  0.00000000000E+00 0.  1.
         11    1    3    3    0    0 -0.25309311701E+01 -0.77935878107E+01 -0.72844138774E+01  0.10963955005E+02  0.51100000000E-03 0. -1.
        -11    1    3    3    0    0  0.31405754873E+02 -0.21567332572E+02  0.28875705199E+01  0.38207451330E+02  0.51100000000E-03 0.  1.
         12    1    3    3    0    0 -0.27794262806E+02  0.29647236199E+02  0.40191685844E+01  0.40836667044E+02  0.00000000000E+00 0. -1.
</event>
<event>
 7    1  0.3743571E-015  0.9000787E+02  0.7816164E-02  0.1186339E+00
        -11   -1    0    0    0    0  0.00000000000E+00  0.00000000000E+00  0.45593999997E+02  0.45594000000E+02  0.51100000000E-03 0. -1.
         11   -1    0    0    0    0 -0.00000000000E+00 -0.00000000000E+00 -0.45593999997E+02  0.45594000000E+02  0.51100000000E-03 0.  1.
    9900012    2    1    2    0    0 -0.11341453217E+01 -0.32009576634E+00  0.62988289957E-01  0.90007866772E+02  0.90000129814E+02 0.  0.
        -12    1    1    2    0    0  0.11341453217E+01  0.32009576634E+00 -0.62988289957E-01  0.11801332276E+01  0.00000000000E+00 0.  1.
         11    1    3    3    0    0  0.25491734044E+02  0.32093655808E+02  0.48006178138E+01  0.41265932431E+02  0.51100000000E-03 0. -1.
        -11    1    3    3    0    0 -0.11185531259E+02  0.12331094605E+01  0.92344661174E+00  0.11291121397E+02  0.51100000000E-03 0.  1.
        -12    1    3    3    0    0 -0.15440348107E+02 -0.33646861035E+02 -0.56610761356E+01  0.37450812944E+02  0.00000000000E+00 0.  1.
</event>
<event>
 7    1  0.3743571E-015  0.9000768E+02  0.7816164E-02  0.1186339E+00
        -11   -1    0    0    0    0  0.00000000000E+00  0.00000000000E+00  0.45593999997E+02  0.45594000000E+02  0.51100000000E-03 0.  1.
         11   -1    0    0    0    0 -0.00000000000E+00 -0.00000000000E+00 -0.45593999997E+02  0.45594000000E+02  0.51100000000E-03 0. -1.
    9900012    2    1    2    0    0 -0.15036665827E+00 -0.41519039630E+00 -0.10946101141E+01  0.90007676104E+02  0.89999936629E+02 0.  0.
        -12    1    1    2    0    0  0.15036665827E+00  0.41519039630E+00  0.10946101141E+01  0.11803238958E+01  0.00000000000E+00 0.  1.
         11    1    3    3    0    0  0.54144024895E+01 -0.32158272903E+02  0.16174094056E+02  0.36401532787E+02  0.51100000000E-03 0. -1.
        -11    1    3    3    0    0  0.77354358081E+01 -0.59522653670E+01  0.68903519762E+00  0.97847432212E+01  0.51100000000E-03 0.  1.
        -12    1    3    3    0    0 -0.13300204956E+02  0.37695347874E+02 -0.17957739368E+02  0.43821400096E+02  0.00000000000E+00 0.  1.
</event>
<event>
 7    1  0.3743571E-015  0.9000776E+02  0.7816164E-02  0.1186339E+00
        -11   -1    0    0    0    0  0.00000000000E+00  0.00000000000E+00  0.45593999997E+02  0.45594000000E+02  0.51100000000E-03 0. -1.
         11   -1    0    0    0    0 -0.00000000000E+00 -0.00000000000E+00 -0.45593999997E+02  0.45594000000E+02  0.51100000000E-03 0.  1.
    9900012    2    1    2    0    0  0.71129902993E+00  0.91152444806E+00  0.23694067685E+00  0.90007761035E+02  0.90000022681E+02 0.  0.
        -12    1    1    2    0    0 -0.71129902993E+00 -0.91152444806E+00 -0.23694067685E+00  0.11802389647E+01  0.00000000000E+00 0.  1.
         11    1    3    3    0    0  0.26309960167E+02 -0.11584123599E+02  0.23963707923E+02  0.37425462205E+02  0.51100000000E-03 0. -1.
        -11    1    3    3    0    0  0.81851533595E+01 -0.32888598414E+01 -0.91441668867E+00  0.88684549227E+01  0.51100000000E-03 0.  1.
        -12    1    3    3    0    0 -0.33783814497E+02  0.15784507889E+02 -0.22812350558E+02  0.43713843908E+02  0.00000000000E+00 0.  1.
</event>
<event>
 7    1  0.3743571E-015  0.9000769E+02  0.7816164E-02  0.1186339E+00
        -11   -1    0    0    0    0  0.00000000000E+00  0.00000000000E+00  0.45593999997E+02  0.45594000000E+02  0.51100000000E-03 0. -1.
         11   -1    0    0    0    0 -0.00000000000E+00 -0.00000000000E+00 -0.45593999997E+02  0.45594000000E+02  0.51100000000E-03 0.  1.
    9900012    2    1    2    0    0  0.58255919774E+00  0.98689248678E+00  0.28249862553E+00  0.90007687553E+02  0.89999948229E+02 0.  0.
        -12    1    1    2    0    0 -0.58255919774E+00 -0.98689248678E+00 -0.28249862553E+00  0.11803124471E+01  0.00000000000E+00 0.  1.
         11    1    3    3    0    0  0.78243040307E+01 -0.11146290831E+02  0.10823992596E+02  0.17395929088E+02  0.51100000000E-03 0. -1.
        -11    1    3    3    0    0 -0.32665451676E+02 -0.81871009010E+01  0.87281421783E+01  0.34788515641E+02  0.51100000000E-03 0.  1.
         12    1    3    3    0    0  0.25423706843E+02  0.20320284219E+02 -0.19269636149E+02  0.37823242824E+02  0.00000000000E+00 0. -1.
</event>
<event>
 7    1  0.3743571E-015  0.9000777E+02  0.7816164E-02  0.1186339E+00
        -11   -1    0    0    0    0  0.00000000000E+00  0.00000000000E+00  0.45593999997E+02  0.45594000000E+02  0.51100000000E-03 0.  1.
         11   -1    0    0    0    0 -0.00000000000E+00 -0.00000000000E+00 -0.45593999997E+02  0.45594000000E+02  0.51100000000E-03 0. -1.
    9900012    2    1    2    0    0 -0.95338305671E+00 -0.65874895893E+00  0.22372669579E+00  0.90007769905E+02  0.90000031667E+02 0.  0.
        -12    1    1    2    0    0  0.95338305671E+00  0.65874895893E+00 -0.22372669579E+00  0.11802300954E+01  0.00000000000E+00 0.  1.
         11    1    3    3    0    0 -0.30129825271E+01  0.34455683487E+01  0.19804298570E+02  0.20326343672E+02  0.51100000000E-03 0. -1.
        -11    1    3    3    0    0 -0.14440803399E+01 -0.31568098239E+02  0.57918993729E+01  0.32127500573E+02  0.51100000000E-03 0.  1.
         12    1    3    3    0    0  0.35036798103E+01  0.27463780932E+02 -0.25372471247E+02  0.37553925660E+02  0.00000000000E+00 0. -1.
</event>
<event>
 7    1  0.3743571E-015  0.9000804E+02  0.7816164E-02  0.1186338E+00
        -11   -1    0    0    0    0  0.00000000000E+00  0.00000000000E+00  0.45593999997E+02  0.45594000000E+02  0.51100000000E-03 0. -1.
         11   -1    0    0    0    0 -0.00000000000E+00 -0.00000000000E+00 -0.45593999997E+02  0.45594000000E+02  0.51100000000E-03 0.  1.
    9900012    2    1    2    0    0 -0.10482615818E+01  0.42454927953E-01  0.54003873637E+00  0.90008043814E+02  0.90000309192E+02 0.  0.
        -12    1    1    2    0    0  0.10482615818E+01 -0.42454927953E-01 -0.54003873637E+00  0.11799561863E+01  0.00000000000E+00 0.  1.
         11    1    3    3    0    0 -0.88598542447E+01 -0.30244959624E+01  0.19275549003E+01  0.95582457187E+01  0.51100000000E-03 0. -1.
        -11    1    3    3    0    0 -0.36158329541E+02 -0.16399514513E+01 -0.15432899093E+01  0.36228386384E+02  0.51100000000E-03 0.  1.
         12    1    3    3    0    0  0.43969922204E+02  0.47069023417E+01  0.15577374534E+00  0.44221411711E+02  0.00000000000E+00 0. -1.
</event>
<event>
 7    1  0.3743571E-015  0.9000773E+02  0.7816164E-02  0.1186339E+00
        -11   -1    0    0    0    0  0.00000000000E+00  0.00000000000E+00  0.45593999997E+02  0.45594000000E+02  0.51100000000E-03 0. -1.
         11   -1    0    0    0    0 -0.00000000000E+00 -0.00000000000E+00 -0.45593999997E+02  0.45594000000E+02  0.51100000000E-03 0.  1.
    9900012    2    1    2    0    0  0.93173079992E+00  0.58038771369E+00  0.43367761087E+00  0.90007725264E+02  0.89999986438E+02 0.  0.
        -12    1    1    2    0    0 -0.93173079992E+00 -0.58038771369E+00 -0.43367761087E+00  0.11802747358E+01  0.00000000000E+00 0.  1.
         11    1    3    3    0    0  0.40060815741E+02  0.14940833432E+02 -0.22711273767E+01  0.42816532803E+02  0.51100000000E-03 0. -1.
        -11    1    3    3    0    0 -0.40783536667E+01 -0.51845817029E+01  0.82226135423E+01  0.10541547789E+02  0.51100000000E-03 0.  1.
        -12    1    3    3    0    0 -0.35050731275E+02 -0.91758640150E+01 -0.55178085548E+01  0.36649644672E+02  0.00000000000E+00 0.  1.
</event>
<event>
 7    1  0.3743571E-015  0.9000783E+02  0.7816164E-02  0.1186339E+00
        -11   -1    0    0    0    0  0.00000000000E+00  0.00000000000E+00  0.45593999997E+02  0.45594000000E+02  0.51100000000E-03 0. -1.
         11   -1    0    0    0    0 -0.00000000000E+00 -0.00000000000E+00 -0.45593999997E+02  0.45594000000E+02  0.51100000000E-03 0.  1.
    9900012    2    1    2    0    0 -0.68454999423E-01 -0.60614400990E+00  0.10102987259E+01  0.90007830452E+02  0.90000093013E+02 0.  0.
        -12    1    1    2    0    0  0.68454999423E-01  0.60614400990E+00 -0.10102987259E+01  0.11801695485E+01  0.00000000000E+00 0.  1.
         11    1    3    3    0    0 -0.32096237309E+02 -0.13495116861E+02  0.69904435204E+01  0.35512715037E+02  0.51100000000E-03 0. -1.
        -11    1    3    3    0    0 -0.85188226346E+01  0.51814580939E+00  0.60122948081E+01  0.10439660113E+02  0.51100000000E-03 0.  1.
        -12    1    3    3    0    0  0.40546604944E+02  0.12370827041E+02 -0.11992439603E+02  0.44055455301E+02  0.00000000000E+00 0.  1.
</event>
<event>
 7    1  0.3743571E-015  0.9000777E+02  0.7816164E-02  0.1186339E+00
        -11   -1    0    0    0    0  0.00000000000E+00  0.00000000000E+00  0.45593999997E+02  0.45594000000E+02  0.51100000000E-03 0. -1.
         11   -1    0    0    0    0 -0.00000000000E+00 -0.00000000000E+00 -0.45593999997E+02  0.45594000000E+02  0.51100000000E-03 0.  1.
    9900012    2    1    2    0    0  0.86186553506E+00 -0.75116107761E+00 -0.29305504772E+00  0.90007772723E+02  0.90000034523E+02 0.  0.
        -12    1    1    2    0    0 -0.86186553506E+00  0.75116107761E+00  0.29305504772E+00  0.11802272773E+01  0.00000000000E+00 0.  1.
         11    1    3    3    0    0  0.56289051077E+01  0.65688140621E+01  0.34653033426E+01  0.93189172339E+01  0.51100000000E-03 0. -1.
        -11    1    3    3    0    0 -0.30742442270E+02  0.12231882947E+01 -0.29868873786E+02  0.42880573315E+02  0.51100000000E-03 0.  1.
         12    1    3    3    0    0  0.25975402697E+02 -0.85431634344E+01  0.26110515395E+02  0.37808282174E+02  0.00000000000E+00 0. -1.
</event>
<event>
 7    1  0.3828683E-015  0.9000764E+02  0.7816164E-02  0.1186339E+00
        -11   -1    0    0    0    0  0.00000000000E+00  0.00000000000E+00  0.45593999997E+02  0.45594000000E+02  0.51100000000E-03 0.  1.
         11   -1    0    0    0    0 -0.00000000000E+00 -0.00000000000E+00 -0.45593999997E+02  0.45594000000E+02  0.51100000000E-03 0. -1.
    9900012    2    1    2    0    0 -0.42874206275E+00 -0.87176249051E+00  0.67042463839E+00  0.90007636161E+02  0.89999896158E+02 0.  0.
        -12    1    1    2    0    0  0.42874206275E+00  0.87176249051E+00 -0.67042463839E+00  0.11803638388E+01  0.00000000000E+00 0.  1.
         11    1    3    3    0    0 -0.80901595722E+00 -0.47250827407E+01 -0.82314262104E+01  0.95256123921E+01  0.51100000000E-03 0. -1.
        -11    1    3    3    0    0  0.31209786663E+02 -0.22473222490E+02 -0.19682505254E+01  0.38509356305E+02  0.51100000000E-03 0.  1.
         12    1    3    3    0    0 -0.30829512769E+02  0.26326542740E+02  0.10870101374E+02  0.41972667464E+02  0.00000000000E+00 0. -1.
</event>
<event>
 7    1  0.3743571E-015  0.9000774E+02  0.7816164E-02  0.1186339E+00
        -11   -1    0    0    0    0  0.00000000000E+00  0.00000000000E+00  0.45593999997E+02  0.45594000000E+02  0.51100000000E-03 0. -1.
         11   -1    0    0    0    0 -0.00000000000E+00 -0.00000000000E+00 -0.45593999997E+02  0.45594000000E+02  0.51100000000E-03 0.  1.
    9900012    2    1    2    0    0  0.11587558470E+01 -0.18828917912E+00  0.12183710900E+00  0.90007740618E+02  0.90000001994E+02 0.  0.
        -12    1    1    2    0    0 -0.11587558470E+01  0.18828917912E+00 -0.12183710900E+00  0.11802593821E+01  0.00000000000E+00 0.  1.
         11    1    3    3    0    0  0.46104625091E+01  0.25279704136E+01  0.39818358152E+02  0.40164021775E+02  0.51100000000E-03 0. -1.
        -11    1    3    3    0    0  0.45023578879E+01 -0.14509103881E+02 -0.25905578801E+02  0.30031389166E+02  0.51100000000E-03 0.  1.
        -12    1    3    3    0    0 -0.79540645500E+01  0.11792844289E+02 -0.13790942242E+02  0.19812329677E+02  0.00000000000E+00 0.  1.
</event>
<event>
 7    1  0.3743571E-015  0.9000841E+02  0.7816164E-02  0.1186338E+00
        -11   -1    0    0    0    0  0.00000000000E+00  0.00000000000E+00  0.45593999997E+02  0.45594000000E+02  0.51100000000E-03 0.  1.
         11   -1    0    0    0    0 -0.00000000000E+00 -0.00000000000E+00 -0.45593999997E+02  0.45594000000E+02  0.51100000000E-03 0. -1.
    9900012    2    1    2    0    0 -0.62889343885E+00  0.96919326675E+00  0.23787850381E+00  0.90008411628E+02  0.90000681858E+02 0.  0.
        -12    1    1    2    0    0  0.62889343885E+00 -0.96919326675E+00 -0.23787850381E+00  0.11795883724E+01  0.00000000000E+00 0.  1.
         11    1    3    3    0    0  0.14375901477E+02 -0.35122758370E+02  0.11817044685E+02  0.39748172841E+02  0.51100000000E-03 0. -1.
        -11    1    3    3    0    0 -0.78629951107E+01 -0.34474434746E+01 -0.59233311518E+00  0.86059524402E+01  0.51100000000E-03 0.  1.
        -12    1    3    3    0    0 -0.71417998051E+01  0.39539395112E+02 -0.10986833066E+02  0.41654286347E+02  0.00000000000E+00 0.  1.
</event>
<event>
 7    1  0.3743571E-015  0.9000778E+02  0.7816164E-02  0.1186339E+00
        -11   -1    0    0    0    0  0.00000000000E+00  0.00000000000E+00  0.45593999997E+02  0.45594000000E+02  0.51100000000E-03 0. -1.
         11   -1    0    0    0    0 -0.00000000000E+00 -0.00000000000E+00 -0.45593999997E+02  0.45594000000E+02  0.51100000000E-03 0.  1.
    9900012    2    1    2    0    0  0.94779897647E+00  0.70014259716E+00  0.66376269925E-01  0.90007776138E+02  0.90000037983E+02 0.  0.
        -12    1    1    2    0    0 -0.94779897647E+00 -0.70014259716E+00 -0.66376269925E-01  0.11802238624E+01  0.00000000000E+00 0.  1.
         11    1    3    3    0    0 -0.46910271344E+01  0.90800165278E+01  0.12913220330E+01  0.10301453712E+02  0.51100000000E-03 0. -1.
        -11    1    3    3    0    0  0.40174776411E+02  0.96537664604E+00 -0.12679815956E+02  0.42139320648E+02  0.51100000000E-03 0.  1.
         12    1    3    3    0    0 -0.34535950300E+02 -0.93452505767E+01  0.11454870192E+02  0.37567001778E+02  0.00000000000E+00 0. -1.
</event>
<event>
 7    1  0.3743571E-015  0.9000798E+02  0.7816164E-02  0.1186339E+00
        -11   -1    0    0    0    0  0.00000000000E+00  0.00000000000E+00  0.45593999997E+02  0.45594000000E+02  0.51100000000E-03 0.  1.
         11   -1    0    0    0    0 -0.00000000000E+00 -0.00000000000E+00 -0.45593999997E+02  0.45594000000E+02  0.51100000000E-03 0. -1.
    9900012    2    1    2    0    0 -0.80241988026E+00  0.82780871345E+00 -0.25160068344E+00  0.90007979731E+02  0.90000244264E+02 0.  0.
        -12    1    1    2    0    0  0.80241988026E+00 -0.82780871345E+00  0.25160068344E+00  0.11800202686E+01  0.00000000000E+00 0.  1.
         11    1    3    3    0    0 -0.31283376026E+02 -0.21102459822E+02 -0.14989211361E+01  0.37765198145E+02  0.51100000000E-03 0. -1.
        -11    1    3    3    0    0 -0.44374037901E+01 -0.44387882133E+01 -0.50236957915E+01  0.80393353497E+01  0.51100000000E-03 0.  1.
        -12    1    3    3    0    0  0.34918359936E+02  0.26369056749E+02  0.62710162441E+01  0.44203446236E+02  0.00000000000E+00 0.  1.
</event>
<event>
 7    1  0.3743571E-015  0.9000767E+02  0.7816164E-02  0.1186339E+00
        -11   -1    0    0    0    0  0.00000000000E+00  0.00000000000E+00  0.45593999997E+02  0.45594000000E+02  0.51100000000E-03 0. -1.
         11   -1    0    0    0    0 -0.00000000000E+00 -0.00000000000E+00 -0.45593999997E+02  0.45594000000E+02  0.51100000000E-03 0.  1.
    9900012    2    1    2    0    0 -0.11687015226E+01  0.68704556480E-01  0.15029740049E+00  0.90007672557E+02  0.89999933034E+02 0.  0.
        -12    1    1    2    0    0  0.11687015226E+01 -0.68704556480E-01 -0.15029740049E+00  0.11803274433E+01  0.00000000000E+00 0.  1.
         11    1    3    3    0    0  0.50895799364E+01  0.44846891726E+01 -0.58402985497E+01  0.89512763512E+01  0.51100000000E-03 0. -1.
        -11    1    3    3    0    0  0.73925580774E+01 -0.16792486869E+02 -0.33097547195E+02  0.37842901061E+02  0.51100000000E-03 0.  1.
         12    1    3    3    0    0 -0.13650839536E+02  0.12376502253E+02  0.39088143145E+02  0.43213495144E+02  0.00000000000E+00 0. -1.
</event>
<event>
 7    1  0.3743571E-015  0.9000777E+02  0.7816164E-02  0.1186339E+00
        -11   -1    0    0    0    0  0.00000000000E+00  0.00000000000E+00  0.45593999997E+02  0.45594000000E+02  0.51100000000E-03 0. -1.
         11   -1    0    0    0    0 -0.00000000000E+00 -0.00000000000E+00 -0.45593999997E+02  0.45594000000E+02  0.51100000000E-03 0.  1.
    9900012    2    1    2    0    0  0.14082065692E-01 -0.86138277898E-01  0.11770003860E+01  0.90007767813E+02  0.90000029548E+02 0.  0.
        -12    1    1    2    0    0 -0.14082065692E-01  0.86138277898E-01 -0.11770003860E+01  0.11802321874E+01  0.00000000000E+00 0.  1.
         11    1    3    3    0    0 -0.89675345971E+01  0.32876016019E+02  0.14257284493E+02  0.36939399933E+02  0.51100000000E-03 0. -1.
        -11    1    3    3    0    0 -0.47984174150E+01  0.21064132765E+01  0.82479055583E+01  0.97718848202E+01  0.51100000000E-03 0.  1.
        -12    1    3    3    0    0  0.13780034078E+02 -0.35068567574E+02 -0.21328189666E+02  0.43296483059E+02  0.00000000000E+00 0.  1.
</event>
<event>
 7    1  0.3743571E-015  0.9000776E+02  0.7816164E-02  0.1186339E+00
        -11   -1    0    0    0    0  0.00000000000E+00  0.00000000000E+00  0.45593999997E+02  0.45594000000E+02  0.51100000000E-03 0.  1.
         11   -1    0    0    0    0 -0.00000000000E+00 -0.00000000000E+00 -0.45593999997E+02  0.45594000000E+02  0.51100000000E-03 0. -1.
    9900012    2    1    2    0    0 -0.11643042260E+01  0.11368328332E+00 -0.15634925910E+00  0.90007757097E+02  0.90000018691E+02 0.  0.
        -12    1    1    2    0    0  0.11643042260E+01 -0.11368328332E+00  0.15634925910E+00  0.11802429031E+01  0.00000000000E+00 0.  1.
         11    1    3    3    0    0  0.19158393423E+02  0.25344309722E+02 -0.16048293017E+02  0.35593900922E+02  0.51100000000E-03 0. -1.
        -11    1    3    3    0    0  0.45668781013E+01 -0.12328320533E+01 -0.10104201809E+02  0.11156663701E+02  0.51100000000E-03 0.  1.
        -12    1    3    3    0    0 -0.24889575750E+02 -0.23997794385E+02  0.25996145568E+02  0.43257192474E+02  0.00000000000E+00 0.  1.
</event>
<event>
 7    1  0.3743571E-015  0.9000774E+02  0.7816164E-02  0.1186339E+00
        -11   -1    0    0    0    0  0.00000000000E+00  0.00000000000E+00  0.45593999997E+02  0.45594000000E+02  0.51100000000E-03 0. -1.
         11   -1    0    0    0    0 -0.00000000000E+00 -0.00000000000E+00 -0.45593999997E+02  0.45594000000E+02  0.51100000000E-03 0.  1.
    9900012    2    1    2    0    0 -0.10107949205E+01  0.19434255653E+00  0.57753628090E+00  0.90007735811E+02  0.89999997124E+02 0.  0.
        -12    1    1    2    0    0  0.10107949205E+01 -0.19434255653E+00 -0.57753628090E+00  0.11802641892E+01  0.00000000000E+00 0.  1.
         11    1    3    3    0    0 -0.84454374242E+01 -0.75801078043E+01 -0.18163920823E+01  0.11492725006E+02  0.51100000000E-03 0. -1.
        -11    1    3    3    0    0  0.34784608474E+02  0.14215722114E+02 -0.20014901960E+02  0.42575251528E+02  0.51100000000E-03 0.  1.
         12    1    3    3    0    0 -0.27349965971E+02 -0.64412717531E+01  0.22408830323E+02  0.35939759277E+02  0.00000000000E+00 0. -1.
</event>
<event>
 7    1  0.4421251E-015  0.9000766E+02  0.7816164E-02  0.1186339E+00
        -11   -1    0    0    0    0  0.00000000000E+00  0.00000000000E+00  0.45593999997E+02  0.45594000000E+02  0.51100000000E-03 0. -1.
         11   -1    0    0    0    0 -0.00000000000E+00 -0.00000000000E+00 -0.45593999997E+02  0.45594000000E+02  0.51100000000E-03 0.  1.
    9900012    2    1    2    0    0 -0.47575133236E+00  0.78891880338E+00  0.73787955310E+00  0.90007661725E+02  0.89999922060E+02 0.  0.
        -12    1    1    2    0    0  0.47575133236E+00 -0.78891880338E+00 -0.73787955310E+00  0.11803382750E+01  0.00000000000E+00 0.  1.
         11    1    3    3    0    0 -0.27708049239E+01  0.56641766727E+00 -0.92381968804E+01  0.96613907261E+01  0.51100000000E-03 0. -1.
        -11    1    3    3    0    0 -0.55869743989E+01  0.21787864158E+02 -0.28032474028E+02  0.35940852910E+02  0.51100000000E-03 0.  1.
         12    1    3    3    0    0  0.78820279905E+01 -0.21565363021E+02  0.38008550462E+02  0.44405418089E+02  0.00000000000E+00 0. -1.
</event>
<event>
 7    1  0.3743571E-015  0.9000776E+02  0.7816164E-02  0.1186339E+00
        -11   -1    0    0    0    0  0.00000000000E+00  0.00000000000E+00  0.45593999997E+02  0.45594000000E+02  0.51100000000E-03 0. -1.
         11   -1    0    0    0    0 -0.00000000000E+00 -0.00000000000E+00 -0.45593999997E+02  0.45594000000E+02  0.51100000000E-03 0.  1.
    9900012    2    1    2    0    0 -0.19303869587E-01 -0.10381715603E+01 -0.56105923504E+00  0.90007762611E+02  0.90000024278E+02 0.  0.
        -12    1    1    2    0    0  0.19303869587E-01  0.10381715603E+01  0.56105923504E+00  0.11802373885E+01  0.00000000000E+00 0.  1.
         11    1    3    3    0    0  0.21332610175E+02  0.32157663831E+02 -0.16457721996E+02  0.41952976218E+02  0.51100000000E-03 0. -1.
        -11    1    3    3    0    0 -0.13841317363E+02 -0.38662041777E+01  0.12596137072E+01  0.14426234021E+02  0.51100000000E-03 0.  1.
        -12    1    3    3    0    0 -0.75105966818E+01 -0.29329631214E+02  0.14637049054E+02  0.33628552372E+02  0.00000000000E+00 0.  1.
</event>
<event>
 7    1  0.3743571E-015  0.9000759E+02  0.7816164E-02  0.1186339E+00
        -11   -1    0    0    0    0  0.00000000000E+00  0.00000000000E+00  0.45593999997E+02  0.45594000000E+02  0.51100000000E-03 0.  1.
         11   -1    0    0    0    0 -0.00000000000E+00 -0.00000000000E+00 -0.45593999997E+02  0.45594000000E+02  0.51100000000E-03 0. -1.
    9900012    2    1    2    0    0 -0.11207862901E+01 -0.33593090181E+00 -0.15608769852E+00  0.90007587001E+02  0.89999846349E+02 0.  0.
        -12    1    1    2    0    0  0.11207862901E+01  0.33593090181E+00  0.15608769852E+00  0.11804129991E+01  0.00000000000E+00 0.  1.
         11    1    3    3    0    0  0.66659891763E+01 -0.18566288438E+01 -0.41539905247E+01  0.80708190354E+01  0.51100000000E-03 0. -1.
        -11    1    3    3    0    0  0.30688063313E+02 -0.17397048146E+02  0.13930313571E+02  0.37927142662E+02  0.51100000000E-03 0.  1.
         12    1    3    3    0    0 -0.38474838779E+02  0.18917746087E+02 -0.99324107447E+01  0.44009625303E+02  0.00000000000E+00 0. -1.
</event>
<event>
 7    1  0.3743571E-015  0.9000776E+02  0.7816164E-02  0.1186339E+00
        -11   -1    0    0    0    0  0.00000000000E+00  0.00000000000E+00  0.45593999997E+02  0.45594000000E+02  0.51100000000E-03 0. -1.
         11   -1    0    0    0    0 -0.00000000000E+00 -0.00000000000E+00 -0.45593999997E+02  0.45594000000E+02  0.51100000000E-03 0.  1.
    9900012    2    1    2    0    0 -0.74427410898E+00  0.74007817159E+00 -0.53973206214E+00  0.90007758352E+02  0.90000019962E+02 0.  0.
        -12    1    1    2    0    0  0.74427410898E+00 -0.74007817159E+00  0.53973206214E+00  0.11802416483E+01  0.00000000000E+00 0.  1.
         11    1    3    3    0    0  0.32320647071E+02  0.17033799016E+02  0.13521198838E+02  0.38956351912E+02  0.51100000000E-03 0. -1.
        -11    1    3    3    0    0  0.26183710632E+01  0.23597271065E+01 -0.99755253352E+01  0.10579947307E+02  0.51100000000E-03 0.  1.
        -12    1    3    3    0    0 -0.35683292243E+02 -0.18653447950E+02 -0.40854055645E+01  0.40471459133E+02  0.00000000000E+00 0.  1.
</event>
<event>
 7    1  0.3743571E-015  0.9000773E+02  0.7816164E-02  0.1186339E+00
        -11   -1    0    0    0    0  0.00000000000E+00  0.00000000000E+00  0.45593999997E+02  0.45594000000E+02  0.51100000000E-03 0.  1.
         11   -1    0    0    0    0 -0.00000000000E+00 -0.00000000000E+00 -0.45593999997E+02  0.45594000000E+02  0.51100000000E-03 0. -1.
    9900012    2    1    2    0    0 -0.11380725342E+00  0.11530570521E+01 -0.22480901870E+00  0.90007732339E+02  0.89999993606E+02 0.  0.
        -12    1    1    2    0    0  0.11380725342E+00 -0.11530570521E+01  0.22480901870E+00  0.11802676608E+01  0.00000000000E+00 0.  1.
         11    1    3    3    0    0  0.13214180359E+01  0.76255495333E+01 -0.78315206996E+01  0.11010352766E+02  0.51100000000E-03 0. -1.
        -11    1    3    3    0    0  0.33120394156E+02  0.13542349324E+02  0.14249800527E+02  0.38515095087E+02  0.51100000000E-03 0.  1.
         12    1    3    3    0    0 -0.34555619445E+02 -0.20014841805E+02 -0.66430888463E+01  0.40482284485E+02  0.00000000000E+00 0. -1.
</event>
<event>
 7    1  0.3743571E-015  0.9000772E+02  0.7816164E-02  0.1186339E+00
        -11   -1    0    0    0    0  0.00000000000E+00  0.00000000000E+00  0.45593999997E+02  0.45594000000E+02  0.51100000000E-03 0.  1.
         11   -1    0    0    0    0 -0.00000000000E+00 -0.00000000000E+00 -0.45593999997E+02  0.45594000000E+02  0.51100000000E-03 0. -1.
    9900012    2    1    2    0    0 -0.77609002175E+00  0.79804510474E+00 -0.39226052271E+00  0.90007720360E+02  0.89999981469E+02 0.  0.
        -12    1    1    2    0    0  0.77609002175E+00 -0.79804510474E+00  0.39226052271E+00  0.11802796401E+01  0.00000000000E+00 0.  1.
         11    1    3    3    0    0 -0.31598670457E+02  0.62127159460E+00 -0.16534915442E+02  0.35668829277E+02  0.51100000000E-03 0. -1.
        -11    1    3    3    0    0 -0.10166469869E+02 -0.25174414034E+01  0.85321100076E+00  0.10508215361E+02  0.51100000000E-03 0.  1.
        -12    1    3    3    0    0  0.40989050304E+02  0.26942149135E+01  0.15289443919E+02  0.43830675721E+02  0.00000000000E+00 0.  1.
</event>
<event>
 7    1  0.5498749E-015  0.9000759E+02  0.7816164E-02  0.1186339E+00
        -11   -1    0    0    0    0  0.00000000000E+00  0.00000000000E+00  0.45593999997E+02  0.45594000000E+02  0.51100000000E-03 0. -1.
         11   -1    0    0    0    0 -0.00000000000E+00 -0.00000000000E+00 -0.45593999997E+02  0.45594000000E+02  0.51100000000E-03 0.  1.
    9900012    2    1    2    0    0 -0.41030809994E+00  0.71865058661E+00  0.84176175832E+00  0.90007587250E+02  0.89999846602E+02 0.  0.
        -12    1    1    2    0    0  0.41030809994E+00 -0.71865058661E+00 -0.84176175832E+00  0.11804127500E+01  0.00000000000E+00 0.  1.
         11    1    3    3    0    0 -0.92177741757E+01  0.42499980333E+01 -0.73081858981E+00  0.10176636974E+02  0.51100000000E-03 0. -1.
        -11    1    3    3    0    0  0.27950480312E+02  0.36800956449E+01 -0.30662547264E+02  0.41652902163E+02  0.51100000000E-03 0.  1.
         12    1    3    3    0    0 -0.19143014237E+02 -0.72114430916E+01  0.32235127612E+02  0.38178048113E+02  0.00000000000E+00 0. -1.
</event>
<event>
 7    1  0.3743571E-015  0.9000780E+02  0.7816164E-02  0.1186339E+00
        -11   -1    0    0    0    0  0.00000000000E+00  0.00000000000E+00  0.45593999997E+02  0.45594000000E+02  0.51100000000E-03 0. -1.
         11   -1    0    0    0    0 -0.00000000000E+00 -0.00000000000E+00 -0.45593999997E+02  0.45594000000E+02  0.51100000000E-03 0.  1.
    9900012    2    1    2    0    0  0.16813296444E+00  0.89167390916E+00  0.75467326689E+00  0.90007795444E+02  0.90000057544E+02 0.  0.
        -12    1    1    2    0    0 -0.16813296444E+00 -0.89167390916E+00 -0.75467326689E+00  0.11802045559E+01  0.00000000000E+00 0.  1.
         11    1    3    3    0    0 -0.88571301743E+01 -0.17499640393E+01 -0.18815502969E+01  0.92223294696E+01  0.51100000000E-03 0. -1.
        -11    1    3    3    0    0 -0.19985131222E+02 -0.14962932534E+02  0.28669077183E+02  0.38015928329E+02  0.51100000000E-03 0.  1.
         12    1    3    3    0    0  0.29010394361E+02  0.17604570482E+02 -0.26032853619E+02  0.42769537645E+02  0.00000000000E+00 0. -1.
</event>
<event>
 7    1  0.3743571E-015  0.9000771E+02  0.7816164E-02  0.1186339E+00
        -11   -1    0    0    0    0  0.00000000000E+00  0.00000000000E+00  0.45593999997E+02  0.45594000000E+02  0.51100000000E-03 0. -1.
         11   -1    0    0    0    0 -0.00000000000E+00 -0.00000000000E+00 -0.45593999997E+02  0.45594000000E+02  0.51100000000E-03 0.  1.
    9900012    2    1    2    0    0 -0.72099557154E+00  0.69099828364E+00 -0.62909976364E+00  0.90007712003E+02  0.89999973002E+02 0.  0.
        -12    1    1    2    0    0  0.72099557154E+00 -0.69099828364E+00  0.62909976364E+00  0.11802879965E+01  0.00000000000E+00 0.  1.
         11    1    3    3    0    0 -0.55306809119E+01  0.11470611114E+02  0.35684494075E+02  0.37888606049E+02  0.51100000000E-03 0. -1.
        -11    1    3    3    0    0  0.80847784551E+01  0.80937688090E+00  0.46913379379E+01  0.93822910588E+01  0.51100000000E-03 0.  1.
        -12    1    3    3    0    0 -0.32750931148E+01 -0.11588989711E+02 -0.41004931777E+02  0.42736814896E+02  0.00000000000E+00 0.  1.
</event>
<event>
 7    1  0.3743571E-015  0.9000777E+02  0.7816164E-02  0.1186339E+00
        -11   -1    0    0    0    0  0.00000000000E+00  0.00000000000E+00  0.45593999997E+02  0.45594000000E+02  0.51100000000E-03 0.  1.
         11   -1    0    0    0    0 -0.00000000000E+00 -0.00000000000E+00 -0.45593999997E+02  0.45594000000E+02  0.51100000000E-03 0. -1.
    9900012    2    1    2    0    0  0.63441039967E+00  0.70581751721E+00 -0.70163874228E+00  0.90007766189E+02  0.90000027903E+02 0.  0.
        -12    1    1    2    0    0 -0.63441039967E+00 -0.70581751721E+00  0.70163874228E+00  0.11802338105E+01  0.00000000000E+00 0.  1.
         11    1    3    3    0    0  0.26939414776E+02  0.95994448265E+01 -0.27240670633E+02  0.39496019372E+02  0.51100000000E-03 0. -1.
        -11    1    3    3    0    0 -0.23569148005E+01 -0.77741073730E+01 -0.59967212626E+01  0.10097151033E+02  0.51100000000E-03 0.  1.
        -12    1    3    3    0    0 -0.23948089576E+02 -0.11195199363E+01  0.32535753153E+02  0.40414595785E+02  0.00000000000E+00 0.  1.
</event>
<event>
 7    1  0.3743571E-015  0.9000775E+02  0.7816164E-02  0.1186339E+00
        -11   -1    0    0    0    0  0.00000000000E+00  0.00000000000E+00  0.45593999997E+02  0.45594000000E+02  0.51100000000E-03 0.  1.
         11   -1    0    0    0    0 -0.00000000000E+00 -0.00000000000E+00 -0.45593999997E+02  0.45594000000E+02  0.51100000000E-03 0. -1.
    9900012    2    1    2    0    0 -0.98117577365E+00 -0.61195561290E+00  0.23620200952E+00  0.90007751314E+02  0.90000012832E+02 0.  0.
        -12    1    1    2    0    0  0.98117577365E+00  0.61195561290E+00 -0.23620200952E+00  0.11802486858E+01  0.00000000000E+00 0.  1.
         11    1    3    3    0    0 -0.95491413194E+01  0.10306081185E+02  0.18370484227E-01  0.14049973205E+02  0.51100000000E-03 0. -1.
        -11    1    3    3    0    0 -0.31626850091E+02 -0.15745571278E+02 -0.22320548610E+01  0.35400038570E+02  0.51100000000E-03 0.  1.
         12    1    3    3    0    0  0.40194815637E+02  0.48275344809E+01  0.24498863863E+01  0.40557739540E+02  0.00000000000E+00 0. -1.
</event>
<event>
 7    1  0.3743571E-015  0.9000774E+02  0.7816164E-02  0.1186339E+00
        -11   -1    0    0    0    0  0.00000000000E+00  0.00000000000E+00  0.45593999997E+02  0.45594000000E+02  0.51100000000E-03 0.  1.
         11   -1    0    0    0    0 -0.00000000000E+00 -0.00000000000E+00 -0.45593999997E+02  0.45594000000E+02  0.51100000000E-03 0. -1.
    9900012    2    1    2    0    0  0.35517027525E+00 -0.48708827798E+00 -0.10146968973E+01  0.90007741254E+02  0.90000002638E+02 0.  0.
        -12    1    1    2    0    0 -0.35517027525E+00  0.48708827798E+00  0.10146968973E+01  0.11802587464E+01  0.00000000000E+00 0.  1.
         11    1    3    3    0    0  0.59310801166E+01  0.30346996979E+02 -0.29348451627E+02  0.42631555803E+02  0.51100000000E-03 0. -1.
        -11    1    3    3    0    0  0.46893686236E+01  0.24083522937E+00  0.65631028946E+01  0.80698512726E+01  0.51100000000E-03 0.  1.
        -12    1    3    3    0    0 -0.10265278465E+02 -0.31074920486E+02  0.21770651835E+02  0.39306334178E+02  0.00000000000E+00 0.  1.
</event>
<event>
 7    1  0.3743571E-015  0.9000774E+02  0.7816164E-02  0.1186339E+00
        -11   -1    0    0    0    0  0.00000000000E+00  0.00000000000E+00  0.45593999997E+02  0.45594000000E+02  0.51100000000E-03 0. -1.
         11   -1    0    0    0    0 -0.00000000000E+00 -0.00000000000E+00 -0.45593999997E+02  0.45594000000E+02  0.51100000000E-03 0.  1.
    9900012    2    1    2    0    0  0.10307110115E+01  0.38594178635E+00 -0.42626594250E+00  0.90007737781E+02  0.89999999120E+02 0.  0.
        -12    1    1    2    0    0 -0.10307110115E+01 -0.38594178635E+00  0.42626594250E+00  0.11802622189E+01  0.00000000000E+00 0.  1.
         11    1    3    3    0    0 -0.15802943253E+02 -0.16111015697E+02  0.16694754394E+02  0.28071563312E+02  0.51100000000E-03 0. -1.
        -11    1    3    3    0    0  0.17343082448E+01 -0.14280905098E+02 -0.23024706985E+02  0.27149386872E+02  0.51100000000E-03 0.  1.
         12    1    3    3    0    0  0.15099346019E+02  0.30777862582E+02  0.59036866491E+01  0.34786787597E+02  0.00000000000E+00 0. -1.
</event>
<event>
 7    1  0.3743571E-015  0.9000764E+02  0.7816164E-02  0.1186339E+00
        -11   -1    0    0    0    0  0.00000000000E+00  0.00000000000E+00  0.45593999997E+02  0.45594000000E+02  0.51100000000E-03 0. -1.
         11   -1    0    0    0    0 -0.00000000000E+00 -0.00000000000E+00 -0.45593999997E+02  0.45594000000E+02  0.51100000000E-03 0.  1.
    9900012    2    1    2    0    0 -0.10904196547E+01  0.26620379319E+00  0.36520949376E+00  0.90007636727E+02  0.89999896731E+02 0.  0.
        -12    1    1    2    0    0  0.10904196547E+01 -0.26620379319E+00 -0.36520949376E+00  0.11803632734E+01  0.00000000000E+00 0.  1.
         11    1    3    3    0    0 -0.32368435340E+02  0.12883561743E+02  0.14927924708E+02  0.37901777081E+02  0.51100000000E-03 0. -1.
        -11    1    3    3    0    0 -0.63689134654E+01 -0.34760681920E+01  0.48955984478E+01  0.87528848518E+01  0.51100000000E-03 0.  1.
        -12    1    3    3    0    0  0.37646929151E+02 -0.91412897579E+01 -0.19458313662E+02  0.43352974794E+02  0.00000000000E+00 0.  1.
</event>
<event>
 7    1  0.3743571E-015  0.9000776E+02  0.7816164E-02  0.1186339E+00
        -11   -1    0    0    0    0  0.00000000000E+00  0.00000000000E+00  0.45593999997E+02  0.45594000000E+02  0.51100000000E-03 0.  1.
         11   -1    0    0    0    0 -0.00000000000E+00 -0.00000000000E+00 -0.45593999997E+02  0.45594000000E+02  0.51100000000E-03 0. -1.
    9900012    2    1    2    0    0  0.93360777846E+00 -0.17237940961E-01 -0.72183568540E+00  0.90007759606E+02  0.90000021233E+02 0.  0.
        -12    1    1    2    0    0 -0.93360777846E+00  0.17237940961E-01  0.72183568540E+00  0.11802403939E+01  0.00000000000E+00 0.  1.
         11    1    3    3    0    0  0.38740682501E+01 -0.34862393919E+01  0.78352349161E+01  0.94102697281E+01  0.51100000000E-03 0. -1.
        -11    1    3    3    0    0  0.20512909269E+02 -0.23014081626E+02 -0.26751435538E+02  0.40817480365E+02  0.51100000000E-03 0.  1.
         12    1    3    3    0    0 -0.23453369740E+02  0.26483083077E+02  0.18194364936E+02  0.39780009513E+02  0.00000000000E+00 0. -1.
</event>
<event>
 7    1  0.3743571E-015  0.9000770E+02  0.7816164E-02  0.1186339E+00
        -11   -1    0    0    0    0  0.00000000000E+00  0.00000000000E+00  0.45593999997E+02  0.45594000000E+02  0.51100000000E-03 0.  1.
         11   -1    0    0    0    0 -0.00000000000E+00 -0.00000000000E+00 -0.45593999997E+02  0.45594000000E+02  0.51100000000E-03 0. -1.
    9900012    2    1    2    0    0 -0.39884658018E+00  0.43928617362E+00 -0.10203260933E+01  0.90007696533E+02  0.89999957328E+02 0.  0.
        -12    1    1    2    0    0  0.39884658018E+00 -0.43928617362E+00  0.10203260933E+01  0.11803034667E+01  0.00000000000E+00 0.  1.
         11    1    3    3    0    0  0.31282337951E+01 -0.59788087496E+01 -0.34865393979E+02  0.35512359796E+02  0.51100000000E-03 0. -1.
        -11    1    3    3    0    0  0.28085225179E+01  0.77485612213E+01 -0.83935495598E+01  0.11763489032E+02  0.51100000000E-03 0.  1.
        -12    1    3    3    0    0 -0.63356028931E+01 -0.13304662981E+01  0.42238617445E+02  0.42731847705E+02  0.00000000000E+00 0.  1.
</event>
<event>
 7    1  0.3743571E-015  0.9000768E+02  0.7816164E-02  0.1186339E+00
        -11   -1    0    0    0    0  0.00000000000E+00  0.00000000000E+00  0.45593999997E+02  0.45594000000E+02  0.51100000000E-03 0. -1.
         11   -1    0    0    0    0 -0.00000000000E+00 -0.00000000000E+00 -0.45593999997E+02  0.45594000000E+02  0.51100000000E-03 0.  1.
    9900012    2    1    2    0    0  0.25201222860E+00  0.10798979641E+01  0.40429655114E+00  0.90007684162E+02  0.89999944793E+02 0.  0.
        -12    1    1    2    0    0 -0.25201222860E+00 -0.10798979641E+01 -0.40429655114E+00  0.11803158380E+01  0.00000000000E+00 0.  1.
         11    1    3    3    0    0  0.44343880739E+01 -0.58621487483E+01 -0.67862643738E+01  0.10004097658E+02  0.51100000000E-03 0. -1.
        -11    1    3    3    0    0  0.16003577765E+02  0.38791706999E+02  0.31921015017E+01  0.42084445410E+02  0.51100000000E-03 0.  1.
         12    1    3    3    0    0 -0.20185953610E+02 -0.31849660287E+02  0.39984594232E+01  0.37919141094E+02  0.00000000000E+00 0. -1.
</event>
<event>
 7    1  0.3743571E-015  0.9000772E+02  0.7816164E-02  0.1186339E+00
        -11   -1    0    0    0    0  0.00000000000E+00  0.00000000000E+00  0.45593999997E+02  0.45594000000E+02  0.51100000000E-03 0.  1.
         11   -1    0    0    0    0 -0.00000000000E+00 -0.00000000000E+00 -0.45593999997E+02  0.45594000000E+02  0.51100000000E-03 0. -1.
    9900012    2    1    2    0    0  0.40335092230E+00  0.91277568686E+00 -0.63024830835E+00  0.90007718529E+02  0.89999979613E+02 0.  0.
        -12    1    1    2    0    0 -0.40335092230E+00 -0.91277568686E+00  0.63024830835E+00  0.11802814712E+01  0.00000000000E+00 0.  1.
         11    1    3    3    0    0 -0.35763272252E+02  0.25332554746E+01  0.41824923772E+01  0.36096014575E+02  0.51100000000E-03 0. -1.
        -11    1    3    3    0    0 -0.67570235094E+01 -0.67844204234E+01 -0.47269284459E+01  0.10678463372E+02  0.51100000000E-03 0.  1.
        -12    1    3    3    0    0  0.42923646683E+02  0.51639406357E+01 -0.85812239659E-01  0.43233240582E+02  0.00000000000E+00 0.  1.
</event>
<event>
 7    1  0.3743571E-015  0.9000768E+02  0.7816164E-02  0.1186339E+00
        -11   -1    0    0    0    0  0.00000000000E+00  0.00000000000E+00  0.45593999997E+02  0.45594000000E+02  0.51100000000E-03 0. -1.
         11   -1    0    0    0    0 -0.00000000000E+00 -0.00000000000E+00 -0.45593999997E+02  0.45594000000E+02  0.51100000000E-03 0.  1.
    9900012    2    1    2    0    0 -0.80109240537E+00 -0.22333450057E+00  0.83757882083E+00  0.90007675628E+02  0.89999936147E+02 0.  0.
        -12    1    1    2    0    0  0.80109240537E+00  0.22333450057E+00 -0.83757882083E+00  0.11803243716E+01  0.00000000000E+00 0.  1.
         11    1    3    3    0    0  0.11692108433E+02 -0.36475803718E+02 -0.17215862915E+02  0.41994947228E+02  0.51100000000E-03 0. -1.
        -11    1    3    3    0    0 -0.18407631846E+01  0.33213833403E+01 -0.51094163037E+01  0.63660137937E+01  0.51100000000E-03 0.  1.
        -12    1    3    3    0    0 -0.10652437654E+02  0.32931085877E+02  0.23162858040E+02  0.41646714607E+02  0.00000000000E+00 0.  1.
</event>
<event>
 7    1  0.3743571E-015  0.9000781E+02  0.7816164E-02  0.1186339E+00
        -11   -1    0    0    0    0  0.00000000000E+00  0.00000000000E+00  0.45593999997E+02  0.45594000000E+02  0.51100000000E-03 0.  1.
         11   -1    0    0    0    0 -0.00000000000E+00 -0.00000000000E+00 -0.45593999997E+02  0.45594000000E+02  0.51100000000E-03 0. -1.
    9900012    2    1    2    0    0  0.74000072835E+00 -0.10248789802E+00 -0.91364839750E+00  0.90007805846E+02  0.90000068083E+02 0.  0.
        -12    1    1    2    0    0 -0.74000072835E+00  0.10248789802E+00  0.91364839750E+00  0.11801941541E+01  0.00000000000E+00 0.  1.
         11    1    3    3    0    0  0.74845958390E+00  0.15935130255E+02  0.44367572739E+01  0.16558181765E+02  0.51100000000E-03 0. -1.
        -11    1    3    3    0    0  0.12064251247E+02 -0.12855783056E+02 -0.36147738399E+02  0.40217860557E+02  0.51100000000E-03 0.  1.
         12    1    3    3    0    0 -0.12072710103E+02 -0.31818350970E+01  0.30797332727E+02  0.33231763524E+02  0.00000000000E+00 0. -1.
</event>
<event>
 7    1  0.3743571E-015  0.9000774E+02  0.7816164E-02  0.1186339E+00
        -11   -1    0    0    0    0  0.00000000000E+00  0.00000000000E+00  0.45593999997E+02  0.45594000000E+02  0.51100000000E-03 0. -1.
         11   -1    0    0    0    0 -0.00000000000E+00 -0.00000000000E+00 -0.45593999997E+02  0.45594000000E+02  0.51100000000E-03 0.  1.
    9900012    2    1    2    0    0  0.72055144350E+00 -0.27955422543E+00  0.89199631670E+00  0.90007744783E+02  0.90000006214E+02 0.  0.
        -12    1    1    2    0    0 -0.72055144350E+00  0.27955422543E+00 -0.89199631670E+00  0.11802552168E+01  0.00000000000E+00 0.  1.
         11    1    3    3    0    0 -0.34756428732E+01  0.29532057861E+01  0.37268694415E+02  0.37546732234E+02  0.51100000000E-03 0. -1.
        -11    1    3    3    0    0 -0.22052190151E+01 -0.10014726683E+02  0.40105506301E+01  0.11011006224E+02  0.51100000000E-03 0.  1.
        -12    1    3    3    0    0  0.64014133318E+01  0.67819666715E+01 -0.40387248728E+02  0.41450006326E+02  0.00000000000E+00 0.  1.
</event>
<event>
 7    1  0.3743571E-015  0.9000778E+02  0.7816164E-02  0.1186339E+00
        -11   -1    0    0    0    0  0.00000000000E+00  0.00000000000E+00  0.45593999997E+02  0.45594000000E+02  0.51100000000E-03 0. -1.
         11   -1    0    0    0    0 -0.00000000000E+00 -0.00000000000E+00 -0.45593999997E+02  0.45594000000E+02  0.51100000000E-03 0.  1.
    9900012    2    1    2    0    0 -0.41913242890E+00  0.10978368975E+01  0.10951602538E+00  0.90007783238E+02  0.90000045176E+02 0.  0.
        -12    1    1    2    0    0  0.41913242890E+00 -0.10978368975E+01 -0.10951602538E+00  0.11802167624E+01  0.00000000000E+00 0.  1.
         11    1    3    3    0    0  0.17748736787E+01 -0.12989564768E+02  0.13325731481E+02  0.18693691160E+02  0.51100000000E-03 0. -1.
        -11    1    3    3    0    0 -0.34304141038E+02  0.92028542849E+01  0.17330125777E+01  0.35559386274E+02  0.51100000000E-03 0.  1.
         12    1    3    3    0    0  0.32110134930E+02  0.48845473805E+01 -0.14949228033E+02  0.35754705804E+02  0.00000000000E+00 0. -1.
</event>
<event>
 7    1  0.3743571E-015  0.9000777E+02  0.7816164E-02  0.1186339E+00
        -11   -1    0    0    0    0  0.00000000000E+00  0.00000000000E+00  0.45593999997E+02  0.45594000000E+02  0.51100000000E-03 0. -1.
         11   -1    0    0    0    0 -0.00000000000E+00 -0.00000000000E+00 -0.45593999997E+02  0.45594000000E+02  0.51100000000E-03 0.  1.
    9900012    2    1    2    0    0  0.31383554755E+00  0.14867483486E+00  0.11279844073E+01  0.90007768760E+02  0.90000030507E+02 0.  0.
        -12    1    1    2    0    0 -0.31383554755E+00 -0.14867483486E+00 -0.11279844073E+01  0.11802312403E+01  0.00000000000E+00 0.  1.
         11    1    3    3    0    0  0.42375619235E+01  0.73984673663E+01  0.48901419460E+00  0.85401045409E+01  0.51100000000E-03 0. -1.
        -11    1    3    3    0    0  0.10340292669E+02  0.30180374671E+02 -0.18708860208E+02  0.36983754789E+02  0.51100000000E-03 0.  1.
         12    1    3    3    0    0 -0.14264019045E+02 -0.37430167203E+02  0.19347830421E+02  0.44483909429E+02  0.00000000000E+00 0. -1.
</event>
<event>
 7    1  0.3743571E-015  0.9000768E+02  0.7816164E-02  0.1186339E+00
        -11   -1    0    0    0    0  0.00000000000E+00  0.00000000000E+00  0.45593999997E+02  0.45594000000E+02  0.51100000000E-03 0.  1.
         11   -1    0    0    0    0 -0.00000000000E+00 -0.00000000000E+00 -0.45593999997E+02  0.45594000000E+02  0.51100000000E-03 0. -1.
    9900012    2    1    2    0    0 -0.25876384723E+00 -0.43919120026E+00 -0.10645683931E+01  0.90007680762E+02  0.89999941348E+02 0.  0.
        -12    1    1    2    0    0  0.25876384723E+00  0.43919120026E+00  0.10645683931E+01  0.11803192376E+01  0.00000000000E+00 0.  1.
         11    1    3    3    0    0  0.91737185433E+01 -0.31674063014E-01  0.62511999986E+01  0.11101153852E+02  0.51100000000E-03 0. -1.
        -11    1    3    3    0    0  0.29722577586E+02 -0.14196905579E+02 -0.15805776360E+02  0.36535001204E+02  0.51100000000E-03 0.  1.
         12    1    3    3    0    0 -0.39155059977E+02  0.13789388441E+02  0.84900079686E+01  0.42371525706E+02  0.00000000000E+00 0. -1.
</event>
<event>
 7    1  0.3743571E-015  0.9000769E+02  0.7816164E-02  0.1186339E+00
        -11   -1    0    0    0    0  0.00000000000E+00  0.00000000000E+00  0.45593999997E+02  0.45594000000E+02  0.51100000000E-03 0.  1.
         11   -1    0    0    0    0 -0.00000000000E+00 -0.00000000000E+00 -0.45593999997E+02  0.45594000000E+02  0.51100000000E-03 0. -1.
    9900012    2    1    2    0    0  0.33134348302E+00 -0.23703738874E-01 -0.11326022386E+01  0.90007687244E+02  0.89999947916E+02 0.  0.
        -12    1    1    2    0    0 -0.33134348302E+00  0.23703738874E-01  0.11326022386E+01  0.11803127559E+01  0.00000000000E+00 0.  1.
         11    1    3    3    0    0  0.12271987700E+02 -0.33931578543E+02  0.31281081095E+01  0.36217934302E+02  0.51100000000E-03 0. -1.
        -11    1    3    3    0    0  0.86240879334E+01 -0.21453172990E+01  0.63820102561E+01  0.10941084689E+02  0.51100000000E-03 0.  1.
        -12    1    3    3    0    0 -0.20564732150E+02  0.36053192103E+02 -0.10642720604E+02  0.42848668253E+02  0.00000000000E+00 0.  1.
</event>
<event>
 7    1  0.3743571E-015  0.9000783E+02  0.7816164E-02  0.1186339E+00
        -11   -1    0    0    0    0  0.00000000000E+00  0.00000000000E+00  0.45593999997E+02  0.45594000000E+02  0.51100000000E-03 0.  1.
         11   -1    0    0    0    0 -0.00000000000E+00 -0.00000000000E+00 -0.45593999997E+02  0.45594000000E+02  0.51100000000E-03 0. -1.
    9900012    2    1    2    0    0 -0.14369911175E-01  0.11147451261E+01 -0.38722440604E+00  0.90007828008E+02  0.90000090537E+02 0.  0.
        -12    1    1    2    0    0  0.14369911175E-01 -0.11147451261E+01  0.38722440604E+00  0.11801719922E+01  0.00000000000E+00 0.  1.
         11    1    3    3    0    0 -0.22740578790E+00 -0.38441194489E+00  0.10760974591E+02  0.10770239568E+02  0.51100000000E-03 0. -1.
        -11    1    3    3    0    0  0.28122346581E+02 -0.43015160858E+01  0.21673966682E+02  0.35764930447E+02  0.51100000000E-03 0.  1.
         12    1    3    3    0    0 -0.27909310704E+02  0.58006731568E+01 -0.32822165680E+02  0.43472657993E+02  0.00000000000E+00 0. -1.
</event>
<event>
 7    1  0.3743571E-015  0.9000773E+02  0.7816164E-02  0.1186339E+00
        -11   -1    0    0    0    0  0.00000000000E+00  0.00000000000E+00  0.45593999997E+02  0.45594000000E+02  0.51100000000E-03 0.  1.
         11   -1    0    0    0    0 -0.00000000000E+00 -0.00000000000E+00 -0.45593999997E+02  0.45594000000E+02  0.51100000000E-03 0. -1.
    9900012    2    1    2    0    0 -0.57331109965E-01  0.29020873415E+00 -0.11425991172E+01  0.90007728545E+02  0.89999989762E+02 0.  0.
        -12    1    1    2    0    0  0.57331109965E-01 -0.29020873415E+00  0.11425991172E+01  0.11802714552E+01  0.00000000000E+00 0.  1.
         11    1    3    3    0    0 -0.46827507952E+01  0.47670673113E+01  0.50019989136E+01  0.83470401433E+01  0.51100000000E-03 0. -1.
        -11    1    3    3    0    0  0.38477106949E+02  0.69022827312E+01  0.12928339505E+02  0.41173671547E+02  0.51100000000E-03 0.  1.
         12    1    3    3    0    0 -0.33851687264E+02 -0.11379141308E+02 -0.19072937535E+02  0.40487016854E+02  0.00000000000E+00 0. -1.
</event>
<event>
 7    1  0.3743571E-015  0.9000775E+02  0.7816164E-02  0.1186339E+00
        -11   -1    0    0    0    0  0.00000000000E+00  0.00000000000E+00  0.45593999997E+02  0.45594000000E+02  0.51100000000E-03 0. -1.
         11   -1    0    0    0    0 -0.00000000000E+00 -0.00000000000E+00 -0.45593999997E+02  0.45594000000E+02  0.51100000000E-03 0.  1.
    9900012    2    1    2    0    0 -0.50493990512E+00 -0.98505889895E+00  0.40950236506E+00  0.90007746837E+02  0.90000008295E+02 0.  0.
        -12    1    1    2    0    0  0.50493990512E+00  0.98505889895E+00 -0.40950236506E+00  0.11802531632E+01  0.00000000000E+00 0.  1.
         11    1    3    3    0    0 -0.43560906911E+01  0.47918248782E+01 -0.95290217408E+01  0.11521257196E+02  0.51100000000E-03 0. -1.
        -11    1    3    3    0    0 -0.27571266235E+02 -0.17106060877E+02 -0.16017326422E+02  0.36184897215E+02  0.51100000000E-03 0.  1.
         12    1    3    3    0    0  0.31422417021E+02  0.11329177099E+02  0.25955850528E+02  0.42301592426E+02  0.00000000000E+00 0. -1.
</event>
<event>
 7    1  0.3743571E-015  0.9000758E+02  0.7816164E-02  0.1186339E+00
        -11   -1    0    0    0    0  0.00000000000E+00  0.00000000000E+00  0.45593999997E+02  0.45594000000E+02  0.51100000000E-03 0. -1.
         11   -1    0    0    0    0 -0.00000000000E+00 -0.00000000000E+00 -0.45593999997E+02  0.45594000000E+02  0.51100000000E-03 0.  1.
    9900012    2    1    2    0    0  0.62365064815E+00  0.66937770541E+00  0.74590954381E+00  0.90007581561E+02  0.89999840838E+02 0.  0.
        -12    1    1    2    0    0 -0.62365064815E+00 -0.66937770541E+00 -0.74590954381E+00  0.11804184389E+01  0.00000000000E+00 0.  1.
         11    1    3    3    0    0  0.37369420814E+02  0.74947429738E+01 -0.21351410748E+02  0.43686697351E+02  0.51100000000E-03 0. -1.
        -11    1    3    3    0    0 -0.86338609072E+01  0.23522061866E+01 -0.70824378211E+00  0.89765270358E+01  0.51100000000E-03 0.  1.
        -12    1    3    3    0    0 -0.28111909259E+02 -0.91775714550E+01  0.22805564074E+02  0.37344357174E+02  0.00000000000E+00 0.  1.
</event>
<event>
 7    1  0.3743571E-015  0.9000780E+02  0.7816164E-02  0.1186339E+00
        -11   -1    0    0    0    0  0.00000000000E+00  0.00000000000E+00  0.45593999997E+02  0.45594000000E+02  0.51100000000E-03 0. -1.
         11   -1    0    0    0    0 -0.00000000000E+00 -0.00000000000E+00 -0.45593999997E+02  0.45594000000E+02  0.51100000000E-03 0.  1.
    9900012    2    1    2    0    0  0.23097739834E+00 -0.11125408742E+01 -0.31902893465E+00  0.90007797807E+02  0.90000059938E+02 0.  0.
        -12    1    1    2    0    0 -0.23097739834E+00  0.11125408742E+01  0.31902893465E+00  0.11802021931E+01  0.00000000000E+00 0.  1.
         11    1    3    3    0    0  0.49677308020E+01 -0.32015554971E+01 -0.58565606106E+01  0.83203130571E+01  0.51100000000E-03 0. -1.
        -11    1    3    3    0    0  0.57175953202E+01 -0.18650644842E+00 -0.37196821495E+02  0.37634149526E+02  0.51100000000E-03 0.  1.
         12    1    3    3    0    0 -0.10454348724E+02  0.22755210713E+01  0.42734353171E+02  0.44053335224E+02  0.00000000000E+00 0. -1.
</event>
<event>
 7    1  0.3743571E-015  0.9000776E+02  0.7816164E-02  0.1186339E+00
        -11   -1    0    0    0    0  0.00000000000E+00  0.00000000000E+00  0.45593999997E+02  0.45594000000E+02  0.51100000000E-03 0. -1.
         11   -1    0    0    0    0 -0.00000000000E+00 -0.00000000000E+00 -0.45593999997E+02  0.45594000000E+02  0.51100000000E-03 0.  1.
    9900012    2    1    2    0    0  0.88515073389E+00 -0.48367751794E+00  0.61279834852E+00  0.90007763761E+02  0.90000025443E+02 0.  0.
        -12    1    1    2    0    0 -0.88515073389E+00  0.48367751794E+00 -0.61279834852E+00  0.11802362386E+01  0.00000000000E+00 0.  1.
         11    1    3    3    0    0 -0.13182582285E+01  0.34619469968E+01  0.36756433024E+02  0.36942634593E+02  0.51100000000E-03 0. -1.
        -11    1    3    3    0    0  0.10277209824E+02 -0.81053712820E+01  0.25370416429E+01  0.13332466611E+02  0.51100000000E-03 0.  1.
        -12    1    3    3    0    0 -0.80738008612E+01  0.41597467673E+01 -0.38680676318E+02  0.39732662558E+02  0.00000000000E+00 0.  1.
</event>
<event>
 7    1  0.3743571E-015  0.9000776E+02  0.7816164E-02  0.1186339E+00
        -11   -1    0    0    0    0  0.00000000000E+00  0.00000000000E+00  0.45593999997E+02  0.45594000000E+02  0.51100000000E-03 0.  1.
         11   -1    0    0    0    0 -0.00000000000E+00 -0.00000000000E+00 -0.45593999997E+02  0.45594000000E+02  0.51100000000E-03 0. -1.
    9900012    2    1    2    0    0  0.48906793429E+00  0.55334907367E+00 -0.92064296895E+00  0.90007760144E+02  0.90000021778E+02 0.  0.
        -12    1    1    2    0    0 -0.48906793429E+00 -0.55334907367E+00  0.92064296895E+00  0.11802398561E+01  0.00000000000E+00 0.  1.
         11    1    3    3    0    0  0.28742676369E+02  0.25231924917E+02 -0.64202885423E+01  0.38781588223E+02  0.51100000000E-03 0. -1.
        -11    1    3    3    0    0 -0.36058289522E+01  0.72850110553E+01 -0.49696480793E+01  0.95273706133E+01  0.51100000000E-03 0.  1.
        -12    1    3    3    0    0 -0.24647779483E+02 -0.31963586899E+02  0.10469293653E+02  0.41698801307E+02  0.00000000000E+00 0.  1.
</event>
<event>
 7    1  0.3743571E-015  0.9000779E+02  0.7816164E-02  0.1186339E+00
        -11   -1    0    0    0    0  0.00000000000E+00  0.00000000000E+00  0.45593999997E+02  0.45594000000E+02  0.51100000000E-03 0. -1.
         11   -1    0    0    0    0 -0.00000000000E+00 -0.00000000000E+00 -0.45593999997E+02  0.45594000000E+02  0.51100000000E-03 0.  1.
    9900012    2    1    2    0    0  0.11567453526E+01  0.21272736741E+00 -0.97844131931E-01  0.90007793993E+02  0.90000056074E+02 0.  0.
        -12    1    1    2    0    0 -0.11567453526E+01 -0.21272736741E+00  0.97844131931E-01  0.11802060065E+01  0.00000000000E+00 0.  1.
         11    1    3    3    0    0 -0.75807890983E+01 -0.93462641959E+01  0.40160974211E+02  0.41925229488E+02  0.51100000000E-03 0. -1.
        -11    1    3    3    0    0  0.93384681841E+01 -0.14919559715E+01 -0.41710498360E+01  0.10335887850E+02  0.51100000000E-03 0.  1.
        -12    1    3    3    0    0 -0.60093373318E+00  0.11050947535E+02 -0.36087768507E+02  0.37746676656E+02  0.00000000000E+00 0.  1.
</event>
<event>
 7    1  0.3743571E-015  0.9000777E+02  0.7816164E-02  0.1186339E+00
        -11   -1    0    0    0    0  0.00000000000E+00  0.00000000000E+00  0.45593999997E+02  0.45594000000E+02  0.51100000000E-03 0.  1.
         11   -1    0    0    0    0 -0.00000000000E+00 -0.00000000000E+00 -0.45593999997E+02  0.45594000000E+02  0.51100000000E-03 0. -1.
    9900012    2    1    2    0    0  0.29860638735E+00  0.10250506888E+01 -0.50304125545E+00  0.90007769008E+02  0.90000030759E+02 0.  0.
        -12    1    1    2    0    0 -0.29860638735E+00 -0.10250506888E+01  0.50304125545E+00  0.11802309918E+01  0.00000000000E+00 0.  1.
         11    1    3    3    0    0  0.40129329900E+00 -0.76872033404E+01  0.66815973936E+01  0.10193030732E+02  0.51100000000E-03 0. -1.
        -11    1    3    3    0    0  0.24946292411E+02 -0.13719175074E+02  0.21452865595E+02  0.35647702763E+02  0.51100000000E-03 0.  1.
         12    1    3    3    0    0 -0.25048979323E+02  0.22431429104E+02 -0.28637504244E+02  0.44167035514E+02  0.00000000000E+00 0. -1.
</event>
<event>
 7    1  0.3743571E-015  0.9000777E+02  0.7816164E-02  0.1186339E+00
        -11   -1    0    0    0    0  0.00000000000E+00  0.00000000000E+00  0.45593999997E+02  0.45594000000E+02  0.51100000000E-03 0.  1.
         11   -1    0    0    0    0 -0.00000000000E+00 -0.00000000000E+00 -0.45593999997E+02  0.45594000000E+02  0.51100000000E-03 0. -1.
    9900012    2    1    2    0    0 -0.22625103156E+00 -0.92964541165E-01 -0.11546086661E+01  0.90007765656E+02  0.90000027363E+02 0.  0.
        -12    1    1    2    0    0  0.22625103156E+00  0.92964541165E-01  0.11546086661E+01  0.11802343441E+01  0.00000000000E+00 0.  1.
         11    1    3    3    0    0  0.25676536236E+01 -0.82919026214E+01 -0.25374420553E+01  0.90436224301E+01  0.51100000000E-03 0. -1.
        -11    1    3    3    0    0  0.27652045751E+02 -0.16069309675E+02  0.20089927131E+02  0.37768551998E+02  0.51100000000E-03 0.  1.
         12    1    3    3    0    0 -0.30445950406E+02  0.24268247756E+02 -0.18707093741E+02  0.43195591228E+02  0.00000000000E+00 0. -1.
</event>
<event>
 7    1  0.3743571E-015  0.9000767E+02  0.7816164E-02  0.1186339E+00
        -11   -1    0    0    0    0  0.00000000000E+00  0.00000000000E+00  0.45593999997E+02  0.45594000000E+02  0.51100000000E-03 0.  1.
         11   -1    0    0    0    0 -0.00000000000E+00 -0.00000000000E+00 -0.45593999997E+02  0.45594000000E+02  0.51100000000E-03 0. -1.
    9900012    2    1    2    0    0 -0.11589493722E+01 -0.25678692230E-01  0.22215933247E+00  0.90007670465E+02  0.89999930915E+02 0.  0.
        -12    1    1    2    0    0  0.11589493722E+01  0.25678692230E-01 -0.22215933247E+00  0.11803295352E+01  0.00000000000E+00 0.  1.
         11    1    3    3    0    0 -0.17085281990E+01 -0.38332595895E+01 -0.80537895302E+01  0.90816558922E+01  0.51100000000E-03 0. -1.
        -11    1    3    3    0    0 -0.29330819317E+02  0.20043258580E+02 -0.16182765164E+02  0.39037303505E+02  0.51100000000E-03 0.  1.
         12    1    3    3    0    0  0.29880398144E+02 -0.16235677683E+02  0.24458714027E+02  0.41888711068E+02  0.00000000000E+00 0. -1.
</event>
<event>
 7    1  0.3743571E-015  0.9000771E+02  0.7816164E-02  0.1186339E+00
        -11   -1    0    0    0    0  0.00000000000E+00  0.00000000000E+00  0.45593999997E+02  0.45594000000E+02  0.51100000000E-03 0. -1.
         11   -1    0    0    0    0 -0.00000000000E+00 -0.00000000000E+00 -0.45593999997E+02  0.45594000000E+02  0.51100000000E-03 0.  1.
    9900012    2    1    2    0    0 -0.11228058023E+01  0.87918434598E-01  0.35307664482E+00  0.90007709511E+02  0.89999970477E+02 0.  0.
        -12    1    1    2    0    0  0.11228058023E+01 -0.87918434598E-01 -0.35307664482E+00  0.11802904888E+01  0.00000000000E+00 0.  1.
         11    1    3    3    0    0  0.35359183657E+02 -0.44024234962E+01  0.22130489026E+02  0.41945342368E+02  0.51100000000E-03 0. -1.
        -11    1    3    3    0    0  0.78991685978E+00  0.95671405435E+00 -0.81135322219E+01  0.82078423355E+01  0.51100000000E-03 0.  1.
        -12    1    3    3    0    0 -0.37271906319E+02  0.35336278764E+01 -0.13663880160E+02  0.39854524808E+02  0.00000000000E+00 0.  1.
</event>
<event>
 7    1  0.3743571E-015  0.9000762E+02  0.7816164E-02  0.1186339E+00
        -11   -1    0    0    0    0  0.00000000000E+00  0.00000000000E+00  0.45593999997E+02  0.45594000000E+02  0.51100000000E-03 0.  1.
         11   -1    0    0    0    0 -0.00000000000E+00 -0.00000000000E+00 -0.45593999997E+02  0.45594000000E+02  0.51100000000E-03 0. -1.
    9900012    2    1    2    0    0 -0.47000211148E+00 -0.10704497484E+01  0.16291919806E+00  0.90007615608E+02  0.89999875334E+02 0.  0.
        -12    1    1    2    0    0  0.47000211148E+00  0.10704497484E+01 -0.16291919806E+00  0.11803843923E+01  0.00000000000E+00 0.  1.
         11    1    3    3    0    0 -0.33138195178E+01 -0.56937158252E+01  0.66494842610E+01  0.93603120084E+01  0.51100000000E-03 0. -1.
        -11    1    3    3    0    0 -0.58869248282E+00 -0.22811437951E+01  0.36701146613E+02  0.36776681999E+02  0.51100000000E-03 0.  1.
         12    1    3    3    0    0  0.34325098891E+01  0.69044098719E+01 -0.43187711676E+02  0.43870621601E+02  0.00000000000E+00 0. -1.
</event>
<event>
 7    1  0.3743571E-015  0.9000765E+02  0.7816164E-02  0.1186339E+00
        -11   -1    0    0    0    0  0.00000000000E+00  0.00000000000E+00  0.45593999997E+02  0.45594000000E+02  0.51100000000E-03 0.  1.
         11   -1    0    0    0    0 -0.00000000000E+00 -0.00000000000E+00 -0.45593999997E+02  0.45594000000E+02  0.51100000000E-03 0. -1.
    9900012    2    1    2    0    0 -0.97073981062E+00 -0.18417092492E+00 -0.64573787524E+00  0.90007647462E+02  0.89999907609E+02 0.  0.
        -12    1    1    2    0    0  0.97073981062E+00  0.18417092492E+00  0.64573787524E+00  0.11803525376E+01  0.00000000000E+00 0.  1.
         11    1    3    3    0    0  0.35345124865E+01 -0.36685474758E+01  0.72365152703E+01  0.88497555117E+01  0.51100000000E-03 0. -1.
        -11    1    3    3    0    0  0.32376836276E+02  0.22047677133E+02 -0.74061159110E+01  0.39864898687E+02  0.51100000000E-03 0.  1.
         12    1    3    3    0    0 -0.36882088573E+02 -0.18563300582E+02 -0.47613723456E+00  0.41292993264E+02  0.00000000000E+00 0. -1.
</event>
<event>
 7    1  0.3743571E-015  0.9000842E+02  0.7816164E-02  0.1186338E+00
        -11   -1    0    0    0    0  0.00000000000E+00  0.00000000000E+00  0.45593999997E+02  0.45594000000E+02  0.51100000000E-03 0.  1.
         11   -1    0    0    0    0 -0.00000000000E+00 -0.00000000000E+00 -0.45593999997E+02  0.45594000000E+02  0.51100000000E-03 0. -1.
    9900012    2    1    2    0    0 -0.79881444837E+00 -0.86405537747E+00  0.81915787780E-01  0.90008421086E+02  0.90000691442E+02 0.  0.
        -12    1    1    2    0    0  0.79881444837E+00  0.86405537747E+00 -0.81915787780E-01  0.11795789141E+01  0.00000000000E+00 0.  1.
         11    1    3    3    0    0 -0.17962224194E+02 -0.21046019545E+02 -0.83779094152E+01  0.28909614372E+02  0.51100000000E-03 0. -1.
        -11    1    3    3    0    0 -0.15623930877E+02  0.20438471548E+01  0.16457803329E+02  0.22784727734E+02  0.51100000000E-03 0.  1.
        -12    1    3    3    0    0  0.32787340623E+02  0.18138117013E+02 -0.79979781259E+01  0.38314078979E+02  0.00000000000E+00 0.  1.
</event>
<event>
 7    1  0.3743571E-015  0.9000774E+02  0.7816164E-02  0.1186339E+00
        -11   -1    0    0    0    0  0.00000000000E+00  0.00000000000E+00  0.45593999997E+02  0.45594000000E+02  0.51100000000E-03 0.  1.
         11   -1    0    0    0    0 -0.00000000000E+00 -0.00000000000E+00 -0.45593999997E+02  0.45594000000E+02  0.51100000000E-03 0. -1.
    9900012    2    1    2    0    0 -0.62244323401E+00  0.27783283034E+00 -0.96352594625E+00  0.90007742015E+02  0.90000003410E+02 0.  0.
        -12    1    1    2    0    0  0.62244323401E+00 -0.27783283034E+00  0.96352594625E+00  0.11802579846E+01  0.00000000000E+00 0.  1.
         11    1    3    3    0    0  0.83968898783E+01  0.66867249606E+01 -0.34034125327E+01  0.11260695691E+02  0.51100000000E-03 0. -1.
        -11    1    3    3    0    0 -0.76019511304E+00 -0.22476414099E+02  0.34946535935E+02  0.41557519915E+02  0.51100000000E-03 0.  1.
         12    1    3    3    0    0 -0.82591379992E+01  0.16067521969E+02 -0.32506649348E+02  0.37189526409E+02  0.00000000000E+00 0. -1.
</event>
<event>
 7    1  0.3743571E-015  0.9000789E+02  0.7816164E-02  0.1186339E+00
        -11   -1    0    0    0    0  0.00000000000E+00  0.00000000000E+00  0.45593999997E+02  0.45594000000E+02  0.51100000000E-03 0. -1.
         11   -1    0    0    0    0 -0.00000000000E+00 -0.00000000000E+00 -0.45593999997E+02  0.45594000000E+02  0.51100000000E-03 0.  1.
    9900012    2    1    2    0    0  0.10855461656E+01  0.23523936877E-02  0.46286681554E+00  0.90007889115E+02  0.90000152451E+02 0.  0.
        -12    1    1    2    0    0 -0.10855461656E+01 -0.23523936877E-02 -0.46286681554E+00  0.11801108848E+01  0.00000000000E+00 0.  1.
         11    1    3    3    0    0 -0.16628597307E+02  0.16761154307E+02  0.18266704891E+02  0.29851617208E+02  0.51100000000E-03 0. -1.
        -11    1    3    3    0    0 -0.12772746687E+02  0.82713209013E+01 -0.13739179406E+02  0.20501776957E+02  0.51100000000E-03 0.  1.
        -12    1    3    3    0    0  0.30486890160E+02 -0.25030122814E+02 -0.40646586695E+01  0.39654494951E+02  0.00000000000E+00 0.  1.
</event>
<event>
 7    1  0.3743571E-015  0.9000786E+02  0.7816164E-02  0.1186339E+00
        -11   -1    0    0    0    0  0.00000000000E+00  0.00000000000E+00  0.45593999997E+02  0.45594000000E+02  0.51100000000E-03 0. -1.
         11   -1    0    0    0    0 -0.00000000000E+00 -0.00000000000E+00 -0.45593999997E+02  0.45594000000E+02  0.51100000000E-03 0.  1.
    9900012    2    1    2    0    0  0.14376784202E+00 -0.34719197489E+00  0.11187120915E+01  0.90007860939E+02  0.90000123903E+02 0.  0.
        -12    1    1    2    0    0 -0.14376784202E+00  0.34719197489E+00 -0.11187120915E+01  0.11801390611E+01  0.00000000000E+00 0.  1.
         11    1    3    3    0    0 -0.37121269253E+00 -0.32736835945E+01  0.95735526890E+01  0.10124609350E+02  0.51100000000E-03 0. -1.
        -11    1    3    3    0    0 -0.23331121542E+02  0.20563000939E+02 -0.30010503135E+02  0.43218150571E+02  0.51100000000E-03 0.  1.
         12    1    3    3    0    0  0.23846102077E+02 -0.17636509320E+02  0.21555662538E+02  0.36665101018E+02  0.00000000000E+00 0. -1.
</event>
<event>
 7    1  0.3743571E-015  0.9000776E+02  0.7816164E-02  0.1186339E+00
        -11   -1    0    0    0    0  0.00000000000E+00  0.00000000000E+00  0.45593999997E+02  0.45594000000E+02  0.51100000000E-03 0.  1.
         11   -1    0    0    0    0 -0.00000000000E+00 -0.00000000000E+00 -0.45593999997E+02  0.45594000000E+02  0.51100000000E-03 0. -1.
    9900012    2    1    2    0    0  0.48192082349E+00  0.99844411322E+00 -0.40476641549E+00  0.90007756729E+02  0.90000018318E+02 0.  0.
        -12    1    1    2    0    0 -0.48192082349E+00 -0.99844411322E+00  0.40476641549E+00  0.11802432709E+01  0.00000000000E+00 0.  1.
         11    1    3    3    0    0 -0.19310482801E+02 -0.73030023127E+01 -0.35231088293E+02  0.40834521809E+02  0.51100000000E-03 0. -1.
        -11    1    3    3    0    0 -0.51703486373E+01  0.70267563884E+01  0.43209642934E+01  0.97354272150E+01  0.51100000000E-03 0.  1.
        -12    1    3    3    0    0  0.24962752262E+02  0.12746900375E+01  0.30505357585E+02  0.39437807705E+02  0.00000000000E+00 0.  1.
</event>
<event>
 7    1  0.3743571E-015  0.9000774E+02  0.7816164E-02  0.1186339E+00
        -11   -1    0    0    0    0  0.00000000000E+00  0.00000000000E+00  0.45593999997E+02  0.45594000000E+02  0.51100000000E-03 0. -1.
         11   -1    0    0    0    0 -0.00000000000E+00 -0.00000000000E+00 -0.45593999997E+02  0.45594000000E+02  0.51100000000E-03 0.  1.
    9900012    2    1    2    0    0  0.73108252654E+00  0.89244427626E+00  0.24913180751E+00  0.90007743628E+02  0.90000005044E+02 0.  0.
        -12    1    1    2    0    0 -0.73108252654E+00 -0.89244427626E+00 -0.24913180751E+00  0.11802563723E+01  0.00000000000E+00 0.  1.
         11    1    3    3    0    0  0.36146325745E+02 -0.12640108842E+02  0.36246062238E+01  0.38463839992E+02  0.51100000000E-03 0. -1.
        -11    1    3    3    0    0  0.31697514160E+01  0.10585042591E+02 -0.63294552950E+01  0.12733909662E+02  0.51100000000E-03 0.  1.
        -12    1    3    3    0    0 -0.38584994634E+02  0.29475105279E+01  0.29539808787E+01  0.38809993974E+02  0.00000000000E+00 0.  1.
</event>
<event>
 7    1  0.3743571E-015  0.9000777E+02  0.7816164E-02  0.1186339E+00
        -11   -1    0    0    0    0  0.00000000000E+00  0.00000000000E+00  0.45593999997E+02  0.45594000000E+02  0.51100000000E-03 0. -1.
         11   -1    0    0    0    0 -0.00000000000E+00 -0.00000000000E+00 -0.45593999997E+02  0.45594000000E+02  0.51100000000E-03 0.  1.
    9900012    2    1    2    0    0  0.93571062383E+00  0.48405797472E+00 -0.53205359707E+00  0.90007768021E+02  0.90000029759E+02 0.  0.
        -12    1    1    2    0    0 -0.93571062383E+00 -0.48405797472E+00  0.53205359707E+00  0.11802319791E+01  0.00000000000E+00 0.  1.
         11    1    3    3    0    0 -0.57266130936E+01 -0.70966681889E+01  0.64036868381E+01  0.11142890213E+02  0.51100000000E-03 0. -1.
        -11    1    3    3    0    0 -0.20380876784E+02  0.33441617176E+02 -0.12334461699E+02  0.41059235788E+02  0.51100000000E-03 0.  1.
         12    1    3    3    0    0  0.27043200502E+02 -0.25860891012E+02  0.53987212633E+01  0.37805642021E+02  0.00000000000E+00 0. -1.
</event>
<event>
 7    1  0.3743571E-015  0.9000724E+02  0.7816164E-02  0.1186340E+00
        -11   -1    0    0    0    0  0.00000000000E+00  0.00000000000E+00  0.45593999997E+02  0.45594000000E+02  0.51100000000E-03 0.  1.
         11   -1    0    0    0    0 -0.00000000000E+00 -0.00000000000E+00 -0.45593999997E+02  0.45594000000E+02  0.51100000000E-03 0. -1.
    9900012    2    1    2    0    0  0.10113016642E+01  0.51639830893E+00 -0.32372071329E+00  0.90007240342E+02  0.89999495113E+02 0.  0.
        -12    1    1    2    0    0 -0.10113016642E+01 -0.51639830893E+00  0.32372071329E+00  0.11807596579E+01  0.00000000000E+00 0.  1.
         11    1    3    3    0    0  0.48438075467E+00 -0.63643235250E+01 -0.88514458246E+01  0.10912714240E+02  0.51100000000E-03 0. -1.
        -11    1    3    3    0    0  0.28760169807E+02  0.29822900356E+02 -0.11592479418E+01  0.41447516319E+02  0.51100000000E-03 0.  1.
         12    1    3    3    0    0 -0.28233248898E+02 -0.22942178522E+02  0.96869730532E+01  0.37647009783E+02  0.00000000000E+00 0. -1.
</event>
<event>
 7    1  0.3743571E-015  0.9000778E+02  0.7816164E-02  0.1186339E+00
        -11   -1    0    0    0    0  0.00000000000E+00  0.00000000000E+00  0.45593999997E+02  0.45594000000E+02  0.51100000000E-03 0.  1.
         11   -1    0    0    0    0 -0.00000000000E+00 -0.00000000000E+00 -0.45593999997E+02  0.45594000000E+02  0.51100000000E-03 0. -1.
    9900012    2    1    2    0    0 -0.70263808050E+00 -0.70292824475E+00 -0.63647684002E+00  0.90007783428E+02  0.90000045369E+02 0.  0.
        -12    1    1    2    0    0  0.70263808050E+00  0.70292824475E+00  0.63647684002E+00  0.11802165722E+01  0.00000000000E+00 0.  1.
         11    1    3    3    0    0 -0.92836212346E+01  0.37446109271E+02  0.24135347359E+01  0.38655166187E+02  0.51100000000E-03 0. -1.
        -11    1    3    3    0    0  0.74891359909E+01  0.25642550772E+01  0.56250848841E+01  0.97110319846E+01  0.51100000000E-03 0.  1.
        -12    1    3    3    0    0  0.10918471631E+01 -0.40713292593E+02 -0.86750964601E+01  0.41641585256E+02  0.00000000000E+00 0.  1.
</event>
<event>
 7    1  0.3743571E-015  0.9000773E+02  0.7816164E-02  0.1186339E+00
        -11   -1    0    0    0    0  0.00000000000E+00  0.00000000000E+00  0.45593999997E+02  0.45594000000E+02  0.51100000000E-03 0. -1.
         11   -1    0    0    0    0 -0.00000000000E+00 -0.00000000000E+00 -0.45593999997E+02  0.45594000000E+02  0.51100000000E-03 0.  1.
    9900012    2    1    2    0    0  0.10409886785E+01 -0.46723558387E+00  0.30179710603E+00  0.90007725450E+02  0.89999986626E+02 0.  0.
        -12    1    1    2    0    0 -0.10409886785E+01  0.46723558387E+00 -0.30179710603E+00  0.11802745497E+01  0.00000000000E+00 0.  1.
         11    1    3    3    0    0  0.47149470756E+01  0.55530261693E+01 -0.58035617719E+01  0.93138689632E+01  0.51100000000E-03 0. -1.
        -11    1    3    3    0    0 -0.10444694988E+02 -0.40681700342E+02 -0.78348630215E+01  0.42725606782E+02  0.51100000000E-03 0.  1.
         12    1    3    3    0    0  0.67707365904E+01  0.34661438589E+02  0.13940221899E+02  0.37968249705E+02  0.00000000000E+00 0. -1.
</event>
<event>
 7    1  0.3743571E-015  0.9000785E+02  0.7816164E-02  0.1186339E+00
        -11   -1    0    0    0    0  0.00000000000E+00  0.00000000000E+00  0.45593999997E+02  0.45594000000E+02  0.51100000000E-03 0. -1.
         11   -1    0    0    0    0 -0.00000000000E+00 -0.00000000000E+00 -0.45593999997E+02  0.45594000000E+02  0.51100000000E-03 0.  1.
    9900012    2    1    2    0    0  0.47313504285E-01  0.62085573693E+00  0.10025274991E+01  0.90007846705E+02  0.90000109481E+02 0.  0.
        -12    1    1    2    0    0 -0.47313504285E-01 -0.62085573693E+00 -0.10025274991E+01  0.11801532952E+01  0.00000000000E+00 0.  1.
         11    1    3    3    0    0  0.10873715099E+02 -0.20236913113E+02  0.27699389533E+02  0.35986476810E+02  0.51100000000E-03 0. -1.
        -11    1    3    3    0    0  0.79962177636E+01 -0.10708870068E+01  0.62432451300E+01  0.10201196377E+02  0.51100000000E-03 0.  1.
        -12    1    3    3    0    0 -0.18822619359E+02  0.21928655857E+02 -0.32940107164E+02  0.43820173518E+02  0.00000000000E+00 0.  1.
</event>
<event>
 7    1  0.3743571E-015  0.9000773E+02  0.7816164E-02  0.1186339E+00
        -11   -1    0    0    0    0  0.00000000000E+00  0.00000000000E+00  0.45593999997E+02  0.45594000000E+02  0.51100000000E-03 0. -1.
         11   -1    0    0    0    0 -0.00000000000E+00 -0.00000000000E+00 -0.45593999997E+02  0.45594000000E+02  0.51100000000E-03 0.  1.
    9900012    2    1    2    0    0  0.22786680132E+00 -0.11103779556E+01 -0.32888894141E+00  0.90007732903E+02  0.89999994178E+02 0.  0.
        -12    1    1    2    0    0 -0.22786680132E+00  0.11103779556E+01  0.32888894141E+00  0.11802670966E+01  0.00000000000E+00 0.  1.
         11    1    3    3    0    0  0.34822059227E+02  0.13159649605E+02  0.12650377703E+02  0.39316462746E+02  0.51100000000E-03 0. -1.
        -11    1    3    3    0    0  0.44005011839E+01 -0.60328542102E+01 -0.72834443032E+01  0.10431121789E+02  0.51100000000E-03 0.  1.
        -12    1    3    3    0    0 -0.38994693610E+02 -0.82371733504E+01 -0.56958223409E+01  0.40260148369E+02  0.00000000000E+00 0.  1.
</event>
<event>
 7    1  0.3743571E-015  0.9000776E+02  0.7816164E-02  0.1186339E+00
        -11   -1    0    0    0    0  0.00000000000E+00  0.00000000000E+00  0.45593999997E+02  0.45594000000E+02  0.51100000000E-03 0.  1.
         11   -1    0    0    0    0 -0.00000000000E+00 -0.00000000000E+00 -0.45593999997E+02  0.45594000000E+02  0.51100000000E-03 0. -1.
    9900012    2    1    2    0    0 -0.16238932078E+00 -0.11482140294E+01  0.21955190388E+00  0.90007759013E+02  0.90000020632E+02 0.  0.
        -12    1    1    2    0    0  0.16238932078E+00  0.11482140294E+01 -0.21955190388E+00  0.11802409870E+01  0.00000000000E+00 0.  1.
         11    1    3    3    0    0  0.29580739045E+01  0.65834663962E+01  0.84371696982E+01  0.11103065513E+02  0.51100000000E-03 0. -1.
        -11    1    3    3    0    0  0.23828810663E+02 -0.84037937238E+01  0.25390661735E+02  0.35820687740E+02  0.51100000000E-03 0.  1.
         12    1    3    3    0    0 -0.26949273888E+02  0.67211329826E+00 -0.33608279529E+02  0.43084005760E+02  0.00000000000E+00 0. -1.
</event>
<event>
 7    1  0.3743571E-015  0.9000768E+02  0.7816164E-02  0.1186339E+00
        -11   -1    0    0    0    0  0.00000000000E+00  0.00000000000E+00  0.45593999997E+02  0.45594000000E+02  0.51100000000E-03 0. -1.
         11   -1    0    0    0    0 -0.00000000000E+00 -0.00000000000E+00 -0.45593999997E+02  0.45594000000E+02  0.51100000000E-03 0.  1.
    9900012    2    1    2    0    0 -0.11014829310E+01  0.11666336148E+00  0.40776295920E+00  0.90007684102E+02  0.89999944733E+02 0.  0.
        -12    1    1    2    0    0  0.11014829310E+01 -0.11666336148E+00 -0.40776295920E+00  0.11803158975E+01  0.00000000000E+00 0.  1.
         11    1    3    3    0    0  0.10071186530E+02  0.12683855910E+01  0.12970872917E+01  0.10233280795E+02  0.51100000000E-03 0. -1.
        -11    1    3    3    0    0  0.11192461485E+01 -0.39468290044E+02 -0.17855876510E+01  0.39524510806E+02  0.51100000000E-03 0.  1.
         12    1    3    3    0    0 -0.12291915609E+02  0.38316567815E+02  0.89626331845E+00  0.40249892501E+02  0.00000000000E+00 0. -1.
</event>
<event>
 7    1  0.3743571E-015  0.9000790E+02  0.7816164E-02  0.1186339E+00
        -11   -1    0    0    0    0  0.00000000000E+00  0.00000000000E+00  0.45593999997E+02  0.45594000000E+02  0.51100000000E-03 0.  1.
         11   -1    0    0    0    0 -0.00000000000E+00 -0.00000000000E+00 -0.45593999997E+02  0.45594000000E+02  0.51100000000E-03 0. -1.
    9900012    2    1    2    0    0 -0.27445881073E+00  0.11423675942E+01 -0.11097419874E+00  0.90007895500E+02  0.90000158920E+02 0.  0.
        -12    1    1    2    0    0  0.27445881073E+00 -0.11423675942E+01  0.11097419874E+00  0.11801045004E+01  0.00000000000E+00 0.  1.
         11    1    3    3    0    0  0.21825384912E+01 -0.46802543256E+01  0.82781626747E+01  0.97568556589E+01  0.51100000000E-03 0. -1.
        -11    1    3    3    0    0  0.61855720775E+00  0.36674616407E+02 -0.25656262966E+02  0.44762193102E+02  0.51100000000E-03 0.  1.
         12    1    3    3    0    0 -0.30755545096E+01 -0.30851994487E+02  0.17267126092E+02  0.35488846739E+02  0.00000000000E+00 0. -1.
</event>
<event>
 7    1  0.3743571E-015  0.9000779E+02  0.7816164E-02  0.1186339E+00
        -11   -1    0    0    0    0  0.00000000000E+00  0.00000000000E+00  0.45593999997E+02  0.45594000000E+02  0.51100000000E-03 0. -1.
         11   -1    0    0    0    0 -0.00000000000E+00 -0.00000000000E+00 -0.45593999997E+02  0.45594000000E+02  0.51100000000E-03 0.  1.
    9900012    2    1    2    0    0  0.64731852447E+00  0.65441625917E+00  0.73865203586E+00  0.90007792924E+02  0.90000054990E+02 0.  0.
        -12    1    1    2    0    0 -0.64731852447E+00 -0.65441625917E+00 -0.73865203586E+00  0.11802070761E+01  0.00000000000E+00 0.  1.
         11    1    3    3    0    0 -0.28539916283E+02  0.12648950785E+02  0.17960291732E+02  0.36015203134E+02  0.51100000000E-03 0. -1.
        -11    1    3    3    0    0  0.10812152136E+01 -0.99883477508E+01  0.10452451657E+02  0.14497926163E+02  0.51100000000E-03 0.  1.
        -12    1    3    3    0    0  0.28106019594E+02 -0.20061867747E+01 -0.27674091353E+02  0.39494663627E+02  0.00000000000E+00 0.  1.
</event>
<event>
 7    1  0.3743571E-015  0.9000783E+02  0.7816164E-02  0.1186339E+00
        -11   -1    0    0    0    0  0.00000000000E+00  0.00000000000E+00  0.45593999997E+02  0.45594000000E+02  0.51100000000E-03 0. -1.
         11   -1    0    0    0    0 -0.00000000000E+00 -0.00000000000E+00 -0.45593999997E+02  0.45594000000E+02  0.51100000000E-03 0.  1.
    9900012    2    1    2    0    0 -0.28724294404E+00  0.11271980176E+01 -0.19931989109E+00  0.90007825310E+02  0.90000087804E+02 0.  0.
        -12    1    1    2    0    0  0.28724294404E+00 -0.11271980176E+01  0.19931989109E+00  0.11801746899E+01  0.00000000000E+00 0.  1.
         11    1    3    3    0    0  0.30185137120E+02  0.93091649329E+01  0.15204091956E+02  0.35056632285E+02  0.51100000000E-03 0. -1.
        -11    1    3    3    0    0  0.98992945819E+01 -0.44984240549E+01  0.15996339325E+01  0.10990481390E+02  0.51100000000E-03 0.  1.
        -12    1    3    3    0    0 -0.40371674646E+02 -0.36835428604E+01 -0.17003045779E+02  0.43960711635E+02  0.00000000000E+00 0.  1.
</event>
<event>
 7    1  0.3743571E-015  0.9000764E+02  0.7816164E-02  0.1186339E+00
        -11   -1    0    0    0    0  0.00000000000E+00  0.00000000000E+00  0.45593999997E+02  0.45594000000E+02  0.51100000000E-03 0.  1.
         11   -1    0    0    0    0 -0.00000000000E+00 -0.00000000000E+00 -0.45593999997E+02  0.45594000000E+02  0.51100000000E-03 0. -1.
    9900012    2    1    2    0    0  0.30645019322E+00  0.56439400015E+00 -0.99034702998E+00  0.90007644313E+02  0.89999904418E+02 0.  0.
        -12    1    1    2    0    0 -0.30645019322E+00 -0.56439400015E+00  0.99034702998E+00  0.11803556871E+01  0.00000000000E+00 0.  1.
         11    1    3    3    0    0  0.39152522523E+02  0.74348328263E+01 -0.11308546324E+02  0.41425595702E+02  0.51100000000E-03 0. -1.
        -11    1    3    3    0    0 -0.33802850267E+01  0.82465611972E+01  0.22880409312E+01  0.92014797725E+01  0.51100000000E-03 0.  1.
        -12    1    3    3    0    0 -0.35465787303E+02 -0.15117000023E+02  0.80301583624E+01  0.39380568838E+02  0.00000000000E+00 0.  1.
</event>
<event>
 7    1  0.3743571E-015  0.9000774E+02  0.7816164E-02  0.1186339E+00
        -11   -1    0    0    0    0  0.00000000000E+00  0.00000000000E+00  0.45593999997E+02  0.45594000000E+02  0.51100000000E-03 0.  1.
         11   -1    0    0    0    0 -0.00000000000E+00 -0.00000000000E+00 -0.45593999997E+02  0.45594000000E+02  0.51100000000E-03 0. -1.
    9900012    2    1    2    0    0 -0.15864150225E+00 -0.61531575342E+00 -0.99460615718E+00  0.90007736466E+02  0.89999997787E+02 0.  0.
        -12    1    1    2    0    0  0.15864150225E+00  0.61531575342E+00  0.99460615718E+00  0.11802635344E+01  0.00000000000E+00 0.  1.
         11    1    3    3    0    0  0.14830746432E+01  0.44187783808E+01  0.75333844816E+01  0.88587242188E+01  0.51100000000E-03 0. -1.
        -11    1    3    3    0    0  0.12259534188E+02  0.35635349016E+02 -0.51738601076E+01  0.38038705375E+02  0.51100000000E-03 0.  1.
         12    1    3    3    0    0 -0.13901250333E+02 -0.40669443150E+02 -0.33541305312E+01  0.43110306872E+02  0.00000000000E+00 0. -1.
</event>
<event>
 7    1  0.3743571E-015  0.9000769E+02  0.7816164E-02  0.1186339E+00
        -11   -1    0    0    0    0  0.00000000000E+00  0.00000000000E+00  0.45593999997E+02  0.45594000000E+02  0.51100000000E-03 0.  1.
         11   -1    0    0    0    0 -0.00000000000E+00 -0.00000000000E+00 -0.45593999997E+02  0.45594000000E+02  0.51100000000E-03 0. -1.
    9900012    2    1    2    0    0  0.51913659504E+00 -0.10570092422E+01 -0.79708261897E-01  0.90007692943E+02  0.89999953690E+02 0.  0.
        -12    1    1    2    0    0 -0.51913659504E+00  0.10570092422E+01  0.79708261897E-01  0.11803070572E+01  0.00000000000E+00 0.  1.
         11    1    3    3    0    0  0.83926642781E+01 -0.17822263119E+01  0.46922464336E+01  0.97790756805E+01  0.51100000000E-03 0. -1.
        -11    1    3    3    0    0  0.25542707095E+02  0.37550587312E+01 -0.29011576094E+02  0.38835575180E+02  0.51100000000E-03 0.  1.
         12    1    3    3    0    0 -0.33416234778E+02 -0.30298416614E+01  0.24239621399E+02  0.41393042082E+02  0.00000000000E+00 0. -1.
</event>
<event>
 7    1  0.3743571E-015  0.9000775E+02  0.7816164E-02  0.1186339E+00
        -11   -1    0    0    0    0  0.00000000000E+00  0.00000000000E+00  0.45593999997E+02  0.45594000000E+02  0.51100000000E-03 0.  1.
         11   -1    0    0    0    0 -0.00000000000E+00 -0.00000000000E+00 -0.45593999997E+02  0.45594000000E+02  0.51100000000E-03 0. -1.
    9900012    2    1    2    0    0 -0.11985541956E+00 -0.55521536137E+00  0.10345845555E+01  0.90007748069E+02  0.90000009543E+02 0.  0.
        -12    1    1    2    0    0  0.11985541956E+00  0.55521536137E+00 -0.10345845555E+01  0.11802519314E+01  0.00000000000E+00 0.  1.
         11    1    3    3    0    0 -0.15073760641E+02 -0.38204903061E+02  0.82544364136E+01  0.41892345346E+02  0.51100000000E-03 0. -1.
        -11    1    3    3    0    0 -0.35724072249E+01  0.31657489168E+01 -0.75923770479E+01  0.89681798088E+01  0.51100000000E-03 0.  1.
        -12    1    3    3    0    0  0.18526312446E+02  0.34483938783E+02  0.37252518975E+00  0.39147222914E+02  0.00000000000E+00 0.  1.
</event>
<event>
 7    1  0.3743571E-015  0.9000773E+02  0.7816164E-02  0.1186339E+00
        -11   -1    0    0    0    0  0.00000000000E+00  0.00000000000E+00  0.45593999997E+02  0.45594000000E+02  0.51100000000E-03 0.  1.
         11   -1    0    0    0    0 -0.00000000000E+00 -0.00000000000E+00 -0.45593999997E+02  0.45594000000E+02  0.51100000000E-03 0. -1.
    9900012    2    1    2    0    0  0.50722644005E+00  0.11377467692E-01 -0.10656549033E+01  0.90007733724E+02  0.89999995010E+02 0.  0.
        -12    1    1    2    0    0 -0.50722644005E+00 -0.11377467692E-01  0.10656549033E+01  0.11802662755E+01  0.00000000000E+00 0.  1.
         11    1    3    3    0    0 -0.19842235833E+02  0.14025175182E+02 -0.29358106731E+02  0.38109294047E+02  0.51100000000E-03 0. -1.
        -11    1    3    3    0    0  0.23895264029E+01  0.66116257378E+01 -0.51370261306E+01  0.87070356066E+01  0.51100000000E-03 0.  1.
        -12    1    3    3    0    0  0.17959935870E+02 -0.20625423452E+02  0.33429477958E+02  0.43191404070E+02  0.00000000000E+00 0.  1.
</event>
<event>
 7    1  0.3743571E-015  0.9000774E+02  0.7816164E-02  0.1186339E+00
        -11   -1    0    0    0    0  0.00000000000E+00  0.00000000000E+00  0.45593999997E+02  0.45594000000E+02  0.51100000000E-03 0.  1.
         11   -1    0    0    0    0 -0.00000000000E+00 -0.00000000000E+00 -0.45593999997E+02  0.45594000000E+02  0.51100000000E-03 0. -1.
    9900012    2    1    2    0    0  0.28256348488E+00  0.17234778450E+00 -0.11328985485E+01  0.90007743671E+02  0.90000005087E+02 0.  0.
        -12    1    1    2    0    0 -0.28256348488E+00 -0.17234778450E+00  0.11328985485E+01  0.11802563293E+01  0.00000000000E+00 0.  1.
         11    1    3    3    0    0 -0.67833759392E+01  0.95303908496E+01  0.73915253906E+01  0.13837528202E+02  0.51100000000E-03 0. -1.
        -11    1    3    3    0    0  0.16000868918E+02 -0.37283604919E+02  0.96106635915E+01  0.41694842089E+02  0.51100000000E-03 0.  1.
         12    1    3    3    0    0 -0.89349294934E+01  0.27925561854E+02 -0.18135087531E+02  0.34475373380E+02  0.00000000000E+00 0. -1.
</event>
<event>
 7    1  0.3743571E-015  0.9000771E+02  0.7816164E-02  0.1186339E+00
        -11   -1    0    0    0    0  0.00000000000E+00  0.00000000000E+00  0.45593999997E+02  0.45594000000E+02  0.51100000000E-03 0. -1.
         11   -1    0    0    0    0 -0.00000000000E+00 -0.00000000000E+00 -0.45593999997E+02  0.45594000000E+02  0.51100000000E-03 0.  1.
    9900012    2    1    2    0    0 -0.74155770587E+00 -0.64133542859E+00  0.65716681250E+00  0.90007708857E+02  0.89999969814E+02 0.  0.
        -12    1    1    2    0    0  0.74155770587E+00  0.64133542859E+00 -0.65716681250E+00  0.11802911431E+01  0.00000000000E+00 0.  1.
         11    1    3    3    0    0 -0.27954238067E+02 -0.14550565877E+02  0.24887183992E+02  0.40156323544E+02  0.51100000000E-03 0. -1.
        -11    1    3    3    0    0  0.18487988328E+02 -0.80830589574E+00  0.19163908481E+01  0.18604613002E+02  0.51100000000E-03 0.  1.
        -12    1    3    3    0    0  0.87246920337E+01  0.14717536344E+02 -0.26146408027E+02  0.31246772311E+02  0.00000000000E+00 0.  1.
</event>
<event>
 7    1  0.3743571E-015  0.9000780E+02  0.7816164E-02  0.1186339E+00
        -11   -1    0    0    0    0  0.00000000000E+00  0.00000000000E+00  0.45593999997E+02  0.45594000000E+02  0.51100000000E-03 0. -1.
         11   -1    0    0    0    0 -0.00000000000E+00 -0.00000000000E+00 -0.45593999997E+02  0.45594000000E+02  0.51100000000E-03 0.  1.
    9900012    2    1    2    0    0 -0.48846150930E+00  0.10602306029E+01  0.17377670522E+00  0.90007795814E+02  0.90000057919E+02 0.  0.
        -12    1    1    2    0    0  0.48846150930E+00 -0.10602306029E+01 -0.17377670522E+00  0.11802041860E+01  0.00000000000E+00 0.  1.
         11    1    3    3    0    0  0.10734515024E+02  0.13381074294E+02 -0.26548160357E+01  0.17358888516E+02  0.51100000000E-03 0. -1.
        -11    1    3    3    0    0  0.26240516579E+02  0.10790383496E+02 -0.15384914665E+01  0.28414152153E+02  0.51100000000E-03 0.  1.
         12    1    3    3    0    0 -0.37463493112E+02 -0.23111227187E+02  0.43670842075E+01  0.44234755145E+02  0.00000000000E+00 0. -1.
</event>
<event>
 7    1  0.3743571E-015  0.9000784E+02  0.7816164E-02  0.1186339E+00
        -11   -1    0    0    0    0  0.00000000000E+00  0.00000000000E+00  0.45593999997E+02  0.45594000000E+02  0.51100000000E-03 0. -1.
         11   -1    0    0    0    0 -0.00000000000E+00 -0.00000000000E+00 -0.45593999997E+02  0.45594000000E+02  0.51100000000E-03 0.  1.
    9900012    2    1    2    0    0 -0.76956232494E+00 -0.89295310571E+00  0.56358865703E-01  0.90007844187E+02  0.90000106930E+02 0.  0.
        -12    1    1    2    0    0  0.76956232494E+00  0.89295310571E+00 -0.56358865703E-01  0.11801558129E+01  0.00000000000E+00 0.  1.
         11    1    3    3    0    0  0.20195283184E+02  0.13610274067E+02  0.24443404604E+02  0.34504623631E+02  0.51100000000E-03 0. -1.
        -11    1    3    3    0    0  0.58688220334E+01  0.75275320539E+01  0.42973283672E+01  0.10467752492E+02  0.51100000000E-03 0.  1.
        -12    1    3    3    0    0 -0.26833667542E+02 -0.22030759226E+02 -0.28684374105E+02  0.45035468063E+02  0.00000000000E+00 0.  1.
</event>
<event>
 7    1  0.3743571E-015  0.9000764E+02  0.7816164E-02  0.1186339E+00
        -11   -1    0    0    0    0  0.00000000000E+00  0.00000000000E+00  0.45593999997E+02  0.45594000000E+02  0.51100000000E-03 0.  1.
         11   -1    0    0    0    0 -0.00000000000E+00 -0.00000000000E+00 -0.45593999997E+02  0.45594000000E+02  0.51100000000E-03 0. -1.
    9900012    2    1    2    0    0  0.10278511562E+01  0.57904986063E+00  0.38387136397E-01  0.90007639753E+02  0.89999899798E+02 0.  0.
        -12    1    1    2    0    0 -0.10278511562E+01 -0.57904986063E+00 -0.38387136397E-01  0.11803602470E+01  0.00000000000E+00 0.  1.
         11    1    3    3    0    0 -0.26090446817E+01  0.88600133725E+01  0.47058825472E+01  0.10365919251E+02  0.51100000000E-03 0. -1.
        -11    1    3    3    0    0 -0.23728256390E+02 -0.19329096319E+02  0.23699210194E+02  0.38707837448E+02  0.51100000000E-03 0.  1.
         12    1    3    3    0    0  0.27365152228E+02  0.11048132807E+02 -0.28366705605E+02  0.40933883054E+02  0.00000000000E+00 0. -1.
</event>
<event>
 7    1  0.3743571E-015  0.9000773E+02  0.7816164E-02  0.1186339E+00
        -11   -1    0    0    0    0  0.00000000000E+00  0.00000000000E+00  0.45593999997E+02  0.45594000000E+02  0.51100000000E-03 0.  1.
         11   -1    0    0    0    0 -0.00000000000E+00 -0.00000000000E+00 -0.45593999997E+02  0.45594000000E+02  0.51100000000E-03 0. -1.
    9900012    2    1    2    0    0 -0.61514652571E+00 -0.49607845133E+00 -0.87666428004E+00  0.90007729125E+02  0.89999990350E+02 0.  0.
        -12    1    1    2    0    0  0.61514652571E+00  0.49607845133E+00  0.87666428004E+00  0.11802708748E+01  0.00000000000E+00 0.  1.
         11    1    3    3    0    0  0.75019919062E+01 -0.65700131960E+01 -0.30593895805E+01  0.10430954933E+02  0.51100000000E-03 0. -1.
        -11    1    3    3    0    0  0.33856360712E+02  0.11220583389E+02  0.88945440816E+01  0.36759591496E+02  0.51100000000E-03 0.  1.
         12    1    3    3    0    0 -0.41973499144E+02 -0.51466486447E+01 -0.67118187811E+01  0.42817182696E+02  0.00000000000E+00 0. -1.
</event>
<event>
 7    1  0.3743571E-015  0.9000765E+02  0.7816164E-02  0.1186339E+00
        -11   -1    0    0    0    0  0.00000000000E+00  0.00000000000E+00  0.45593999997E+02  0.45594000000E+02  0.51100000000E-03 0.  1.
         11   -1    0    0    0    0 -0.00000000000E+00 -0.00000000000E+00 -0.45593999997E+02  0.45594000000E+02  0.51100000000E-03 0. -1.
    9900012    2    1    2    0    0  0.41944934939E+00  0.17005814285E+00 -0.10901280867E+01  0.90007645488E+02  0.89999905608E+02 0.  0.
        -12    1    1    2    0    0 -0.41944934939E+00 -0.17005814285E+00  0.10901280867E+01  0.11803545121E+01  0.00000000000E+00 0.  1.
         11    1    3    3    0    0 -0.52383360967E+01 -0.40583516091E+02 -0.47378261083E+01  0.41193554592E+02  0.51100000000E-03 0. -1.
        -11    1    3    3    0    0  0.91599664907E+01  0.18430613648E+01 -0.13026017561E+01  0.94339086757E+01  0.51100000000E-03 0.  1.
        -12    1    3    3    0    0 -0.35021810446E+01  0.38910512869E+02  0.49502997777E+01  0.39380182221E+02  0.00000000000E+00 0.  1.
</event>
<event>
 7    1  0.3743571E-015  0.9000774E+02  0.7816164E-02  0.1186339E+00
        -11   -1    0    0    0    0  0.00000000000E+00  0.00000000000E+00  0.45593999997E+02  0.45594000000E+02  0.51100000000E-03 0.  1.
         11   -1    0    0    0    0 -0.00000000000E+00 -0.00000000000E+00 -0.45593999997E+02  0.45594000000E+02  0.51100000000E-03 0. -1.
    9900012    2    1    2    0    0 -0.74425189742E+00 -0.91451585589E+00 -0.52605579932E-01  0.90007738383E+02  0.89999999730E+02 0.  0.
        -12    1    1    2    0    0  0.74425189742E+00  0.91451585589E+00  0.52605579932E-01  0.11802616170E+01  0.00000000000E+00 0.  1.
         11    1    3    3    0    0 -0.30713441592E+02  0.22935123838E+02 -0.54261935060E+01  0.38714066902E+02  0.51100000000E-03 0. -1.
        -11    1    3    3    0    0 -0.52636946350E+01 -0.43453658229E+01  0.84999293750E+01  0.10901260706E+02  0.51100000000E-03 0.  1.
        -12    1    3    3    0    0  0.35232884329E+02 -0.19504273871E+02 -0.31263414489E+01  0.40392410775E+02  0.00000000000E+00 0.  1.
</event>
<event>
 7    1  0.3743571E-015  0.9000772E+02  0.7816164E-02  0.1186339E+00
        -11   -1    0    0    0    0  0.00000000000E+00  0.00000000000E+00  0.45593999997E+02  0.45594000000E+02  0.51100000000E-03 0. -1.
         11   -1    0    0    0    0 -0.00000000000E+00 -0.00000000000E+00 -0.45593999997E+02  0.45594000000E+02  0.51100000000E-03 0.  1.
    9900012    2    1    2    0    0 -0.10849180746E+00  0.52120731884E+00  0.10533913972E+01  0.90007719958E+02  0.89999981062E+02 0.  0.
        -12    1    1    2    0    0  0.10849180746E+00 -0.52120731884E+00 -0.10533913972E+01  0.11802800418E+01  0.00000000000E+00 0.  1.
         11    1    3    3    0    0  0.17250236943E+01 -0.24360264384E+01 -0.97568046306E+01  0.10203194030E+02  0.51100000000E-03 0. -1.
        -11    1    3    3    0    0  0.33801598948E+02  0.19536441614E+02 -0.23725311230E-02  0.39041268528E+02  0.51100000000E-03 0.  1.
         12    1    3    3    0    0 -0.35635114450E+02 -0.16579207856E+02  0.10812568559E+02  0.40763257400E+02  0.00000000000E+00 0. -1.
</event>
<event>
 7    1  0.3743571E-015  0.9000772E+02  0.7816164E-02  0.1186339E+00
        -11   -1    0    0    0    0  0.00000000000E+00  0.00000000000E+00  0.45593999997E+02  0.45594000000E+02  0.51100000000E-03 0.  1.
         11   -1    0    0    0    0 -0.00000000000E+00 -0.00000000000E+00 -0.45593999997E+02  0.45594000000E+02  0.51100000000E-03 0. -1.
    9900012    2    1    2    0    0 -0.98603149667E+00 -0.64550969178E+00 -0.64170126090E-01  0.90007720931E+02  0.89999982048E+02 0.  0.
        -12    1    1    2    0    0  0.98603149667E+00  0.64550969178E+00  0.64170126090E-01  0.11802790686E+01  0.00000000000E+00 0.  1.
         11    1    3    3    0    0 -0.45253438416E+01  0.94521390282E+01  0.36513538269E+00  0.10485942647E+02  0.51100000000E-03 0. -1.
        -11    1    3    3    0    0 -0.32598456027E+02 -0.75903464876E+01  0.18925623978E+02  0.38450642887E+02  0.51100000000E-03 0.  1.
         12    1    3    3    0    0  0.36137768372E+02 -0.25073022324E+01 -0.19354929487E+02  0.41071135398E+02  0.00000000000E+00 0. -1.
</event>
<event>
 7    1  0.3743571E-015  0.9000787E+02  0.7816164E-02  0.1186339E+00
        -11   -1    0    0    0    0  0.00000000000E+00  0.00000000000E+00  0.45593999997E+02  0.45594000000E+02  0.51100000000E-03 0.  1.
         11   -1    0    0    0    0 -0.00000000000E+00 -0.00000000000E+00 -0.45593999997E+02  0.45594000000E+02  0.51100000000E-03 0. -1.
    9900012    2    1    2    0    0 -0.98109516627E+00  0.65453585373E+00  0.41706658708E-01  0.90007871043E+02  0.90000134141E+02 0.  0.
        -12    1    1    2    0    0  0.98109516627E+00 -0.65453585373E+00 -0.41706658708E-01  0.11801289567E+01  0.00000000000E+00 0.  1.
         11    1    3    3    0    0  0.31842615500E+02  0.25333262623E+02 -0.85867301426E+01  0.41586756207E+02  0.51100000000E-03 0. -1.
        -11    1    3    3    0    0 -0.84567168128E+01  0.87977359898E+00 -0.57811133404E+01  0.10281601653E+02  0.51100000000E-03 0.  1.
        -12    1    3    3    0    0 -0.24366993854E+02 -0.25558500368E+02  0.14409550142E+02  0.38139513183E+02  0.00000000000E+00 0.  1.
</event>
<event>
 7    1  0.3743571E-015  0.9000788E+02  0.7816164E-02  0.1186339E+00
        -11   -1    0    0    0    0  0.00000000000E+00  0.00000000000E+00  0.45593999997E+02  0.45594000000E+02  0.51100000000E-03 0.  1.
         11   -1    0    0    0    0 -0.00000000000E+00 -0.00000000000E+00 -0.45593999997E+02  0.45594000000E+02  0.51100000000E-03 0. -1.
    9900012    2    1    2    0    0 -0.33863589029E+00 -0.11227763856E+01 -0.13186436556E+00  0.90007877426E+02  0.90000140608E+02 0.  0.
        -12    1    1    2    0    0  0.33863589029E+00  0.11227763856E+01  0.13186436556E+00  0.11801225738E+01  0.00000000000E+00 0.  1.
         11    1    3    3    0    0  0.53473672400E+01  0.46261647966E+00  0.48816859132E+01  0.72552882798E+01  0.51100000000E-03 0. -1.
        -11    1    3    3    0    0 -0.19009192050E+02 -0.35815212671E+01  0.35297294965E+02  0.40250164088E+02  0.51100000000E-03 0.  1.
         12    1    3    3    0    0  0.13323188920E+02  0.19961284018E+01 -0.40310845244E+02  0.42502425059E+02  0.00000000000E+00 0. -1.
</event>
<event>
 7    1  0.3743571E-015  0.9000779E+02  0.7816164E-02  0.1186339E+00
        -11   -1    0    0    0    0  0.00000000000E+00  0.00000000000E+00  0.45593999997E+02  0.45594000000E+02  0.51100000000E-03 0.  1.
         11   -1    0    0    0    0 -0.00000000000E+00 -0.00000000000E+00 -0.45593999997E+02  0.45594000000E+02  0.51100000000E-03 0. -1.
    9900012    2    1    2    0    0  0.38669943500E+00 -0.13533964093E+00 -0.11068161143E+01  0.90007790196E+02  0.90000052226E+02 0.  0.
        -12    1    1    2    0    0 -0.38669943500E+00  0.13533964093E+00  0.11068161143E+01  0.11802098043E+01  0.00000000000E+00 0.  1.
         11    1    3    3    0    0 -0.76143688039E+01 -0.58425505000E+00  0.19030303759E+01  0.78702916793E+01  0.51100000000E-03 0. -1.
        -11    1    3    3    0    0 -0.34666398053E+02  0.10302417838E+02 -0.10617214016E+02  0.37691168740E+02  0.51100000000E-03 0.  1.
         12    1    3    3    0    0  0.42667466292E+02 -0.98535024294E+01  0.76073675261E+01  0.44446329776E+02  0.00000000000E+00 0. -1.
</event>
<event>
 7    1  0.3743571E-015  0.9000775E+02  0.7816164E-02  0.1186339E+00
        -11   -1    0    0    0    0  0.00000000000E+00  0.00000000000E+00  0.45593999997E+02  0.45594000000E+02  0.51100000000E-03 0.  1.
         11   -1    0    0    0    0 -0.00000000000E+00 -0.00000000000E+00 -0.45593999997E+02  0.45594000000E+02  0.51100000000E-03 0. -1.
    9900012    2    1    2    0    0 -0.66867552251E+00  0.28833648099E+00  0.92882826978E+00  0.90007751367E+02  0.90000012885E+02 0.  0.
        -12    1    1    2    0    0  0.66867552251E+00 -0.28833648099E+00 -0.92882826978E+00  0.11802486329E+01  0.00000000000E+00 0.  1.
         11    1    3    3    0    0 -0.31669363423E+01  0.10105272523E+02 -0.59460651374E+01  0.12145028178E+02  0.51100000000E-03 0. -1.
        -11    1    3    3    0    0 -0.11338896189E+02  0.31684693150E+02  0.52420260427E+00  0.33656576407E+02  0.51100000000E-03 0.  1.
         12    1    3    3    0    0  0.13837157008E+02 -0.41501629192E+02  0.63506908029E+01  0.44206146783E+02  0.00000000000E+00 0. -1.
</event>
<event>
 7    1  0.4784223E-015  0.9000724E+02  0.7816164E-02  0.1186340E+00
        -11   -1    0    0    0    0  0.00000000000E+00  0.00000000000E+00  0.45593999997E+02  0.45594000000E+02  0.51100000000E-03 0. -1.
         11   -1    0    0    0    0 -0.00000000000E+00 -0.00000000000E+00 -0.45593999997E+02  0.45594000000E+02  0.51100000000E-03 0.  1.
    9900012    2    1    2    0    0 -0.79595856817E+00 -0.53126279524E+00  0.69166224189E+00  0.90007243100E+02  0.89999497908E+02 0.  0.
        -12    1    1    2    0    0  0.79595856817E+00  0.53126279524E+00 -0.69166224189E+00  0.11807568999E+01  0.00000000000E+00 0.  1.
         11    1    3    3    0    0  0.68387936126E+01  0.17959411278E+01 -0.62992302000E+01  0.94696781352E+01  0.51100000000E-03 0. -1.
        -11    1    3    3    0    0 -0.95287404276E+01 -0.44242700957E+01 -0.35975631271E+02  0.37478221751E+02  0.51100000000E-03 0.  1.
         12    1    3    3    0    0  0.18939882468E+01  0.20970661727E+01  0.42966523713E+02  0.43059343214E+02  0.00000000000E+00 0. -1.
</event>
<event>
 7    1  0.3743571E-015  0.9000780E+02  0.7816164E-02  0.1186339E+00
        -11   -1    0    0    0    0  0.00000000000E+00  0.00000000000E+00  0.45593999997E+02  0.45594000000E+02  0.51100000000E-03 0.  1.
         11   -1    0    0    0    0 -0.00000000000E+00 -0.00000000000E+00 -0.45593999997E+02  0.45594000000E+02  0.51100000000E-03 0. -1.
    9900012    2    1    2    0    0 -0.79467128883E-02 -0.86625032977E+00 -0.80150958300E+00  0.90007800697E+02  0.90000062866E+02 0.  0.
        -12    1    1    2    0    0  0.79467128883E-02  0.86625032977E+00  0.80150958300E+00  0.11801993034E+01  0.00000000000E+00 0.  1.
         11    1    3    3    0    0  0.12305795021E+01 -0.59788154421E+01 -0.28171155895E+01  0.67228491361E+01  0.51100000000E-03 0. -1.
        -11    1    3    3    0    0 -0.15515718620E+02 -0.18225739850E+02  0.33755836236E+02  0.41380811950E+02  0.51100000000E-03 0.  1.
         12    1    3    3    0    0  0.14277192405E+02  0.23338304963E+02 -0.31740230229E+02  0.41904139611E+02  0.00000000000E+00 0. -1.
</event>
<event>
 7    1  0.3743571E-015  0.9000774E+02  0.7816164E-02  0.1186339E+00
        -11   -1    0    0    0    0  0.00000000000E+00  0.00000000000E+00  0.45593999997E+02  0.45594000000E+02  0.51100000000E-03 0. -1.
         11   -1    0    0    0    0 -0.00000000000E+00 -0.00000000000E+00 -0.45593999997E+02  0.45594000000E+02  0.51100000000E-03 0.  1.
    9900012    2    1    2    0    0 -0.94613722464E+00 -0.70302407636E+00  0.60006375910E-01  0.90007737629E+02  0.89999998965E+02 0.  0.
        -12    1    1    2    0    0  0.94613722464E+00  0.70302407636E+00 -0.60006375910E-01  0.11802623712E+01  0.00000000000E+00 0.  1.
         11    1    3    3    0    0  0.30167313158E+01  0.93167305063E+00 -0.71876332254E+01  0.78505257244E+01  0.51100000000E-03 0. -1.
        -11    1    3    3    0    0 -0.10670848479E+02  0.63563437821E+01 -0.35784278605E+02  0.37878552099E+02  0.51100000000E-03 0.  1.
         12    1    3    3    0    0  0.67079799385E+01 -0.79910409091E+01  0.43031918206E+02  0.44278659806E+02  0.00000000000E+00 0. -1.
</event>
<event>
 7    1  0.3743571E-015  0.9000837E+02  0.7816164E-02  0.1186338E+00
        -11   -1    0    0    0    0  0.00000000000E+00  0.00000000000E+00  0.45593999997E+02  0.45594000000E+02  0.51100000000E-03 0.  1.
         11   -1    0    0    0    0 -0.00000000000E+00 -0.00000000000E+00 -0.45593999997E+02  0.45594000000E+02  0.51100000000E-03 0. -1.
    9900012    2    1    2    0    0 -0.54346312348E+00 -0.12229312454E+00 -0.10398151476E+01  0.90008371535E+02  0.90000641237E+02 0.  0.
        -12    1    1    2    0    0  0.54346312348E+00  0.12229312454E+00  0.10398151476E+01  0.11796284652E+01  0.00000000000E+00 0.  1.
         11    1    3    3    0    0 -0.31415308241E+02  0.15777862415E+02  0.22515827042E+00  0.35155557609E+02  0.51100000000E-03 0. -1.
        -11    1    3    3    0    0 -0.30872061721E+01  0.10847741312E+02 -0.27140567953E+01  0.11600449908E+02  0.51100000000E-03 0.  1.
        -12    1    3    3    0    0  0.33959051289E+02 -0.26747896852E+02  0.14490833774E+01  0.43252364018E+02  0.00000000000E+00 0.  1.
</event>
<event>
 7    1  0.4459204E-015  0.9000773E+02  0.7816164E-02  0.1186339E+00
        -11   -1    0    0    0    0  0.00000000000E+00  0.00000000000E+00  0.45593999997E+02  0.45594000000E+02  0.51100000000E-03 0. -1.
         11   -1    0    0    0    0 -0.00000000000E+00 -0.00000000000E+00 -0.45593999997E+02  0.45594000000E+02  0.51100000000E-03 0.  1.
    9900012    2    1    2    0    0 -0.10745379474E+01  0.47207751968E+00  0.12466677070E+00  0.90007732747E+02  0.89999994019E+02 0.  0.
        -12    1    1    2    0    0  0.10745379474E+01 -0.47207751968E+00 -0.12466677070E+00  0.11802672531E+01  0.00000000000E+00 0.  1.
         11    1    3    3    0    0  0.71419134330E+01 -0.56143434576E+01  0.24519836534E+01  0.94095698117E+01  0.51100000000E-03 0. -1.
        -11    1    3    3    0    0  0.96930412044E+00  0.42217123554E+01 -0.40785179571E+02  0.41014549597E+02  0.51100000000E-03 0.  1.
         12    1    3    3    0    0 -0.91857555008E+01  0.18647086218E+01  0.38457862689E+02  0.39583613339E+02  0.00000000000E+00 0. -1.
</event>
<event>
 7    1  0.3743571E-015  0.9000777E+02  0.7816164E-02  0.1186339E+00
        -11   -1    0    0    0    0  0.00000000000E+00  0.00000000000E+00  0.45593999997E+02  0.45594000000E+02  0.51100000000E-03 0. -1.
         11   -1    0    0    0    0 -0.00000000000E+00 -0.00000000000E+00 -0.45593999997E+02  0.45594000000E+02  0.51100000000E-03 0.  1.
    9900012    2    1    2    0    0 -0.92166025771E+00 -0.68306510025E+00  0.27732327702E+00  0.90007769615E+02  0.90000031374E+02 0.  0.
        -12    1    1    2    0    0  0.92166025771E+00  0.68306510025E+00 -0.27732327702E+00  0.11802303851E+01  0.00000000000E+00 0.  1.
         11    1    3    3    0    0  0.28227486152E+02 -0.81940438814E+01  0.21958401566E+02  0.36689299928E+02  0.51100000000E-03 0. -1.
        -11    1    3    3    0    0  0.93901301761E+01 -0.71938642562E-01 -0.50761182034E+01  0.10674581780E+02  0.51100000000E-03 0.  1.
        -12    1    3    3    0    0 -0.38539276586E+02  0.75829174237E+01 -0.16604960086E+02  0.42643887908E+02  0.00000000000E+00 0.  1.
</event>
<event>
 7    1  0.3743571E-015  0.9000759E+02  0.7816164E-02  0.1186339E+00
        -11   -1    0    0    0    0  0.00000000000E+00  0.00000000000E+00  0.45593999997E+02  0.45594000000E+02  0.51100000000E-03 0.  1.
         11   -1    0    0    0    0 -0.00000000000E+00 -0.00000000000E+00 -0.45593999997E+02  0.45594000000E+02  0.51100000000E-03 0. -1.
    9900012    2    1    2    0    0  0.87025810599E+00  0.67541861879E+00 -0.42407173279E+00  0.90007586379E+02  0.89999845719E+02 0.  0.
        -12    1    1    2    0    0 -0.87025810599E+00 -0.67541861879E+00  0.42407173279E+00  0.11804136208E+01  0.00000000000E+00 0.  1.
         11    1    3    3    0    0  0.24849060182E+01 -0.99311933323E+01 -0.38822360875E+01  0.10948749528E+02  0.51100000000E-03 0. -1.
        -11    1    3    3    0    0  0.37160706664E+02  0.98550206855E+01  0.10009050961E+02  0.39726825369E+02  0.51100000000E-03 0.  1.
         12    1    3    3    0    0 -0.38775354576E+02  0.75159126563E+00 -0.65508866061E+01  0.39332011483E+02  0.00000000000E+00 0. -1.
</event>
<event>
 7    1  0.3743571E-015  0.9000779E+02  0.7816164E-02  0.1186339E+00
        -11   -1    0    0    0    0  0.00000000000E+00  0.00000000000E+00  0.45593999997E+02  0.45594000000E+02  0.51100000000E-03 0. -1.
         11   -1    0    0    0    0 -0.00000000000E+00 -0.00000000000E+00 -0.45593999997E+02  0.45594000000E+02  0.51100000000E-03 0.  1.
    9900012    2    1    2    0    0  0.29084491074E+00  0.11367935505E+01  0.12653930182E+00  0.90007787081E+02  0.90000049071E+02 0.  0.
        -12    1    1    2    0    0 -0.29084491074E+00 -0.11367935505E+01 -0.12653930182E+00  0.11802129187E+01  0.00000000000E+00 0.  1.
         11    1    3    3    0    0  0.27233740819E+02  0.32625413768E+02 -0.14186649125E+01  0.42521839952E+02  0.51100000000E-03 0. -1.
        -11    1    3    3    0    0 -0.77375241194E+01 -0.17642907541E+00  0.68952561302E+01  0.10365566269E+02  0.51100000000E-03 0.  1.
        -12    1    3    3    0    0 -0.19205371789E+02 -0.31312191142E+02 -0.53500519159E+01  0.37120380860E+02  0.00000000000E+00 0.  1.
</event>
<event>
 7    1  0.3743571E-015  0.9000770E+02  0.7816164E-02  0.1186339E+00
        -11   -1    0    0    0    0  0.00000000000E+00  0.00000000000E+00  0.45593999997E+02  0.45594000000E+02  0.51100000000E-03 0.  1.
         11   -1    0    0    0    0 -0.00000000000E+00 -0.00000000000E+00 -0.45593999997E+02  0.45594000000E+02  0.51100000000E-03 0. -1.
    9900012    2    1    2    0    0 -0.90981111823E+00  0.71183435812E+00  0.24214289320E+00  0.90007704442E+02  0.89999965340E+02 0.  0.
        -12    1    1    2    0    0  0.90981111823E+00 -0.71183435812E+00 -0.24214289320E+00  0.11802955583E+01  0.00000000000E+00 0.  1.
         11    1    3    3    0    0  0.68807586204E+01  0.16956181181E+01  0.51900347779E+01  0.87838727935E+01  0.51100000000E-03 0. -1.
        -11    1    3    3    0    0  0.13706672642E+02  0.25925063745E+02  0.22678438607E+02  0.37071463190E+02  0.51100000000E-03 0.  1.
         12    1    3    3    0    0 -0.21497242381E+02 -0.26908847505E+02 -0.27626330492E+02  0.44152368458E+02  0.00000000000E+00 0. -1.
</event>
<event>
 7    1  0.3743571E-015  0.9000783E+02  0.7816164E-02  0.1186339E+00
        -11   -1    0    0    0    0  0.00000000000E+00  0.00000000000E+00  0.45593999997E+02  0.45594000000E+02  0.51100000000E-03 0.  1.
         11   -1    0    0    0    0 -0.00000000000E+00 -0.00000000000E+00 -0.45593999997E+02  0.45594000000E+02  0.51100000000E-03 0. -1.
    9900012    2    1    2    0    0  0.27916433054E+00 -0.72199349984E+00 -0.89083798181E+00  0.90007830670E+02  0.90000093235E+02 0.  0.
        -12    1    1    2    0    0 -0.27916433054E+00  0.72199349984E+00  0.89083798181E+00  0.11801693298E+01  0.00000000000E+00 0.  1.
         11    1    3    3    0    0 -0.18727615602E+02  0.28623734125E+02 -0.17851102755E+02  0.38583722102E+02  0.51100000000E-03 0. -1.
        -11    1    3    3    0    0  0.10688693320E+02  0.30412715337E+01 -0.41695165440E+01  0.11869387764E+02  0.51100000000E-03 0.  1.
        -12    1    3    3    0    0  0.83180866128E+01 -0.32386999158E+02  0.21129781317E+02  0.39554720804E+02  0.00000000000E+00 0.  1.
</event>
<event>
 7    1  0.3743571E-015  0.9000768E+02  0.7816164E-02  0.1186339E+00
        -11   -1    0    0    0    0  0.00000000000E+00  0.00000000000E+00  0.45593999997E+02  0.45594000000E+02  0.51100000000E-03 0.  1.
         11   -1    0    0    0    0 -0.00000000000E+00 -0.00000000000E+00 -0.45593999997E+02  0.45594000000E+02  0.51100000000E-03 0. -1.
    9900012    2    1    2    0    0  0.45398830631E+00  0.16884447027E+00 -0.10763516858E+01  0.90007683606E+02  0.89999944230E+02 0.  0.
        -12    1    1    2    0    0 -0.45398830631E+00 -0.16884447027E+00  0.10763516858E+01  0.11803163935E+01  0.00000000000E+00 0.  1.
         11    1    3    3    0    0  0.16526098003E+02  0.12697404240E+02 -0.33045173641E+02  0.39068139077E+02  0.51100000000E-03 0. -1.
        -11    1    3    3    0    0  0.36496729628E+01 -0.45180124348E+01 -0.54017477457E+01  0.79316724634E+01  0.51100000000E-03 0.  1.
        -12    1    3    3    0    0 -0.19721782660E+02 -0.80105473351E+01  0.37370569701E+02  0.43007872067E+02  0.00000000000E+00 0.  1.
</event>
<event>
 7    1  0.3743571E-015  0.9000776E+02  0.7816164E-02  0.1186339E+00
        -11   -1    0    0    0    0  0.00000000000E+00  0.00000000000E+00  0.45593999997E+02  0.45594000000E+02  0.51100000000E-03 0. -1.
         11   -1    0    0    0    0 -0.00000000000E+00 -0.00000000000E+00 -0.45593999997E+02  0.45594000000E+02  0.51100000000E-03 0.  1.
    9900012    2    1    2    0    0  0.10580971170E+01  0.17653294781E+00  0.49217865573E+00  0.90007757135E+02  0.90000018729E+02 0.  0.
        -12    1    1    2    0    0 -0.10580971170E+01 -0.17653294781E+00 -0.49217865573E+00  0.11802428647E+01  0.00000000000E+00 0.  1.
         11    1    3    3    0    0 -0.45212614041E+01  0.34879084341E+02  0.20722950069E+02  0.40821966991E+02  0.51100000000E-03 0. -1.
        -11    1    3    3    0    0 -0.87105257289E+01 -0.20230049560E+01 -0.60822390057E+01  0.10814778736E+02  0.51100000000E-03 0.  1.
        -12    1    3    3    0    0  0.14289884250E+02 -0.32679546437E+02 -0.14148532408E+02  0.38371011409E+02  0.00000000000E+00 0.  1.
</event>
<event>
 7    1  0.3743571E-015  0.9000777E+02  0.7816164E-02  0.1186339E+00
        -11   -1    0    0    0    0  0.00000000000E+00  0.00000000000E+00  0.45593999997E+02  0.45594000000E+02  0.51100000000E-03 0.  1.
         11   -1    0    0    0    0 -0.00000000000E+00 -0.00000000000E+00 -0.45593999997E+02  0.45594000000E+02  0.51100000000E-03 0. -1.
    9900012    2    1    2    0    0  0.87118975323E+00 -0.40403674899E-01 -0.79520411049E+00  0.90007765438E+02  0.90000027142E+02 0.  0.
        -12    1    1    2    0    0 -0.87118975323E+00  0.40403674899E-01  0.79520411049E+00  0.11802345616E+01  0.00000000000E+00 0.  1.
         11    1    3    3    0    0 -0.11610827260E+01 -0.34771806250E+02 -0.77286690039E+01  0.35639289384E+02  0.51100000000E-03 0. -1.
        -11    1    3    3    0    0  0.34282894595E+00 -0.41933783748E+01 -0.10778105276E+02  0.11570199111E+02  0.51100000000E-03 0.  1.
        -12    1    3    3    0    0  0.16894435332E+01  0.38924780950E+02  0.17711570169E+02  0.42798276943E+02  0.00000000000E+00 0.  1.
</event>
