<event>
 7    1  0.4141894E-008  0.4614232E+02  0.7816164E-02  0.1320468E+00
        -11   -1    0    0    0    0  0.00000000000E+00  0.00000000000E+00  0.45593999997E+02  0.45594000000E+02  0.51100000000E-03 0.  1.
         11   -1    0    0    0    0 -0.00000000000E+00 -0.00000000000E+00 -0.45593999997E+02  0.45594000000E+02  0.51100000000E-03 0. -1.
    9900012    2    1    2    0    0  0.46295455226E-01  0.44773185827E+02 -0.49470400085E+01  0.46142317441E+02  0.99999970824E+01 0.  0.
        -12    1    1    2    0    0 -0.46295455226E-01 -0.44773185827E+02  0.49470400085E+01  0.45045682559E+02  0.00000000000E+00 0.  1.
         11    1    3    3    0    0 -0.30179644600E+01  0.34378998979E+02 -0.34988729632E+01  0.34688121779E+02  0.51100000000E-03 0. -1.
        -11    1    3    3    0    0  0.55652127556E+00  0.18636993268E+01 -0.16646472424E+01  0.25601058208E+01  0.51100000000E-03 0.  1.
        -12    1    3    3    0    0  0.25077386397E+01  0.85304875205E+01  0.21648019722E+00  0.88940898409E+01  0.00000000000E+00 0.  1.
</event>
<event>
 7    1  0.4141894E-008  0.4614232E+02  0.7816164E-02  0.1320468E+00
        -11   -1    0    0    0    0  0.00000000000E+00  0.00000000000E+00  0.45593999997E+02  0.45594000000E+02  0.51100000000E-03 0. -1.
         11   -1    0    0    0    0 -0.00000000000E+00 -0.00000000000E+00 -0.45593999997E+02  0.45594000000E+02  0.51100000000E-03 0.  1.
    9900012    2    1    2    0    0 -0.36762449192E+02 -0.15487155125E+01  0.25985327850E+02  0.46142318145E+02  0.10000003496E+02 0.  0.
        -12    1    1    2    0    0  0.36762449192E+02  0.15487155125E+01 -0.25985327850E+02  0.45045681855E+02  0.00000000000E+00 0.  1.
         11    1    3    3    0    0 -0.17592420567E+02 -0.27488283872E+01  0.12148624256E+02  0.21555472402E+02  0.51100000000E-03 0. -1.
        -11    1    3    3    0    0 -0.30056216105E+01 -0.21607127849E+01  0.35833143765E+01  0.51519494550E+01  0.51100000000E-03 0.  1.
         12    1    3    3    0    0 -0.16164407015E+02  0.33608256597E+01  0.10253389218E+02  0.19434896288E+02  0.00000000000E+00 0. -1.
</event>
<event>
 7    1  0.4141894E-008  0.4614232E+02  0.7816164E-02  0.1320468E+00
        -11   -1    0    0    0    0  0.00000000000E+00  0.00000000000E+00  0.45593999997E+02  0.45594000000E+02  0.51100000000E-03 0.  1.
         11   -1    0    0    0    0 -0.00000000000E+00 -0.00000000000E+00 -0.45593999997E+02  0.45594000000E+02  0.51100000000E-03 0. -1.
    9900012    2    1    2    0    0 -0.27000112239E+02  0.14860203911E+02 -0.32852422203E+02  0.46142319122E+02  0.10000012406E+02 0.  0.
        -12    1    1    2    0    0  0.27000112239E+02 -0.14860203911E+02  0.32852422203E+02  0.45045680878E+02  0.00000000000E+00 0.  1.
         11    1    3    3    0    0 -0.18437712678E+02  0.11323091338E+02 -0.26845129797E+02  0.34479307423E+02  0.51100000000E-03 0. -1.
        -11    1    3    3    0    0 -0.10699132276E+01 -0.76354818829E+00 -0.11820720896E+01  0.17677711494E+01  0.51100000000E-03 0.  1.
         12    1    3    3    0    0 -0.74924863326E+01  0.43006607613E+01 -0.48252203162E+01  0.98952405493E+01  0.00000000000E+00 0. -1.
</event>
<event>
 7    1  0.4141894E-008  0.4614232E+02  0.7816164E-02  0.1320468E+00
        -11   -1    0    0    0    0  0.00000000000E+00  0.00000000000E+00  0.45593999997E+02  0.45594000000E+02  0.51100000000E-03 0.  1.
         11   -1    0    0    0    0 -0.00000000000E+00 -0.00000000000E+00 -0.45593999997E+02  0.45594000000E+02  0.51100000000E-03 0. -1.
    9900012    2    1    2    0    0 -0.43358824595E+02 -0.62203592493E+01  0.10508708935E+02  0.46142317599E+02  0.99999985262E+01 0.  0.
        -12    1    1    2    0    0  0.43358824595E+02  0.62203592493E+01 -0.10508708935E+02  0.45045682401E+02  0.00000000000E+00 0.  1.
         11    1    3    3    0    0 -0.24593537162E+02 -0.22524859359E+01  0.71690667083E+01  0.25715973261E+02  0.51100000000E-03 0. -1.
        -11    1    3    3    0    0 -0.18849956638E+01 -0.25077285405E+01 -0.94035085689E-01  0.31385910763E+01  0.51100000000E-03 0.  1.
        -12    1    3    3    0    0 -0.16880291770E+02 -0.14601447729E+01  0.34336773123E+01  0.17287753263E+02  0.00000000000E+00 0.  1.
</event>
<event>
 7    1  0.4141894E-008  0.4614232E+02  0.7816164E-02  0.1320468E+00
        -11   -1    0    0    0    0  0.00000000000E+00  0.00000000000E+00  0.45593999997E+02  0.45594000000E+02  0.51100000000E-03 0.  1.
         11   -1    0    0    0    0 -0.00000000000E+00 -0.00000000000E+00 -0.45593999997E+02  0.45594000000E+02  0.51100000000E-03 0. -1.
    9900012    2    1    2    0    0  0.50487192439E+01  0.25510326727E+02 -0.36781072012E+02  0.46142316588E+02  0.99999892992E+01 0.  0.
        -12    1    1    2    0    0 -0.50487192439E+01 -0.25510326727E+02  0.36781072012E+02  0.45045683412E+02  0.00000000000E+00 0.  1.
         11    1    3    3    0    0  0.69768170121E+01  0.16332572816E+02 -0.21181524484E+02  0.27642103576E+02  0.51100000000E-03 0. -1.
        -11    1    3    3    0    0 -0.57107425317E+00  0.14949246958E+01 -0.84429947225E+00  0.18093555506E+01  0.51100000000E-03 0.  1.
         12    1    3    3    0    0 -0.13570235150E+01  0.76828292153E+01 -0.14755248056E+02  0.16690857461E+02  0.00000000000E+00 0. -1.
</event>
<event>
 7    1  0.4141894E-008  0.4614232E+02  0.7816164E-02  0.1320468E+00
        -11   -1    0    0    0    0  0.00000000000E+00  0.00000000000E+00  0.45593999997E+02  0.45594000000E+02  0.51100000000E-03 0.  1.
         11   -1    0    0    0    0 -0.00000000000E+00 -0.00000000000E+00 -0.45593999997E+02  0.45594000000E+02  0.51100000000E-03 0. -1.
    9900012    2    1    2    0    0 -0.10970950600E+02  0.69095176137E+01 -0.43139429770E+02  0.46142316615E+02  0.99999895520E+01 0.  0.
        -12    1    1    2    0    0  0.10970950600E+02 -0.69095176137E+01  0.43139429770E+02  0.45045683385E+02  0.00000000000E+00 0.  1.
         11    1    3    3    0    0 -0.57022707141E+01  0.53187944491E+01 -0.11671044957E+02  0.14036336998E+02  0.51100000000E-03 0. -1.
        -11    1    3    3    0    0 -0.58210513014E+00 -0.88596731874E+00 -0.47507351159E+01  0.48675732018E+01  0.51100000000E-03 0.  1.
         12    1    3    3    0    0 -0.46865747555E+01  0.24766904833E+01 -0.26717649697E+02  0.27238406415E+02  0.00000000000E+00 0. -1.
</event>
<event>
 7    1  0.4141894E-008  0.4614232E+02  0.7816164E-02  0.1320468E+00
        -11   -1    0    0    0    0  0.00000000000E+00  0.00000000000E+00  0.45593999997E+02  0.45594000000E+02  0.51100000000E-03 0. -1.
         11   -1    0    0    0    0 -0.00000000000E+00 -0.00000000000E+00 -0.45593999997E+02  0.45594000000E+02  0.51100000000E-03 0.  1.
    9900012    2    1    2    0    0  0.15635205057E+02  0.42188567847E+02 -0.21860067835E+01  0.46142317412E+02  0.99999968141E+01 0.  0.
        -12    1    1    2    0    0 -0.15635205057E+02 -0.42188567847E+02  0.21860067835E+01  0.45045682588E+02  0.00000000000E+00 0.  1.
         11    1    3    3    0    0  0.17238544263E+01  0.10046994789E+02  0.10058400454E+01  0.10243314543E+02  0.51100000000E-03 0. -1.
        -11    1    3    3    0    0  0.94046327638E+00  0.43679159003E+01  0.18463908734E+01  0.48344927350E+01  0.51100000000E-03 0.  1.
         12    1    3    3    0    0  0.12970887354E+02  0.27773657158E+02 -0.50382377022E+01  0.31064510134E+02  0.00000000000E+00 0. -1.
</event>
<event>
 7    1  0.4141894E-008  0.4614232E+02  0.7816164E-02  0.1320468E+00
        -11   -1    0    0    0    0  0.00000000000E+00  0.00000000000E+00  0.45593999997E+02  0.45594000000E+02  0.51100000000E-03 0.  1.
         11   -1    0    0    0    0 -0.00000000000E+00 -0.00000000000E+00 -0.45593999997E+02  0.45594000000E+02  0.51100000000E-03 0. -1.
    9900012    2    1    2    0    0  0.17211624797E+02 -0.74911553681E+01 -0.40948211814E+02  0.46142317769E+02  0.10000000072E+02 0.  0.
        -12    1    1    2    0    0 -0.17211624797E+02  0.74911553681E+01  0.40948211814E+02  0.45045682231E+02  0.00000000000E+00 0.  1.
         11    1    3    3    0    0  0.74576137058E+01 -0.54932690198E+01 -0.27342592344E+02  0.28868830303E+02  0.51100000000E-03 0. -1.
        -11    1    3    3    0    0  0.24621002801E+00  0.67949902585E+00 -0.13652287843E+01  0.15447291668E+01  0.51100000000E-03 0.  1.
         12    1    3    3    0    0  0.95078010635E+01 -0.26773853742E+01 -0.12240390685E+02  0.15728758299E+02  0.00000000000E+00 0. -1.
</event>
<event>
 7    1  0.4141894E-008  0.4614232E+02  0.7816164E-02  0.1320468E+00
        -11   -1    0    0    0    0  0.00000000000E+00  0.00000000000E+00  0.45593999997E+02  0.45594000000E+02  0.51100000000E-03 0.  1.
         11   -1    0    0    0    0 -0.00000000000E+00 -0.00000000000E+00 -0.45593999997E+02  0.45594000000E+02  0.51100000000E-03 0. -1.
    9900012    2    1    2    0    0  0.19082923091E+02  0.22576773116E+01 -0.40741360466E+02  0.46142317486E+02  0.99999974926E+01 0.  0.
        -12    1    1    2    0    0 -0.19082923091E+02 -0.22576773116E+01  0.40741360466E+02  0.45045682514E+02  0.00000000000E+00 0.  1.
         11    1    3    3    0    0  0.37816551294E+01 -0.63127232356E+00 -0.13106217664E+02  0.13655488347E+02  0.51100000000E-03 0. -1.
        -11    1    3    3    0    0  0.10083040314E+02 -0.92172751799E+00 -0.20478317022E+02  0.22844665721E+02  0.51100000000E-03 0.  1.
        -12    1    3    3    0    0  0.52182276480E+01  0.38106771532E+01 -0.71568257796E+01  0.96421634186E+01  0.00000000000E+00 0.  1.
</event>
<event>
 7    1  0.4141894E-008  0.4614232E+02  0.7816164E-02  0.1320468E+00
        -11   -1    0    0    0    0  0.00000000000E+00  0.00000000000E+00  0.45593999997E+02  0.45594000000E+02  0.51100000000E-03 0.  1.
         11   -1    0    0    0    0 -0.00000000000E+00 -0.00000000000E+00 -0.45593999997E+02  0.45594000000E+02  0.51100000000E-03 0. -1.
    9900012    2    1    2    0    0  0.19217472873E+02 -0.39848023720E+02  0.84815851642E+01  0.46142317133E+02  0.99999942767E+01 0.  0.
        -12    1    1    2    0    0 -0.19217472873E+02  0.39848023720E+02 -0.84815851642E+01  0.45045682867E+02  0.00000000000E+00 0.  1.
         11    1    3    3    0    0  0.26822188900E+01 -0.97245294262E+01  0.64419509766E+00  0.10108202527E+02  0.51100000000E-03 0. -1.
        -11    1    3    3    0    0  0.76750752223E+00  0.27770221496E+00 -0.23356382702E+00  0.84896327323E+00  0.51100000000E-03 0.  1.
        -12    1    3    3    0    0  0.15767746461E+02 -0.30401196509E+02  0.80709538935E+01  0.35185151334E+02  0.00000000000E+00 0.  1.
</event>
<event>
 7    1  0.4141894E-008  0.4614231E+02  0.7816164E-02  0.1320468E+00
        -11   -1    0    0    0    0  0.00000000000E+00  0.00000000000E+00  0.45593999997E+02  0.45594000000E+02  0.51100000000E-03 0.  1.
         11   -1    0    0    0    0 -0.00000000000E+00 -0.00000000000E+00 -0.45593999997E+02  0.45594000000E+02  0.51100000000E-03 0. -1.
    9900012    2    1    2    0    0 -0.13280464540E+02  0.40191768241E+01 -0.42855445780E+02  0.46142314815E+02  0.99999731355E+01 0.  0.
        -12    1    1    2    0    0  0.13280464540E+02 -0.40191768241E+01  0.42855445780E+02  0.45045685185E+02  0.00000000000E+00 0.  1.
         11    1    3    3    0    0 -0.51279428587E+01 -0.33580089961E+00 -0.13047094255E+02  0.14022668396E+02  0.51100000000E-03 0. -1.
        -11    1    3    3    0    0 -0.22920580844E+01  0.21729846643E+01 -0.22939306127E+01  0.39035253977E+01  0.51100000000E-03 0.  1.
        -12    1    3    3    0    0 -0.58604635969E+01  0.21819930594E+01 -0.27514420913E+02  0.28216121021E+02  0.00000000000E+00 0.  1.
</event>
<event>
 7    1  0.4141894E-008  0.4614232E+02  0.7816164E-02  0.1320468E+00
        -11   -1    0    0    0    0  0.00000000000E+00  0.00000000000E+00  0.45593999997E+02  0.45594000000E+02  0.51100000000E-03 0. -1.
         11   -1    0    0    0    0 -0.00000000000E+00 -0.00000000000E+00 -0.45593999997E+02  0.45594000000E+02  0.51100000000E-03 0.  1.
    9900012    2    1    2    0    0  0.28359771180E+02  0.12141696215E+02  0.32824017539E+02  0.46142317235E+02  0.99999952034E+01 0.  0.
        -12    1    1    2    0    0 -0.28359771180E+02 -0.12141696215E+02 -0.32824017539E+02  0.45045682765E+02  0.00000000000E+00 0.  1.
         11    1    3    3    0    0  0.14415565980E+02  0.35822638418E+01  0.10777405847E+02  0.18351938148E+02  0.51100000000E-03 0.  1.
        -11    1    3    3    0    0  0.42971511384E+01  0.28143098084E+01  0.38940771421E+01  0.64459044868E+01  0.51100000000E-03 0. -1.
        -12    1    3    3    0    0  0.96470540617E+01  0.57451225648E+01  0.18152534550E+02  0.21344474600E+02  0.00000000000E+00 0.  1.
</event>
<event>
 7    1  0.4141894E-008  0.4614232E+02  0.7816164E-02  0.1320468E+00
        -11   -1    0    0    0    0  0.00000000000E+00  0.00000000000E+00  0.45593999997E+02  0.45594000000E+02  0.51100000000E-03 0.  1.
         11   -1    0    0    0    0 -0.00000000000E+00 -0.00000000000E+00 -0.45593999997E+02  0.45594000000E+02  0.51100000000E-03 0. -1.
    9900012    2    1    2    0    0  0.10480022148E+02 -0.88598214054E+01 -0.42904384765E+02  0.46142317280E+02  0.99999956171E+01 0.  0.
        -12    1    1    2    0    0 -0.10480022148E+02  0.88598214054E+01  0.42904384765E+02  0.45045682720E+02  0.00000000000E+00 0.  1.
         11    1    3    3    0    0  0.54147103454E+01 -0.89618906045E+01 -0.31164662167E+02  0.32876598662E+02  0.51100000000E-03 0. -1.
        -11    1    3    3    0    0  0.49746665249E+01 -0.99581816820E+00 -0.97797454329E+01  0.11017367283E+02  0.51100000000E-03 0.  1.
         12    1    3    3    0    0  0.90645278056E-01  0.10978873674E+01 -0.19599771657E+01  0.22483513355E+01  0.00000000000E+00 0. -1.
</event>
<event>
 7    1  0.4141894E-008  0.4614232E+02  0.7816164E-02  0.1320468E+00
        -11   -1    0    0    0    0  0.00000000000E+00  0.00000000000E+00  0.45593999997E+02  0.45594000000E+02  0.51100000000E-03 0.  1.
         11   -1    0    0    0    0 -0.00000000000E+00 -0.00000000000E+00 -0.45593999997E+02  0.45594000000E+02  0.51100000000E-03 0. -1.
    9900012    2    1    2    0    0 -0.77612633188E+01  0.40146727989E+02 -0.18897525856E+02  0.46142318076E+02  0.10000002873E+02 0.  0.
        -12    1    1    2    0    0  0.77612633188E+01 -0.40146727989E+02  0.18897525856E+02  0.45045681924E+02  0.00000000000E+00 0.  1.
         11    1    3    3    0    0 -0.56204716595E+01  0.27473949961E+02 -0.98674062511E+01  0.29728325457E+02  0.51100000000E-03 0. -1.
        -11    1    3    3    0    0 -0.29973998638E+01  0.42538119469E+01 -0.40577695379E+01  0.65988495896E+01  0.51100000000E-03 0.  1.
         12    1    3    3    0    0  0.85660820448E+00  0.84189660812E+01 -0.49723500672E+01  0.98151430292E+01  0.00000000000E+00 0. -1.
</event>
<event>
 7    1  0.4141894E-008  0.4614232E+02  0.7816164E-02  0.1320468E+00
        -11   -1    0    0    0    0  0.00000000000E+00  0.00000000000E+00  0.45593999997E+02  0.45594000000E+02  0.51100000000E-03 0.  1.
         11   -1    0    0    0    0 -0.00000000000E+00 -0.00000000000E+00 -0.45593999997E+02  0.45594000000E+02  0.51100000000E-03 0. -1.
    9900012    2    1    2    0    0 -0.15288988069E+02  0.42281773489E+02  0.27589595789E+01  0.46142318925E+02  0.10000010618E+02 0.  0.
        -12    1    1    2    0    0  0.15288988069E+02 -0.42281773489E+02 -0.27589595789E+01  0.45045681075E+02  0.00000000000E+00 0.  1.
         11    1    3    3    0    0 -0.71329439244E+01  0.11284497779E+02  0.89001366256E+00  0.13379495645E+02  0.51100000000E-03 0. -1.
        -11    1    3    3    0    0 -0.79860496092E+01  0.27334912273E+02 -0.34538939874E+00  0.28479707011E+02  0.51100000000E-03 0.  1.
        -12    1    3    3    0    0 -0.16999453503E+00  0.36623634368E+01  0.22143353150E+01  0.42831162688E+01  0.00000000000E+00 0.  1.
</event>
<event>
 7    1  0.4141894E-008  0.4614232E+02  0.7816164E-02  0.1320468E+00
        -11   -1    0    0    0    0  0.00000000000E+00  0.00000000000E+00  0.45593999997E+02  0.45594000000E+02  0.51100000000E-03 0.  1.
         11   -1    0    0    0    0 -0.00000000000E+00 -0.00000000000E+00 -0.45593999997E+02  0.45594000000E+02  0.51100000000E-03 0. -1.
    9900012    2    1    2    0    0 -0.30878408983E+02 -0.22617299581E+02 -0.23750687708E+02  0.46142317096E+02  0.99999939333E+01 0.  0.
        -12    1    1    2    0    0  0.30878408983E+02  0.22617299581E+02  0.23750687708E+02  0.45045682904E+02  0.00000000000E+00 0.  1.
         11    1    3    3    0    0 -0.93666137262E+01 -0.47279209497E+01 -0.60639204135E+01  0.12118490840E+02  0.51100000000E-03 0. -1.
        -11    1    3    3    0    0 -0.22050025738E+02 -0.17935652721E+02 -0.16895802967E+02  0.33065986024E+02  0.51100000000E-03 0.  1.
        -12    1    3    3    0    0  0.53823048097E+00  0.46274089104E-01 -0.79096432747E+00  0.95784023162E+00  0.00000000000E+00 0.  1.
</event>
<event>
 7    1  0.4141894E-008  0.4614232E+02  0.7816164E-02  0.1320468E+00
        -11   -1    0    0    0    0  0.00000000000E+00  0.00000000000E+00  0.45593999997E+02  0.45594000000E+02  0.51100000000E-03 0. -1.
         11   -1    0    0    0    0 -0.00000000000E+00 -0.00000000000E+00 -0.45593999997E+02  0.45594000000E+02  0.51100000000E-03 0.  1.
    9900012    2    1    2    0    0 -0.90474274521E+01  0.44026514506E+02  0.29872311255E+01  0.46142317934E+02  0.10000001572E+02 0.  0.
        -12    1    1    2    0    0  0.90474274521E+01 -0.44026514506E+02 -0.29872311255E+01  0.45045682066E+02  0.00000000000E+00 0.  1.
         11    1    3    3    0    0 -0.24147816746E+01  0.20411507094E+02 -0.26555126119E+01  0.20724684313E+02  0.51100000000E-03 0. -1.
        -11    1    3    3    0    0 -0.15651035045E+01  0.91997416014E+01  0.35973878771E+01  0.10001299631E+02  0.51100000000E-03 0.  1.
        -12    1    3    3    0    0 -0.50675422731E+01  0.14415265810E+02  0.20453558603E+01  0.15416333989E+02  0.00000000000E+00 0.  1.
</event>
<event>
 7    1  0.4141894E-008  0.4614232E+02  0.7816164E-02  0.1320468E+00
        -11   -1    0    0    0    0  0.00000000000E+00  0.00000000000E+00  0.45593999997E+02  0.45594000000E+02  0.51100000000E-03 0.  1.
         11   -1    0    0    0    0 -0.00000000000E+00 -0.00000000000E+00 -0.45593999997E+02  0.45594000000E+02  0.51100000000E-03 0. -1.
    9900012    2    1    2    0    0  0.12409957055E+02  0.36313549834E+02 -0.23588821784E+02  0.46142318200E+02  0.10000004006E+02 0.  0.
        -12    1    1    2    0    0 -0.12409957055E+02 -0.36313549834E+02  0.23588821784E+02  0.45045681800E+02  0.00000000000E+00 0.  1.
         11    1    3    3    0    0  0.11564035826E+02  0.27901994727E+02 -0.15833191164E+02  0.34101879377E+02  0.51100000000E-03 0. -1.
        -11    1    3    3    0    0  0.85269948537E+00  0.51068695551E+01 -0.23077413275E+01  0.56685874220E+01  0.51100000000E-03 0.  1.
         12    1    3    3    0    0 -0.67782563241E-02  0.33046855515E+01 -0.54478892927E+01  0.63718514016E+01  0.00000000000E+00 0. -1.
</event>
<event>
 7    1  0.4141894E-008  0.4614232E+02  0.7816164E-02  0.1320468E+00
        -11   -1    0    0    0    0  0.00000000000E+00  0.00000000000E+00  0.45593999997E+02  0.45594000000E+02  0.51100000000E-03 0. -1.
         11   -1    0    0    0    0 -0.00000000000E+00 -0.00000000000E+00 -0.45593999997E+02  0.45594000000E+02  0.51100000000E-03 0.  1.
    9900012    2    1    2    0    0  0.89240851905E+01  0.24377655911E+02  0.36813097323E+02  0.46142317202E+02  0.99999949023E+01 0.  0.
        -12    1    1    2    0    0 -0.89240851905E+01 -0.24377655911E+02 -0.36813097323E+02  0.45045682798E+02  0.00000000000E+00 0.  1.
         11    1    3    3    0    0  0.55679837179E+01  0.16074642808E+02  0.22593644853E+02  0.28281961956E+02  0.51100000000E-03 0. -1.
        -11    1    3    3    0    0  0.36177464494E+01  0.71545847397E+01  0.73045596302E+01  0.10845863904E+02  0.51100000000E-03 0.  1.
         12    1    3    3    0    0 -0.26164497679E+00  0.11484283634E+01  0.69148928397E+01  0.70144913418E+01  0.00000000000E+00 0. -1.
</event>
<event>
 7    1  0.4141894E-008  0.4614232E+02  0.7816164E-02  0.1320468E+00
        -11   -1    0    0    0    0  0.00000000000E+00  0.00000000000E+00  0.45593999997E+02  0.45594000000E+02  0.51100000000E-03 0.  1.
         11   -1    0    0    0    0 -0.00000000000E+00 -0.00000000000E+00 -0.45593999997E+02  0.45594000000E+02  0.51100000000E-03 0. -1.
    9900012    2    1    2    0    0 -0.31289352963E+01  0.44824745301E+02 -0.31726004756E+01  0.46142318507E+02  0.10000006798E+02 0.  0.
        -12    1    1    2    0    0  0.31289352963E+01 -0.44824745301E+02  0.31726004756E+01  0.45045681493E+02  0.00000000000E+00 0.  1.
         11    1    3    3    0    0  0.22585777036E+01  0.97521984134E+01  0.21910747752E+01  0.10247309699E+02  0.51100000000E-03 0. -1.
        -11    1    3    3    0    0 -0.25997913490E+01  0.17146238925E+02 -0.22399988400E+01  0.17486280891E+02  0.51100000000E-03 0.  1.
         12    1    3    3    0    0 -0.27877216509E+01  0.17926307963E+02 -0.31236764108E+01  0.18408727917E+02  0.00000000000E+00 0. -1.
</event>
<event>
 7    1  0.4141894E-008  0.4614232E+02  0.7816164E-02  0.1320468E+00
        -11   -1    0    0    0    0  0.00000000000E+00  0.00000000000E+00  0.45593999997E+02  0.45594000000E+02  0.51100000000E-03 0.  1.
         11   -1    0    0    0    0 -0.00000000000E+00 -0.00000000000E+00 -0.45593999997E+02  0.45594000000E+02  0.51100000000E-03 0. -1.
    9900012    2    1    2    0    0 -0.12694790241E+02  0.43046310608E+02  0.38692427176E+01  0.46142316572E+02  0.99999891612E+01 0.  0.
        -12    1    1    2    0    0  0.12694790241E+02 -0.43046310608E+02 -0.38692427176E+01  0.45045683428E+02  0.00000000000E+00 0.  1.
         11    1    3    3    0    0 -0.37580915952E+01  0.11861899893E+02 -0.26752081475E+01  0.12727319451E+02  0.51100000000E-03 0. -1.
        -11    1    3    3    0    0  0.31049321950E+00  0.30807613266E+01 -0.76452724018E-01  0.30973120074E+01  0.51100000000E-03 0.  1.
         12    1    3    3    0    0 -0.92471918654E+01  0.28103649389E+02  0.66209035891E+01  0.30317685114E+02  0.00000000000E+00 0. -1.
</event>
<event>
 7    1  0.4141894E-008  0.4614232E+02  0.7816164E-02  0.1320468E+00
        -11   -1    0    0    0    0  0.00000000000E+00  0.00000000000E+00  0.45593999997E+02  0.45594000000E+02  0.51100000000E-03 0.  1.
         11   -1    0    0    0    0 -0.00000000000E+00 -0.00000000000E+00 -0.45593999997E+02  0.45594000000E+02  0.51100000000E-03 0. -1.
    9900012    2    1    2    0    0  0.31695552351E+02  0.29813241390E+02 -0.11648007521E+02  0.46142317852E+02  0.10000000827E+02 0.  0.
        -12    1    1    2    0    0 -0.31695552351E+02 -0.29813241390E+02  0.11648007521E+02  0.45045682148E+02  0.00000000000E+00 0.  1.
         11    1    3    3    0    0  0.47070304870E+01  0.31812045208E+01 -0.54774710923E+00  0.57075586169E+01  0.51100000000E-03 0. -1.
        -11    1    3    3    0    0  0.42445191636E+01  0.94782673837E+01 -0.25934399232E+01  0.10704177989E+02  0.51100000000E-03 0.  1.
         12    1    3    3    0    0  0.22744002700E+02  0.17153769485E+02 -0.85068204887E+01  0.29730581246E+02  0.00000000000E+00 0. -1.
</event>
<event>
 7    1  0.4141894E-008  0.4614232E+02  0.7816164E-02  0.1320468E+00
        -11   -1    0    0    0    0  0.00000000000E+00  0.00000000000E+00  0.45593999997E+02  0.45594000000E+02  0.51100000000E-03 0.  1.
         11   -1    0    0    0    0 -0.00000000000E+00 -0.00000000000E+00 -0.45593999997E+02  0.45594000000E+02  0.51100000000E-03 0. -1.
    9900012    2    1    2    0    0 -0.33575449299E+02  0.29598070496E+02 -0.50751264238E+01  0.46142317843E+02  0.10000000751E+02 0.  0.
        -12    1    1    2    0    0  0.33575449299E+02 -0.29598070496E+02  0.50751264238E+01  0.45045682157E+02  0.00000000000E+00 0.  1.
         11    1    3    3    0    0 -0.16901242993E+02  0.18770466889E+02 -0.29818761727E+01  0.25433718322E+02  0.51100000000E-03 0. -1.
        -11    1    3    3    0    0 -0.13223258914E+02  0.63160165314E+01 -0.29955930799E+01  0.14957279809E+02  0.51100000000E-03 0.  1.
         12    1    3    3    0    0 -0.34509473922E+01  0.45115870759E+01  0.90234282876E+00  0.57513197119E+01  0.00000000000E+00 0. -1.
</event>
<event>
 7    1  0.4141894E-008  0.4614232E+02  0.7816164E-02  0.1320468E+00
        -11   -1    0    0    0    0  0.00000000000E+00  0.00000000000E+00  0.45593999997E+02  0.45594000000E+02  0.51100000000E-03 0.  1.
         11   -1    0    0    0    0 -0.00000000000E+00 -0.00000000000E+00 -0.45593999997E+02  0.45594000000E+02  0.51100000000E-03 0. -1.
    9900012    2    1    2    0    0  0.86115629492E+01  0.41943851981E+02 -0.13988134586E+02  0.46142316026E+02  0.99999841817E+01 0.  0.
        -12    1    1    2    0    0 -0.86115629492E+01 -0.41943851981E+02  0.13988134586E+02  0.45045683974E+02  0.00000000000E+00 0.  1.
         11    1    3    3    0    0  0.51503582609E+01  0.27080916685E+02 -0.85773074238E+01  0.28869922785E+02  0.51100000000E-03 0. -1.
        -11    1    3    3    0    0  0.16554917633E+01  0.11748639770E+02 -0.15036115390E+01  0.11959600217E+02  0.51100000000E-03 0.  1.
        -12    1    3    3    0    0  0.18057129251E+01  0.31142955262E+01 -0.39072156237E+01  0.53127930246E+01  0.00000000000E+00 0.  1.
</event>
<event>
 7    1  0.4141894E-008  0.4614232E+02  0.7816164E-02  0.1320468E+00
        -11   -1    0    0    0    0  0.00000000000E+00  0.00000000000E+00  0.45593999997E+02  0.45594000000E+02  0.51100000000E-03 0.  1.
         11   -1    0    0    0    0 -0.00000000000E+00 -0.00000000000E+00 -0.45593999997E+02  0.45594000000E+02  0.51100000000E-03 0. -1.
    9900012    2    1    2    0    0  0.20208110785E+02  0.10865151962E+02 -0.38764599186E+02  0.46142318535E+02  0.10000007054E+02 0.  0.
        -12    1    1    2    0    0 -0.20208110785E+02 -0.10865151962E+02  0.38764599186E+02  0.45045681465E+02  0.00000000000E+00 0.  1.
         11    1    3    3    0    0  0.53551351083E+01  0.11248345047E+01 -0.10372070195E+02  0.11727001539E+02  0.51100000000E-03 0. -1.
        -11    1    3    3    0    0  0.15643483269E+01  0.24998720581E+01 -0.10868199382E+02  0.11261185731E+02  0.51100000000E-03 0.  1.
         12    1    3    3    0    0  0.13288627350E+02  0.72404453992E+01 -0.17524329608E+02  0.23154131265E+02  0.00000000000E+00 0. -1.
</event>
<event>
 7    1  0.4141894E-008  0.4614232E+02  0.7816164E-02  0.1320468E+00
        -11   -1    0    0    0    0  0.00000000000E+00  0.00000000000E+00  0.45593999997E+02  0.45594000000E+02  0.51100000000E-03 0.  1.
         11   -1    0    0    0    0 -0.00000000000E+00 -0.00000000000E+00 -0.45593999997E+02  0.45594000000E+02  0.51100000000E-03 0. -1.
    9900012    2    1    2    0    0 -0.27301839785E+02 -0.10309294352E+02 -0.34313866877E+02  0.46142318012E+02  0.10000002289E+02 0.  0.
        -12    1    1    2    0    0  0.27301839785E+02  0.10309294352E+02  0.34313866877E+02  0.45045681988E+02  0.00000000000E+00 0.  1.
         11    1    3    3    0    0 -0.51575579936E+01  0.12869275520E+00 -0.69900073567E+01  0.86877597452E+01  0.51100000000E-03 0. -1.
        -11    1    3    3    0    0 -0.13647674666E+02 -0.26799452295E+01 -0.17278238790E+02  0.22180592106E+02  0.51100000000E-03 0.  1.
         12    1    3    3    0    0 -0.84966071247E+01 -0.77580418781E+01 -0.10045620730E+02  0.15273966160E+02  0.00000000000E+00 0. -1.
</event>
<event>
 7    1  0.4141894E-008  0.4614232E+02  0.7816164E-02  0.1320468E+00
        -11   -1    0    0    0    0  0.00000000000E+00  0.00000000000E+00  0.45593999997E+02  0.45594000000E+02  0.51100000000E-03 0.  1.
         11   -1    0    0    0    0 -0.00000000000E+00 -0.00000000000E+00 -0.45593999997E+02  0.45594000000E+02  0.51100000000E-03 0. -1.
    9900012    2    1    2    0    0  0.43418047171E+02 -0.31228009326E+01 -0.11585968279E+02  0.46142319111E+02  0.10000012305E+02 0.  0.
        -12    1    1    2    0    0 -0.43418047171E+02  0.31228009326E+01  0.11585968279E+02  0.45045680889E+02  0.00000000000E+00 0.  1.
         11    1    3    3    0    0  0.27486631118E+02 -0.39081370866E+01 -0.80010002106E+01  0.28892982371E+02  0.51100000000E-03 0. -1.
        -11    1    3    3    0    0  0.13450307545E+02  0.10586747459E+01 -0.80897177534E+00  0.13516138534E+02  0.51100000000E-03 0.  1.
        -12    1    3    3    0    0  0.24811085081E+01 -0.27333859198E+00 -0.27759962936E+01  0.37331982048E+01  0.00000000000E+00 0.  1.
</event>
<event>
 7    1  0.4141894E-008  0.4614232E+02  0.7816164E-02  0.1320468E+00
        -11   -1    0    0    0    0  0.00000000000E+00  0.00000000000E+00  0.45593999997E+02  0.45594000000E+02  0.51100000000E-03 0. -1.
         11   -1    0    0    0    0 -0.00000000000E+00 -0.00000000000E+00 -0.45593999997E+02  0.45594000000E+02  0.51100000000E-03 0.  1.
    9900012    2    1    2    0    0 -0.30873707316E+02 -0.26153211338E+02  0.19797404266E+02  0.46142317827E+02  0.10000000601E+02 0.  0.
        -12    1    1    2    0    0  0.30873707316E+02  0.26153211338E+02 -0.19797404266E+02  0.45045682173E+02  0.00000000000E+00 0.  1.
         11    1    3    3    0    0 -0.43483598162E+01 -0.44119921770E+01  0.11973203549E+01  0.63093172653E+01  0.51100000000E-03 0. -1.
        -11    1    3    3    0    0 -0.69000048666E+01 -0.89303409913E+01  0.92811858823E+01  0.14611689465E+02  0.51100000000E-03 0.  1.
         12    1    3    3    0    0 -0.19625342633E+02 -0.12810878170E+02  0.93188980292E+01  0.25221311097E+02  0.00000000000E+00 0. -1.
</event>
<event>
 7    1  0.4141894E-008  0.4614232E+02  0.7816164E-02  0.1320468E+00
        -11   -1    0    0    0    0  0.00000000000E+00  0.00000000000E+00  0.45593999997E+02  0.45594000000E+02  0.51100000000E-03 0.  1.
         11   -1    0    0    0    0 -0.00000000000E+00 -0.00000000000E+00 -0.45593999997E+02  0.45594000000E+02  0.51100000000E-03 0. -1.
    9900012    2    1    2    0    0  0.17868749674E+02 -0.26948303037E+02 -0.31362555600E+02  0.46142321570E+02  0.10000034729E+02 0.  0.
        -12    1    1    2    0    0 -0.17868749674E+02  0.26948303037E+02  0.31362555600E+02  0.45045678430E+02  0.00000000000E+00 0.  1.
         11    1    3    3    0    0  0.30977355310E+01 -0.74607315105E+01 -0.46431170140E+01  0.93175649157E+01  0.51100000000E-03 0. -1.
        -11    1    3    3    0    0 -0.73240942368E-01 -0.40054964625E+00  0.34392147866E+00  0.53299765418E+00  0.51100000000E-03 0.  1.
         12    1    3    3    0    0  0.14844255085E+02 -0.19087021880E+02 -0.27063360065E+02  0.36291759000E+02  0.00000000000E+00 0. -1.
</event>
<event>
 7    1  0.4141894E-008  0.4614232E+02  0.7816164E-02  0.1320468E+00
        -11   -1    0    0    0    0  0.00000000000E+00  0.00000000000E+00  0.45593999997E+02  0.45594000000E+02  0.51100000000E-03 0. -1.
         11   -1    0    0    0    0 -0.00000000000E+00 -0.00000000000E+00 -0.45593999997E+02  0.45594000000E+02  0.51100000000E-03 0.  1.
    9900012    2    1    2    0    0  0.22325363677E+02  0.34393223355E+02 -0.18649336938E+02  0.46142318250E+02  0.10000004462E+02 0.  0.
        -12    1    1    2    0    0 -0.22325363677E+02 -0.34393223355E+02  0.18649336938E+02  0.45045681750E+02  0.00000000000E+00 0.  1.
         11    1    3    3    0    0  0.57974332093E+01  0.12547002022E+02 -0.32167543742E+01  0.14191018305E+02  0.51100000000E-03 0. -1.
        -11    1    3    3    0    0  0.93478388002E+01  0.80243073933E+01 -0.80348219999E+01  0.14708159783E+02  0.51100000000E-03 0.  1.
        -12    1    3    3    0    0  0.71800916674E+01  0.13821913940E+02 -0.73977605641E+01  0.17243140163E+02  0.00000000000E+00 0.  1.
</event>
<event>
 7    1  0.4141894E-008  0.4614232E+02  0.7816164E-02  0.1320468E+00
        -11   -1    0    0    0    0  0.00000000000E+00  0.00000000000E+00  0.45593999997E+02  0.45594000000E+02  0.51100000000E-03 0. -1.
         11   -1    0    0    0    0 -0.00000000000E+00 -0.00000000000E+00 -0.45593999997E+02  0.45594000000E+02  0.51100000000E-03 0.  1.
    9900012    2    1    2    0    0  0.38062059212E+02  0.23944314264E+02 -0.26576146055E+01  0.46142318160E+02  0.10000003635E+02 0.  0.
        -12    1    1    2    0    0 -0.38062059212E+02 -0.23944314264E+02  0.26576146055E+01  0.45045681840E+02  0.00000000000E+00 0.  1.
         11    1    3    3    0    0  0.10253809018E+02  0.71283364575E+01  0.14511542579E+01  0.12572176779E+02  0.51100000000E-03 0. -1.
        -11    1    3    3    0    0  0.46885699342E+01  0.47466053918E-01 -0.13355575474E+01  0.48753107878E+01  0.51100000000E-03 0.  1.
        -12    1    3    3    0    0  0.23119680260E+02  0.16768511753E+02 -0.27732113160E+01  0.28694830592E+02  0.00000000000E+00 0.  1.
</event>
<event>
 7    1  0.4141894E-008  0.4614232E+02  0.7816164E-02  0.1320468E+00
        -11   -1    0    0    0    0  0.00000000000E+00  0.00000000000E+00  0.45593999997E+02  0.45594000000E+02  0.51100000000E-03 0.  1.
         11   -1    0    0    0    0 -0.00000000000E+00 -0.00000000000E+00 -0.45593999997E+02  0.45594000000E+02  0.51100000000E-03 0. -1.
    9900012    2    1    2    0    0 -0.14732827436E+02 -0.54322200183E+01 -0.42220235069E+02  0.46142317989E+02  0.10000002077E+02 0.  0.
        -12    1    1    2    0    0  0.14732827436E+02  0.54322200183E+01  0.42220235069E+02  0.45045682011E+02  0.00000000000E+00 0.  1.
         11    1    3    3    0    0 -0.94346789714E+01  0.20688789461E+00 -0.19795167218E+02  0.21929537509E+02  0.51100000000E-03 0. -1.
        -11    1    3    3    0    0 -0.26948400230E+01 -0.15508824511E+00 -0.10369380612E+02  0.10714955420E+02  0.51100000000E-03 0.  1.
        -12    1    3    3    0    0 -0.26033084417E+01 -0.54840196678E+01 -0.12055687238E+02  0.13497825059E+02  0.00000000000E+00 0.  1.
</event>
<event>
 7    1  0.4141894E-008  0.4614232E+02  0.7816164E-02  0.1320468E+00
        -11   -1    0    0    0    0  0.00000000000E+00  0.00000000000E+00  0.45593999997E+02  0.45594000000E+02  0.51100000000E-03 0.  1.
         11   -1    0    0    0    0 -0.00000000000E+00 -0.00000000000E+00 -0.45593999997E+02  0.45594000000E+02  0.51100000000E-03 0. -1.
    9900012    2    1    2    0    0 -0.23984470812E+02 -0.12649895949E+02 -0.35969967878E+02  0.46142319887E+02  0.10000019390E+02 0.  0.
        -12    1    1    2    0    0  0.23984470812E+02  0.12649895949E+02  0.35969967878E+02  0.45045680113E+02  0.00000000000E+00 0.  1.
         11    1    3    3    0    0 -0.14788087194E+02 -0.70919068673E+01 -0.18355144681E+02  0.24614914227E+02  0.51100000000E-03 0. -1.
        -11    1    3    3    0    0 -0.66984161878E+01 -0.21616508892E+01 -0.62764238954E+01  0.94305361018E+01  0.51100000000E-03 0.  1.
         12    1    3    3    0    0 -0.24979674303E+01 -0.33963381929E+01 -0.11338399302E+02  0.12096869559E+02  0.00000000000E+00 0. -1.
</event>
<event>
 7    1  0.4141894E-008  0.4614232E+02  0.7816164E-02  0.1320468E+00
        -11   -1    0    0    0    0  0.00000000000E+00  0.00000000000E+00  0.45593999997E+02  0.45594000000E+02  0.51100000000E-03 0.  1.
         11   -1    0    0    0    0 -0.00000000000E+00 -0.00000000000E+00 -0.45593999997E+02  0.45594000000E+02  0.51100000000E-03 0. -1.
    9900012    2    1    2    0    0 -0.20776417073E+02 -0.35363355215E+02 -0.18624904721E+02  0.46142317917E+02  0.10000001424E+02 0.  0.
        -12    1    1    2    0    0  0.20776417073E+02  0.35363355215E+02  0.18624904721E+02  0.45045682083E+02  0.00000000000E+00 0.  1.
         11    1    3    3    0    0 -0.28437940814E+01 -0.17151271642E+01 -0.57535331392E-01  0.33214660230E+01  0.51100000000E-03 0. -1.
        -11    1    3    3    0    0 -0.22717220112E+01 -0.12585670569E+01 -0.98945316209E+00  0.27791599008E+01  0.51100000000E-03 0.  1.
         12    1    3    3    0    0 -0.15660900980E+02 -0.32389660994E+02 -0.17577916228E+02  0.40041691993E+02  0.00000000000E+00 0. -1.
</event>
<event>
 7    1  0.4141894E-008  0.4614232E+02  0.7816164E-02  0.1320468E+00
        -11   -1    0    0    0    0  0.00000000000E+00  0.00000000000E+00  0.45593999997E+02  0.45594000000E+02  0.51100000000E-03 0. -1.
         11   -1    0    0    0    0 -0.00000000000E+00 -0.00000000000E+00 -0.45593999997E+02  0.45594000000E+02  0.51100000000E-03 0.  1.
    9900012    2    1    2    0    0  0.33697958974E+02 -0.54646925225E+01  0.29388740664E+02  0.46142318951E+02  0.10000010852E+02 0.  0.
        -12    1    1    2    0    0 -0.33697958974E+02  0.54646925225E+01 -0.29388740664E+02  0.45045681049E+02  0.00000000000E+00 0.  1.
         11    1    3    3    0    0  0.10240406199E+02  0.38309798784E+00  0.13073189078E+02  0.16610868615E+02  0.51100000000E-03 0. -1.
        -11    1    3    3    0    0  0.31273429027E+01  0.46947502897E+00  0.33406977727E+01  0.46001024232E+01  0.51100000000E-03 0.  1.
         12    1    3    3    0    0  0.20330209872E+02 -0.63172655393E+01  0.12974853813E+02  0.24931347913E+02  0.00000000000E+00 0. -1.
</event>
<event>
 7    1  0.4141894E-008  0.4614232E+02  0.7816164E-02  0.1320468E+00
        -11   -1    0    0    0    0  0.00000000000E+00  0.00000000000E+00  0.45593999997E+02  0.45594000000E+02  0.51100000000E-03 0.  1.
         11   -1    0    0    0    0 -0.00000000000E+00 -0.00000000000E+00 -0.45593999997E+02  0.45594000000E+02  0.51100000000E-03 0. -1.
    9900012    2    1    2    0    0 -0.31719244537E+02 -0.68403306852E+01 -0.31244405111E+02  0.46142318203E+02  0.10000004027E+02 0.  0.
        -12    1    1    2    0    0  0.31719244537E+02  0.68403306852E+01  0.31244405111E+02  0.45045681797E+02  0.00000000000E+00 0.  1.
         11    1    3    3    0    0 -0.21370117791E+02 -0.35058135327E+01 -0.17506973417E+02  0.27847204194E+02  0.51100000000E-03 0. -1.
        -11    1    3    3    0    0 -0.87617060189E+01 -0.37124606861E+01 -0.83295153778E+01  0.12646370365E+02  0.51100000000E-03 0.  1.
        -12    1    3    3    0    0 -0.15874207263E+01  0.37794353356E+00 -0.54079163155E+01  0.56487436438E+01  0.00000000000E+00 0.  1.
</event>
<event>
 7    1  0.4141894E-008  0.4614232E+02  0.7816164E-02  0.1320468E+00
        -11   -1    0    0    0    0  0.00000000000E+00  0.00000000000E+00  0.45593999997E+02  0.45594000000E+02  0.51100000000E-03 0.  1.
         11   -1    0    0    0    0 -0.00000000000E+00 -0.00000000000E+00 -0.45593999997E+02  0.45594000000E+02  0.51100000000E-03 0. -1.
    9900012    2    1    2    0    0  0.13387699018E+02  0.13608883057E+02 -0.40800506153E+02  0.46142317794E+02  0.10000000298E+02 0.  0.
        -12    1    1    2    0    0 -0.13387699018E+02 -0.13608883057E+02  0.40800506153E+02  0.45045682206E+02  0.00000000000E+00 0.  1.
         11    1    3    3    0    0  0.11098726067E+02  0.14411707424E+02 -0.32300122955E+02  0.37069893099E+02  0.51100000000E-03 0. -1.
        -11    1    3    3    0    0  0.12914546598E+01  0.55754265563E+00 -0.48732785579E+01  0.50722335431E+01  0.51100000000E-03 0.  1.
         12    1    3    3    0    0  0.99751829074E+00 -0.13603670231E+01 -0.36271046402E+01  0.40001911515E+01  0.00000000000E+00 0. -1.
</event>
<event>
 7    1  0.4141894E-008  0.4614232E+02  0.7816164E-02  0.1320468E+00
        -11   -1    0    0    0    0  0.00000000000E+00  0.00000000000E+00  0.45593999997E+02  0.45594000000E+02  0.51100000000E-03 0.  1.
         11   -1    0    0    0    0 -0.00000000000E+00 -0.00000000000E+00 -0.45593999997E+02  0.45594000000E+02  0.51100000000E-03 0. -1.
    9900012    2    1    2    0    0  0.21608634348E+02 -0.93682974302E+01 -0.38398117238E+02  0.46142317826E+02  0.10000000590E+02 0.  0.
        -12    1    1    2    0    0 -0.21608634348E+02  0.93682974302E+01  0.38398117238E+02  0.45045682174E+02  0.00000000000E+00 0.  1.
         11    1    3    3    0    0  0.12462419026E+02 -0.20059183395E+01 -0.20092364375E+02  0.23728436586E+02  0.51100000000E-03 0. -1.
        -11    1    3    3    0    0  0.28850930608E+00 -0.49261862122E+00  0.33529768589E+00  0.66206912400E+00  0.51100000000E-03 0.  1.
         12    1    3    3    0    0  0.88577060155E+01 -0.68697604695E+01 -0.18641050549E+02  0.21751812116E+02  0.00000000000E+00 0. -1.
</event>
<event>
 7    1  0.4141894E-008  0.4614232E+02  0.7816164E-02  0.1320468E+00
        -11   -1    0    0    0    0  0.00000000000E+00  0.00000000000E+00  0.45593999997E+02  0.45594000000E+02  0.51100000000E-03 0. -1.
         11   -1    0    0    0    0 -0.00000000000E+00 -0.00000000000E+00 -0.45593999997E+02  0.45594000000E+02  0.51100000000E-03 0.  1.
    9900012    2    1    2    0    0  0.27122099763E+01 -0.63294780180E+01  0.44516235074E+02  0.46142316965E+02  0.99999927387E+01 0.  0.
        -12    1    1    2    0    0 -0.27122099763E+01  0.63294780180E+01 -0.44516235074E+02  0.45045683035E+02  0.00000000000E+00 0.  1.
         11    1    3    3    0    0  0.37780956631E+00 -0.20279989267E+01  0.61207869894E+01  0.64590675291E+01  0.51100000000E-03 0. -1.
        -11    1    3    3    0    0 -0.25865796333E+01 -0.16464054161E+01  0.53352634621E+01  0.61535421885E+01  0.51100000000E-03 0.  1.
         12    1    3    3    0    0  0.49209800433E+01 -0.26550736752E+01  0.33060184623E+02  0.33529707247E+02  0.00000000000E+00 0. -1.
</event>
<event>
 7    1  0.4141894E-008  0.4614232E+02  0.7816164E-02  0.1320468E+00
        -11   -1    0    0    0    0  0.00000000000E+00  0.00000000000E+00  0.45593999997E+02  0.45594000000E+02  0.51100000000E-03 0. -1.
         11   -1    0    0    0    0 -0.00000000000E+00 -0.00000000000E+00 -0.45593999997E+02  0.45594000000E+02  0.51100000000E-03 0.  1.
    9900012    2    1    2    0    0  0.56241642517E+01 -0.44114479742E+02  0.71690302004E+01  0.46142317183E+02  0.99999947273E+01 0.  0.
        -12    1    1    2    0    0 -0.56241642517E+01  0.44114479742E+02 -0.71690302004E+01  0.45045682817E+02  0.00000000000E+00 0.  1.
         11    1    3    3    0    0 -0.14145745036E+01 -0.25224037169E+02  0.28535971804E+01  0.25424320822E+02  0.51100000000E-03 0.  1.
        -11    1    3    3    0    0  0.23051727177E+01 -0.90941478281E+01  0.21371866709E+01  0.96221054403E+01  0.51100000000E-03 0. -1.
        -12    1    3    3    0    0  0.47335660376E+01 -0.97962947448E+01  0.21782463491E+01  0.11095890920E+02  0.00000000000E+00 0.  1.
</event>
<event>
 7    1  0.4141894E-008  0.4614232E+02  0.7816164E-02  0.1320468E+00
        -11   -1    0    0    0    0  0.00000000000E+00  0.00000000000E+00  0.45593999997E+02  0.45594000000E+02  0.51100000000E-03 0.  1.
         11   -1    0    0    0    0 -0.00000000000E+00 -0.00000000000E+00 -0.45593999997E+02  0.45594000000E+02  0.51100000000E-03 0. -1.
    9900012    2    1    2    0    0  0.53755323158E+01 -0.44442965143E+02 -0.50039484219E+01  0.46142323202E+02  0.10000049612E+02 0.  0.
        -12    1    1    2    0    0 -0.53755323158E+01  0.44442965143E+02  0.50039484219E+01  0.45045676798E+02  0.00000000000E+00 0.  1.
         11    1    3    3    0    0 -0.73981111040E+00 -0.86898671121E+00  0.95881222849E+00  0.14905634954E+01  0.51100000000E-03 0.  1.
        -11    1    3    3    0    0  0.59033685775E+01 -0.26052066488E+02 -0.41893465436E+01  0.27039056078E+02  0.51100000000E-03 0. -1.
         12    1    3    3    0    0  0.21197484868E+00 -0.17521911944E+02 -0.17734141068E+01  0.17612703629E+02  0.00000000000E+00 0. -1.
</event>
<event>
 7    1  0.4141894E-008  0.4614232E+02  0.7816164E-02  0.1320468E+00
        -11   -1    0    0    0    0  0.00000000000E+00  0.00000000000E+00  0.45593999997E+02  0.45594000000E+02  0.51100000000E-03 0. -1.
         11   -1    0    0    0    0 -0.00000000000E+00 -0.00000000000E+00 -0.45593999997E+02  0.45594000000E+02  0.51100000000E-03 0.  1.
    9900012    2    1    2    0    0  0.19974972389E+01 -0.27875270731E+02  0.35328354897E+02  0.46142319039E+02  0.10000011650E+02 0.  0.
        -12    1    1    2    0    0 -0.19974972389E+01  0.27875270731E+02 -0.35328354897E+02  0.45045680961E+02  0.00000000000E+00 0.  1.
         11    1    3    3    0    0  0.88872296275E+00 -0.12385983720E+02  0.19636142911E+02  0.23233177353E+02  0.51100000000E-03 0. -1.
        -11    1    3    3    0    0 -0.36700365156E+00 -0.12925595951E+02  0.15121691073E+02  0.19896513854E+02  0.51100000000E-03 0.  1.
        -12    1    3    3    0    0  0.14757779278E+01 -0.25636910602E+01  0.57052091301E+00  0.30126278324E+01  0.00000000000E+00 0.  1.
</event>
<event>
 7    1  0.4141894E-008  0.4614232E+02  0.7816164E-02  0.1320468E+00
        -11   -1    0    0    0    0  0.00000000000E+00  0.00000000000E+00  0.45593999997E+02  0.45594000000E+02  0.51100000000E-03 0. -1.
         11   -1    0    0    0    0 -0.00000000000E+00 -0.00000000000E+00 -0.45593999997E+02  0.45594000000E+02  0.51100000000E-03 0.  1.
    9900012    2    1    2    0    0  0.15310122582E+02 -0.41132649606E+02  0.10139956446E+02  0.46142318367E+02  0.10000005522E+02 0.  0.
        -12    1    1    2    0    0 -0.15310122582E+02  0.41132649606E+02 -0.10139956446E+02  0.45045681633E+02  0.00000000000E+00 0.  1.
         11    1    3    3    0    0  0.13223143059E+01 -0.56632341647E+01 -0.17845037254E+01  0.60831891418E+01  0.51100000000E-03 0.  1.
        -11    1    3    3    0    0  0.83509795279E+01 -0.24706556819E+02  0.76314613383E+01  0.27173369525E+02  0.51100000000E-03 0. -1.
        -12    1    3    3    0    0  0.56368287486E+01 -0.10762858622E+02  0.42929988336E+01  0.12885759700E+02  0.00000000000E+00 0.  1.
</event>
<event>
 7    1  0.4141894E-008  0.4614232E+02  0.7816164E-02  0.1320468E+00
        -11   -1    0    0    0    0  0.00000000000E+00  0.00000000000E+00  0.45593999997E+02  0.45594000000E+02  0.51100000000E-03 0.  1.
         11   -1    0    0    0    0 -0.00000000000E+00 -0.00000000000E+00 -0.45593999997E+02  0.45594000000E+02  0.51100000000E-03 0. -1.
    9900012    2    1    2    0    0  0.32442226503E+02 -0.15835634499E+02 -0.26941568916E+02  0.46142317453E+02  0.99999971931E+01 0.  0.
        -12    1    1    2    0    0 -0.32442226503E+02  0.15835634499E+02  0.26941568916E+02  0.45045682547E+02  0.00000000000E+00 0.  1.
         11    1    3    3    0    0  0.17393128290E+02 -0.50133303580E+01 -0.17511392165E+02  0.25185377678E+02  0.51100000000E-03 0. -1.
        -11    1    3    3    0    0  0.22653435924E+01 -0.62401818070E+00 -0.93658371035E+00  0.25294998694E+01  0.51100000000E-03 0.  1.
         12    1    3    3    0    0  0.12783754621E+02 -0.10198285961E+02 -0.84935930402E+01  0.18427439906E+02  0.00000000000E+00 0. -1.
</event>
<event>
 7    1  0.4141894E-008  0.4614232E+02  0.7816164E-02  0.1320468E+00
        -11   -1    0    0    0    0  0.00000000000E+00  0.00000000000E+00  0.45593999997E+02  0.45594000000E+02  0.51100000000E-03 0.  1.
         11   -1    0    0    0    0 -0.00000000000E+00 -0.00000000000E+00 -0.45593999997E+02  0.45594000000E+02  0.51100000000E-03 0. -1.
    9900012    2    1    2    0    0 -0.16348416112E+02 -0.10191740298E+02 -0.40718193263E+02  0.46142317162E+02  0.99999945393E+01 0.  0.
        -12    1    1    2    0    0  0.16348416112E+02  0.10191740298E+02  0.40718193263E+02  0.45045682838E+02  0.00000000000E+00 0.  1.
         11    1    3    3    0    0 -0.35660284188E+01 -0.85211226316E+00 -0.37602578383E+01  0.52518752141E+01  0.51100000000E-03 0.  1.
        -11    1    3    3    0    0 -0.13287206957E+02 -0.70049478494E+01 -0.30339587783E+02  0.33854242721E+02  0.51100000000E-03 0. -1.
        -12    1    3    3    0    0  0.50481926352E+00 -0.23346801855E+01 -0.66183476419E+01  0.70361992273E+01  0.00000000000E+00 0.  1.
</event>
<event>
 7    1  0.4141894E-008  0.4614232E+02  0.7816164E-02  0.1320468E+00
        -11   -1    0    0    0    0  0.00000000000E+00  0.00000000000E+00  0.45593999997E+02  0.45594000000E+02  0.51100000000E-03 0. -1.
         11   -1    0    0    0    0 -0.00000000000E+00 -0.00000000000E+00 -0.45593999997E+02  0.45594000000E+02  0.51100000000E-03 0.  1.
    9900012    2    1    2    0    0  0.34382734340E+02 -0.27282848344E+02 -0.10128534225E+02  0.46142318298E+02  0.10000004897E+02 0.  0.
        -12    1    1    2    0    0 -0.34382734340E+02  0.27282848344E+02  0.10128534225E+02  0.45045681702E+02  0.00000000000E+00 0.  1.
         11    1    3    3    0    0  0.16252371427E+02 -0.96613624922E+01 -0.26893218761E+01  0.19097485557E+02  0.51100000000E-03 0. -1.
        -11    1    3    3    0    0  0.14127835777E+02 -0.13069810701E+02 -0.28802776552E+01  0.19460516312E+02  0.51100000000E-03 0.  1.
        -12    1    3    3    0    0  0.40025271365E+01 -0.45516751508E+01 -0.45589346934E+01  0.75843164291E+01  0.00000000000E+00 0.  1.
</event>
<event>
 7    1  0.4141894E-008  0.4614230E+02  0.7816164E-02  0.1320468E+00
        -11   -1    0    0    0    0  0.00000000000E+00  0.00000000000E+00  0.45593999997E+02  0.45594000000E+02  0.51100000000E-03 0.  1.
         11   -1    0    0    0    0 -0.00000000000E+00 -0.00000000000E+00 -0.45593999997E+02  0.45594000000E+02  0.51100000000E-03 0. -1.
    9900012    2    1    2    0    0 -0.34505429603E+02  0.13520175257E+02 -0.25606542316E+02  0.46142302975E+02  0.99998651692E+01 0.  0.
        -12    1    1    2    0    0  0.34505429603E+02 -0.13520175257E+02  0.25606542316E+02  0.45045697025E+02  0.00000000000E+00 0.  1.
         11    1    3    3    0    0 -0.42145405903E+00 -0.46906889575E+00 -0.53171569306E+00  0.82484604151E+00  0.51100000000E-03 0. -1.
        -11    1    3    3    0    0 -0.23138256553E+02  0.74771327191E+01 -0.12192224696E+02  0.27201778863E+02  0.51100000000E-03 0.  1.
         12    1    3    3    0    0 -0.10945718991E+02  0.65121114332E+01 -0.12882601927E+02  0.18115678071E+02  0.00000000000E+00 0. -1.
</event>
<event>
 7    1  0.4141894E-008  0.4614232E+02  0.7816164E-02  0.1320468E+00
        -11   -1    0    0    0    0  0.00000000000E+00  0.00000000000E+00  0.45593999997E+02  0.45594000000E+02  0.51100000000E-03 0. -1.
         11   -1    0    0    0    0 -0.00000000000E+00 -0.00000000000E+00 -0.45593999997E+02  0.45594000000E+02  0.51100000000E-03 0.  1.
    9900012    2    1    2    0    0  0.95117550130E+01 -0.16090418353E+02  0.40984612745E+02  0.46142317320E+02  0.99999959821E+01 0.  0.
        -12    1    1    2    0    0 -0.95117550130E+01  0.16090418353E+02 -0.40984612745E+02  0.45045682680E+02  0.00000000000E+00 0.  1.
         11    1    3    3    0    0  0.29445704819E+01 -0.14167565561E+01  0.56379926665E+01  0.65164910827E+01  0.51100000000E-03 0. -1.
        -11    1    3    3    0    0 -0.40822295227E+00 -0.28553407733E+01  0.13665011190E+02  0.13966107117E+02  0.51100000000E-03 0.  1.
         12    1    3    3    0    0  0.69754074834E+01 -0.11818321024E+02  0.21681608888E+02  0.25659719121E+02  0.00000000000E+00 0. -1.
</event>
<event>
 7    1  0.4141894E-008  0.4614232E+02  0.7816164E-02  0.1320468E+00
        -11   -1    0    0    0    0  0.00000000000E+00  0.00000000000E+00  0.45593999997E+02  0.45594000000E+02  0.51100000000E-03 0. -1.
         11   -1    0    0    0    0 -0.00000000000E+00 -0.00000000000E+00 -0.45593999997E+02  0.45594000000E+02  0.51100000000E-03 0.  1.
    9900012    2    1    2    0    0 -0.42922266735E+02 -0.11472851332E+02 -0.74273899777E+01  0.46142318506E+02  0.10000006793E+02 0.  0.
        -12    1    1    2    0    0  0.42922266735E+02  0.11472851332E+02  0.74273899777E+01  0.45045681494E+02  0.00000000000E+00 0.  1.
         11    1    3    3    0    0  0.34058107111E-02 -0.11158129605E+01 -0.57877417164E+00  0.12569924284E+01  0.51100000000E-03 0. -1.
        -11    1    3    3    0    0 -0.96292635087E+01 -0.18102413485E+01 -0.32440116643E+01  0.10321012615E+02  0.51100000000E-03 0.  1.
         12    1    3    3    0    0 -0.33296409037E+02 -0.85467970230E+01 -0.36046041418E+01  0.34564313463E+02  0.00000000000E+00 0. -1.
</event>
<event>
 7    1  0.4141894E-008  0.4614232E+02  0.7816164E-02  0.1320468E+00
        -11   -1    0    0    0    0  0.00000000000E+00  0.00000000000E+00  0.45593999997E+02  0.45594000000E+02  0.51100000000E-03 0.  1.
         11   -1    0    0    0    0 -0.00000000000E+00 -0.00000000000E+00 -0.45593999997E+02  0.45594000000E+02  0.51100000000E-03 0. -1.
    9900012    2    1    2    0    0 -0.39933816425E+02 -0.18521269982E+01  0.20759899566E+02  0.46142317646E+02  0.99999989535E+01 0.  0.
        -12    1    1    2    0    0  0.39933816425E+02  0.18521269982E+01 -0.20759899566E+02  0.45045682354E+02  0.00000000000E+00 0.  1.
         11    1    3    3    0    0 -0.13667449836E+02  0.86747818645E+00  0.10635740868E+02  0.17339858348E+02  0.51100000000E-03 0. -1.
        -11    1    3    3    0    0 -0.78944328073E+01 -0.10415190032E-02  0.56245306354E+01  0.96931633415E+01  0.51100000000E-03 0.  1.
        -12    1    3    3    0    0 -0.18371933782E+02 -0.27185636657E+01  0.44996280620E+01  0.19109295957E+02  0.00000000000E+00 0.  1.
</event>
<event>
 7    1  0.4141894E-008  0.4614232E+02  0.7816164E-02  0.1320468E+00
        -11   -1    0    0    0    0  0.00000000000E+00  0.00000000000E+00  0.45593999997E+02  0.45594000000E+02  0.51100000000E-03 0.  1.
         11   -1    0    0    0    0 -0.00000000000E+00 -0.00000000000E+00 -0.45593999997E+02  0.45594000000E+02  0.51100000000E-03 0. -1.
    9900012    2    1    2    0    0 -0.21764501100E+02 -0.15517795622E+02 -0.36257659382E+02  0.46142319264E+02  0.10000013707E+02 0.  0.
        -12    1    1    2    0    0  0.21764501100E+02  0.15517795622E+02  0.36257659382E+02  0.45045680736E+02  0.00000000000E+00 0.  1.
         11    1    3    3    0    0 -0.11126556145E+02 -0.10242292980E+02 -0.14754437546E+02  0.21128138694E+02  0.51100000000E-03 0. -1.
        -11    1    3    3    0    0 -0.10849409739E+02 -0.43522339082E+01 -0.18678904853E+02  0.22035269875E+02  0.51100000000E-03 0.  1.
        -12    1    3    3    0    0  0.21146478417E+00 -0.92326873392E+00 -0.28243169832E+01  0.29789106955E+01  0.00000000000E+00 0.  1.
</event>
<event>
 7    1  0.4141894E-008  0.4614232E+02  0.7816164E-02  0.1320468E+00
        -11   -1    0    0    0    0  0.00000000000E+00  0.00000000000E+00  0.45593999997E+02  0.45594000000E+02  0.51100000000E-03 0.  1.
         11   -1    0    0    0    0 -0.00000000000E+00 -0.00000000000E+00 -0.45593999997E+02  0.45594000000E+02  0.51100000000E-03 0. -1.
    9900012    2    1    2    0    0  0.65854495876E+00  0.11437343738E+02 -0.43564515284E+02  0.46142317575E+02  0.99999983004E+01 0.  0.
        -12    1    1    2    0    0 -0.65854495876E+00 -0.11437343738E+02  0.43564515284E+02  0.45045682425E+02  0.00000000000E+00 0.  1.
         11    1    3    3    0    0  0.54327884170E+00 -0.58671337693E+00 -0.37341301028E+01  0.38187841485E+01  0.51100000000E-03 0. -1.
        -11    1    3    3    0    0 -0.15411140737E+01 -0.54008446436E+00 -0.41777586026E+01  0.44855758850E+01  0.51100000000E-03 0.  1.
         12    1    3    3    0    0  0.16563801907E+01  0.12564141579E+02 -0.35652626578E+02  0.37837957541E+02  0.00000000000E+00 0. -1.
</event>
<event>
 7    1  0.4141894E-008  0.4614232E+02  0.7816164E-02  0.1320468E+00
        -11   -1    0    0    0    0  0.00000000000E+00  0.00000000000E+00  0.45593999997E+02  0.45594000000E+02  0.51100000000E-03 0.  1.
         11   -1    0    0    0    0 -0.00000000000E+00 -0.00000000000E+00 -0.45593999997E+02  0.45594000000E+02  0.51100000000E-03 0. -1.
    9900012    2    1    2    0    0 -0.50908638315E+01 -0.37523010550E+02 -0.24397135125E+02  0.46142318547E+02  0.10000007166E+02 0.  0.
        -12    1    1    2    0    0  0.50908638315E+01  0.37523010550E+02  0.24397135125E+02  0.45045681453E+02  0.00000000000E+00 0.  1.
         11    1    3    3    0    0 -0.14189822184E+01 -0.26792312359E+02 -0.13201342599E+02  0.29901788555E+02  0.51100000000E-03 0. -1.
        -11    1    3    3    0    0 -0.53816693760E+00 -0.77061996934E+00 -0.24366914081E+01  0.26116937166E+01  0.51100000000E-03 0.  1.
         12    1    3    3    0    0 -0.31337146755E+01 -0.99600782213E+01 -0.87591011173E+01  0.13628836276E+02  0.00000000000E+00 0. -1.
</event>
<event>
 7    1  0.4141894E-008  0.4614232E+02  0.7816164E-02  0.1320468E+00
        -11   -1    0    0    0    0  0.00000000000E+00  0.00000000000E+00  0.45593999997E+02  0.45594000000E+02  0.51100000000E-03 0. -1.
         11   -1    0    0    0    0 -0.00000000000E+00 -0.00000000000E+00 -0.45593999997E+02  0.45594000000E+02  0.51100000000E-03 0.  1.
    9900012    2    1    2    0    0 -0.43782822436E+02 -0.10566850117E+02  0.72080898845E+00  0.46142318437E+02  0.10000006161E+02 0.  0.
        -12    1    1    2    0    0  0.43782822436E+02  0.10566850117E+02 -0.72080898845E+00  0.45045681563E+02  0.00000000000E+00 0.  1.
         11    1    3    3    0    0 -0.13496421640E+01 -0.17274670834E+00  0.14162354444E+01  0.19639497171E+01  0.51100000000E-03 0. -1.
        -11    1    3    3    0    0 -0.31869020835E+01 -0.25304372886E+01  0.69320203052E+00  0.41279519229E+01  0.51100000000E-03 0.  1.
         12    1    3    3    0    0 -0.39246278189E+02 -0.78636661204E+01 -0.13886284864E+01  0.40050416797E+02  0.00000000000E+00 0. -1.
</event>
<event>
 7    1  0.4141894E-008  0.4614232E+02  0.7816164E-02  0.1320468E+00
        -11   -1    0    0    0    0  0.00000000000E+00  0.00000000000E+00  0.45593999997E+02  0.45594000000E+02  0.51100000000E-03 0.  1.
         11   -1    0    0    0    0 -0.00000000000E+00 -0.00000000000E+00 -0.45593999997E+02  0.45594000000E+02  0.51100000000E-03 0. -1.
    9900012    2    1    2    0    0  0.16819314121E+02  0.24792219461E+02 -0.33638817449E+02  0.46142317491E+02  0.99999975408E+01 0.  0.
        -12    1    1    2    0    0 -0.16819314121E+02 -0.24792219461E+02  0.33638817449E+02  0.45045682509E+02  0.00000000000E+00 0.  1.
         11    1    3    3    0    0  0.17694303190E+01  0.67592447150E+01 -0.13128188125E+02  0.14871704559E+02  0.51100000000E-03 0. -1.
        -11    1    3    3    0    0  0.64750882366E+00  0.27340155330E+00 -0.34404059480E+00  0.78254730084E+00  0.51100000000E-03 0.  1.
         12    1    3    3    0    0  0.14402374978E+02  0.17759573193E+02 -0.20166588728E+02  0.30488065632E+02  0.00000000000E+00 0. -1.
</event>
<event>
 7    1  0.4141894E-008  0.4614232E+02  0.7816164E-02  0.1320468E+00
        -11   -1    0    0    0    0  0.00000000000E+00  0.00000000000E+00  0.45593999997E+02  0.45594000000E+02  0.51100000000E-03 0.  1.
         11   -1    0    0    0    0 -0.00000000000E+00 -0.00000000000E+00 -0.45593999997E+02  0.45594000000E+02  0.51100000000E-03 0. -1.
    9900012    2    1    2    0    0 -0.36751879001E+02 -0.76362853895E+01 -0.24901805945E+02  0.46142318698E+02  0.10000008545E+02 0.  0.
        -12    1    1    2    0    0  0.36751879001E+02  0.76362853895E+01  0.24901805945E+02  0.45045681302E+02  0.00000000000E+00 0.  1.
         11    1    3    3    0    0 -0.27952436418E+02 -0.48868094253E+01 -0.22349841234E+02  0.36121115867E+02  0.51100000000E-03 0. -1.
        -11    1    3    3    0    0 -0.84085385859E+01 -0.17105240310E+01 -0.22567783580E+01  0.88725679726E+01  0.51100000000E-03 0.  1.
         12    1    3    3    0    0 -0.39090399646E+00 -0.10389519332E+01 -0.29518635323E+00  0.11486348581E+01  0.00000000000E+00 0. -1.
</event>
<event>
 7    1  0.4141894E-008  0.4614232E+02  0.7816164E-02  0.1320468E+00
        -11   -1    0    0    0    0  0.00000000000E+00  0.00000000000E+00  0.45593999997E+02  0.45594000000E+02  0.51100000000E-03 0.  1.
         11   -1    0    0    0    0 -0.00000000000E+00 -0.00000000000E+00 -0.45593999997E+02  0.45594000000E+02  0.51100000000E-03 0. -1.
    9900012    2    1    2    0    0 -0.57434555891E+01  0.24009714858E+02 -0.37678372646E+02  0.46142318132E+02  0.10000003387E+02 0.  0.
        -12    1    1    2    0    0  0.57434555891E+01 -0.24009714858E+02  0.37678372646E+02  0.45045681868E+02  0.00000000000E+00 0.  1.
         11    1    3    3    0    0 -0.35841473985E+00  0.10011685864E+02 -0.82397137360E+01  0.12971322125E+02  0.51100000000E-03 0. -1.
        -11    1    3    3    0    0 -0.19892492811E+01  0.91741094700E+01 -0.18103084335E+02  0.20392230382E+02  0.51100000000E-03 0.  1.
        -12    1    3    3    0    0 -0.33957915681E+01  0.48239195237E+01 -0.11335574575E+02  0.12778765625E+02  0.00000000000E+00 0.  1.
</event>
<event>
 7    1  0.4141894E-008  0.4614232E+02  0.7816164E-02  0.1320468E+00
        -11   -1    0    0    0    0  0.00000000000E+00  0.00000000000E+00  0.45593999997E+02  0.45594000000E+02  0.51100000000E-03 0. -1.
         11   -1    0    0    0    0 -0.00000000000E+00 -0.00000000000E+00 -0.45593999997E+02  0.45594000000E+02  0.51100000000E-03 0.  1.
    9900012    2    1    2    0    0 -0.24643137635E+02 -0.37481870745E+02  0.41156638514E+01  0.46142317010E+02  0.99999931542E+01 0.  0.
        -12    1    1    2    0    0  0.24643137635E+02  0.37481870745E+02 -0.41156638514E+01  0.45045682990E+02  0.00000000000E+00 0.  1.
         11    1    3    3    0    0 -0.63930544549E+01 -0.15302529279E+02  0.19986106221E+01  0.16704280658E+02  0.51100000000E-03 0. -1.
        -11    1    3    3    0    0 -0.41045621251E+01 -0.20238046948E+01  0.14659196946E+01  0.48054278159E+01  0.51100000000E-03 0.  1.
         12    1    3    3    0    0 -0.14145521055E+02 -0.20155536771E+02  0.65113353471E+00  0.24632608537E+02  0.00000000000E+00 0. -1.
</event>
<event>
 7    1  0.4141894E-008  0.4614232E+02  0.7816164E-02  0.1320468E+00
        -11   -1    0    0    0    0  0.00000000000E+00  0.00000000000E+00  0.45593999997E+02  0.45594000000E+02  0.51100000000E-03 0. -1.
         11   -1    0    0    0    0 -0.00000000000E+00 -0.00000000000E+00 -0.45593999997E+02  0.45594000000E+02  0.51100000000E-03 0.  1.
    9900012    2    1    2    0    0  0.28341116302E+02 -0.29330891489E+02  0.19120497966E+02  0.46142317507E+02  0.99999976819E+01 0.  0.
        -12    1    1    2    0    0 -0.28341116302E+02  0.29330891489E+02 -0.19120497966E+02  0.45045682493E+02  0.00000000000E+00 0.  1.
         11    1    3    3    0    0  0.64593991225E+00 -0.22117806412E+01 -0.34171169500E+00  0.23293731171E+01  0.51100000000E-03 0. -1.
        -11    1    3    3    0    0  0.18151682046E+02 -0.13636571289E+02  0.12126847003E+02  0.25739076442E+02  0.51100000000E-03 0.  1.
         12    1    3    3    0    0  0.95434943439E+01 -0.13482539559E+02  0.73353626586E+01  0.18073867947E+02  0.00000000000E+00 0. -1.
</event>
<event>
 7    1  0.4141894E-008  0.4614232E+02  0.7816164E-02  0.1320468E+00
        -11   -1    0    0    0    0  0.00000000000E+00  0.00000000000E+00  0.45593999997E+02  0.45594000000E+02  0.51100000000E-03 0.  1.
         11   -1    0    0    0    0 -0.00000000000E+00 -0.00000000000E+00 -0.45593999997E+02  0.45594000000E+02  0.51100000000E-03 0. -1.
    9900012    2    1    2    0    0 -0.15622866406E+02 -0.11679669906E+02 -0.40603261677E+02  0.46142317602E+02  0.99999985476E+01 0.  0.
        -12    1    1    2    0    0  0.15622866406E+02  0.11679669906E+02  0.40603261677E+02  0.45045682398E+02  0.00000000000E+00 0.  1.
         11    1    3    3    0    0 -0.13034026295E+02 -0.92362703941E+01 -0.25729053098E+02  0.30284958409E+02  0.51100000000E-03 0. -1.
        -11    1    3    3    0    0 -0.27494766050E+00 -0.23873426871E+01 -0.34715702868E+01  0.42221797497E+01  0.51100000000E-03 0.  1.
         12    1    3    3    0    0 -0.23138924504E+01 -0.56056825312E-01 -0.11402638292E+02  0.11635179443E+02  0.00000000000E+00 0. -1.
</event>
<event>
 7    1  0.4141894E-008  0.4614232E+02  0.7816164E-02  0.1320468E+00
        -11   -1    0    0    0    0  0.00000000000E+00  0.00000000000E+00  0.45593999997E+02  0.45594000000E+02  0.51100000000E-03 0.  1.
         11   -1    0    0    0    0 -0.00000000000E+00 -0.00000000000E+00 -0.45593999997E+02  0.45594000000E+02  0.51100000000E-03 0. -1.
    9900012    2    1    2    0    0  0.21184773233E+02  0.12911053910E+02 -0.37598185518E+02  0.46142317807E+02  0.10000000419E+02 0.  0.
        -12    1    1    2    0    0 -0.21184773233E+02 -0.12911053910E+02  0.37598185518E+02  0.45045682193E+02  0.00000000000E+00 0.  1.
         11    1    3    3    0    0  0.11438022764E+02  0.73828062621E+01 -0.13890561782E+02  0.19449470428E+02  0.51100000000E-03 0.  1.
        -11    1    3    3    0    0  0.28897473502E+01  0.41174964865E+01 -0.12553056564E+02  0.13523448023E+02  0.51100000000E-03 0. -1.
         12    1    3    3    0    0  0.68570031185E+01  0.14107511612E+01 -0.11154567173E+02  0.13169399357E+02  0.00000000000E+00 0. -1.
</event>
<event>
 7    1  0.4141894E-008  0.4614232E+02  0.7816164E-02  0.1320468E+00
        -11   -1    0    0    0    0  0.00000000000E+00  0.00000000000E+00  0.45593999997E+02  0.45594000000E+02  0.51100000000E-03 0. -1.
         11   -1    0    0    0    0 -0.00000000000E+00 -0.00000000000E+00 -0.45593999997E+02  0.45594000000E+02  0.51100000000E-03 0.  1.
    9900012    2    1    2    0    0  0.28326572101E+02 -0.32068147022E+02  0.14083775638E+02  0.46142317891E+02  0.10000001189E+02 0.  0.
        -12    1    1    2    0    0 -0.28326572101E+02  0.32068147022E+02 -0.14083775638E+02  0.45045682109E+02  0.00000000000E+00 0.  1.
         11    1    3    3    0    0  0.18414556714E+01 -0.29985107197E+01  0.56086018593E+00  0.35632274604E+01  0.51100000000E-03 0. -1.
        -11    1    3    3    0    0  0.25733682448E+02 -0.26213316936E+02  0.14464859752E+02  0.39479014235E+02  0.51100000000E-03 0.  1.
        -12    1    3    3    0    0  0.75143398231E+00 -0.28563193663E+01 -0.94194430084E+00  0.31000761956E+01  0.00000000000E+00 0.  1.
</event>
<event>
 7    1  0.4141894E-008  0.4614232E+02  0.7816164E-02  0.1320468E+00
        -11   -1    0    0    0    0  0.00000000000E+00  0.00000000000E+00  0.45593999997E+02  0.45594000000E+02  0.51100000000E-03 0.  1.
         11   -1    0    0    0    0 -0.00000000000E+00 -0.00000000000E+00 -0.45593999997E+02  0.45594000000E+02  0.51100000000E-03 0. -1.
    9900012    2    1    2    0    0 -0.90702309196E+01 -0.43822921223E+02 -0.51377025173E+01  0.46142317625E+02  0.99999987596E+01 0.  0.
        -12    1    1    2    0    0  0.90702309196E+01  0.43822921223E+02  0.51377025173E+01  0.45045682375E+02  0.00000000000E+00 0.  1.
         11    1    3    3    0    0 -0.24104537243E+01 -0.96310745136E+01  0.20907315585E+01  0.10145887943E+02  0.51100000000E-03 0. -1.
        -11    1    3    3    0    0 -0.46118929349E+01 -0.12375576266E+02 -0.43003985234E+01  0.13889487827E+02  0.51100000000E-03 0.  1.
        -12    1    3    3    0    0 -0.20478842604E+01 -0.21816270443E+02 -0.29280355523E+01  0.22106941855E+02  0.00000000000E+00 0.  1.
</event>
<event>
 7    1  0.4141894E-008  0.4614232E+02  0.7816164E-02  0.1320468E+00
        -11   -1    0    0    0    0  0.00000000000E+00  0.00000000000E+00  0.45593999997E+02  0.45594000000E+02  0.51100000000E-03 0.  1.
         11   -1    0    0    0    0 -0.00000000000E+00 -0.00000000000E+00 -0.45593999997E+02  0.45594000000E+02  0.51100000000E-03 0. -1.
    9900012    2    1    2    0    0 -0.17782069622E+02  0.40664520058E+02  0.77011909762E+01  0.46142317254E+02  0.99999953729E+01 0.  0.
        -12    1    1    2    0    0  0.17782069622E+02 -0.40664520058E+02 -0.77011909762E+01  0.45045682746E+02  0.00000000000E+00 0.  1.
         11    1    3    3    0    0 -0.89402447431E+01  0.27752972755E+02  0.45345227826E+01  0.29507920461E+02  0.51100000000E-03 0. -1.
        -11    1    3    3    0    0 -0.40570146115E+01  0.46002698024E+01 -0.93384463590E+00  0.62043465311E+01  0.51100000000E-03 0.  1.
         12    1    3    3    0    0 -0.47848102675E+01  0.83112775015E+01  0.41005128295E+01  0.10430050262E+02  0.00000000000E+00 0. -1.
</event>
<event>
 7    1  0.4141894E-008  0.4614232E+02  0.7816164E-02  0.1320468E+00
        -11   -1    0    0    0    0  0.00000000000E+00  0.00000000000E+00  0.45593999997E+02  0.45594000000E+02  0.51100000000E-03 0.  1.
         11   -1    0    0    0    0 -0.00000000000E+00 -0.00000000000E+00 -0.45593999997E+02  0.45594000000E+02  0.51100000000E-03 0. -1.
    9900012    2    1    2    0    0  0.32403890988E+02  0.27440555022E+02 -0.15037196227E+02  0.46142317838E+02  0.10000000701E+02 0.  0.
        -12    1    1    2    0    0 -0.32403890988E+02 -0.27440555022E+02  0.15037196227E+02  0.45045682162E+02  0.00000000000E+00 0.  1.
         11    1    3    3    0    0 -0.29964962671E+00 -0.66770950304E-01 -0.23005630436E+00  0.38363318794E+00  0.51100000000E-03 0. -1.
        -11    1    3    3    0    0  0.12914094306E+02  0.10065729644E+02 -0.21948577120E+01  0.16519992301E+02  0.51100000000E-03 0.  1.
         12    1    3    3    0    0  0.19789446309E+02  0.17441596328E+02 -0.12612282211E+02  0.29238692349E+02  0.00000000000E+00 0. -1.
</event>
<event>
 7    1  0.4141894E-008  0.4614232E+02  0.7816164E-02  0.1320468E+00
        -11   -1    0    0    0    0  0.00000000000E+00  0.00000000000E+00  0.45593999997E+02  0.45594000000E+02  0.51100000000E-03 0.  1.
         11   -1    0    0    0    0 -0.00000000000E+00 -0.00000000000E+00 -0.45593999997E+02  0.45594000000E+02  0.51100000000E-03 0. -1.
    9900012    2    1    2    0    0  0.35523651697E+02 -0.20745901170E+02 -0.18351858273E+02  0.46142323766E+02  0.10000054758E+02 0.  0.
        -12    1    1    2    0    0 -0.35523651697E+02  0.20745901170E+02  0.18351858273E+02  0.45045676234E+02  0.00000000000E+00 0.  1.
         11    1    3    3    0    0  0.27734214495E+02 -0.17243167970E+02 -0.16547578376E+02  0.36610597450E+02  0.51100000000E-03 0. -1.
        -11    1    3    3    0    0  0.69389814991E+01 -0.43230133565E+01 -0.16474242825E+01  0.83397791189E+01  0.51100000000E-03 0.  1.
        -12    1    3    3    0    0  0.85045570288E+00  0.82028015564E+00 -0.15685561504E+00  0.11919471969E+01  0.00000000000E+00 0.  1.
</event>
<event>
 7    1  0.4141894E-008  0.4614232E+02  0.7816164E-02  0.1320468E+00
        -11   -1    0    0    0    0  0.00000000000E+00  0.00000000000E+00  0.45593999997E+02  0.45594000000E+02  0.51100000000E-03 0. -1.
         11   -1    0    0    0    0 -0.00000000000E+00 -0.00000000000E+00 -0.45593999997E+02  0.45594000000E+02  0.51100000000E-03 0.  1.
    9900012    2    1    2    0    0 -0.26441323065E+01  0.39950758412E+02  0.20641196226E+02  0.46142317465E+02  0.99999973008E+01 0.  0.
        -12    1    1    2    0    0  0.26441323065E+01 -0.39950758412E+02 -0.20641196226E+02  0.45045682535E+02  0.00000000000E+00 0.  1.
         11    1    3    3    0    0 -0.20510947514E+01  0.68348643677E+01  0.27504289410E+01  0.76476937847E+01  0.51100000000E-03 0. -1.
        -11    1    3    3    0    0  0.73434726916E+00 -0.43472537642E-01 -0.10553974594E+00  0.74316530620E+00  0.51100000000E-03 0.  1.
         12    1    3    3    0    0 -0.13273848243E+01  0.33159366582E+02  0.17996307031E+02  0.37751458374E+02  0.00000000000E+00 0. -1.
</event>
<event>
 7    1  0.4141894E-008  0.4614232E+02  0.7816164E-02  0.1320468E+00
        -11   -1    0    0    0    0  0.00000000000E+00  0.00000000000E+00  0.45593999997E+02  0.45594000000E+02  0.51100000000E-03 0.  1.
         11   -1    0    0    0    0 -0.00000000000E+00 -0.00000000000E+00 -0.45593999997E+02  0.45594000000E+02  0.51100000000E-03 0. -1.
    9900012    2    1    2    0    0 -0.13577681123E+01  0.63084955445E+01 -0.44581081540E+02  0.46142317837E+02  0.10000000690E+02 0.  0.
        -12    1    1    2    0    0  0.13577681123E+01 -0.63084955445E+01  0.44581081540E+02  0.45045682163E+02  0.00000000000E+00 0.  1.
         11    1    3    3    0    0 -0.10083560555E+01  0.74299883540E+01 -0.23464144825E+02  0.24633059118E+02  0.51100000000E-03 0. -1.
        -11    1    3    3    0    0 -0.18719224990E+01  0.15289213110E+00 -0.67738822399E+01  0.70294345937E+01  0.51100000000E-03 0.  1.
         12    1    3    3    0    0  0.15225104423E+01 -0.12743849406E+01 -0.14343054475E+02  0.14479824125E+02  0.00000000000E+00 0. -1.
</event>
<event>
 7    1  0.4141894E-008  0.4614232E+02  0.7816164E-02  0.1320468E+00
        -11   -1    0    0    0    0  0.00000000000E+00  0.00000000000E+00  0.45593999997E+02  0.45594000000E+02  0.51100000000E-03 0.  1.
         11   -1    0    0    0    0 -0.00000000000E+00 -0.00000000000E+00 -0.45593999997E+02  0.45594000000E+02  0.51100000000E-03 0. -1.
    9900012    2    1    2    0    0 -0.14974091518E+02  0.17515987025E+02 -0.38705038593E+02  0.46142320620E+02  0.10000026074E+02 0.  0.
        -12    1    1    2    0    0  0.14974091518E+02 -0.17515987025E+02  0.38705038593E+02  0.45045679380E+02  0.00000000000E+00 0.  1.
         11    1    3    3    0    0 -0.64561661378E+01  0.72315798840E+01 -0.17913867608E+02  0.20368713306E+02  0.51100000000E-03 0. -1.
        -11    1    3    3    0    0 -0.66098399934E+01  0.10356064783E+02 -0.20416210655E+02  0.23827709087E+02  0.51100000000E-03 0.  1.
        -12    1    3    3    0    0 -0.19080853872E+01 -0.71657642057E-01 -0.37496032971E+00  0.19458982274E+01  0.00000000000E+00 0.  1.
</event>
<event>
 7    1  0.4141894E-008  0.4614232E+02  0.7816164E-02  0.1320468E+00
        -11   -1    0    0    0    0  0.00000000000E+00  0.00000000000E+00  0.45593999997E+02  0.45594000000E+02  0.51100000000E-03 0. -1.
         11   -1    0    0    0    0 -0.00000000000E+00 -0.00000000000E+00 -0.45593999997E+02  0.45594000000E+02  0.51100000000E-03 0.  1.
    9900012    2    1    2    0    0  0.31899772378E+02  0.14528904859E+02  0.28291850091E+02  0.46142319455E+02  0.10000015443E+02 0.  0.
        -12    1    1    2    0    0 -0.31899772378E+02 -0.14528904859E+02 -0.28291850091E+02  0.45045680545E+02  0.00000000000E+00 0.  1.
         11    1    3    3    0    0  0.61478542528E+01  0.66208912155E+01  0.65225654206E+01  0.11143436289E+02  0.51100000000E-03 0. -1.
        -11    1    3    3    0    0  0.60577575083E+01  0.39841878619E+01  0.46744262021E+01  0.86267282053E+01  0.51100000000E-03 0.  1.
        -12    1    3    3    0    0  0.19694160617E+02  0.39238257819E+01  0.17094858469E+02  0.26372154960E+02  0.00000000000E+00 0.  1.
</event>
<event>
 7    1  0.4141894E-008  0.4614232E+02  0.7816164E-02  0.1320468E+00
        -11   -1    0    0    0    0  0.00000000000E+00  0.00000000000E+00  0.45593999997E+02  0.45594000000E+02  0.51100000000E-03 0.  1.
         11   -1    0    0    0    0 -0.00000000000E+00 -0.00000000000E+00 -0.45593999997E+02  0.45594000000E+02  0.51100000000E-03 0. -1.
    9900012    2    1    2    0    0 -0.22618581304E+02 -0.28917211249E+00 -0.38954198064E+02  0.46142318880E+02  0.10000010204E+02 0.  0.
        -12    1    1    2    0    0  0.22618581304E+02  0.28917211249E+00  0.38954198064E+02  0.45045681120E+02  0.00000000000E+00 0.  1.
         11    1    3    3    0    0 -0.61766315190E+01 -0.11635333830E+01 -0.63937272791E+01  0.89657311824E+01  0.51100000000E-03 0. -1.
        -11    1    3    3    0    0 -0.27091691157E+00 -0.47526017004E+00 -0.61842403993E+01  0.62083893064E+01  0.51100000000E-03 0.  1.
         12    1    3    3    0    0 -0.16171032874E+02  0.13496214405E+01 -0.26376230386E+02  0.30968198391E+02  0.00000000000E+00 0. -1.
</event>
<event>
 7    1  0.4141894E-008  0.4614232E+02  0.7816164E-02  0.1320468E+00
        -11   -1    0    0    0    0  0.00000000000E+00  0.00000000000E+00  0.45593999997E+02  0.45594000000E+02  0.51100000000E-03 0.  1.
         11   -1    0    0    0    0 -0.00000000000E+00 -0.00000000000E+00 -0.45593999997E+02  0.45594000000E+02  0.51100000000E-03 0. -1.
    9900012    2    1    2    0    0 -0.39749308513E+02  0.20073576679E+02 -0.67939323960E+01  0.46142317350E+02  0.99999962542E+01 0.  0.
        -12    1    1    2    0    0  0.39749308513E+02 -0.20073576679E+02  0.67939323960E+01  0.45045682650E+02  0.00000000000E+00 0.  1.
         11    1    3    3    0    0 -0.13036377058E+01  0.25554383377E+00  0.75097541780E+00  0.15260203991E+01  0.51100000000E-03 0.  1.
        -11    1    3    3    0    0 -0.25190931410E+02  0.87908491207E+01 -0.56300036284E+01  0.27268278176E+02  0.51100000000E-03 0. -1.
         12    1    3    3    0    0 -0.13254739398E+02  0.11027183725E+02 -0.19149041855E+01  0.17348018775E+02  0.00000000000E+00 0. -1.
</event>
<event>
 7    1  0.4141894E-008  0.4614232E+02  0.7816164E-02  0.1320468E+00
        -11   -1    0    0    0    0  0.00000000000E+00  0.00000000000E+00  0.45593999997E+02  0.45594000000E+02  0.51100000000E-03 0. -1.
         11   -1    0    0    0    0 -0.00000000000E+00 -0.00000000000E+00 -0.45593999997E+02  0.45594000000E+02  0.51100000000E-03 0.  1.
    9900012    2    1    2    0    0 -0.15444519667E+02  0.13361808187E+02  0.40150247668E+02  0.46142317703E+02  0.99999994702E+01 0.  0.
        -12    1    1    2    0    0  0.15444519667E+02 -0.13361808187E+02 -0.40150247668E+02  0.45045682297E+02  0.00000000000E+00 0.  1.
         11    1    3    3    0    0 -0.22550309575E+01  0.29095997952E+01  0.72017896813E+01  0.80880597465E+01  0.51100000000E-03 0. -1.
        -11    1    3    3    0    0 -0.10235015013E+02  0.94190781667E+01  0.17822529277E+02  0.22607899415E+02  0.51100000000E-03 0.  1.
        -12    1    3    3    0    0 -0.29544736964E+01  0.10331302254E+01  0.15125928709E+02  0.15446358542E+02  0.00000000000E+00 0.  1.
</event>
<event>
 7    1  0.4141894E-008  0.4614232E+02  0.7816164E-02  0.1320468E+00
        -11   -1    0    0    0    0  0.00000000000E+00  0.00000000000E+00  0.45593999997E+02  0.45594000000E+02  0.51100000000E-03 0. -1.
         11   -1    0    0    0    0 -0.00000000000E+00 -0.00000000000E+00 -0.45593999997E+02  0.45594000000E+02  0.51100000000E-03 0.  1.
    9900012    2    1    2    0    0  0.22203383903E+02 -0.34727246616E+02  0.18169798548E+02  0.46142317704E+02  0.99999994775E+01 0.  0.
        -12    1    1    2    0    0 -0.22203383903E+02  0.34727246616E+02 -0.18169798548E+02  0.45045682296E+02  0.00000000000E+00 0.  1.
         11    1    3    3    0    0  0.89412458562E+01 -0.12202162479E+02  0.48442781562E+01  0.15884132892E+02  0.51100000000E-03 0. -1.
        -11    1    3    3    0    0  0.86829782385E+01 -0.75554722791E+01  0.54817154036E+01  0.12748665674E+02  0.51100000000E-03 0.  1.
         12    1    3    3    0    0  0.45791598082E+01 -0.14969611858E+02  0.78438049884E+01  0.17509519137E+02  0.00000000000E+00 0. -1.
</event>
<event>
 7    1  0.4141894E-008  0.4614232E+02  0.7816164E-02  0.1320468E+00
        -11   -1    0    0    0    0  0.00000000000E+00  0.00000000000E+00  0.45593999997E+02  0.45594000000E+02  0.51100000000E-03 0.  1.
         11   -1    0    0    0    0 -0.00000000000E+00 -0.00000000000E+00 -0.45593999997E+02  0.45594000000E+02  0.51100000000E-03 0. -1.
    9900012    2    1    2    0    0 -0.13831128569E+02 -0.29960440805E+02 -0.30662440971E+02  0.46142318553E+02  0.10000007224E+02 0.  0.
        -12    1    1    2    0    0  0.13831128569E+02  0.29960440805E+02  0.30662440971E+02  0.45045681447E+02  0.00000000000E+00 0.  1.
         11    1    3    3    0    0 -0.20251883815E+01 -0.62821343445E+01 -0.78708332532E+01  0.10272128127E+02  0.51100000000E-03 0.  1.
        -11    1    3    3    0    0 -0.47058947988E+01 -0.48347013185E+01 -0.98293458447E+01  0.11922072919E+02  0.51100000000E-03 0. -1.
         12    1    3    3    0    0 -0.71000453884E+01 -0.18843605142E+02 -0.12962261873E+02  0.23948117507E+02  0.00000000000E+00 0. -1.
</event>
<event>
 7    1  0.4141894E-008  0.4614232E+02  0.7816164E-02  0.1320468E+00
        -11   -1    0    0    0    0  0.00000000000E+00  0.00000000000E+00  0.45593999997E+02  0.45594000000E+02  0.51100000000E-03 0.  1.
         11   -1    0    0    0    0 -0.00000000000E+00 -0.00000000000E+00 -0.45593999997E+02  0.45594000000E+02  0.51100000000E-03 0. -1.
    9900012    2    1    2    0    0 -0.40368135360E+02  0.10373703802E+02 -0.17085471040E+02  0.46142318702E+02  0.10000008578E+02 0.  0.
        -12    1    1    2    0    0  0.40368135360E+02 -0.10373703802E+02  0.17085471040E+02  0.45045681298E+02  0.00000000000E+00 0.  1.
         11    1    3    3    0    0 -0.18570042636E+02  0.20977490971E+01 -0.64274924292E+01  0.19762583181E+02  0.51100000000E-03 0. -1.
        -11    1    3    3    0    0 -0.86148730153E+00  0.20605578602E+01 -0.15412061011E+01  0.27135540483E+01  0.51100000000E-03 0.  1.
        -12    1    3    3    0    0 -0.20936605422E+02  0.62153968444E+01 -0.91167725092E+01  0.23666181473E+02  0.00000000000E+00 0.  1.
</event>
<event>
 7    1  0.4141894E-008  0.4614232E+02  0.7816164E-02  0.1320468E+00
        -11   -1    0    0    0    0  0.00000000000E+00  0.00000000000E+00  0.45593999997E+02  0.45594000000E+02  0.51100000000E-03 0.  1.
         11   -1    0    0    0    0 -0.00000000000E+00 -0.00000000000E+00 -0.45593999997E+02  0.45594000000E+02  0.51100000000E-03 0. -1.
    9900012    2    1    2    0    0 -0.25210555458E+02 -0.37098535476E+02 -0.41521136774E+01  0.46142317755E+02  0.99999999414E+01 0.  0.
        -12    1    1    2    0    0  0.25210555458E+02  0.37098535476E+02  0.41521136774E+01  0.45045682245E+02  0.00000000000E+00 0.  1.
         11    1    3    3    0    0 -0.86350041335E+01 -0.84205974066E+01 -0.35516064386E+01  0.12573132689E+02  0.51100000000E-03 0.  1.
        -11    1    3    3    0    0 -0.76489126759E+01 -0.17389460482E+02 -0.20367550715E+01  0.19106218163E+02  0.51100000000E-03 0. -1.
        -12    1    3    3    0    0 -0.89266386484E+01 -0.11288477587E+02  0.14362478328E+01  0.14462966903E+02  0.00000000000E+00 0.  1.
</event>
<event>
 7    1  0.4141894E-008  0.4614232E+02  0.7816164E-02  0.1320468E+00
        -11   -1    0    0    0    0  0.00000000000E+00  0.00000000000E+00  0.45593999997E+02  0.45594000000E+02  0.51100000000E-03 0.  1.
         11   -1    0    0    0    0 -0.00000000000E+00 -0.00000000000E+00 -0.45593999997E+02  0.45594000000E+02  0.51100000000E-03 0. -1.
    9900012    2    1    2    0    0  0.37605423786E+02 -0.89129292436E+01 -0.23140986745E+02  0.46142317928E+02  0.10000001522E+02 0.  0.
        -12    1    1    2    0    0 -0.37605423786E+02  0.89129292436E+01  0.23140986745E+02  0.45045682072E+02  0.00000000000E+00 0.  1.
         11    1    3    3    0    0  0.30851460368E+02 -0.80326612135E+01 -0.17998896896E+02  0.36610060676E+02  0.51100000000E-03 0. -1.
        -11    1    3    3    0    0  0.52894205546E+01  0.92110001280E+00 -0.22444109256E+01  0.58192590336E+01  0.51100000000E-03 0.  1.
        -12    1    3    3    0    0  0.14645428635E+01 -0.18013680429E+01 -0.28976789236E+01  0.37129982183E+01  0.00000000000E+00 0.  1.
</event>
<event>
 7    1  0.4141894E-008  0.4614232E+02  0.7816164E-02  0.1320468E+00
        -11   -1    0    0    0    0  0.00000000000E+00  0.00000000000E+00  0.45593999997E+02  0.45594000000E+02  0.51100000000E-03 0.  1.
         11   -1    0    0    0    0 -0.00000000000E+00 -0.00000000000E+00 -0.45593999997E+02  0.45594000000E+02  0.51100000000E-03 0. -1.
    9900012    2    1    2    0    0 -0.15701185162E+02  0.36432467151E+02 -0.21336862668E+02  0.46142316670E+02  0.99999900509E+01 0.  0.
        -12    1    1    2    0    0  0.15701185162E+02 -0.36432467151E+02  0.21336862668E+02  0.45045683330E+02  0.00000000000E+00 0.  1.
         11    1    3    3    0    0 -0.72689902574E+01  0.17073429339E+02 -0.11924224916E+02  0.22057364958E+02  0.51100000000E-03 0. -1.
        -11    1    3    3    0    0 -0.14510424987E+01  0.89507671385E+01 -0.66675704352E+01  0.11255143378E+02  0.51100000000E-03 0.  1.
        -12    1    3    3    0    0 -0.69811524056E+01  0.10408270673E+02 -0.27450673159E+01  0.12829808334E+02  0.00000000000E+00 0.  1.
</event>
<event>
 7    1  0.4141894E-008  0.4614232E+02  0.7816164E-02  0.1320468E+00
        -11   -1    0    0    0    0  0.00000000000E+00  0.00000000000E+00  0.45593999997E+02  0.45594000000E+02  0.51100000000E-03 0. -1.
         11   -1    0    0    0    0 -0.00000000000E+00 -0.00000000000E+00 -0.45593999997E+02  0.45594000000E+02  0.51100000000E-03 0.  1.
    9900012    2    1    2    0    0  0.78251045442E+01 -0.40664905363E+02  0.17727003469E+02  0.46142318284E+02  0.10000004766E+02 0.  0.
        -12    1    1    2    0    0 -0.78251045442E+01  0.40664905363E+02 -0.17727003469E+02  0.45045681716E+02  0.00000000000E+00 0.  1.
         11    1    3    3    0    0  0.65836087633E+01 -0.34222541280E+02  0.13047430444E+02  0.37212386076E+02  0.51100000000E-03 0. -1.
        -11    1    3    3    0    0  0.23021886007E+01 -0.31649767097E+01  0.13525496718E+01  0.41408381763E+01  0.51100000000E-03 0.  1.
        -12    1    3    3    0    0 -0.10606928198E+01 -0.32773873730E+01  0.33270233530E+01  0.47890940315E+01  0.00000000000E+00 0.  1.
</event>
<event>
 7    1  0.4141894E-008  0.4614232E+02  0.7816164E-02  0.1320468E+00
        -11   -1    0    0    0    0  0.00000000000E+00  0.00000000000E+00  0.45593999997E+02  0.45594000000E+02  0.51100000000E-03 0. -1.
         11   -1    0    0    0    0 -0.00000000000E+00 -0.00000000000E+00 -0.45593999997E+02  0.45594000000E+02  0.51100000000E-03 0.  1.
    9900012    2    1    2    0    0  0.41791776483E+02  0.61968627345E+01  0.15625618500E+02  0.46142316046E+02  0.99999843592E+01 0.  0.
        -12    1    1    2    0    0 -0.41791776483E+02 -0.61968627345E+01 -0.15625618500E+02  0.45045683954E+02  0.00000000000E+00 0.  1.
         11    1    3    3    0    0  0.57229890382E+01 -0.44563899147E+00  0.24864961178E+01  0.62557062628E+01  0.51100000000E-03 0.  1.
        -11    1    3    3    0    0  0.24652718123E+02  0.67044015233E+00  0.10095605103E+02  0.26648212764E+02  0.51100000000E-03 0. -1.
         12    1    3    3    0    0  0.11416069322E+02  0.59720615736E+01  0.30435172789E+01  0.13238397019E+02  0.00000000000E+00 0. -1.
</event>
<event>
 7    1  0.4141894E-008  0.4614232E+02  0.7816164E-02  0.1320468E+00
        -11   -1    0    0    0    0  0.00000000000E+00  0.00000000000E+00  0.45593999997E+02  0.45594000000E+02  0.51100000000E-03 0. -1.
         11   -1    0    0    0    0 -0.00000000000E+00 -0.00000000000E+00 -0.45593999997E+02  0.45594000000E+02  0.51100000000E-03 0.  1.
    9900012    2    1    2    0    0 -0.16423163611E+02 -0.28995663256E+02  0.30309154046E+02  0.46142316415E+02  0.99999877222E+01 0.  0.
        -12    1    1    2    0    0  0.16423163611E+02  0.28995663256E+02 -0.30309154046E+02  0.45045683585E+02  0.00000000000E+00 0.  1.
         11    1    3    3    0    0 -0.11995252510E+02 -0.17473905696E+02  0.20590900486E+02  0.29550103996E+02  0.51100000000E-03 0. -1.
        -11    1    3    3    0    0 -0.51950685674E+01 -0.62903243969E+01  0.60581604588E+01  0.10161605525E+02  0.51100000000E-03 0.  1.
         12    1    3    3    0    0  0.76715746617E+00 -0.52314331630E+01  0.36600931014E+01  0.64306068942E+01  0.00000000000E+00 0. -1.
</event>
<event>
 7    1  0.4141894E-008  0.4614232E+02  0.7816164E-02  0.1320468E+00
        -11   -1    0    0    0    0  0.00000000000E+00  0.00000000000E+00  0.45593999997E+02  0.45594000000E+02  0.51100000000E-03 0.  1.
         11   -1    0    0    0    0 -0.00000000000E+00 -0.00000000000E+00 -0.45593999997E+02  0.45594000000E+02  0.51100000000E-03 0. -1.
    9900012    2    1    2    0    0  0.61912382041E+01 -0.14146641698E+02 -0.42316122732E+02  0.46142321573E+02  0.10000034761E+02 0.  0.
        -12    1    1    2    0    0 -0.61912382041E+01  0.14146641698E+02  0.42316122732E+02  0.45045678427E+02  0.00000000000E+00 0.  1.
         11    1    3    3    0    0  0.39739132409E+01 -0.14547909751E+01 -0.64672423941E+01  0.77287533065E+01  0.51100000000E-03 0. -1.
        -11    1    3    3    0    0 -0.12166464070E+01 -0.56918941168E+01 -0.12303232242E+02  0.13610562478E+02  0.51100000000E-03 0.  1.
         12    1    3    3    0    0  0.34339713702E+01 -0.69999566058E+01 -0.23545648097E+02  0.24803005789E+02  0.00000000000E+00 0. -1.
</event>
<event>
 7    1  0.4141894E-008  0.4614232E+02  0.7816164E-02  0.1320468E+00
        -11   -1    0    0    0    0  0.00000000000E+00  0.00000000000E+00  0.45593999997E+02  0.45594000000E+02  0.51100000000E-03 0.  1.
         11   -1    0    0    0    0 -0.00000000000E+00 -0.00000000000E+00 -0.45593999997E+02  0.45594000000E+02  0.51100000000E-03 0. -1.
    9900012    2    1    2    0    0  0.23687009690E+02  0.32818063220E+02 -0.19774068859E+02  0.46142317623E+02  0.99999987406E+01 0.  0.
        -12    1    1    2    0    0 -0.23687009690E+02 -0.32818063220E+02  0.19774068859E+02  0.45045682377E+02  0.00000000000E+00 0.  1.
         11    1    3    3    0    0  0.12804433464E+02  0.21278060909E+02 -0.14755858854E+02  0.28886757574E+02  0.51100000000E-03 0. -1.
        -11    1    3    3    0    0  0.93823467322E+01  0.11509025087E+02 -0.52241167670E+01  0.15740949301E+02  0.51100000000E-03 0.  1.
        -12    1    3    3    0    0  0.15002294939E+01  0.30977225089E-01  0.20590676216E+00  0.15146107478E+01  0.00000000000E+00 0.  1.
</event>
<event>
 7    1  0.4141894E-008  0.4614232E+02  0.7816164E-02  0.1320468E+00
        -11   -1    0    0    0    0  0.00000000000E+00  0.00000000000E+00  0.45593999997E+02  0.45594000000E+02  0.51100000000E-03 0.  1.
         11   -1    0    0    0    0 -0.00000000000E+00 -0.00000000000E+00 -0.45593999997E+02  0.45594000000E+02  0.51100000000E-03 0. -1.
    9900012    2    1    2    0    0  0.25951580293E+02 -0.29862593959E+02 -0.21537274570E+02  0.46142320589E+02  0.10000025790E+02 0.  0.
        -12    1    1    2    0    0 -0.25951580293E+02  0.29862593959E+02  0.21537274570E+02  0.45045679411E+02  0.00000000000E+00 0.  1.
         11    1    3    3    0    0  0.12671936594E+02 -0.80573330447E+01 -0.89404984631E+01  0.17476587364E+02  0.51100000000E-03 0. -1.
        -11    1    3    3    0    0  0.31854162801E+01 -0.76820820057E+01 -0.30781692479E+01  0.88677159968E+01  0.51100000000E-03 0.  1.
         12    1    3    3    0    0  0.10094227418E+02 -0.14123178909E+02 -0.95186068593E+01  0.19798017229E+02  0.00000000000E+00 0. -1.
</event>
<event>
 7    1  0.4141894E-008  0.4614232E+02  0.7816164E-02  0.1320468E+00
        -11   -1    0    0    0    0  0.00000000000E+00  0.00000000000E+00  0.45593999997E+02  0.45594000000E+02  0.51100000000E-03 0.  1.
         11   -1    0    0    0    0 -0.00000000000E+00 -0.00000000000E+00 -0.45593999997E+02  0.45594000000E+02  0.51100000000E-03 0. -1.
    9900012    2    1    2    0    0  0.13164231081E+02 -0.82561473061E+01 -0.42280640214E+02  0.46142317796E+02  0.10000000320E+02 0.  0.
        -12    1    1    2    0    0 -0.13164231081E+02  0.82561473061E+01  0.42280640214E+02  0.45045682204E+02  0.00000000000E+00 0.  1.
         11    1    3    3    0    0  0.55902509296E+01 -0.56888985194E+01 -0.19864454462E+02  0.21405864224E+02  0.51100000000E-03 0. -1.
        -11    1    3    3    0    0 -0.74447055999E-01  0.13992324202E+01 -0.63826705920E+01  0.65346673884E+01  0.51100000000E-03 0.  1.
        -12    1    3    3    0    0  0.76484272072E+01 -0.39664812069E+01 -0.16033515160E+02  0.18201786184E+02  0.00000000000E+00 0.  1.
</event>
<event>
 7    1  0.4141894E-008  0.4614232E+02  0.7816164E-02  0.1320468E+00
        -11   -1    0    0    0    0  0.00000000000E+00  0.00000000000E+00  0.45593999997E+02  0.45594000000E+02  0.51100000000E-03 0. -1.
         11   -1    0    0    0    0 -0.00000000000E+00 -0.00000000000E+00 -0.45593999997E+02  0.45594000000E+02  0.51100000000E-03 0.  1.
    9900012    2    1    2    0    0 -0.21794777604E+02  0.13249851414E+01  0.39399815736E+02  0.46142318781E+02  0.10000009302E+02 0.  0.
        -12    1    1    2    0    0  0.21794777604E+02 -0.13249851414E+01 -0.39399815736E+02  0.45045681219E+02  0.00000000000E+00 0.  1.
         11    1    3    3    0    0 -0.65045703075E+01  0.36497664239E+01  0.13346009689E+02  0.15288760731E+02  0.51100000000E-03 0. -1.
        -11    1    3    3    0    0 -0.91446957288E+01 -0.17971661188E+01  0.10069430330E+02  0.13720375121E+02  0.51100000000E-03 0.  1.
         12    1    3    3    0    0 -0.61455115674E+01 -0.52761516375E+00  0.15984375718E+02  0.17133182929E+02  0.00000000000E+00 0. -1.
</event>
<event>
 7    1  0.4141894E-008  0.4614232E+02  0.7816164E-02  0.1320468E+00
        -11   -1    0    0    0    0  0.00000000000E+00  0.00000000000E+00  0.45593999997E+02  0.45594000000E+02  0.51100000000E-03 0.  1.
         11   -1    0    0    0    0 -0.00000000000E+00 -0.00000000000E+00 -0.45593999997E+02  0.45594000000E+02  0.51100000000E-03 0. -1.
    9900012    2    1    2    0    0 -0.31609456944E+01  0.59023482268E+01 -0.44545305805E+02  0.46142316949E+02  0.99999925936E+01 0.  0.
        -12    1    1    2    0    0  0.31609456944E+01 -0.59023482268E+01  0.44545305805E+02  0.45045683051E+02  0.00000000000E+00 0.  1.
         11    1    3    3    0    0 -0.32844046187E+01 -0.47022672142E+00 -0.10218983026E+02  0.10744116586E+02  0.51100000000E-03 0. -1.
        -11    1    3    3    0    0  0.92159540623E+00  0.79566943360E+00 -0.93548738904E+00  0.15354363733E+01  0.51100000000E-03 0.  1.
         12    1    3    3    0    0 -0.79813648198E+00  0.55769055146E+01 -0.33390835390E+02  0.33862763990E+02  0.00000000000E+00 0. -1.
</event>
<event>
 7    1  0.4141894E-008  0.4614232E+02  0.7816164E-02  0.1320468E+00
        -11   -1    0    0    0    0  0.00000000000E+00  0.00000000000E+00  0.45593999997E+02  0.45594000000E+02  0.51100000000E-03 0. -1.
         11   -1    0    0    0    0 -0.00000000000E+00 -0.00000000000E+00 -0.45593999997E+02  0.45594000000E+02  0.51100000000E-03 0.  1.
    9900012    2    1    2    0    0 -0.38396907666E+02  0.22785758449E+02  0.59665756980E+01  0.46142319497E+02  0.10000015831E+02 0.  0.
        -12    1    1    2    0    0  0.38396907666E+02 -0.22785758449E+02 -0.59665756980E+01  0.45045680503E+02  0.00000000000E+00 0.  1.
         11    1    3    3    0    0 -0.78673281199E+01  0.29756385074E+01  0.23649622587E+01  0.87374093998E+01  0.51100000000E-03 0. -1.
        -11    1    3    3    0    0 -0.18321232974E+02  0.74017070171E+01  0.30081737250E+01  0.19987544969E+02  0.51100000000E-03 0.  1.
         12    1    3    3    0    0 -0.12208346572E+02  0.12408412925E+02  0.59343971430E+00  0.17417365129E+02  0.00000000000E+00 0. -1.
</event>
<event>
 7    1  0.4141894E-008  0.4614232E+02  0.7816164E-02  0.1320468E+00
        -11   -1    0    0    0    0  0.00000000000E+00  0.00000000000E+00  0.45593999997E+02  0.45594000000E+02  0.51100000000E-03 0. -1.
         11   -1    0    0    0    0 -0.00000000000E+00 -0.00000000000E+00 -0.45593999997E+02  0.45594000000E+02  0.51100000000E-03 0.  1.
    9900012    2    1    2    0    0  0.27267337284E+02 -0.42746561915E+01  0.35599623293E+02  0.46142317113E+02  0.99999940931E+01 0.  0.
        -12    1    1    2    0    0 -0.27267337284E+02  0.42746561915E+01 -0.35599623293E+02  0.45045682887E+02  0.00000000000E+00 0.  1.
         11    1    3    3    0    0  0.22172362087E+02 -0.16530458490E+01  0.24772164385E+02  0.33286729032E+02  0.51100000000E-03 0. -1.
        -11    1    3    3    0    0  0.35630967158E+01  0.84937221610E-01  0.40267524526E+01  0.53775094712E+01  0.51100000000E-03 0.  1.
        -12    1    3    3    0    0  0.15318784811E+01 -0.27065475641E+01  0.68007064556E+01  0.74780786097E+01  0.00000000000E+00 0.  1.
</event>
<event>
 7    1  0.4141894E-008  0.4614232E+02  0.7816164E-02  0.1320468E+00
        -11   -1    0    0    0    0  0.00000000000E+00  0.00000000000E+00  0.45593999997E+02  0.45594000000E+02  0.51100000000E-03 0.  1.
         11   -1    0    0    0    0 -0.00000000000E+00 -0.00000000000E+00 -0.45593999997E+02  0.45594000000E+02  0.51100000000E-03 0. -1.
    9900012    2    1    2    0    0 -0.32592645415E+02 -0.29261452003E+02 -0.10516670860E+02  0.46142317916E+02  0.10000001413E+02 0.  0.
        -12    1    1    2    0    0  0.32592645415E+02  0.29261452003E+02  0.10516670860E+02  0.45045682084E+02  0.00000000000E+00 0.  1.
         11    1    3    3    0    0 -0.20754946236E+02 -0.16611104429E+02 -0.58543025242E+01  0.27220753882E+02  0.51100000000E-03 0. -1.
        -11    1    3    3    0    0 -0.72239105473E+01 -0.37769327462E+01 -0.76398346739E+00  0.81874156829E+01  0.51100000000E-03 0.  1.
         12    1    3    3    0    0 -0.46137886311E+01 -0.88734148281E+01 -0.38983848681E+01  0.10734148351E+02  0.00000000000E+00 0. -1.
</event>
<event>
 7    1  0.4141894E-008  0.4614232E+02  0.7816164E-02  0.1320468E+00
        -11   -1    0    0    0    0  0.00000000000E+00  0.00000000000E+00  0.45593999997E+02  0.45594000000E+02  0.51100000000E-03 0.  1.
         11   -1    0    0    0    0 -0.00000000000E+00 -0.00000000000E+00 -0.45593999997E+02  0.45594000000E+02  0.51100000000E-03 0. -1.
    9900012    2    1    2    0    0  0.24869305290E+02 -0.28912169751E+01 -0.37446919316E+02  0.46142320435E+02  0.10000024382E+02 0.  0.
        -12    1    1    2    0    0 -0.24869305290E+02  0.28912169751E+01  0.37446919316E+02  0.45045679565E+02  0.00000000000E+00 0.  1.
         11    1    3    3    0    0  0.19485389847E+02 -0.16044748781E+01 -0.32655521040E+02  0.38060974919E+02  0.51100000000E-03 0. -1.
        -11    1    3    3    0    0  0.48914635421E+01 -0.18858515915E+01 -0.27979105955E+01  0.59423190565E+01  0.51100000000E-03 0.  1.
        -12    1    3    3    0    0  0.49245190095E+00  0.59910949456E+00 -0.19934876808E+01  0.21390264596E+01  0.00000000000E+00 0.  1.
</event>
<event>
 7    1  0.4141894E-008  0.4614232E+02  0.7816164E-02  0.1320468E+00
        -11   -1    0    0    0    0  0.00000000000E+00  0.00000000000E+00  0.45593999997E+02  0.45594000000E+02  0.51100000000E-03 0.  1.
         11   -1    0    0    0    0 -0.00000000000E+00 -0.00000000000E+00 -0.45593999997E+02  0.45594000000E+02  0.51100000000E-03 0. -1.
    9900012    2    1    2    0    0 -0.25397869042E+02  0.34052275072E+02 -0.14983463113E+02  0.46142319227E+02  0.10000013365E+02 0.  0.
        -12    1    1    2    0    0  0.25397869042E+02 -0.34052275072E+02  0.14983463113E+02  0.45045680773E+02  0.00000000000E+00 0.  1.
         11    1    3    3    0    0 -0.11595173313E+02  0.18771563482E+02 -0.10920200800E+02  0.24618497629E+02  0.51100000000E-03 0. -1.
        -11    1    3    3    0    0 -0.91358614102E+01  0.66082928136E+01 -0.17906964613E+01  0.11416658517E+02  0.51100000000E-03 0.  1.
         12    1    3    3    0    0 -0.46668343188E+01  0.86724187764E+01 -0.22725658514E+01  0.10107163081E+02  0.00000000000E+00 0. -1.
</event>
<event>
 7    1  0.4141894E-008  0.4614232E+02  0.7816164E-02  0.1320468E+00
        -11   -1    0    0    0    0  0.00000000000E+00  0.00000000000E+00  0.45593999997E+02  0.45594000000E+02  0.51100000000E-03 0.  1.
         11   -1    0    0    0    0 -0.00000000000E+00 -0.00000000000E+00 -0.45593999997E+02  0.45594000000E+02  0.51100000000E-03 0. -1.
    9900012    2    1    2    0    0  0.80038148697E+01  0.31826389950E+02 -0.30856657548E+02  0.46142318024E+02  0.10000002393E+02 0.  0.
        -12    1    1    2    0    0 -0.80038148697E+01 -0.31826389950E+02  0.30856657548E+02  0.45045681976E+02  0.00000000000E+00 0.  1.
         11    1    3    3    0    0  0.29381916569E+01  0.15468327191E+02 -0.20255605299E+02  0.25655246298E+02  0.51100000000E-03 0. -1.
        -11    1    3    3    0    0  0.29422127926E+00 -0.16055848606E+00 -0.24569595435E+00  0.41558627470E+00  0.51100000000E-03 0.  1.
         12    1    3    3    0    0  0.47714019335E+01  0.16518621244E+02 -0.10355356295E+02  0.20071485451E+02  0.00000000000E+00 0. -1.
</event>
<event>
 7    1  0.4141894E-008  0.4614232E+02  0.7816164E-02  0.1320468E+00
        -11   -1    0    0    0    0  0.00000000000E+00  0.00000000000E+00  0.45593999997E+02  0.45594000000E+02  0.51100000000E-03 0.  1.
         11   -1    0    0    0    0 -0.00000000000E+00 -0.00000000000E+00 -0.45593999997E+02  0.45594000000E+02  0.51100000000E-03 0. -1.
    9900012    2    1    2    0    0 -0.22432464127E+02 -0.19300141530E+02 -0.33961780947E+02  0.46142317909E+02  0.10000001352E+02 0.  0.
        -12    1    1    2    0    0  0.22432464127E+02  0.19300141530E+02  0.33961780947E+02  0.45045682091E+02  0.00000000000E+00 0.  1.
         11    1    3    3    0    0 -0.11166954382E+01 -0.35532204705E+01 -0.81014201417E+01  0.89165796687E+01  0.51100000000E-03 0. -1.
        -11    1    3    3    0    0 -0.10454643182E+02 -0.98916035978E+01 -0.12839736259E+02  0.19287358898E+02  0.51100000000E-03 0.  1.
         12    1    3    3    0    0 -0.10861125507E+02 -0.58553174615E+01 -0.13020624546E+02  0.17938379342E+02  0.00000000000E+00 0. -1.
</event>
<event>
 7    1  0.4141894E-008  0.4614232E+02  0.7816164E-02  0.1320468E+00
        -11   -1    0    0    0    0  0.00000000000E+00  0.00000000000E+00  0.45593999997E+02  0.45594000000E+02  0.51100000000E-03 0.  1.
         11   -1    0    0    0    0 -0.00000000000E+00 -0.00000000000E+00 -0.45593999997E+02  0.45594000000E+02  0.51100000000E-03 0. -1.
    9900012    2    1    2    0    0 -0.12546527342E+02  0.21179837230E+02 -0.37724165004E+02  0.46142317869E+02  0.10000000981E+02 0.  0.
        -12    1    1    2    0    0  0.12546527342E+02 -0.21179837230E+02  0.37724165004E+02  0.45045682131E+02  0.00000000000E+00 0.  1.
         11    1    3    3    0    0  0.10613297117E+01  0.14450901496E+01 -0.53780780929E+01  0.56690766913E+01  0.51100000000E-03 0. -1.
        -11    1    3    3    0    0 -0.30806836660E+01  0.76432390955E+01 -0.97228274178E+01  0.12745316355E+02  0.51100000000E-03 0.  1.
         12    1    3    3    0    0 -0.10527173387E+02  0.12091507985E+02 -0.22623259493E+02  0.27727924823E+02  0.00000000000E+00 0. -1.
</event>
<event>
 7    1  0.4141894E-008  0.4614232E+02  0.7816164E-02  0.1320468E+00
        -11   -1    0    0    0    0  0.00000000000E+00  0.00000000000E+00  0.45593999997E+02  0.45594000000E+02  0.51100000000E-03 0. -1.
         11   -1    0    0    0    0 -0.00000000000E+00 -0.00000000000E+00 -0.45593999997E+02  0.45594000000E+02  0.51100000000E-03 0.  1.
    9900012    2    1    2    0    0  0.29430833796E+02  0.30939364715E+02  0.14342081249E+02  0.46142316950E+02  0.99999926024E+01 0.  0.
        -12    1    1    2    0    0 -0.29430833796E+02 -0.30939364715E+02 -0.14342081249E+02  0.45045683050E+02  0.00000000000E+00 0.  1.
         11    1    3    3    0    0  0.49480141692E+01  0.54445518475E+01  0.55241266918E+01  0.92001067932E+01  0.51100000000E-03 0. -1.
        -11    1    3    3    0    0  0.66835915608E+01  0.75538527704E+01  0.53971420803E+01  0.11439415664E+02  0.51100000000E-03 0.  1.
         12    1    3    3    0    0  0.17799228066E+02  0.17940960097E+02  0.34208124771E+01  0.25502794493E+02  0.00000000000E+00 0. -1.
</event>
<event>
 7    1  0.4141894E-008  0.4614232E+02  0.7816164E-02  0.1320468E+00
        -11   -1    0    0    0    0  0.00000000000E+00  0.00000000000E+00  0.45593999997E+02  0.45594000000E+02  0.51100000000E-03 0.  1.
         11   -1    0    0    0    0 -0.00000000000E+00 -0.00000000000E+00 -0.45593999997E+02  0.45594000000E+02  0.51100000000E-03 0. -1.
    9900012    2    1    2    0    0  0.14379564320E+02 -0.30816049820E+02 -0.29541704964E+02  0.46142321753E+02  0.10000036405E+02 0.  0.
        -12    1    1    2    0    0 -0.14379564320E+02  0.30816049820E+02  0.29541704964E+02  0.45045678247E+02  0.00000000000E+00 0.  1.
         11    1    3    3    0    0  0.10629046868E+02 -0.14407076725E+02 -0.11536328748E+02  0.21298529957E+02  0.51100000000E-03 0. -1.
        -11    1    3    3    0    0  0.98060184436E+00 -0.76227634478E+01 -0.10186174865E+02  0.12760339385E+02  0.51100000000E-03 0.  1.
        -12    1    3    3    0    0  0.27699156077E+01 -0.87862096468E+01 -0.78192013505E+01  0.12083452412E+02  0.00000000000E+00 0.  1.
</event>
<event>
 7    1  0.4141894E-008  0.4614232E+02  0.7816164E-02  0.1320468E+00
        -11   -1    0    0    0    0  0.00000000000E+00  0.00000000000E+00  0.45593999997E+02  0.45594000000E+02  0.51100000000E-03 0.  1.
         11   -1    0    0    0    0 -0.00000000000E+00 -0.00000000000E+00 -0.45593999997E+02  0.45594000000E+02  0.51100000000E-03 0. -1.
    9900012    2    1    2    0    0  0.24446769656E+02  0.37118727818E+02 -0.73259107090E+01  0.46142317974E+02  0.10000001943E+02 0.  0.
        -12    1    1    2    0    0 -0.24446769656E+02 -0.37118727818E+02  0.73259107090E+01  0.45045682026E+02  0.00000000000E+00 0.  1.
         11    1    3    3    0    0  0.37583882354E+01  0.61804062912E+01 -0.30487626507E+01  0.78497043265E+01  0.51100000000E-03 0. -1.
        -11    1    3    3    0    0  0.11000843944E+01  0.70440143866E+01 -0.13601606552E+01  0.72579860583E+01  0.51100000000E-03 0.  1.
        -12    1    3    3    0    0  0.19588297026E+02  0.23894307141E+02 -0.29169874031E+01  0.31034627589E+02  0.00000000000E+00 0.  1.
</event>
<event>
 7    1  0.4141894E-008  0.4614232E+02  0.7816164E-02  0.1320468E+00
        -11   -1    0    0    0    0  0.00000000000E+00  0.00000000000E+00  0.45593999997E+02  0.45594000000E+02  0.51100000000E-03 0.  1.
         11   -1    0    0    0    0 -0.00000000000E+00 -0.00000000000E+00 -0.45593999997E+02  0.45594000000E+02  0.51100000000E-03 0. -1.
    9900012    2    1    2    0    0  0.11023953643E+02 -0.30662132741E+02 -0.31103369966E+02  0.46142316951E+02  0.99999926110E+01 0.  0.
        -12    1    1    2    0    0 -0.11023953643E+02  0.30662132741E+02  0.31103369966E+02  0.45045683049E+02  0.00000000000E+00 0.  1.
         11    1    3    3    0    0  0.22943906481E+01 -0.64621883386E+01 -0.60021591801E+01  0.91131784606E+01  0.51100000000E-03 0. -1.
        -11    1    3    3    0    0  0.76486197070E+01 -0.20245308787E+02 -0.15591541189E+02  0.26673396263E+02  0.51100000000E-03 0.  1.
        -12    1    3    3    0    0  0.10809432882E+01 -0.39546356157E+01 -0.95096695964E+01  0.10355742227E+02  0.00000000000E+00 0.  1.
</event>
<event>
 7    1  0.4141894E-008  0.4614232E+02  0.7816164E-02  0.1320468E+00
        -11   -1    0    0    0    0  0.00000000000E+00  0.00000000000E+00  0.45593999997E+02  0.45594000000E+02  0.51100000000E-03 0. -1.
         11   -1    0    0    0    0 -0.00000000000E+00 -0.00000000000E+00 -0.45593999997E+02  0.45594000000E+02  0.51100000000E-03 0.  1.
    9900012    2    1    2    0    0  0.18454826739E+02  0.40683004540E+02  0.57815223555E+01  0.46142317753E+02  0.99999999250E+01 0.  0.
        -12    1    1    2    0    0 -0.18454826739E+02 -0.40683004540E+02 -0.57815223555E+01  0.45045682247E+02  0.00000000000E+00 0.  1.
         11    1    3    3    0    0  0.79375253175E+01  0.18336136899E+02  0.48769685594E+01  0.20567037879E+02  0.51100000000E-03 0. -1.
        -11    1    3    3    0    0  0.25218757877E+01  0.79777079908E+01  0.32283780078E+01  0.89680603866E+01  0.51100000000E-03 0.  1.
        -12    1    3    3    0    0  0.79954256341E+01  0.14369159650E+02 -0.23238242117E+01  0.16607219487E+02  0.00000000000E+00 0.  1.
</event>
<event>
 7    1  0.4141894E-008  0.4614232E+02  0.7816164E-02  0.1320468E+00
        -11   -1    0    0    0    0  0.00000000000E+00  0.00000000000E+00  0.45593999997E+02  0.45594000000E+02  0.51100000000E-03 0. -1.
         11   -1    0    0    0    0 -0.00000000000E+00 -0.00000000000E+00 -0.45593999997E+02  0.45594000000E+02  0.51100000000E-03 0.  1.
    9900012    2    1    2    0    0 -0.36765942890E+01  0.16827882642E+02  0.41622331027E+02  0.46142318521E+02  0.10000006933E+02 0.  0.
        -12    1    1    2    0    0  0.36765942890E+01 -0.16827882642E+02 -0.41622331027E+02  0.45045681479E+02  0.00000000000E+00 0.  1.
         11    1    3    3    0    0  0.14254609406E+01  0.12110105169E+02  0.25709223191E+02  0.28454362468E+02  0.51100000000E-03 0. -1.
        -11    1    3    3    0    0 -0.40892068247E+00  0.86447980581E+00  0.59034656453E+01  0.59804220876E+01  0.51100000000E-03 0.  1.
        -12    1    3    3    0    0 -0.46931345471E+01  0.38532976673E+01  0.10009642190E+02  0.11707533966E+02  0.00000000000E+00 0.  1.
</event>
<event>
 7    1  0.4141894E-008  0.4614232E+02  0.7816164E-02  0.1320468E+00
        -11   -1    0    0    0    0  0.00000000000E+00  0.00000000000E+00  0.45593999997E+02  0.45594000000E+02  0.51100000000E-03 0.  1.
         11   -1    0    0    0    0 -0.00000000000E+00 -0.00000000000E+00 -0.45593999997E+02  0.45594000000E+02  0.51100000000E-03 0. -1.
    9900012    2    1    2    0    0 -0.39650726822E+02  0.40024907307E+01 -0.20997943475E+02  0.46142315415E+02  0.99999786058E+01 0.  0.
        -12    1    1    2    0    0  0.39650726822E+02 -0.40024907307E+01  0.20997943475E+02  0.45045684585E+02  0.00000000000E+00 0.  1.
         11    1    3    3    0    0 -0.17004771942E+02  0.12898075105E+01 -0.11800390872E+02  0.20738252029E+02  0.51100000000E-03 0. -1.
        -11    1    3    3    0    0 -0.31682905951E+01 -0.16334502612E+01 -0.37511271494E+00  0.35842621083E+01  0.51100000000E-03 0.  1.
        -12    1    3    3    0    0 -0.19477664285E+02  0.43461334814E+01 -0.88224398876E+01  0.21819801278E+02  0.00000000000E+00 0.  1.
</event>
<event>
 7    1  0.4141894E-008  0.4614232E+02  0.7816164E-02  0.1320468E+00
        -11   -1    0    0    0    0  0.00000000000E+00  0.00000000000E+00  0.45593999997E+02  0.45594000000E+02  0.51100000000E-03 0.  1.
         11   -1    0    0    0    0 -0.00000000000E+00 -0.00000000000E+00 -0.45593999997E+02  0.45594000000E+02  0.51100000000E-03 0. -1.
    9900012    2    1    2    0    0 -0.34568108500E+01  0.39236767285E+02 -0.21854977845E+02  0.46142317578E+02  0.99999983319E+01 0.  0.
        -12    1    1    2    0    0  0.34568108500E+01 -0.39236767285E+02  0.21854977845E+02  0.45045682422E+02  0.00000000000E+00 0.  1.
         11    1    3    3    0    0 -0.72671421282E+00  0.10814452218E+02 -0.46121176059E+01  0.11779308953E+02  0.51100000000E-03 0. -1.
        -11    1    3    3    0    0  0.10885601221E+01  0.23345476198E+02 -0.13503652714E+02  0.26991570146E+02  0.51100000000E-03 0.  1.
        -12    1    3    3    0    0 -0.38186567593E+01  0.50768388686E+01 -0.37392075251E+01  0.73714384796E+01  0.00000000000E+00 0.  1.
</event>
<event>
 7    1  0.4141894E-008  0.4614232E+02  0.7816164E-02  0.1320468E+00
        -11   -1    0    0    0    0  0.00000000000E+00  0.00000000000E+00  0.45593999997E+02  0.45594000000E+02  0.51100000000E-03 0.  1.
         11   -1    0    0    0    0 -0.00000000000E+00 -0.00000000000E+00 -0.45593999997E+02  0.45594000000E+02  0.51100000000E-03 0. -1.
    9900012    2    1    2    0    0  0.22262552180E+02 -0.32380413942E+02 -0.22022739479E+02  0.46142317735E+02  0.99999997590E+01 0.  0.
        -12    1    1    2    0    0 -0.22262552180E+02  0.32380413942E+02  0.22022739479E+02  0.45045682265E+02  0.00000000000E+00 0.  1.
         11    1    3    3    0    0  0.19699872203E+01 -0.48247408788E+01 -0.59579378127E+01  0.79155541459E+01  0.51100000000E-03 0. -1.
        -11    1    3    3    0    0  0.10088479658E+02 -0.12694160126E+02 -0.10665902452E+02  0.19408261088E+02  0.51100000000E-03 0.  1.
         12    1    3    3    0    0  0.10204085302E+02 -0.14861512937E+02 -0.53988992140E+01  0.18818502500E+02  0.00000000000E+00 0. -1.
</event>
<event>
 7    1  0.4141894E-008  0.4614232E+02  0.7816164E-02  0.1320468E+00
        -11   -1    0    0    0    0  0.00000000000E+00  0.00000000000E+00  0.45593999997E+02  0.45594000000E+02  0.51100000000E-03 0.  1.
         11   -1    0    0    0    0 -0.00000000000E+00 -0.00000000000E+00 -0.45593999997E+02  0.45594000000E+02  0.51100000000E-03 0. -1.
    9900012    2    1    2    0    0 -0.36206006571E+02 -0.26581805238E+02  0.34126772308E+01  0.46142315996E+02  0.99999839030E+01 0.  0.
        -12    1    1    2    0    0  0.36206006571E+02  0.26581805238E+02 -0.34126772308E+01  0.45045684004E+02  0.00000000000E+00 0.  1.
         11    1    3    3    0    0 -0.33316464165E+01 -0.29238654737E+01 -0.95661030065E+00  0.45347503438E+01  0.51100000000E-03 0. -1.
        -11    1    3    3    0    0 -0.30412606088E+00 -0.24005718407E+01 -0.28582568753E+00  0.24365825264E+01  0.51100000000E-03 0.  1.
         12    1    3    3    0    0 -0.32570234093E+02 -0.21257367924E+02  0.46551132190E+01  0.39170983126E+02  0.00000000000E+00 0. -1.
</event>
<event>
 7    1  0.4141894E-008  0.4614232E+02  0.7816164E-02  0.1320468E+00
        -11   -1    0    0    0    0  0.00000000000E+00  0.00000000000E+00  0.45593999997E+02  0.45594000000E+02  0.51100000000E-03 0.  1.
         11   -1    0    0    0    0 -0.00000000000E+00 -0.00000000000E+00 -0.45593999997E+02  0.45594000000E+02  0.51100000000E-03 0. -1.
    9900012    2    1    2    0    0  0.31571560254E+01 -0.15950496779E+02 -0.42008653557E+02  0.46142323678E+02  0.10000053952E+02 0.  0.
        -12    1    1    2    0    0 -0.31571560254E+01  0.15950496779E+02  0.42008653557E+02  0.45045676322E+02  0.00000000000E+00 0.  1.
         11    1    3    3    0    0 -0.12980245650E+00 -0.62786569220E+01 -0.86216224543E+01  0.10666337489E+02  0.51100000000E-03 0. -1.
        -11    1    3    3    0    0  0.20822859703E+01 -0.15284791406E+01 -0.28390535930E+01  0.38382794205E+01  0.51100000000E-03 0.  1.
         12    1    3    3    0    0  0.12046725116E+01 -0.81433607160E+01 -0.30547977510E+02  0.31637706768E+02  0.00000000000E+00 0. -1.
</event>
<event>
 7    1  0.4141894E-008  0.4614232E+02  0.7816164E-02  0.1320468E+00
        -11   -1    0    0    0    0  0.00000000000E+00  0.00000000000E+00  0.45593999997E+02  0.45594000000E+02  0.51100000000E-03 0. -1.
         11   -1    0    0    0    0 -0.00000000000E+00 -0.00000000000E+00 -0.45593999997E+02  0.45594000000E+02  0.51100000000E-03 0.  1.
    9900012    2    1    2    0    0 -0.16420091671E+02 -0.12919490520E+01  0.41926422842E+02  0.46142317908E+02  0.10000001337E+02 0.  0.
        -12    1    1    2    0    0  0.16420091671E+02  0.12919490520E+01 -0.41926422842E+02  0.45045682092E+02  0.00000000000E+00 0.  1.
         11    1    3    3    0    0 -0.34248830106E+01 -0.42722109623E+01  0.13965069741E+02  0.15000159442E+02  0.51100000000E-03 0. -1.
        -11    1    3    3    0    0 -0.67143530903E+01  0.25675706665E+01  0.12053798648E+02  0.14034565140E+02  0.51100000000E-03 0.  1.
         12    1    3    3    0    0 -0.62808555699E+01  0.41269124375E+00  0.15907554452E+02  0.17107593326E+02  0.00000000000E+00 0. -1.
</event>
<event>
 7    1  0.4141894E-008  0.4614231E+02  0.7816164E-02  0.1320468E+00
        -11   -1    0    0    0    0  0.00000000000E+00  0.00000000000E+00  0.45593999997E+02  0.45594000000E+02  0.51100000000E-03 0. -1.
         11   -1    0    0    0    0 -0.00000000000E+00 -0.00000000000E+00 -0.45593999997E+02  0.45594000000E+02  0.51100000000E-03 0.  1.
    9900012    2    1    2    0    0 -0.21736759976E+02  0.12746292384E+02  0.37338444631E+02  0.46142310404E+02  0.99999329077E+01 0.  0.
        -12    1    1    2    0    0  0.21736759976E+02 -0.12746292384E+02 -0.37338444631E+02  0.45045689596E+02  0.00000000000E+00 0.  1.
         11    1    3    3    0    0 -0.13318907188E+02  0.36877648881E+01  0.15214818919E+02  0.20554406184E+02  0.51100000000E-03 0. -1.
        -11    1    3    3    0    0 -0.55050140154E+01  0.37586706572E+01  0.13488519660E+02  0.15045695308E+02  0.51100000000E-03 0.  1.
         12    1    3    3    0    0 -0.29128387722E+01  0.52998568387E+01  0.86351060511E+01  0.10542208912E+02  0.00000000000E+00 0. -1.
</event>
<event>
 7    1  0.4141894E-008  0.4614232E+02  0.7816164E-02  0.1320468E+00
        -11   -1    0    0    0    0  0.00000000000E+00  0.00000000000E+00  0.45593999997E+02  0.45594000000E+02  0.51100000000E-03 0.  1.
         11   -1    0    0    0    0 -0.00000000000E+00 -0.00000000000E+00 -0.45593999997E+02  0.45594000000E+02  0.51100000000E-03 0. -1.
    9900012    2    1    2    0    0  0.14817797426E+00 -0.22355062143E+02 -0.39106810229E+02  0.46142319114E+02  0.10000012341E+02 0.  0.
        -12    1    1    2    0    0 -0.14817797426E+00  0.22355062143E+02  0.39106810229E+02  0.45045680886E+02  0.00000000000E+00 0.  1.
         11    1    3    3    0    0 -0.14997549232E+00 -0.30151350885E+00  0.36677061698E+00  0.49791966311E+00  0.51100000000E-03 0. -1.
        -11    1    3    3    0    0 -0.24565083635E+01 -0.77838798393E+01 -0.11253913062E+02  0.13902293989E+02  0.51100000000E-03 0.  1.
         12    1    3    3    0    0  0.27546618301E+01 -0.14269668795E+02 -0.28219667784E+02  0.31742105462E+02  0.00000000000E+00 0. -1.
</event>
<event>
 7    1  0.4141894E-008  0.4614232E+02  0.7816164E-02  0.1320468E+00
        -11   -1    0    0    0    0  0.00000000000E+00  0.00000000000E+00  0.45593999997E+02  0.45594000000E+02  0.51100000000E-03 0.  1.
         11   -1    0    0    0    0 -0.00000000000E+00 -0.00000000000E+00 -0.45593999997E+02  0.45594000000E+02  0.51100000000E-03 0. -1.
    9900012    2    1    2    0    0 -0.40226648880E+02  0.20948690085E+01 -0.20162879706E+02  0.46142317918E+02  0.10000001427E+02 0.  0.
        -12    1    1    2    0    0  0.40226648880E+02 -0.20948690085E+01  0.20162879706E+02  0.45045682082E+02  0.00000000000E+00 0.  1.
         11    1    3    3    0    0 -0.18663289259E+02 -0.11509786386E+01 -0.10529093900E+02  0.21459378752E+02  0.51100000000E-03 0. -1.
        -11    1    3    3    0    0 -0.21635343565E+02  0.35188476460E+01 -0.10102566349E+02  0.24135704403E+02  0.51100000000E-03 0.  1.
        -12    1    3    3    0    0  0.71983944220E-01 -0.27299999884E+00  0.46878054366E+00  0.54723476288E+00  0.00000000000E+00 0.  1.
</event>
<event>
 7    1  0.4141894E-008  0.4614232E+02  0.7816164E-02  0.1320468E+00
        -11   -1    0    0    0    0  0.00000000000E+00  0.00000000000E+00  0.45593999997E+02  0.45594000000E+02  0.51100000000E-03 0. -1.
         11   -1    0    0    0    0 -0.00000000000E+00 -0.00000000000E+00 -0.45593999997E+02  0.45594000000E+02  0.51100000000E-03 0.  1.
    9900012    2    1    2    0    0  0.74820029308E+01 -0.89076612785E+01  0.43517660872E+02  0.46142316465E+02  0.99999881846E+01 0.  0.
        -12    1    1    2    0    0 -0.74820029308E+01  0.89076612785E+01 -0.43517660872E+02  0.45045683535E+02  0.00000000000E+00 0.  1.
         11    1    3    3    0    0  0.36816189626E+00 -0.32685099321E+00  0.12394033269E+00  0.50767728018E+00  0.51100000000E-03 0. -1.
        -11    1    3    3    0    0  0.16305575441E+01 -0.96507623927E-01  0.21051304439E+02  0.21114579098E+02  0.51100000000E-03 0.  1.
        -12    1    3    3    0    0  0.54832834904E+01 -0.84843026614E+01  0.22342416100E+02  0.24520060087E+02  0.00000000000E+00 0.  1.
</event>
<event>
 7    1  0.4141894E-008  0.4614232E+02  0.7816164E-02  0.1320468E+00
        -11   -1    0    0    0    0  0.00000000000E+00  0.00000000000E+00  0.45593999997E+02  0.45594000000E+02  0.51100000000E-03 0.  1.
         11   -1    0    0    0    0 -0.00000000000E+00 -0.00000000000E+00 -0.45593999997E+02  0.45594000000E+02  0.51100000000E-03 0. -1.
    9900012    2    1    2    0    0  0.42371643315E+01 -0.41569855818E+01 -0.44652876798E+02  0.46142317665E+02  0.99999991197E+01 0.  0.
        -12    1    1    2    0    0 -0.42371643315E+01  0.41569855818E+01  0.44652876798E+02  0.45045682335E+02  0.00000000000E+00 0.  1.
         11    1    3    3    0    0 -0.16488599748E+01  0.84523840590E-01 -0.19296054545E+01  0.25395395188E+01  0.51100000000E-03 0.  1.
        -11    1    3    3    0    0  0.36805597720E+01 -0.48562025680E+01 -0.24981982896E+02  0.25714367449E+02  0.51100000000E-03 0. -1.
         12    1    3    3    0    0  0.22054645343E+01  0.61469314557E+00 -0.17741288448E+02  0.17888410697E+02  0.00000000000E+00 0. -1.
</event>
<event>
 7    1  0.4141894E-008  0.4614232E+02  0.7816164E-02  0.1320468E+00
        -11   -1    0    0    0    0  0.00000000000E+00  0.00000000000E+00  0.45593999997E+02  0.45594000000E+02  0.51100000000E-03 0.  1.
         11   -1    0    0    0    0 -0.00000000000E+00 -0.00000000000E+00 -0.45593999997E+02  0.45594000000E+02  0.51100000000E-03 0. -1.
    9900012    2    1    2    0    0 -0.15656212623E+02  0.41916046626E+02 -0.52001582652E+01  0.46142316473E+02  0.99999882559E+01 0.  0.
        -12    1    1    2    0    0  0.15656212623E+02 -0.41916046626E+02  0.52001582652E+01  0.45045683527E+02  0.00000000000E+00 0.  1.
         11    1    3    3    0    0 -0.60135268178E+01  0.19986478685E+02 -0.40022147134E+01  0.21251813049E+02  0.51100000000E-03 0. -1.
        -11    1    3    3    0    0 -0.38953923545E+01  0.93002912958E+01 -0.37957166032E+01  0.10773902013E+02  0.51100000000E-03 0.  1.
        -12    1    3    3    0    0 -0.57472934506E+01  0.12629276645E+02  0.25977730514E+01  0.14116601411E+02  0.00000000000E+00 0.  1.
</event>
<event>
 7    1  0.4141894E-008  0.4614232E+02  0.7816164E-02  0.1320468E+00
        -11   -1    0    0    0    0  0.00000000000E+00  0.00000000000E+00  0.45593999997E+02  0.45594000000E+02  0.51100000000E-03 0.  1.
         11   -1    0    0    0    0 -0.00000000000E+00 -0.00000000000E+00 -0.45593999997E+02  0.45594000000E+02  0.51100000000E-03 0. -1.
    9900012    2    1    2    0    0 -0.17729627223E+02  0.35017914798E+02 -0.22102475778E+02  0.46142317923E+02  0.10000001477E+02 0.  0.
        -12    1    1    2    0    0  0.17729627223E+02 -0.35017914798E+02  0.22102475778E+02  0.45045682077E+02  0.00000000000E+00 0.  1.
         11    1    3    3    0    0 -0.68693313922E+01  0.77835058836E+01 -0.27061634987E+01  0.10728187114E+02  0.51100000000E-03 0. -1.
        -11    1    3    3    0    0 -0.31504432817E+01  0.42022596046E+01 -0.45415898672E+01  0.69433649939E+01  0.51100000000E-03 0.  1.
        -12    1    3    3    0    0 -0.77098525491E+01  0.23032149309E+02 -0.14854722412E+02  0.28470765815E+02  0.00000000000E+00 0.  1.
</event>
<event>
 7    1  0.4141894E-008  0.4614232E+02  0.7816164E-02  0.1320468E+00
        -11   -1    0    0    0    0  0.00000000000E+00  0.00000000000E+00  0.45593999997E+02  0.45594000000E+02  0.51100000000E-03 0.  1.
         11   -1    0    0    0    0 -0.00000000000E+00 -0.00000000000E+00 -0.45593999997E+02  0.45594000000E+02  0.51100000000E-03 0. -1.
    9900012    2    1    2    0    0  0.19145704231E+02  0.24533093760E+02 -0.32568127200E+02  0.46142316641E+02  0.99999897891E+01 0.  0.
        -12    1    1    2    0    0 -0.19145704231E+02 -0.24533093760E+02  0.32568127200E+02  0.45045683359E+02  0.00000000000E+00 0.  1.
         11    1    3    3    0    0  0.16577247789E+01 -0.37889113528E+00 -0.83735237570E+00  0.18954601545E+01  0.51100000000E-03 0.  1.
        -11    1    3    3    0    0  0.74175335102E+00  0.20511999071E+01 -0.86837413119E+00  0.23476995092E+01  0.51100000000E-03 0. -1.
         12    1    3    3    0    0  0.16746226101E+02  0.22860784988E+02 -0.30862400693E+02  0.41899156978E+02  0.00000000000E+00 0. -1.
</event>
<event>
 7    1  0.4141894E-008  0.4614232E+02  0.7816164E-02  0.1320468E+00
        -11   -1    0    0    0    0  0.00000000000E+00  0.00000000000E+00  0.45593999997E+02  0.45594000000E+02  0.51100000000E-03 0.  1.
         11   -1    0    0    0    0 -0.00000000000E+00 -0.00000000000E+00 -0.45593999997E+02  0.45594000000E+02  0.51100000000E-03 0. -1.
    9900012    2    1    2    0    0 -0.21641144239E+02  0.16097473655E+02 -0.36078326728E+02  0.46142318280E+02  0.10000004736E+02 0.  0.
        -12    1    1    2    0    0  0.21641144239E+02 -0.16097473655E+02  0.36078326728E+02  0.45045681720E+02  0.00000000000E+00 0.  1.
         11    1    3    3    0    0 -0.25338537469E+01  0.36813189373E+01 -0.49240109312E+01  0.66496923117E+01  0.51100000000E-03 0. -1.
        -11    1    3    3    0    0 -0.16844047160E+01  0.18225770403E+01 -0.92039403448E+01  0.95326556870E+01  0.51100000000E-03 0.  1.
         12    1    3    3    0    0 -0.17422885776E+02  0.10593577677E+02 -0.21950375452E+02  0.29959970282E+02  0.00000000000E+00 0. -1.
</event>
<event>
 7    1  0.4141894E-008  0.4614232E+02  0.7816164E-02  0.1320468E+00
        -11   -1    0    0    0    0  0.00000000000E+00  0.00000000000E+00  0.45593999997E+02  0.45594000000E+02  0.51100000000E-03 0.  1.
         11   -1    0    0    0    0 -0.00000000000E+00 -0.00000000000E+00 -0.45593999997E+02  0.45594000000E+02  0.51100000000E-03 0. -1.
    9900012    2    1    2    0    0  0.30844358912E+02  0.20569305718E+02 -0.25585985761E+02  0.46142317834E+02  0.10000000664E+02 0.  0.
        -12    1    1    2    0    0 -0.30844358912E+02 -0.20569305718E+02  0.25585985761E+02  0.45045682166E+02  0.00000000000E+00 0.  1.
         11    1    3    3    0    0  0.64020292530E+01  0.19118793629E+01 -0.76445356879E+01  0.10152841346E+02  0.51100000000E-03 0.  1.
        -11    1    3    3    0    0  0.19321013010E+02  0.12984693933E+02 -0.15497869931E+02  0.27965832598E+02  0.51100000000E-03 0. -1.
         12    1    3    3    0    0  0.51213166496E+01  0.56727324216E+01 -0.24435801427E+01  0.80236438895E+01  0.00000000000E+00 0. -1.
</event>
<event>
 7    1  0.4141894E-008  0.4614233E+02  0.7816164E-02  0.1320468E+00
        -11   -1    0    0    0    0  0.00000000000E+00  0.00000000000E+00  0.45593999997E+02  0.45594000000E+02  0.51100000000E-03 0.  1.
         11   -1    0    0    0    0 -0.00000000000E+00 -0.00000000000E+00 -0.45593999997E+02  0.45594000000E+02  0.51100000000E-03 0. -1.
    9900012    2    1    2    0    0 -0.18031848701E+02 -0.15158632140E+02 -0.38395065895E+02  0.46142325612E+02  0.10000071595E+02 0.  0.
        -12    1    1    2    0    0  0.18031848701E+02  0.15158632140E+02  0.38395065895E+02  0.45045674388E+02  0.00000000000E+00 0.  1.
         11    1    3    3    0    0 -0.30868861652E+01 -0.68712301107E+01 -0.79532256002E+01  0.10954289897E+02  0.51100000000E-03 0.  1.
        -11    1    3    3    0    0 -0.86895908051E+00 -0.14277259610E+01 -0.54079972256E+01  0.56603821034E+01  0.51100000000E-03 0. -1.
         12    1    3    3    0    0 -0.14076003455E+02 -0.68596760681E+01 -0.25033843070E+02  0.29527653613E+02  0.00000000000E+00 0. -1.
</event>
<event>
 7    1  0.4141894E-008  0.4614232E+02  0.7816164E-02  0.1320468E+00
        -11   -1    0    0    0    0  0.00000000000E+00  0.00000000000E+00  0.45593999997E+02  0.45594000000E+02  0.51100000000E-03 0. -1.
         11   -1    0    0    0    0 -0.00000000000E+00 -0.00000000000E+00 -0.45593999997E+02  0.45594000000E+02  0.51100000000E-03 0.  1.
    9900012    2    1    2    0    0 -0.21001862563E+02  0.33076891758E+02  0.22225086981E+02  0.46142317734E+02  0.99999997524E+01 0.  0.
        -12    1    1    2    0    0  0.21001862563E+02 -0.33076891758E+02 -0.22225086981E+02  0.45045682266E+02  0.00000000000E+00 0.  1.
         11    1    3    3    0    0 -0.63482272840E+01  0.13970952127E+02  0.95916025709E+01  0.18096583465E+02  0.51100000000E-03 0. -1.
        -11    1    3    3    0    0 -0.22259435997E+01  0.58864369177E+01  0.70667686175E+00  0.63328000871E+01  0.51100000000E-03 0.  1.
        -12    1    3    3    0    0 -0.12427691680E+02  0.13219502714E+02  0.11926807548E+02  0.21712934182E+02  0.00000000000E+00 0.  1.
</event>
<event>
 7    1  0.4141894E-008  0.4614231E+02  0.7816164E-02  0.1320468E+00
        -11   -1    0    0    0    0  0.00000000000E+00  0.00000000000E+00  0.45593999997E+02  0.45594000000E+02  0.51100000000E-03 0.  1.
         11   -1    0    0    0    0 -0.00000000000E+00 -0.00000000000E+00 -0.45593999997E+02  0.45594000000E+02  0.51100000000E-03 0. -1.
    9900012    2    1    2    0    0  0.26199233185E+02  0.27213548419E+02 -0.24538475897E+02  0.46142313898E+02  0.99999647766E+01 0.  0.
        -12    1    1    2    0    0 -0.26199233185E+02 -0.27213548419E+02  0.24538475897E+02  0.45045686102E+02  0.00000000000E+00 0.  1.
         11    1    3    3    0    0  0.37163348949E+01  0.38280091714E+01 -0.16674719488E+01  0.55897461685E+01  0.51100000000E-03 0. -1.
        -11    1    3    3    0    0  0.45965295169E+01  0.91926243876E+01 -0.43849545153E+01  0.11174088468E+02  0.51100000000E-03 0.  1.
         12    1    3    3    0    0  0.17886368773E+02  0.14192914860E+02 -0.18486049433E+02  0.29378479262E+02  0.00000000000E+00 0. -1.
</event>
<event>
 7    1  0.4141894E-008  0.4614232E+02  0.7816164E-02  0.1320468E+00
        -11   -1    0    0    0    0  0.00000000000E+00  0.00000000000E+00  0.45593999997E+02  0.45594000000E+02  0.51100000000E-03 0. -1.
         11   -1    0    0    0    0 -0.00000000000E+00 -0.00000000000E+00 -0.45593999997E+02  0.45594000000E+02  0.51100000000E-03 0.  1.
    9900012    2    1    2    0    0  0.19018393641E+02 -0.35701270491E+02  0.19820027427E+02  0.46142317648E+02  0.99999989704E+01 0.  0.
        -12    1    1    2    0    0 -0.19018393641E+02  0.35701270491E+02 -0.19820027427E+02  0.45045682352E+02  0.00000000000E+00 0.  1.
         11    1    3    3    0    0  0.41677143660E+01 -0.75909313217E+01  0.62483777423E+01  0.10678684659E+02  0.51100000000E-03 0. -1.
        -11    1    3    3    0    0  0.37930865968E+01 -0.15652631316E+02  0.65289907635E+01  0.17378725319E+02  0.51100000000E-03 0.  1.
        -12    1    3    3    0    0  0.11057592678E+02 -0.12457707853E+02  0.70426589208E+01  0.18084907671E+02  0.00000000000E+00 0.  1.
</event>
<event>
 7    1  0.4141894E-008  0.4614232E+02  0.7816164E-02  0.1320468E+00
        -11   -1    0    0    0    0  0.00000000000E+00  0.00000000000E+00  0.45593999997E+02  0.45594000000E+02  0.51100000000E-03 0.  1.
         11   -1    0    0    0    0 -0.00000000000E+00 -0.00000000000E+00 -0.45593999997E+02  0.45594000000E+02  0.51100000000E-03 0. -1.
    9900012    2    1    2    0    0 -0.23074310857E+01  0.29896350550E+02 -0.33615435564E+02  0.46142317381E+02  0.99999965380E+01 0.  0.
        -12    1    1    2    0    0  0.23074310857E+01 -0.29896350550E+02  0.33615435564E+02  0.45045682619E+02  0.00000000000E+00 0.  1.
         11    1    3    3    0    0 -0.17492860904E+01  0.11591834100E+02 -0.11688909090E+02  0.16554794339E+02  0.51100000000E-03 0. -1.
        -11    1    3    3    0    0  0.66259411436E+00  0.43323826416E+01 -0.10895376017E+02  0.11743840476E+02  0.51100000000E-03 0.  1.
        -12    1    3    3    0    0 -0.12207391096E+01  0.13972133808E+02 -0.11031150457E+02  0.17843682566E+02  0.00000000000E+00 0.  1.
</event>
<event>
 7    1  0.4141894E-008  0.4614232E+02  0.7816164E-02  0.1320468E+00
        -11   -1    0    0    0    0  0.00000000000E+00  0.00000000000E+00  0.45593999997E+02  0.45594000000E+02  0.51100000000E-03 0.  1.
         11   -1    0    0    0    0 -0.00000000000E+00 -0.00000000000E+00 -0.45593999997E+02  0.45594000000E+02  0.51100000000E-03 0. -1.
    9900012    2    1    2    0    0  0.11398461901E+02  0.27553083088E+02 -0.33764124154E+02  0.46142318729E+02  0.10000008823E+02 0.  0.
        -12    1    1    2    0    0 -0.11398461901E+02 -0.27553083088E+02  0.33764124154E+02  0.45045681271E+02  0.00000000000E+00 0.  1.
         11    1    3    3    0    0  0.37336350922E+01  0.12327380685E+02 -0.10285929246E+02  0.16483467059E+02  0.51100000000E-03 0. -1.
        -11    1    3    3    0    0  0.62418580490E+00  0.80022512714E+01 -0.99461859900E+01  0.12780933039E+02  0.51100000000E-03 0.  1.
        -12    1    3    3    0    0  0.70406410040E+01  0.72234511314E+01 -0.13532008917E+02  0.16877918631E+02  0.00000000000E+00 0.  1.
</event>
<event>
 7    1  0.4141894E-008  0.4614232E+02  0.7816164E-02  0.1320468E+00
        -11   -1    0    0    0    0  0.00000000000E+00  0.00000000000E+00  0.45593999997E+02  0.45594000000E+02  0.51100000000E-03 0.  1.
         11   -1    0    0    0    0 -0.00000000000E+00 -0.00000000000E+00 -0.45593999997E+02  0.45594000000E+02  0.51100000000E-03 0. -1.
    9900012    2    1    2    0    0  0.17750819232E+02 -0.15940459305E+01 -0.41370048740E+02  0.46142317648E+02  0.99999989649E+01 0.  0.
        -12    1    1    2    0    0 -0.17750819232E+02  0.15940459305E+01  0.41370048740E+02  0.45045682352E+02  0.00000000000E+00 0.  1.
         11    1    3    3    0    0  0.47906186233E+01 -0.25006408606E+01 -0.10700682397E+02  0.11987820299E+02  0.51100000000E-03 0. -1.
        -11    1    3    3    0    0 -0.67351754777E-01 -0.14666732121E+01 -0.13985333808E+01  0.20276988062E+01  0.51100000000E-03 0.  1.
         12    1    3    3    0    0  0.13027552364E+02  0.23732681422E+01 -0.29270832962E+02  0.32126798542E+02  0.00000000000E+00 0. -1.
</event>
<event>
 7    1  0.4141894E-008  0.4614232E+02  0.7816164E-02  0.1320468E+00
        -11   -1    0    0    0    0  0.00000000000E+00  0.00000000000E+00  0.45593999997E+02  0.45594000000E+02  0.51100000000E-03 0.  1.
         11   -1    0    0    0    0 -0.00000000000E+00 -0.00000000000E+00 -0.45593999997E+02  0.45594000000E+02  0.51100000000E-03 0. -1.
    9900012    2    1    2    0    0  0.34408167824E+02  0.28799959822E+02 -0.39691017797E+01  0.46142317991E+02  0.10000002096E+02 0.  0.
        -12    1    1    2    0    0 -0.34408167824E+02 -0.28799959822E+02  0.39691017797E+01  0.45045682009E+02  0.00000000000E+00 0.  1.
         11    1    3    3    0    0  0.17731862978E+02  0.13717507420E+02 -0.63782300344E+01  0.23308170094E+02  0.51100000000E-03 0. -1.
        -11    1    3    3    0    0  0.91677072730E+01  0.98481067594E+01  0.38668392889E+00  0.13460371024E+02  0.51100000000E-03 0.  1.
         12    1    3    3    0    0  0.75085975724E+01  0.52343456423E+01  0.20224443258E+01  0.93737768726E+01  0.00000000000E+00 0. -1.
</event>
<event>
 7    1  0.4141894E-008  0.4614232E+02  0.7816164E-02  0.1320468E+00
        -11   -1    0    0    0    0  0.00000000000E+00  0.00000000000E+00  0.45593999997E+02  0.45594000000E+02  0.51100000000E-03 0. -1.
         11   -1    0    0    0    0 -0.00000000000E+00 -0.00000000000E+00 -0.45593999997E+02  0.45594000000E+02  0.51100000000E-03 0.  1.
    9900012    2    1    2    0    0 -0.21690214890E+02 -0.39188313106E+02 -0.47879082556E+01  0.46142319058E+02  0.10000011830E+02 0.  0.
        -12    1    1    2    0    0  0.21690214890E+02  0.39188313106E+02  0.47879082556E+01  0.45045680942E+02  0.00000000000E+00 0.  1.
         11    1    3    3    0    0 -0.45755183508E+01 -0.13357820615E+02 -0.28124684290E+01  0.14397107997E+02  0.51100000000E-03 0.  1.
        -11    1    3    3    0    0 -0.87054161582E+00 -0.35932302228E+01  0.14968088146E+01  0.39886818660E+01  0.51100000000E-03 0. -1.
        -12    1    3    3    0    0 -0.16244154923E+02 -0.22237262268E+02 -0.34722486413E+01  0.27756529195E+02  0.00000000000E+00 0.  1.
</event>
<event>
 7    1  0.4141894E-008  0.4614232E+02  0.7816164E-02  0.1320468E+00
        -11   -1    0    0    0    0  0.00000000000E+00  0.00000000000E+00  0.45593999997E+02  0.45594000000E+02  0.51100000000E-03 0.  1.
         11   -1    0    0    0    0 -0.00000000000E+00 -0.00000000000E+00 -0.45593999997E+02  0.45594000000E+02  0.51100000000E-03 0. -1.
    9900012    2    1    2    0    0  0.98458934223E+01 -0.43695265717E+02 -0.47849335317E+01  0.46142318162E+02  0.10000003656E+02 0.  0.
        -12    1    1    2    0    0 -0.98458934223E+01  0.43695265717E+02  0.47849335317E+01  0.45045681838E+02  0.00000000000E+00 0.  1.
         11    1    3    3    0    0  0.17263274394E+01 -0.19234223963E+02  0.44536101961E+00  0.19316674780E+02  0.51100000000E-03 0. -1.
        -11    1    3    3    0    0  0.20460201887E+01 -0.10459030181E+02 -0.44324983725E+01  0.11542294097E+02  0.51100000000E-03 0.  1.
        -12    1    3    3    0    0  0.60735457942E+01 -0.14002011574E+02 -0.79779617876E+00  0.15283349285E+02  0.00000000000E+00 0.  1.
</event>
<event>
 7    1  0.4141894E-008  0.4614232E+02  0.7816164E-02  0.1320468E+00
        -11   -1    0    0    0    0  0.00000000000E+00  0.00000000000E+00  0.45593999997E+02  0.45594000000E+02  0.51100000000E-03 0.  1.
         11   -1    0    0    0    0 -0.00000000000E+00 -0.00000000000E+00 -0.45593999997E+02  0.45594000000E+02  0.51100000000E-03 0. -1.
    9900012    2    1    2    0    0  0.25047319687E+02 -0.34442332207E+02 -0.14678933870E+02  0.46142316845E+02  0.99999916429E+01 0.  0.
        -12    1    1    2    0    0 -0.25047319687E+02  0.34442332207E+02  0.14678933870E+02  0.45045683155E+02  0.00000000000E+00 0.  1.
         11    1    3    3    0    0  0.94477769550E+01 -0.70647390109E+01 -0.40691359666E+01  0.12479138370E+02  0.51100000000E-03 0. -1.
        -11    1    3    3    0    0  0.75853031679E+01 -0.11167718770E+02 -0.20435675344E+01  0.13653971408E+02  0.51100000000E-03 0.  1.
         12    1    3    3    0    0  0.80142395639E+01 -0.16209874427E+02 -0.85662303689E+01  0.20009207067E+02  0.00000000000E+00 0. -1.
</event>
<event>
 7    1  0.4141894E-008  0.4614232E+02  0.7816164E-02  0.1320468E+00
        -11   -1    0    0    0    0  0.00000000000E+00  0.00000000000E+00  0.45593999997E+02  0.45594000000E+02  0.51100000000E-03 0.  1.
         11   -1    0    0    0    0 -0.00000000000E+00 -0.00000000000E+00 -0.45593999997E+02  0.45594000000E+02  0.51100000000E-03 0. -1.
    9900012    2    1    2    0    0  0.57990192107E+01  0.31070756333E+01 -0.44562663434E+02  0.46142317464E+02  0.99999972875E+01 0.  0.
        -12    1    1    2    0    0 -0.57990192107E+01 -0.31070756333E+01  0.44562663434E+02  0.45045682536E+02  0.00000000000E+00 0.  1.
         11    1    3    3    0    0  0.12990796399E+01 -0.71235429884E+00 -0.29417752349E+01  0.32937969506E+01  0.51100000000E-03 0. -1.
        -11    1    3    3    0    0  0.43365970283E+01 -0.10219300186E+01 -0.28808268883E+02  0.29150759356E+02  0.51100000000E-03 0.  1.
         12    1    3    3    0    0  0.16334254245E+00  0.48413599507E+01 -0.12812619316E+02  0.13697761157E+02  0.00000000000E+00 0. -1.
</event>
<event>
 7    1  0.4141894E-008  0.4614231E+02  0.7816164E-02  0.1320468E+00
        -11   -1    0    0    0    0  0.00000000000E+00  0.00000000000E+00  0.45593999997E+02  0.45594000000E+02  0.51100000000E-03 0.  1.
         11   -1    0    0    0    0 -0.00000000000E+00 -0.00000000000E+00 -0.45593999997E+02  0.45594000000E+02  0.51100000000E-03 0. -1.
    9900012    2    1    2    0    0 -0.32374649956E+01  0.36216072106E+02  0.26590011147E+02  0.46142314844E+02  0.99999734004E+01 0.  0.
        -12    1    1    2    0    0  0.32374649956E+01 -0.36216072106E+02 -0.26590011147E+02  0.45045685156E+02  0.00000000000E+00 0.  1.
         11    1    3    3    0    0 -0.52976710497E+01  0.16214209738E+02  0.12071225082E+02  0.20896899081E+02  0.51100000000E-03 0. -1.
        -11    1    3    3    0    0 -0.42105220078E+00  0.67720550043E+01  0.73194169977E+01  0.99805751029E+01  0.51100000000E-03 0.  1.
         12    1    3    3    0    0  0.24812582549E+01  0.13229807363E+02  0.71993690675E+01  0.15264840660E+02  0.00000000000E+00 0. -1.
</event>
<event>
 7    1  0.4141894E-008  0.4614232E+02  0.7816164E-02  0.1320468E+00
        -11   -1    0    0    0    0  0.00000000000E+00  0.00000000000E+00  0.45593999997E+02  0.45594000000E+02  0.51100000000E-03 0.  1.
         11   -1    0    0    0    0 -0.00000000000E+00 -0.00000000000E+00 -0.45593999997E+02  0.45594000000E+02  0.51100000000E-03 0. -1.
    9900012    2    1    2    0    0  0.22138141043E+02  0.39219001431E+02  0.94129956888E+00  0.46142318665E+02  0.10000008243E+02 0.  0.
        -12    1    1    2    0    0 -0.22138141043E+02 -0.39219001431E+02 -0.94129956888E+00  0.45045681335E+02  0.00000000000E+00 0.  1.
         11    1    3    3    0    0  0.17715324117E+02  0.23477245707E+02  0.24122097698E+01  0.29509871751E+02  0.51100000000E-03 0. -1.
        -11    1    3    3    0    0  0.29471287014E+01  0.73703382841E+01 -0.17461096869E+01  0.81275059708E+01  0.51100000000E-03 0.  1.
         12    1    3    3    0    0  0.14756882246E+01  0.83714174399E+01  0.27519948603E+00  0.85049409432E+01  0.00000000000E+00 0. -1.
</event>
<event>
 7    1  0.4141894E-008  0.4614232E+02  0.7816164E-02  0.1320468E+00
        -11   -1    0    0    0    0  0.00000000000E+00  0.00000000000E+00  0.45593999997E+02  0.45594000000E+02  0.51100000000E-03 0.  1.
         11   -1    0    0    0    0 -0.00000000000E+00 -0.00000000000E+00 -0.45593999997E+02  0.45594000000E+02  0.51100000000E-03 0. -1.
    9900012    2    1    2    0    0  0.23662872561E+02  0.23511941631E+02 -0.30271610312E+02  0.46142319541E+02  0.10000016233E+02 0.  0.
        -12    1    1    2    0    0 -0.23662872561E+02 -0.23511941631E+02  0.30271610312E+02  0.45045680459E+02  0.00000000000E+00 0.  1.
         11    1    3    3    0    0  0.15115049250E+02  0.18101573199E+02 -0.23080118102E+02  0.32997325921E+02  0.51100000000E-03 0. -1.
        -11    1    3    3    0    0  0.69332000697E+00  0.24948845044E+01 -0.12599524832E+01  0.28796912757E+01  0.51100000000E-03 0.  1.
         12    1    3    3    0    0  0.78545033040E+01  0.29154839276E+01 -0.59315397274E+01  0.10265302344E+02  0.00000000000E+00 0. -1.
</event>
<event>
 7    1  0.4141894E-008  0.4614232E+02  0.7816164E-02  0.1320468E+00
        -11   -1    0    0    0    0  0.00000000000E+00  0.00000000000E+00  0.45593999997E+02  0.45594000000E+02  0.51100000000E-03 0. -1.
         11   -1    0    0    0    0 -0.00000000000E+00 -0.00000000000E+00 -0.45593999997E+02  0.45594000000E+02  0.51100000000E-03 0.  1.
    9900012    2    1    2    0    0  0.10198759309E+01  0.43825603992E+02 -0.10362905444E+02  0.46142317394E+02  0.99999966513E+01 0.  0.
        -12    1    1    2    0    0 -0.10198759309E+01 -0.43825603992E+02  0.10362905444E+02  0.45045682606E+02  0.00000000000E+00 0.  1.
         11    1    3    3    0    0  0.18011348071E+01  0.84146270718E+01  0.35534041926E+00  0.86125665412E+01  0.51100000000E-03 0. -1.
        -11    1    3    3    0    0 -0.99232134327E+00  0.20979950858E+02 -0.94813256534E+01  0.23044274257E+02  0.51100000000E-03 0.  1.
        -12    1    3    3    0    0  0.21106246700E+00  0.14431026063E+02 -0.12369202103E+01  0.14485476595E+02  0.00000000000E+00 0.  1.
</event>
<event>
 7    1  0.4141894E-008  0.4614232E+02  0.7816164E-02  0.1320468E+00
        -11   -1    0    0    0    0  0.00000000000E+00  0.00000000000E+00  0.45593999997E+02  0.45594000000E+02  0.51100000000E-03 0. -1.
         11   -1    0    0    0    0 -0.00000000000E+00 -0.00000000000E+00 -0.45593999997E+02  0.45594000000E+02  0.51100000000E-03 0.  1.
    9900012    2    1    2    0    0  0.59327330373E+01  0.44616609852E+02  0.18095455777E+01  0.46142315954E+02  0.99999835193E+01 0.  0.
        -12    1    1    2    0    0 -0.59327330373E+01 -0.44616609852E+02 -0.18095455777E+01  0.45045684046E+02  0.00000000000E+00 0.  1.
         11    1    3    3    0    0  0.46549119915E+01  0.14404889001E+02  0.95656898325E-01  0.15138632147E+02  0.51100000000E-03 0.  1.
        -11    1    3    3    0    0  0.18486208815E+01  0.16993069467E+02 -0.21303266829E+01  0.17225565335E+02  0.51100000000E-03 0. -1.
        -12    1    3    3    0    0 -0.57079983570E+00  0.13218651383E+02  0.38442153623E+01  0.13778118471E+02  0.00000000000E+00 0.  1.
</event>
<event>
 7    1  0.4141894E-008  0.4614232E+02  0.7816164E-02  0.1320468E+00
        -11   -1    0    0    0    0  0.00000000000E+00  0.00000000000E+00  0.45593999997E+02  0.45594000000E+02  0.51100000000E-03 0. -1.
         11   -1    0    0    0    0 -0.00000000000E+00 -0.00000000000E+00 -0.45593999997E+02  0.45594000000E+02  0.51100000000E-03 0.  1.
    9900012    2    1    2    0    0 -0.63308557836E+01  0.48324957804E+01  0.44335998579E+02  0.46142317405E+02  0.99999967571E+01 0.  0.
        -12    1    1    2    0    0  0.63308557836E+01 -0.48324957804E+01 -0.44335998579E+02  0.45045682595E+02  0.00000000000E+00 0.  1.
         11    1    3    3    0    0 -0.39684343449E+01  0.16655341453E+01  0.94164614777E+01  0.10353367672E+02  0.51100000000E-03 0. -1.
        -11    1    3    3    0    0 -0.46452349283E+01  0.30444483470E+01  0.24553592606E+02  0.25173910769E+02  0.51100000000E-03 0.  1.
         12    1    3    3    0    0  0.22828134895E+01  0.12251328808E+00  0.10365944495E+02  0.10615038964E+02  0.00000000000E+00 0. -1.
</event>
<event>
 7    1  0.4141894E-008  0.4614232E+02  0.7816164E-02  0.1320468E+00
        -11   -1    0    0    0    0  0.00000000000E+00  0.00000000000E+00  0.45593999997E+02  0.45594000000E+02  0.51100000000E-03 0.  1.
         11   -1    0    0    0    0 -0.00000000000E+00 -0.00000000000E+00 -0.45593999997E+02  0.45594000000E+02  0.51100000000E-03 0. -1.
    9900012    2    1    2    0    0 -0.10444302835E+02 -0.78234994636E+01 -0.43114067772E+02  0.46142318238E+02  0.10000004349E+02 0.  0.
        -12    1    1    2    0    0  0.10444302835E+02  0.78234994636E+01  0.43114067772E+02  0.45045681762E+02  0.00000000000E+00 0.  1.
         11    1    3    3    0    0 -0.29924150092E+01 -0.27942822857E+01 -0.18848066641E+02  0.19287617204E+02  0.51100000000E-03 0. -1.
        -11    1    3    3    0    0 -0.24019186225E+01 -0.28397288184E+01 -0.26964078632E+01  0.45938968705E+01  0.51100000000E-03 0.  1.
        -12    1    3    3    0    0 -0.50499692032E+01 -0.21894883596E+01 -0.21569593268E+02  0.22260804163E+02  0.00000000000E+00 0.  1.
</event>
<event>
 7    1  0.4141894E-008  0.4614232E+02  0.7816164E-02  0.1320468E+00
        -11   -1    0    0    0    0  0.00000000000E+00  0.00000000000E+00  0.45593999997E+02  0.45594000000E+02  0.51100000000E-03 0.  1.
         11   -1    0    0    0    0 -0.00000000000E+00 -0.00000000000E+00 -0.45593999997E+02  0.45594000000E+02  0.51100000000E-03 0. -1.
    9900012    2    1    2    0    0  0.32892901056E+02  0.30378315504E+02  0.49323836465E+01  0.46142318729E+02  0.10000008825E+02 0.  0.
        -12    1    1    2    0    0 -0.32892901056E+02 -0.30378315504E+02 -0.49323836465E+01  0.45045681271E+02  0.00000000000E+00 0.  1.
         11    1    3    3    0    0  0.20575978011E+02  0.14914255814E+02  0.63575097359E+01  0.26195874254E+02  0.51100000000E-03 0. -1.
        -11    1    3    3    0    0  0.11135093407E+02  0.12934527805E+02 -0.16416757002E+01  0.17146061182E+02  0.51100000000E-03 0.  1.
         12    1    3    3    0    0  0.11818296376E+01  0.25295318857E+01  0.21654961078E+00  0.28003832929E+01  0.00000000000E+00 0. -1.
</event>
<event>
 7    1  0.4141894E-008  0.4614232E+02  0.7816164E-02  0.1320468E+00
        -11   -1    0    0    0    0  0.00000000000E+00  0.00000000000E+00  0.45593999997E+02  0.45594000000E+02  0.51100000000E-03 0.  1.
         11   -1    0    0    0    0 -0.00000000000E+00 -0.00000000000E+00 -0.45593999997E+02  0.45594000000E+02  0.51100000000E-03 0. -1.
    9900012    2    1    2    0    0  0.17093413201E+02 -0.22039687498E+02 -0.35372035723E+02  0.46142317509E+02  0.99999977012E+01 0.  0.
        -12    1    1    2    0    0 -0.17093413201E+02  0.22039687498E+02  0.35372035723E+02  0.45045682491E+02  0.00000000000E+00 0.  1.
         11    1    3    3    0    0  0.36972441899E+01 -0.12522238549E+01 -0.36818796991E+01  0.53659964184E+01  0.51100000000E-03 0. -1.
        -11    1    3    3    0    0  0.41779282185E+01 -0.20017072425E+01 -0.44223056411E+01  0.64045845711E+01  0.51100000000E-03 0.  1.
         12    1    3    3    0    0  0.92182407926E+01 -0.18785756401E+02 -0.27267850383E+02  0.34371736519E+02  0.00000000000E+00 0. -1.
</event>
<event>
 7    1  0.4141894E-008  0.4614232E+02  0.7816164E-02  0.1320468E+00
        -11   -1    0    0    0    0  0.00000000000E+00  0.00000000000E+00  0.45593999997E+02  0.45594000000E+02  0.51100000000E-03 0.  1.
         11   -1    0    0    0    0 -0.00000000000E+00 -0.00000000000E+00 -0.45593999997E+02  0.45594000000E+02  0.51100000000E-03 0. -1.
    9900012    2    1    2    0    0 -0.50542581634E+01  0.29145932718E+02 -0.33971791209E+02  0.46142317437E+02  0.99999970455E+01 0.  0.
        -12    1    1    2    0    0  0.50542581634E+01 -0.29145932718E+02  0.33971791209E+02  0.45045682563E+02  0.00000000000E+00 0.  1.
         11    1    3    3    0    0 -0.83001960508E+00  0.62559505107E+01 -0.10410593437E+02  0.12174001204E+02  0.51100000000E-03 0.  1.
        -11    1    3    3    0    0 -0.81561435202E+00  0.13507565090E+01  0.33951257230E+00  0.16140133103E+01  0.51100000000E-03 0. -1.
         12    1    3    3    0    0 -0.34086242063E+01  0.21539225699E+02 -0.23900710345E+02  0.32354302923E+02  0.00000000000E+00 0. -1.
</event>
<event>
 7    1  0.4141894E-008  0.4614232E+02  0.7816164E-02  0.1320468E+00
        -11   -1    0    0    0    0  0.00000000000E+00  0.00000000000E+00  0.45593999997E+02  0.45594000000E+02  0.51100000000E-03 0.  1.
         11   -1    0    0    0    0 -0.00000000000E+00 -0.00000000000E+00 -0.45593999997E+02  0.45594000000E+02  0.51100000000E-03 0. -1.
    9900012    2    1    2    0    0  0.31317074388E+02  0.18026197950E-01 -0.32378295610E+02  0.46142317635E+02  0.99999988488E+01 0.  0.
        -12    1    1    2    0    0 -0.31317074388E+02 -0.18026197950E-01  0.32378295610E+02  0.45045682365E+02  0.00000000000E+00 0.  1.
         11    1    3    3    0    0  0.70955197149E+01 -0.14974639833E+01 -0.11256991121E+02  0.13390617900E+02  0.51100000000E-03 0. -1.
        -11    1    3    3    0    0  0.23606922147E+01 -0.51153065975E+00 -0.19788859237E+00  0.24235699917E+01  0.51100000000E-03 0.  1.
         12    1    3    3    0    0  0.21860862458E+02  0.20270208410E+01 -0.20923415897E+02  0.30328129743E+02  0.00000000000E+00 0. -1.
</event>
<event>
 7    1  0.4141894E-008  0.4614232E+02  0.7816164E-02  0.1320468E+00
        -11   -1    0    0    0    0  0.00000000000E+00  0.00000000000E+00  0.45593999997E+02  0.45594000000E+02  0.51100000000E-03 0. -1.
         11   -1    0    0    0    0 -0.00000000000E+00 -0.00000000000E+00 -0.45593999997E+02  0.45594000000E+02  0.51100000000E-03 0.  1.
    9900012    2    1    2    0    0 -0.41950319987E+02 -0.10779584995E+02 -0.12372728872E+02  0.46142320747E+02  0.10000027224E+02 0.  0.
        -12    1    1    2    0    0  0.41950319987E+02  0.10779584995E+02  0.12372728872E+02  0.45045679253E+02  0.00000000000E+00 0.  1.
         11    1    3    3    0    0 -0.42534240984E+01 -0.37329999128E+00  0.10436383266E+00  0.42710492288E+01  0.51100000000E-03 0. -1.
        -11    1    3    3    0    0 -0.75844091616E+01  0.98953708736E+00 -0.11200921126E+01  0.77302685968E+01  0.51100000000E-03 0.  1.
        -12    1    3    3    0    0 -0.30112486727E+02 -0.11395822091E+02 -0.11357000592E+02  0.34141002921E+02  0.00000000000E+00 0.  1.
</event>
<event>
 7    1  0.4141894E-008  0.4614231E+02  0.7816164E-02  0.1320468E+00
        -11   -1    0    0    0    0  0.00000000000E+00  0.00000000000E+00  0.45593999997E+02  0.45594000000E+02  0.51100000000E-03 0.  1.
         11   -1    0    0    0    0 -0.00000000000E+00 -0.00000000000E+00 -0.45593999997E+02  0.45594000000E+02  0.51100000000E-03 0. -1.
    9900012    2    1    2    0    0 -0.19615845610E+02 -0.32500427431E+02 -0.24249838401E+02  0.46142313806E+02  0.99999639371E+01 0.  0.
        -12    1    1    2    0    0  0.19615845610E+02  0.32500427431E+02  0.24249838401E+02  0.45045686194E+02  0.00000000000E+00 0.  1.
         11    1    3    3    0    0 -0.30623002696E+01 -0.23604676652E+01 -0.45327261697E+01  0.59577762067E+01  0.51100000000E-03 0.  1.
        -11    1    3    3    0    0 -0.11570290994E+02 -0.19185996491E+02 -0.16196285009E+02  0.27645863043E+02  0.51100000000E-03 0. -1.
         12    1    3    3    0    0 -0.49832543465E+01 -0.10953963275E+02 -0.35208272220E+01  0.12538674556E+02  0.00000000000E+00 0. -1.
</event>
<event>
 7    1  0.4141894E-008  0.4614232E+02  0.7816164E-02  0.1320468E+00
        -11   -1    0    0    0    0  0.00000000000E+00  0.00000000000E+00  0.45593999997E+02  0.45594000000E+02  0.51100000000E-03 0. -1.
         11   -1    0    0    0    0 -0.00000000000E+00 -0.00000000000E+00 -0.45593999997E+02  0.45594000000E+02  0.51100000000E-03 0.  1.
    9900012    2    1    2    0    0  0.20209366916E+02  0.38195451590E+02  0.12720163523E+02  0.46142316596E+02  0.99999893773E+01 0.  0.
        -12    1    1    2    0    0 -0.20209366916E+02 -0.38195451590E+02 -0.12720163523E+02  0.45045683404E+02  0.00000000000E+00 0.  1.
         11    1    3    3    0    0  0.21226963029E+01  0.22584605154E+01  0.13856865713E+01  0.33950863066E+01  0.51100000000E-03 0. -1.
        -11    1    3    3    0    0  0.58390221120E+01  0.41927415128E+01  0.17591754946E+01  0.74005377710E+01  0.51100000000E-03 0.  1.
        -12    1    3    3    0    0  0.12247648501E+02  0.31744249562E+02  0.95753014567E+01  0.35346692519E+02  0.00000000000E+00 0.  1.
</event>
<event>
 7    1  0.4141894E-008  0.4614232E+02  0.7816164E-02  0.1320468E+00
        -11   -1    0    0    0    0  0.00000000000E+00  0.00000000000E+00  0.45593999997E+02  0.45594000000E+02  0.51100000000E-03 0.  1.
         11   -1    0    0    0    0 -0.00000000000E+00 -0.00000000000E+00 -0.45593999997E+02  0.45594000000E+02  0.51100000000E-03 0. -1.
    9900012    2    1    2    0    0 -0.11164642794E+02 -0.24072775869E+01 -0.43573721716E+02  0.46142318095E+02  0.10000003046E+02 0.  0.
        -12    1    1    2    0    0  0.11164642794E+02  0.24072775869E+01  0.43573721716E+02  0.45045681905E+02  0.00000000000E+00 0.  1.
         11    1    3    3    0    0 -0.24010746057E+01  0.33931684040E+00 -0.99634521535E+01  0.10254300281E+02  0.51100000000E-03 0. -1.
        -11    1    3    3    0    0  0.85190602736E+00 -0.88603974506E+00 -0.13119928711E+02  0.13177379859E+02  0.51100000000E-03 0.  1.
        -12    1    3    3    0    0 -0.96154742151E+01 -0.18605546823E+01 -0.20490340852E+02  0.22710637955E+02  0.00000000000E+00 0.  1.
</event>
<event>
 7    1  0.4141894E-008  0.4614232E+02  0.7816164E-02  0.1320468E+00
        -11   -1    0    0    0    0  0.00000000000E+00  0.00000000000E+00  0.45593999997E+02  0.45594000000E+02  0.51100000000E-03 0. -1.
         11   -1    0    0    0    0 -0.00000000000E+00 -0.00000000000E+00 -0.45593999997E+02  0.45594000000E+02  0.51100000000E-03 0.  1.
    9900012    2    1    2    0    0  0.28674955012E+02 -0.88481795259E+01  0.33594197870E+02  0.46142318116E+02  0.10000003234E+02 0.  0.
        -12    1    1    2    0    0 -0.28674955012E+02  0.88481795259E+01 -0.33594197870E+02  0.45045681884E+02  0.00000000000E+00 0.  1.
         11    1    3    3    0    0  0.79262945954E+01 -0.24218124566E+01  0.63140859253E+01  0.10419165174E+02  0.51100000000E-03 0.  1.
        -11    1    3    3    0    0  0.76083192640E+01  0.76951462763E+00  0.61106235105E+01  0.97886870791E+01  0.51100000000E-03 0. -1.
         12    1    3    3    0    0  0.13140341153E+02 -0.71958816969E+01  0.21169488435E+02  0.25934465863E+02  0.00000000000E+00 0. -1.
</event>
<event>
 7    1  0.4141894E-008  0.4614232E+02  0.7816164E-02  0.1320468E+00
        -11   -1    0    0    0    0  0.00000000000E+00  0.00000000000E+00  0.45593999997E+02  0.45594000000E+02  0.51100000000E-03 0. -1.
         11   -1    0    0    0    0 -0.00000000000E+00 -0.00000000000E+00 -0.45593999997E+02  0.45594000000E+02  0.51100000000E-03 0.  1.
    9900012    2    1    2    0    0 -0.64847772218E+00  0.28070770165E+02  0.35223924117E+02  0.46142317730E+02  0.99999997136E+01 0.  0.
        -12    1    1    2    0    0  0.64847772218E+00 -0.28070770165E+02 -0.35223924117E+02  0.45045682270E+02  0.00000000000E+00 0.  1.
         11    1    3    3    0    0 -0.89458377839E+00  0.18166374161E+02  0.18014040180E+02  0.25599278782E+02  0.51100000000E-03 0. -1.
        -11    1    3    3    0    0  0.24240057864E+01  0.76896490438E+01  0.11531537790E+02  0.14070638598E+02  0.51100000000E-03 0.  1.
         12    1    3    3    0    0 -0.21778997302E+01  0.22147469599E+01  0.56783461466E+01  0.64724003501E+01  0.00000000000E+00 0. -1.
</event>
<event>
 7    1  0.4141894E-008  0.4614232E+02  0.7816164E-02  0.1320468E+00
        -11   -1    0    0    0    0  0.00000000000E+00  0.00000000000E+00  0.45593999997E+02  0.45594000000E+02  0.51100000000E-03 0. -1.
         11   -1    0    0    0    0 -0.00000000000E+00 -0.00000000000E+00 -0.45593999997E+02  0.45594000000E+02  0.51100000000E-03 0.  1.
    9900012    2    1    2    0    0  0.43433566239E+02 -0.11930521380E+02 -0.54904205824E+00  0.46142318033E+02  0.10000002480E+02 0.  0.
        -12    1    1    2    0    0 -0.43433566239E+02  0.11930521380E+02  0.54904205824E+00  0.45045681967E+02  0.00000000000E+00 0.  1.
         11    1    3    3    0    0  0.19930314169E+02 -0.54890550951E+01 -0.18922834152E+01  0.20758802603E+02  0.51100000000E-03 0. -1.
        -11    1    3    3    0    0  0.19810399055E+02 -0.58000135519E+01 -0.14741340539E+01  0.20694567872E+02  0.51100000000E-03 0.  1.
         12    1    3    3    0    0  0.36928530151E+01 -0.64145273336E+00  0.28173754108E+01  0.46889475584E+01  0.00000000000E+00 0. -1.
</event>
<event>
 7    1  0.4141894E-008  0.4614232E+02  0.7816164E-02  0.1320468E+00
        -11   -1    0    0    0    0  0.00000000000E+00  0.00000000000E+00  0.45593999997E+02  0.45594000000E+02  0.51100000000E-03 0.  1.
         11   -1    0    0    0    0 -0.00000000000E+00 -0.00000000000E+00 -0.45593999997E+02  0.45594000000E+02  0.51100000000E-03 0. -1.
    9900012    2    1    2    0    0 -0.38024594900E+02  0.17978222150E+02  0.16125358644E+02  0.46142317850E+02  0.10000000809E+02 0.  0.
        -12    1    1    2    0    0  0.38024594900E+02 -0.17978222150E+02 -0.16125358644E+02  0.45045682150E+02  0.00000000000E+00 0.  1.
         11    1    3    3    0    0 -0.26230416803E+02  0.12079791647E+02  0.13008696159E+02  0.31673053340E+02  0.51100000000E-03 0. -1.
        -11    1    3    3    0    0 -0.65083798747E+01  0.45295879354E+00  0.17895456480E+01  0.67651056273E+01  0.51100000000E-03 0.  1.
         12    1    3    3    0    0 -0.52857982227E+01  0.54454717092E+01  0.13271168376E+01  0.77041588825E+01  0.00000000000E+00 0. -1.
</event>
<event>
 7    1  0.4141894E-008  0.4614232E+02  0.7816164E-02  0.1320468E+00
        -11   -1    0    0    0    0  0.00000000000E+00  0.00000000000E+00  0.45593999997E+02  0.45594000000E+02  0.51100000000E-03 0. -1.
         11   -1    0    0    0    0 -0.00000000000E+00 -0.00000000000E+00 -0.45593999997E+02  0.45594000000E+02  0.51100000000E-03 0.  1.
    9900012    2    1    2    0    0  0.63005927524E+01  0.15329588394E+01  0.44576520130E+02  0.46142316759E+02  0.99999908575E+01 0.  0.
        -12    1    1    2    0    0 -0.63005927524E+01 -0.15329588394E+01 -0.44576520130E+02  0.45045683241E+02  0.00000000000E+00 0.  1.
         11    1    3    3    0    0 -0.16822683459E+01 -0.14070629507E+01  0.12774640087E+02  0.12961530872E+02  0.51100000000E-03 0. -1.
        -11    1    3    3    0    0 -0.14745198969E+00 -0.53174439641E-02 -0.65175999718E-01  0.16130262408E+00  0.51100000000E-03 0.  1.
        -12    1    3    3    0    0  0.81303130880E+01  0.29453392341E+01  0.31867056042E+02  0.33019483263E+02  0.00000000000E+00 0.  1.
</event>
<event>
 7    1  0.4141894E-008  0.4614232E+02  0.7816164E-02  0.1320468E+00
        -11   -1    0    0    0    0  0.00000000000E+00  0.00000000000E+00  0.45593999997E+02  0.45594000000E+02  0.51100000000E-03 0.  1.
         11   -1    0    0    0    0 -0.00000000000E+00 -0.00000000000E+00 -0.45593999997E+02  0.45594000000E+02  0.51100000000E-03 0. -1.
    9900012    2    1    2    0    0  0.14154627177E+02  0.13564323285E+02 -0.40555753301E+02  0.46142318048E+02  0.10000002614E+02 0.  0.
        -12    1    1    2    0    0 -0.14154627177E+02 -0.13564323285E+02  0.40555753301E+02  0.45045681952E+02  0.00000000000E+00 0.  1.
         11    1    3    3    0    0  0.30931207284E+01  0.43299736791E+01 -0.49051984265E+01  0.72371983368E+01  0.51100000000E-03 0. -1.
        -11    1    3    3    0    0  0.26522476956E+01 -0.35696906797E+00 -0.43781779311E+01  0.51313046111E+01  0.51100000000E-03 0.  1.
         12    1    3    3    0    0  0.84092587526E+01  0.95913186742E+01 -0.31272376944E+02  0.33773815100E+02  0.00000000000E+00 0. -1.
</event>
<event>
 7    1  0.4141894E-008  0.4614232E+02  0.7816164E-02  0.1320468E+00
        -11   -1    0    0    0    0  0.00000000000E+00  0.00000000000E+00  0.45593999997E+02  0.45594000000E+02  0.51100000000E-03 0.  1.
         11   -1    0    0    0    0 -0.00000000000E+00 -0.00000000000E+00 -0.45593999997E+02  0.45594000000E+02  0.51100000000E-03 0. -1.
    9900012    2    1    2    0    0  0.31452259732E+02  0.32198807099E+02 -0.17622357429E+01  0.46142319900E+02  0.10000019504E+02 0.  0.
        -12    1    1    2    0    0 -0.31452259732E+02 -0.32198807099E+02  0.17622357429E+01  0.45045680100E+02  0.00000000000E+00 0.  1.
         11    1    3    3    0    0  0.96734213625E+01  0.52335476959E+01 -0.26769683698E+01  0.11319508039E+02  0.51100000000E-03 0.  1.
        -11    1    3    3    0    0  0.14787176697E+02  0.18480434434E+02 -0.87149949214E+00  0.23684310485E+02  0.51100000000E-03 0. -1.
        -12    1    3    3    0    0  0.69916616723E+01  0.84848249695E+01  0.17862321191E+01  0.11138501375E+02  0.00000000000E+00 0.  1.
</event>
<event>
 7    1  0.4141894E-008  0.4614232E+02  0.7816164E-02  0.1320468E+00
        -11   -1    0    0    0    0  0.00000000000E+00  0.00000000000E+00  0.45593999997E+02  0.45594000000E+02  0.51100000000E-03 0.  1.
         11   -1    0    0    0    0 -0.00000000000E+00 -0.00000000000E+00 -0.45593999997E+02  0.45594000000E+02  0.51100000000E-03 0. -1.
    9900012    2    1    2    0    0  0.23135292808E+02  0.22543093411E+02 -0.31395550226E+02  0.46142318655E+02  0.10000008152E+02 0.  0.
        -12    1    1    2    0    0 -0.23135292808E+02 -0.22543093411E+02  0.31395550226E+02  0.45045681345E+02  0.00000000000E+00 0.  1.
         11    1    3    3    0    0  0.11680440954E+02  0.14916747529E+02 -0.13677572588E+02  0.23367029120E+02  0.51100000000E-03 0. -1.
        -11    1    3    3    0    0  0.37564889508E+01  0.95407036835E+00 -0.31277980425E+01  0.49804196973E+01  0.51100000000E-03 0.  1.
         12    1    3    3    0    0  0.76983629030E+01  0.66722755129E+01 -0.14590179596E+02  0.17794869838E+02  0.00000000000E+00 0. -1.
</event>
<event>
 7    1  0.4141894E-008  0.4614232E+02  0.7816164E-02  0.1320468E+00
        -11   -1    0    0    0    0  0.00000000000E+00  0.00000000000E+00  0.45593999997E+02  0.45594000000E+02  0.51100000000E-03 0. -1.
         11   -1    0    0    0    0 -0.00000000000E+00 -0.00000000000E+00 -0.45593999997E+02  0.45594000000E+02  0.51100000000E-03 0.  1.
    9900012    2    1    2    0    0  0.34091841568E+02  0.26486125746E+02  0.12858654863E+02  0.46142317372E+02  0.99999964483E+01 0.  0.
        -12    1    1    2    0    0 -0.34091841568E+02 -0.26486125746E+02 -0.12858654863E+02  0.45045682628E+02  0.00000000000E+00 0.  1.
         11    1    3    3    0    0  0.48654079459E+00 -0.17571236012E+00  0.11874429766E+00  0.53075158751E+00  0.51100000000E-03 0. -1.
        -11    1    3    3    0    0  0.12526478807E+02  0.72618184922E+01  0.58176041798E+00  0.14490863486E+02  0.51100000000E-03 0.  1.
         12    1    3    3    0    0  0.21078821967E+02  0.19400019614E+02  0.12158150147E+02  0.31120702298E+02  0.00000000000E+00 0. -1.
</event>
<event>
 7    1  0.4141894E-008  0.4614232E+02  0.7816164E-02  0.1320468E+00
        -11   -1    0    0    0    0  0.00000000000E+00  0.00000000000E+00  0.45593999997E+02  0.45594000000E+02  0.51100000000E-03 0.  1.
         11   -1    0    0    0    0 -0.00000000000E+00 -0.00000000000E+00 -0.45593999997E+02  0.45594000000E+02  0.51100000000E-03 0. -1.
    9900012    2    1    2    0    0 -0.99743163392E+01  0.40945653274E+02 -0.15908486823E+02  0.46142318060E+02  0.10000002726E+02 0.  0.
        -12    1    1    2    0    0  0.99743163392E+01 -0.40945653274E+02  0.15908486823E+02  0.45045681940E+02  0.00000000000E+00 0.  1.
         11    1    3    3    0    0 -0.20002194829E+00  0.13322731936E+02 -0.37045090867E+01  0.13829626997E+02  0.51100000000E-03 0. -1.
        -11    1    3    3    0    0 -0.21902202662E+00  0.11703600952E+01 -0.21249668219E+01  0.24358156038E+01  0.51100000000E-03 0.  1.
         12    1    3    3    0    0 -0.95552723643E+01  0.26452561242E+02 -0.10079010915E+02  0.29876875460E+02  0.00000000000E+00 0. -1.
</event>
<event>
 7    1  0.4141894E-008  0.4614232E+02  0.7816164E-02  0.1320468E+00
        -11   -1    0    0    0    0  0.00000000000E+00  0.00000000000E+00  0.45593999997E+02  0.45594000000E+02  0.51100000000E-03 0.  1.
         11   -1    0    0    0    0 -0.00000000000E+00 -0.00000000000E+00 -0.45593999997E+02  0.45594000000E+02  0.51100000000E-03 0. -1.
    9900012    2    1    2    0    0  0.86646877174E+01 -0.13074442511E+02 -0.42226716399E+02  0.46142318320E+02  0.10000005092E+02 0.  0.
        -12    1    1    2    0    0 -0.86646877174E+01  0.13074442511E+02  0.42226716399E+02  0.45045681680E+02  0.00000000000E+00 0.  1.
         11    1    3    3    0    0  0.32092767356E+01 -0.11804899509E+01 -0.12564405228E+02  0.13021416692E+02  0.51100000000E-03 0. -1.
        -11    1    3    3    0    0  0.99236719751E+00  0.47972878472E+00 -0.68493415159E+00  0.12977162304E+01  0.51100000000E-03 0.  1.
         12    1    3    3    0    0  0.44630437842E+01 -0.12373681345E+02 -0.28977377020E+02  0.31823185397E+02  0.00000000000E+00 0. -1.
</event>
<event>
 7    1  0.4141894E-008  0.4614232E+02  0.7816164E-02  0.1320468E+00
        -11   -1    0    0    0    0  0.00000000000E+00  0.00000000000E+00  0.45593999997E+02  0.45594000000E+02  0.51100000000E-03 0. -1.
         11   -1    0    0    0    0 -0.00000000000E+00 -0.00000000000E+00 -0.45593999997E+02  0.45594000000E+02  0.51100000000E-03 0.  1.
    9900012    2    1    2    0    0 -0.27954790910E+02  0.21885830247E+02  0.27724600138E+02  0.46142319261E+02  0.10000013679E+02 0.  0.
        -12    1    1    2    0    0  0.27954790910E+02 -0.21885830247E+02 -0.27724600138E+02  0.45045680739E+02  0.00000000000E+00 0.  1.
         11    1    3    3    0    0 -0.25992052846E+01  0.83451506854E+00  0.18433997745E+01  0.32939955223E+01  0.51100000000E-03 0.  1.
        -11    1    3    3    0    0 -0.20584636097E+02  0.14131671500E+02  0.15105412688E+02  0.29182269880E+02  0.51100000000E-03 0. -1.
         12    1    3    3    0    0 -0.47709495279E+01  0.69196436789E+01  0.10775787675E+02  0.13666053859E+02  0.00000000000E+00 0. -1.
</event>
<event>
 7    1  0.4141894E-008  0.4614232E+02  0.7816164E-02  0.1320468E+00
        -11   -1    0    0    0    0  0.00000000000E+00  0.00000000000E+00  0.45593999997E+02  0.45594000000E+02  0.51100000000E-03 0.  1.
         11   -1    0    0    0    0 -0.00000000000E+00 -0.00000000000E+00 -0.45593999997E+02  0.45594000000E+02  0.51100000000E-03 0. -1.
    9900012    2    1    2    0    0  0.78490744979E+01  0.95758205917E+01 -0.43310612219E+02  0.46142318284E+02  0.10000004764E+02 0.  0.
        -12    1    1    2    0    0 -0.78490744979E+01 -0.95758205917E+01  0.43310612219E+02  0.45045681716E+02  0.00000000000E+00 0.  1.
         11    1    3    3    0    0  0.19945871781E+01  0.55755422503E+01 -0.14682524911E+02  0.15831664076E+02  0.51100000000E-03 0. -1.
        -11    1    3    3    0    0  0.29827376039E+01  0.15432508227E+00 -0.29865431493E+01  0.42237400593E+01  0.51100000000E-03 0.  1.
        -12    1    3    3    0    0  0.28717497159E+01  0.38459532591E+01 -0.25641544160E+02  0.26086914148E+02  0.00000000000E+00 0.  1.
</event>
<event>
 7    1  0.4141894E-008  0.4614232E+02  0.7816164E-02  0.1320468E+00
        -11   -1    0    0    0    0  0.00000000000E+00  0.00000000000E+00  0.45593999997E+02  0.45594000000E+02  0.51100000000E-03 0.  1.
         11   -1    0    0    0    0 -0.00000000000E+00 -0.00000000000E+00 -0.45593999997E+02  0.45594000000E+02  0.51100000000E-03 0. -1.
    9900012    2    1    2    0    0  0.30837725936E+02  0.24938616957E+02 -0.21359156134E+02  0.46142317550E+02  0.99999980728E+01 0.  0.
        -12    1    1    2    0    0 -0.30837725936E+02 -0.24938616957E+02  0.21359156134E+02  0.45045682450E+02  0.00000000000E+00 0.  1.
         11    1    3    3    0    0  0.11158687705E+02  0.99873300987E+01 -0.99669481872E+01  0.17988972461E+02  0.51100000000E-03 0. -1.
        -11    1    3    3    0    0 -0.31858099206E+00 -0.27818884104E+00  0.20563703370E+00  0.47028685984E+00  0.51100000000E-03 0.  1.
        -12    1    3    3    0    0  0.19997619223E+02  0.15229475699E+02 -0.11597844981E+02  0.27683058228E+02  0.00000000000E+00 0.  1.
</event>
<event>
 7    1  0.4141894E-008  0.4614232E+02  0.7816164E-02  0.1320468E+00
        -11   -1    0    0    0    0  0.00000000000E+00  0.00000000000E+00  0.45593999997E+02  0.45594000000E+02  0.51100000000E-03 0.  1.
         11   -1    0    0    0    0 -0.00000000000E+00 -0.00000000000E+00 -0.45593999997E+02  0.45594000000E+02  0.51100000000E-03 0. -1.
    9900012    2    1    2    0    0 -0.41757332495E+02 -0.16461619818E+02 -0.38018087860E+01  0.46142317697E+02  0.99999994149E+01 0.  0.
        -12    1    1    2    0    0  0.41757332495E+02  0.16461619818E+02  0.38018087860E+01  0.45045682303E+02  0.00000000000E+00 0.  1.
         11    1    3    3    0    0 -0.97577228921E+01 -0.33894405716E+01 -0.54331948519E+00  0.10343918974E+02  0.51100000000E-03 0. -1.
        -11    1    3    3    0    0 -0.28031900967E+02 -0.79459682679E+01 -0.20863405888E+01  0.29210934611E+02  0.51100000000E-03 0.  1.
         12    1    3    3    0    0 -0.39677086353E+01 -0.51262109787E+01 -0.11721487120E+01  0.65874641111E+01  0.00000000000E+00 0. -1.
</event>
<event>
 7    1  0.4141894E-008  0.4614232E+02  0.7816164E-02  0.1320468E+00
        -11   -1    0    0    0    0  0.00000000000E+00  0.00000000000E+00  0.45593999997E+02  0.45594000000E+02  0.51100000000E-03 0. -1.
         11   -1    0    0    0    0 -0.00000000000E+00 -0.00000000000E+00 -0.45593999997E+02  0.45594000000E+02  0.51100000000E-03 0.  1.
    9900012    2    1    2    0    0 -0.37038046795E+02  0.20466886668E+02  0.15440309575E+02  0.46142317409E+02  0.99999967890E+01 0.  0.
        -12    1    1    2    0    0  0.37038046795E+02 -0.20466886668E+02 -0.15440309575E+02  0.45045682591E+02  0.00000000000E+00 0.  1.
         11    1    3    3    0    0 -0.20376496597E+02  0.12829836693E+02  0.92096294113E+01  0.25780294748E+02  0.51100000000E-03 0. -1.
        -11    1    3    3    0    0 -0.12298049486E+02  0.28189368554E+01  0.24838731636E+01  0.12859162193E+02  0.51100000000E-03 0.  1.
         12    1    3    3    0    0 -0.43635007126E+01  0.48181131199E+01  0.37468070004E+01  0.75028604681E+01  0.00000000000E+00 0. -1.
</event>
<event>
 7    1  0.4141894E-008  0.4614232E+02  0.7816164E-02  0.1320468E+00
        -11   -1    0    0    0    0  0.00000000000E+00  0.00000000000E+00  0.45593999997E+02  0.45594000000E+02  0.51100000000E-03 0.  1.
         11   -1    0    0    0    0 -0.00000000000E+00 -0.00000000000E+00 -0.45593999997E+02  0.45594000000E+02  0.51100000000E-03 0. -1.
    9900012    2    1    2    0    0  0.14377869867E+02 -0.37997048294E+02 -0.19458025929E+02  0.46142316589E+02  0.99999893095E+01 0.  0.
        -12    1    1    2    0    0 -0.14377869867E+02  0.37997048294E+02  0.19458025929E+02  0.45045683411E+02  0.00000000000E+00 0.  1.
         11    1    3    3    0    0  0.12842520513E+01 -0.85137373807E+01 -0.22314641582E+01  0.88945185407E+01  0.51100000000E-03 0. -1.
        -11    1    3    3    0    0  0.50697518992E+01 -0.72530195456E+01 -0.18167501074E+01  0.90337842603E+01  0.51100000000E-03 0.  1.
         12    1    3    3    0    0  0.80238659162E+01 -0.22230291367E+02 -0.15409811663E+02  0.28214013788E+02  0.00000000000E+00 0. -1.
</event>
<event>
 7    1  0.4141894E-008  0.4614232E+02  0.7816164E-02  0.1320468E+00
        -11   -1    0    0    0    0  0.00000000000E+00  0.00000000000E+00  0.45593999997E+02  0.45594000000E+02  0.51100000000E-03 0.  1.
         11   -1    0    0    0    0 -0.00000000000E+00 -0.00000000000E+00 -0.45593999997E+02  0.45594000000E+02  0.51100000000E-03 0. -1.
    9900012    2    1    2    0    0  0.29007743015E+02 -0.27398152966E+02 -0.20904678150E+02  0.46142317529E+02  0.99999978815E+01 0.  0.
        -12    1    1    2    0    0 -0.29007743015E+02  0.27398152966E+02  0.20904678150E+02  0.45045682471E+02  0.00000000000E+00 0.  1.
         11    1    3    3    0    0  0.14537390183E+02 -0.16787581534E+02 -0.14536811332E+02  0.26541994859E+02  0.51100000000E-03 0. -1.
        -11    1    3    3    0    0  0.18527256665E+01 -0.25570877019E+01 -0.27811693648E+01  0.42078727650E+01  0.51100000000E-03 0.  1.
         12    1    3    3    0    0  0.12617627165E+02 -0.80534837299E+01 -0.35866974525E+01  0.15392449905E+02  0.00000000000E+00 0. -1.
</event>
<event>
 7    1  0.4141894E-008  0.4614232E+02  0.7816164E-02  0.1320468E+00
        -11   -1    0    0    0    0  0.00000000000E+00  0.00000000000E+00  0.45593999997E+02  0.45594000000E+02  0.51100000000E-03 0.  1.
         11   -1    0    0    0    0 -0.00000000000E+00 -0.00000000000E+00 -0.45593999997E+02  0.45594000000E+02  0.51100000000E-03 0. -1.
    9900012    2    1    2    0    0 -0.27320540736E+02 -0.13882897538E+02 -0.33014644032E+02  0.46142317514E+02  0.99999977422E+01 0.  0.
        -12    1    1    2    0    0  0.27320540736E+02  0.13882897538E+02  0.33014644032E+02  0.45045682486E+02  0.00000000000E+00 0.  1.
         11    1    3    3    0    0 -0.14115562766E+02 -0.65056066101E+01 -0.18029194355E+02  0.23803862689E+02  0.51100000000E-03 0. -1.
        -11    1    3    3    0    0 -0.57075829092E+01 -0.25911152885E+01 -0.10847251669E+02  0.12528098424E+02  0.51100000000E-03 0.  1.
        -12    1    3    3    0    0 -0.74973950603E+01 -0.47861756396E+01 -0.41381980076E+01  0.98103563999E+01  0.00000000000E+00 0.  1.
</event>
<event>
 7    1  0.4141894E-008  0.4614232E+02  0.7816164E-02  0.1320468E+00
        -11   -1    0    0    0    0  0.00000000000E+00  0.00000000000E+00  0.45593999997E+02  0.45594000000E+02  0.51100000000E-03 0.  1.
         11   -1    0    0    0    0 -0.00000000000E+00 -0.00000000000E+00 -0.45593999997E+02  0.45594000000E+02  0.51100000000E-03 0. -1.
    9900012    2    1    2    0    0  0.25717199847E+01 -0.43877035456E+02 -0.98643594733E+01  0.46142316834E+02  0.99999915480E+01 0.  0.
        -12    1    1    2    0    0 -0.25717199847E+01  0.43877035456E+02  0.98643594733E+01  0.45045683166E+02  0.00000000000E+00 0.  1.
         11    1    3    3    0    0  0.11522107118E+01 -0.59581497124E+01 -0.42072594229E+01  0.73843191719E+01  0.51100000000E-03 0. -1.
        -11    1    3    3    0    0  0.11159114756E+01 -0.91473170185E+01 -0.36608254269E+01  0.99156598432E+01  0.51100000000E-03 0.  1.
        -12    1    3    3    0    0  0.30359779727E+00 -0.28771568725E+02 -0.19962746235E+01  0.28842337819E+02  0.00000000000E+00 0.  1.
</event>
<event>
 7    1  0.4141894E-008  0.4614232E+02  0.7816164E-02  0.1320468E+00
        -11   -1    0    0    0    0  0.00000000000E+00  0.00000000000E+00  0.45593999997E+02  0.45594000000E+02  0.51100000000E-03 0. -1.
         11   -1    0    0    0    0 -0.00000000000E+00 -0.00000000000E+00 -0.45593999997E+02  0.45594000000E+02  0.51100000000E-03 0.  1.
    9900012    2    1    2    0    0  0.31454869520E+02 -0.29608262036E+02  0.12769318048E+02  0.46142317847E+02  0.10000000779E+02 0.  0.
        -12    1    1    2    0    0 -0.31454869520E+02  0.29608262036E+02 -0.12769318048E+02  0.45045682153E+02  0.00000000000E+00 0.  1.
         11    1    3    3    0    0  0.24301300724E+02 -0.22034998460E+02  0.10986048097E+02  0.34594618470E+02  0.51100000000E-03 0. -1.
        -11    1    3    3    0    0  0.39484090969E+01 -0.46032984853E+01  0.33221738706E+01  0.69149931908E+01  0.51100000000E-03 0.  1.
        -12    1    3    3    0    0  0.32051596987E+01 -0.29699650905E+01 -0.15389039198E+01  0.46327061862E+01  0.00000000000E+00 0.  1.
</event>
<event>
 7    1  0.4141894E-008  0.4614232E+02  0.7816164E-02  0.1320468E+00
        -11   -1    0    0    0    0  0.00000000000E+00  0.00000000000E+00  0.45593999997E+02  0.45594000000E+02  0.51100000000E-03 0.  1.
         11   -1    0    0    0    0 -0.00000000000E+00 -0.00000000000E+00 -0.45593999997E+02  0.45594000000E+02  0.51100000000E-03 0. -1.
    9900012    2    1    2    0    0 -0.27536832222E+02 -0.35195908327E+02  0.56643143268E+01  0.46142317092E+02  0.99999939029E+01 0.  0.
        -12    1    1    2    0    0  0.27536832222E+02  0.35195908327E+02 -0.56643143268E+01  0.45045682908E+02  0.00000000000E+00 0.  1.
         11    1    3    3    0    0 -0.94349828452E+01 -0.14156023670E+02  0.22165971834E+01  0.17155908917E+02  0.51100000000E-03 0.  1.
        -11    1    3    3    0    0 -0.59762121508E+01 -0.38565799900E+01 -0.17460209820E+01  0.73237224430E+01  0.51100000000E-03 0. -1.
         12    1    3    3    0    0 -0.12125637226E+02 -0.17183304667E+02  0.51937381254E+01  0.21662685732E+02  0.00000000000E+00 0. -1.
</event>
<event>
 7    1  0.4141894E-008  0.4614232E+02  0.7816164E-02  0.1320468E+00
        -11   -1    0    0    0    0  0.00000000000E+00  0.00000000000E+00  0.45593999997E+02  0.45594000000E+02  0.51100000000E-03 0.  1.
         11   -1    0    0    0    0 -0.00000000000E+00 -0.00000000000E+00 -0.45593999997E+02  0.45594000000E+02  0.51100000000E-03 0. -1.
    9900012    2    1    2    0    0  0.38039465432E+02 -0.16966020691E+02 -0.17154202744E+02  0.46142318073E+02  0.10000002845E+02 0.  0.
        -12    1    1    2    0    0 -0.38039465432E+02  0.16966020691E+02  0.17154202744E+02  0.45045681927E+02  0.00000000000E+00 0.  1.
         11    1    3    3    0    0  0.27101315975E+02 -0.10467889375E+02 -0.14819557656E+02  0.32614066366E+02  0.51100000000E-03 0. -1.
        -11    1    3    3    0    0  0.72034768222E+01 -0.59339307533E+01 -0.27471506679E+01  0.97287434731E+01  0.51100000000E-03 0.  1.
        -12    1    3    3    0    0  0.37346726350E+01 -0.56420056300E+00  0.41250557968E+00  0.37995082339E+01  0.00000000000E+00 0.  1.
</event>
<event>
 7    1  0.4141894E-008  0.4614232E+02  0.7816164E-02  0.1320468E+00
        -11   -1    0    0    0    0  0.00000000000E+00  0.00000000000E+00  0.45593999997E+02  0.45594000000E+02  0.51100000000E-03 0.  1.
         11   -1    0    0    0    0 -0.00000000000E+00 -0.00000000000E+00 -0.45593999997E+02  0.45594000000E+02  0.51100000000E-03 0. -1.
    9900012    2    1    2    0    0 -0.29090383804E+02  0.17698267893E+01 -0.34347209358E+02  0.46142317550E+02  0.99999980770E+01 0.  0.
        -12    1    1    2    0    0  0.29090383804E+02 -0.17698267893E+01  0.34347209358E+02  0.45045682450E+02  0.00000000000E+00 0.  1.
         11    1    3    3    0    0 -0.11412219696E+02 -0.28148022984E+01 -0.12977777687E+02  0.17509556943E+02  0.51100000000E-03 0. -1.
        -11    1    3    3    0    0 -0.99564920089E-01  0.10301929510E+01 -0.18888185098E+01  0.21537981135E+01  0.51100000000E-03 0.  1.
         12    1    3    3    0    0 -0.17578599188E+02  0.35544361366E+01 -0.19480613161E+02  0.26478962494E+02  0.00000000000E+00 0. -1.
</event>
<event>
 7    1  0.4141894E-008  0.4614231E+02  0.7816164E-02  0.1320468E+00
        -11   -1    0    0    0    0  0.00000000000E+00  0.00000000000E+00  0.45593999997E+02  0.45594000000E+02  0.51100000000E-03 0.  1.
         11   -1    0    0    0    0 -0.00000000000E+00 -0.00000000000E+00 -0.45593999997E+02  0.45594000000E+02  0.51100000000E-03 0. -1.
    9900012    2    1    2    0    0 -0.27794865760E+02  0.10173977431E+02 -0.33956584538E+02  0.46142311939E+02  0.99999469075E+01 0.  0.
        -12    1    1    2    0    0  0.27794865760E+02 -0.10173977431E+02  0.33956584538E+02  0.45045688061E+02  0.00000000000E+00 0.  1.
         11    1    3    3    0    0 -0.16385948425E+02  0.99540178069E+01 -0.25491563709E+02  0.31896733326E+02  0.51100000000E-03 0. -1.
        -11    1    3    3    0    0 -0.43223128971E+01  0.19514649223E+00 -0.38248141838E+01  0.57749177255E+01  0.51100000000E-03 0.  1.
         12    1    3    3    0    0 -0.70866044382E+01  0.24813132374E-01 -0.46402066453E+01  0.84706608872E+01  0.00000000000E+00 0. -1.
</event>
<event>
 7    1  0.4141894E-008  0.4614232E+02  0.7816164E-02  0.1320468E+00
        -11   -1    0    0    0    0  0.00000000000E+00  0.00000000000E+00  0.45593999997E+02  0.45594000000E+02  0.51100000000E-03 0. -1.
         11   -1    0    0    0    0 -0.00000000000E+00 -0.00000000000E+00 -0.45593999997E+02  0.45594000000E+02  0.51100000000E-03 0.  1.
    9900012    2    1    2    0    0  0.22501673989E+02  0.27922483945E+02 -0.27260281986E+02  0.46142318565E+02  0.10000007332E+02 0.  0.
        -12    1    1    2    0    0 -0.22501673989E+02 -0.27922483945E+02  0.27260281986E+02  0.45045681435E+02  0.00000000000E+00 0.  1.
         11    1    3    3    0    0  0.87566565227E+01  0.14658219084E+02 -0.16209297303E+02  0.23543231289E+02  0.51100000000E-03 0. -1.
        -11    1    3    3    0    0  0.13854860642E+02  0.12220736196E+02 -0.11092964507E+02  0.21548953998E+02  0.51100000000E-03 0.  1.
         12    1    3    3    0    0 -0.10984317605E+00  0.10435286642E+01  0.41979824437E-01  0.10501332782E+01  0.00000000000E+00 0. -1.
</event>
<event>
 7    1  0.4141894E-008  0.4614232E+02  0.7816164E-02  0.1320468E+00
        -11   -1    0    0    0    0  0.00000000000E+00  0.00000000000E+00  0.45593999997E+02  0.45594000000E+02  0.51100000000E-03 0.  1.
         11   -1    0    0    0    0 -0.00000000000E+00 -0.00000000000E+00 -0.45593999997E+02  0.45594000000E+02  0.51100000000E-03 0. -1.
    9900012    2    1    2    0    0 -0.14772589204E+02  0.39069009432E+02 -0.16867015707E+02  0.46142321976E+02  0.10000038431E+02 0.  0.
        -12    1    1    2    0    0  0.14772589204E+02 -0.39069009432E+02  0.16867015707E+02  0.45045678024E+02  0.00000000000E+00 0.  1.
         11    1    3    3    0    0  0.37893138120E+00  0.19168487874E+01 -0.15174857413E+01  0.24739970698E+01  0.51100000000E-03 0. -1.
        -11    1    3    3    0    0 -0.70425028722E+01  0.89086454481E+01 -0.26754219897E+01  0.11666991622E+02  0.51100000000E-03 0.  1.
         12    1    3    3    0    0 -0.81090177130E+01  0.28243515197E+02 -0.12674107976E+02  0.32001333284E+02  0.00000000000E+00 0. -1.
</event>
<event>
 7    1  0.4141894E-008  0.4614232E+02  0.7816164E-02  0.1320468E+00
        -11   -1    0    0    0    0  0.00000000000E+00  0.00000000000E+00  0.45593999997E+02  0.45594000000E+02  0.51100000000E-03 0.  1.
         11   -1    0    0    0    0 -0.00000000000E+00 -0.00000000000E+00 -0.45593999997E+02  0.45594000000E+02  0.51100000000E-03 0. -1.
    9900012    2    1    2    0    0 -0.14939767068E+02 -0.53906209570E+01 -0.42152795885E+02  0.46142316130E+02  0.99999851288E+01 0.  0.
        -12    1    1    2    0    0  0.14939767068E+02  0.53906209570E+01  0.42152795885E+02  0.45045683870E+02  0.00000000000E+00 0.  1.
         11    1    3    3    0    0 -0.52592763339E+01  0.38822744316E+00 -0.20629194592E+02  0.21292589741E+02  0.51100000000E-03 0. -1.
        -11    1    3    3    0    0 -0.51350499675E+01 -0.18844129449E+00 -0.76299090069E+01  0.91988999345E+01  0.51100000000E-03 0.  1.
        -12    1    3    3    0    0 -0.45454407668E+01 -0.55904071057E+01 -0.13893692286E+02  0.15650826455E+02  0.00000000000E+00 0.  1.
</event>
<event>
 7    1  0.4141894E-008  0.4614232E+02  0.7816164E-02  0.1320468E+00
        -11   -1    0    0    0    0  0.00000000000E+00  0.00000000000E+00  0.45593999997E+02  0.45594000000E+02  0.51100000000E-03 0.  1.
         11   -1    0    0    0    0 -0.00000000000E+00 -0.00000000000E+00 -0.45593999997E+02  0.45594000000E+02  0.51100000000E-03 0. -1.
    9900012    2    1    2    0    0 -0.34198439285E+02 -0.25847009136E+02 -0.13838798517E+02  0.46142317907E+02  0.10000001332E+02 0.  0.
        -12    1    1    2    0    0  0.34198439285E+02  0.25847009136E+02  0.13838798517E+02  0.45045682093E+02  0.00000000000E+00 0.  1.
         11    1    3    3    0    0 -0.10630633407E+02 -0.10572622994E+02 -0.56413694612E+01  0.16019231357E+02  0.51100000000E-03 0. -1.
        -11    1    3    3    0    0 -0.12064258662E+02 -0.77295304080E+01 -0.45123492042E+00  0.14335117391E+02  0.51100000000E-03 0.  1.
        -12    1    3    3    0    0 -0.11503547216E+02 -0.75448557341E+01 -0.77461941354E+01  0.15787969160E+02  0.00000000000E+00 0.  1.
</event>
<event>
 7    1  0.4141894E-008  0.4614232E+02  0.7816164E-02  0.1320468E+00
        -11   -1    0    0    0    0  0.00000000000E+00  0.00000000000E+00  0.45593999997E+02  0.45594000000E+02  0.51100000000E-03 0. -1.
         11   -1    0    0    0    0 -0.00000000000E+00 -0.00000000000E+00 -0.45593999997E+02  0.45594000000E+02  0.51100000000E-03 0.  1.
    9900012    2    1    2    0    0 -0.40031306081E+02 -0.20473943453E+02  0.27250028538E+01  0.46142317991E+02  0.10000002097E+02 0.  0.
        -12    1    1    2    0    0  0.40031306081E+02  0.20473943453E+02 -0.27250028538E+01  0.45045682009E+02  0.00000000000E+00 0.  1.
         11    1    3    3    0    0 -0.99785421628E+01 -0.60897617135E+01 -0.99888456825E+00  0.11732615738E+02  0.51100000000E-03 0. -1.
        -11    1    3    3    0    0 -0.28524847896E+02 -0.13519278536E+02  0.15350446217E+01  0.31603705508E+02  0.51100000000E-03 0.  1.
        -12    1    3    3    0    0 -0.15279160224E+01 -0.86490320406E+00  0.21888428004E+01  0.28059967442E+01  0.00000000000E+00 0.  1.
</event>
<event>
 7    1  0.4141894E-008  0.4614232E+02  0.7816164E-02  0.1320468E+00
        -11   -1    0    0    0    0  0.00000000000E+00  0.00000000000E+00  0.45593999997E+02  0.45594000000E+02  0.51100000000E-03 0.  1.
         11   -1    0    0    0    0 -0.00000000000E+00 -0.00000000000E+00 -0.45593999997E+02  0.45594000000E+02  0.51100000000E-03 0. -1.
    9900012    2    1    2    0    0  0.26773539250E+02 -0.29481202927E+02 -0.21051121860E+02  0.46142318058E+02  0.10000002711E+02 0.  0.
        -12    1    1    2    0    0 -0.26773539250E+02  0.29481202927E+02  0.21051121860E+02  0.45045681942E+02  0.00000000000E+00 0.  1.
         11    1    3    3    0    0 -0.74031267617E-01  0.11963823478E+00  0.14993638323E+00  0.20560913390E+00  0.51100000000E-03 0. -1.
        -11    1    3    3    0    0  0.89408582425E+01 -0.87785680943E+01 -0.26841853934E+01  0.12814330079E+02  0.51100000000E-03 0.  1.
         12    1    3    3    0    0  0.17906712275E+02 -0.20822273068E+02 -0.18516872850E+02  0.33122378845E+02  0.00000000000E+00 0. -1.
</event>
<event>
 7    1  0.4141894E-008  0.4614232E+02  0.7816164E-02  0.1320468E+00
        -11   -1    0    0    0    0  0.00000000000E+00  0.00000000000E+00  0.45593999997E+02  0.45594000000E+02  0.51100000000E-03 0. -1.
         11   -1    0    0    0    0 -0.00000000000E+00 -0.00000000000E+00 -0.45593999997E+02  0.45594000000E+02  0.51100000000E-03 0.  1.
    9900012    2    1    2    0    0  0.24364119731E+02  0.54104698190E+01  0.37499733769E+02  0.46142317114E+02  0.99999940985E+01 0.  0.
        -12    1    1    2    0    0 -0.24364119731E+02 -0.54104698190E+01 -0.37499733769E+02  0.45045682886E+02  0.00000000000E+00 0.  1.
         11    1    3    3    0    0  0.14375106545E+02  0.65319335445E+01  0.21264769342E+02  0.26485850174E+02  0.51100000000E-03 0. -1.
        -11    1    3    3    0    0  0.61894324770E+01  0.15775060444E+01  0.10135328046E+02  0.11980086585E+02  0.51100000000E-03 0.  1.
        -12    1    3    3    0    0  0.37995807089E+01 -0.26989697699E+01  0.60996363805E+01  0.76763803551E+01  0.00000000000E+00 0.  1.
</event>
<event>
 7    1  0.4141894E-008  0.4614232E+02  0.7816164E-02  0.1320468E+00
        -11   -1    0    0    0    0  0.00000000000E+00  0.00000000000E+00  0.45593999997E+02  0.45594000000E+02  0.51100000000E-03 0.  1.
         11   -1    0    0    0    0 -0.00000000000E+00 -0.00000000000E+00 -0.45593999997E+02  0.45594000000E+02  0.51100000000E-03 0. -1.
    9900012    2    1    2    0    0 -0.10548914014E+02 -0.42656092515E+02  0.99142163634E+01  0.46142317614E+02  0.99999986580E+01 0.  0.
        -12    1    1    2    0    0  0.10548914014E+02  0.42656092515E+02 -0.99142163634E+01  0.45045682386E+02  0.00000000000E+00 0.  1.
         11    1    3    3    0    0 -0.30883223335E+01 -0.22917765164E+02  0.62866554367E+01  0.23964217738E+02  0.51100000000E-03 0. -1.
        -11    1    3    3    0    0 -0.64703359064E+01 -0.17765868342E+02  0.50275527130E+01  0.19564447634E+02  0.51100000000E-03 0.  1.
         12    1    3    3    0    0 -0.99025577356E+00 -0.19724590091E+01 -0.13999917863E+01  0.26136522418E+01  0.00000000000E+00 0. -1.
</event>
<event>
 7    1  0.4141894E-008  0.4614232E+02  0.7816164E-02  0.1320468E+00
        -11   -1    0    0    0    0  0.00000000000E+00  0.00000000000E+00  0.45593999997E+02  0.45594000000E+02  0.51100000000E-03 0.  1.
         11   -1    0    0    0    0 -0.00000000000E+00 -0.00000000000E+00 -0.45593999997E+02  0.45594000000E+02  0.51100000000E-03 0. -1.
    9900012    2    1    2    0    0 -0.18041476666E+02  0.59554348482E+01 -0.40843008990E+02  0.46142317989E+02  0.10000002074E+02 0.  0.
        -12    1    1    2    0    0  0.18041476666E+02 -0.59554348482E+01  0.40843008990E+02  0.45045682011E+02  0.00000000000E+00 0.  1.
         11    1    3    3    0    0 -0.13557869987E+02  0.61772000618E+01 -0.33601105126E+02  0.36756059435E+02  0.51100000000E-03 0. -1.
        -11    1    3    3    0    0 -0.30401155840E+01 -0.75114435785E+00 -0.71962374785E+01  0.78480796835E+01  0.51100000000E-03 0.  1.
        -12    1    3    3    0    0 -0.14434910945E+01  0.52937914427E+00 -0.45666385285E-01  0.15381788703E+01  0.00000000000E+00 0.  1.
</event>
<event>
 7    1  0.4141894E-008  0.4614233E+02  0.7816164E-02  0.1320468E+00
        -11   -1    0    0    0    0  0.00000000000E+00  0.00000000000E+00  0.45593999997E+02  0.45594000000E+02  0.51100000000E-03 0. -1.
         11   -1    0    0    0    0 -0.00000000000E+00 -0.00000000000E+00 -0.45593999997E+02  0.45594000000E+02  0.51100000000E-03 0.  1.
    9900012    2    1    2    0    0 -0.41812795952E+02  0.15774706480E+02  0.56534484789E+01  0.46142325962E+02  0.10000074780E+02 0.  0.
        -12    1    1    2    0    0  0.41812795952E+02 -0.15774706480E+02 -0.56534484789E+01  0.45045674038E+02  0.00000000000E+00 0.  1.
         11    1    3    3    0    0 -0.80177097251E+01  0.12111067395E+01 -0.11710173111E+01  0.81927852758E+01  0.51100000000E-03 0.  1.
        -11    1    3    3    0    0 -0.30971259267E+02  0.14905095276E+02  0.54871905735E+01  0.34806465296E+02  0.51100000000E-03 0. -1.
         12    1    3    3    0    0 -0.28238269602E+01 -0.34149553575E+00  0.13372752165E+01  0.31430753899E+01  0.00000000000E+00 0. -1.
</event>
<event>
 7    1  0.4141894E-008  0.4614232E+02  0.7816164E-02  0.1320468E+00
        -11   -1    0    0    0    0  0.00000000000E+00  0.00000000000E+00  0.45593999997E+02  0.45594000000E+02  0.51100000000E-03 0.  1.
         11   -1    0    0    0    0 -0.00000000000E+00 -0.00000000000E+00 -0.45593999997E+02  0.45594000000E+02  0.51100000000E-03 0. -1.
    9900012    2    1    2    0    0  0.39996173387E+02 -0.18333878213E+02  0.96586023209E+01  0.46142316802E+02  0.99999912570E+01 0.  0.
        -12    1    1    2    0    0 -0.39996173387E+02  0.18333878213E+02 -0.96586023209E+01  0.45045683198E+02  0.00000000000E+00 0.  1.
         11    1    3    3    0    0  0.26918590716E+01 -0.27746499333E+00 -0.86553002394E+00  0.28411678176E+01  0.51100000000E-03 0. -1.
        -11    1    3    3    0    0  0.35505284608E+01 -0.79527391543E+00  0.28479361833E+01  0.46205469066E+01  0.51100000000E-03 0.  1.
         12    1    3    3    0    0  0.33753785855E+02 -0.17261139304E+02  0.76761961616E+01  0.38680602078E+02  0.00000000000E+00 0. -1.
</event>
<event>
 7    1  0.4141894E-008  0.4614232E+02  0.7816164E-02  0.1320468E+00
        -11   -1    0    0    0    0  0.00000000000E+00  0.00000000000E+00  0.45593999997E+02  0.45594000000E+02  0.51100000000E-03 0.  1.
         11   -1    0    0    0    0 -0.00000000000E+00 -0.00000000000E+00 -0.45593999997E+02  0.45594000000E+02  0.51100000000E-03 0. -1.
    9900012    2    1    2    0    0 -0.36224778004E+02  0.21198096287E+02 -0.16356029509E+02  0.46142317311E+02  0.99999958979E+01 0.  0.
        -12    1    1    2    0    0  0.36224778004E+02 -0.21198096287E+02  0.16356029509E+02  0.45045682689E+02  0.00000000000E+00 0.  1.
         11    1    3    3    0    0 -0.51051569653E+01  0.40294183584E+01 -0.63509147878E+00  0.65346906120E+01  0.51100000000E-03 0. -1.
        -11    1    3    3    0    0 -0.21213994454E+02  0.11823695193E+02 -0.67296921951E+01  0.25201628638E+02  0.51100000000E-03 0.  1.
         12    1    3    3    0    0 -0.99056265844E+01  0.53449827349E+01 -0.89912458350E+01  0.14405998061E+02  0.00000000000E+00 0. -1.
</event>
<event>
 7    1  0.4141894E-008  0.4614232E+02  0.7816164E-02  0.1320468E+00
        -11   -1    0    0    0    0  0.00000000000E+00  0.00000000000E+00  0.45593999997E+02  0.45594000000E+02  0.51100000000E-03 0.  1.
         11   -1    0    0    0    0 -0.00000000000E+00 -0.00000000000E+00 -0.45593999997E+02  0.45594000000E+02  0.51100000000E-03 0. -1.
    9900012    2    1    2    0    0  0.12581296810E+02 -0.24972337426E+02 -0.35315816041E+02  0.46142317315E+02  0.99999959300E+01 0.  0.
        -12    1    1    2    0    0 -0.12581296810E+02  0.24972337426E+02  0.35315816041E+02  0.45045682685E+02  0.00000000000E+00 0.  1.
         11    1    3    3    0    0  0.10448491102E+01  0.68005756220E+00 -0.22160812447E+01  0.25426766006E+01  0.51100000000E-03 0.  1.
        -11    1    3    3    0    0  0.64189742201E+01 -0.17930011812E+02 -0.23675499902E+02  0.30384500152E+02  0.51100000000E-03 0. -1.
         12    1    3    3    0    0  0.51174734801E+01 -0.77223831762E+01 -0.94242348945E+01  0.13215140563E+02  0.00000000000E+00 0. -1.
</event>
<event>
 7    1  0.4141894E-008  0.4614231E+02  0.7816164E-02  0.1320468E+00
        -11   -1    0    0    0    0  0.00000000000E+00  0.00000000000E+00  0.45593999997E+02  0.45594000000E+02  0.51100000000E-03 0.  1.
         11   -1    0    0    0    0 -0.00000000000E+00 -0.00000000000E+00 -0.45593999997E+02  0.45594000000E+02  0.51100000000E-03 0. -1.
    9900012    2    1    2    0    0 -0.73765506715E+01  0.15942210410E+02 -0.41479471088E+02  0.46142311035E+02  0.99999386657E+01 0.  0.
        -12    1    1    2    0    0  0.73765506715E+01 -0.15942210410E+02  0.41479471088E+02  0.45045688965E+02  0.00000000000E+00 0.  1.
         11    1    3    3    0    0 -0.99540732035E-01  0.49590428047E+01 -0.19089705519E+02  0.19723561315E+02  0.51100000000E-03 0. -1.
        -11    1    3    3    0    0 -0.51069561954E+01  0.43434041862E+01 -0.13839169609E+02  0.15377541326E+02  0.51100000000E-03 0.  1.
         12    1    3    3    0    0 -0.21700537440E+01  0.66397634195E+01 -0.85505959604E+01  0.11041208394E+02  0.00000000000E+00 0. -1.
</event>
<event>
 7    1  0.4141894E-008  0.4614232E+02  0.7816164E-02  0.1320468E+00
        -11   -1    0    0    0    0  0.00000000000E+00  0.00000000000E+00  0.45593999997E+02  0.45594000000E+02  0.51100000000E-03 0.  1.
         11   -1    0    0    0    0 -0.00000000000E+00 -0.00000000000E+00 -0.45593999997E+02  0.45594000000E+02  0.51100000000E-03 0. -1.
    9900012    2    1    2    0    0  0.92448308843E+01 -0.38377148153E+02 -0.21698871823E+02  0.46142318333E+02  0.10000005216E+02 0.  0.
        -12    1    1    2    0    0 -0.92448308843E+01  0.38377148153E+02  0.21698871823E+02  0.45045681667E+02  0.00000000000E+00 0.  1.
         11    1    3    3    0    0 -0.12194077406E+00 -0.43130107464E+01 -0.71635282027E-01  0.43153288549E+01  0.51100000000E-03 0. -1.
        -11    1    3    3    0    0 -0.72325120524E+00 -0.26855755899E+01 -0.10649468060E+01  0.29781740238E+01  0.51100000000E-03 0.  1.
         12    1    3    3    0    0  0.10090022864E+02 -0.31378561817E+02 -0.20562289735E+02  0.38848815454E+02  0.00000000000E+00 0. -1.
</event>
<event>
 7    1  0.4141894E-008  0.4614232E+02  0.7816164E-02  0.1320468E+00
        -11   -1    0    0    0    0  0.00000000000E+00  0.00000000000E+00  0.45593999997E+02  0.45594000000E+02  0.51100000000E-03 0.  1.
         11   -1    0    0    0    0 -0.00000000000E+00 -0.00000000000E+00 -0.45593999997E+02  0.45594000000E+02  0.51100000000E-03 0. -1.
    9900012    2    1    2    0    0 -0.23965540139E+02 -0.26998356952E+02 -0.26941697892E+02  0.46142317882E+02  0.10000001098E+02 0.  0.
        -12    1    1    2    0    0  0.23965540139E+02  0.26998356952E+02  0.26941697892E+02  0.45045682118E+02  0.00000000000E+00 0.  1.
         11    1    3    3    0    0 -0.18418727692E+02 -0.15513746991E+02 -0.20034398553E+02  0.31325756194E+02  0.51100000000E-03 0. -1.
        -11    1    3    3    0    0 -0.10233074443E+01 -0.39275308560E+01 -0.90515874672E+00  0.41583613802E+01  0.51100000000E-03 0.  1.
         12    1    3    3    0    0 -0.45235050020E+01 -0.75570791047E+01 -0.60021405919E+01  0.10658200307E+02  0.00000000000E+00 0. -1.
</event>
<event>
 7    1  0.4141894E-008  0.4614232E+02  0.7816164E-02  0.1320468E+00
        -11   -1    0    0    0    0  0.00000000000E+00  0.00000000000E+00  0.45593999997E+02  0.45594000000E+02  0.51100000000E-03 0.  1.
         11   -1    0    0    0    0 -0.00000000000E+00 -0.00000000000E+00 -0.45593999997E+02  0.45594000000E+02  0.51100000000E-03 0. -1.
    9900012    2    1    2    0    0 -0.26806161191E+02 -0.58207070835E+01 -0.35730415062E+02  0.46142317973E+02  0.10000001937E+02 0.  0.
        -12    1    1    2    0    0  0.26806161191E+02  0.58207070835E+01  0.35730415062E+02  0.45045682027E+02  0.00000000000E+00 0.  1.
         11    1    3    3    0    0 -0.56695053298E+01 -0.30270142704E+01 -0.42299384787E+01  0.76940552293E+01  0.51100000000E-03 0. -1.
        -11    1    3    3    0    0 -0.38343836112E+01  0.99318240360E-01 -0.99293803197E+01  0.10644480052E+02  0.51100000000E-03 0.  1.
        -12    1    3    3    0    0 -0.17302272250E+02 -0.28930110535E+01 -0.21571096263E+02  0.27803782692E+02  0.00000000000E+00 0.  1.
</event>
<event>
 7    1  0.4141894E-008  0.4614232E+02  0.7816164E-02  0.1320468E+00
        -11   -1    0    0    0    0  0.00000000000E+00  0.00000000000E+00  0.45593999997E+02  0.45594000000E+02  0.51100000000E-03 0.  1.
         11   -1    0    0    0    0 -0.00000000000E+00 -0.00000000000E+00 -0.45593999997E+02  0.45594000000E+02  0.51100000000E-03 0. -1.
    9900012    2    1    2    0    0  0.15821765599E+02  0.61286247596E+01 -0.41727992727E+02  0.46142315577E+02  0.99999800840E+01 0.  0.
        -12    1    1    2    0    0 -0.15821765599E+02 -0.61286247596E+01  0.41727992727E+02  0.45045684423E+02  0.00000000000E+00 0.  1.
         11    1    3    3    0    0  0.80338910824E+01  0.83878120242E+00 -0.18557282473E+02  0.20239063537E+02  0.51100000000E-03 0. -1.
        -11    1    3    3    0    0  0.70620783684E+01  0.65801394934E+01 -0.16920469721E+02  0.19480079119E+02  0.51100000000E-03 0.  1.
        -12    1    3    3    0    0  0.72579614845E+00 -0.12902959363E+01 -0.62502405331E+01  0.64231729210E+01  0.00000000000E+00 0.  1.
</event>
<event>
 7    1  0.4141894E-008  0.4614232E+02  0.7816164E-02  0.1320468E+00
        -11   -1    0    0    0    0  0.00000000000E+00  0.00000000000E+00  0.45593999997E+02  0.45594000000E+02  0.51100000000E-03 0. -1.
         11   -1    0    0    0    0 -0.00000000000E+00 -0.00000000000E+00 -0.45593999997E+02  0.45594000000E+02  0.51100000000E-03 0.  1.
    9900012    2    1    2    0    0 -0.44190544039E+02 -0.60906553872E+01 -0.62620460635E+01  0.46142317782E+02  0.10000000194E+02 0.  0.
        -12    1    1    2    0    0  0.44190544039E+02  0.60906553872E+01  0.62620460635E+01  0.45045682218E+02  0.00000000000E+00 0.  1.
         11    1    3    3    0    0 -0.23061819323E+02 -0.96681752130E+00 -0.86426556482E+00  0.23098251056E+02  0.51100000000E-03 0. -1.
        -11    1    3    3    0    0 -0.21191407659E+02 -0.53394375566E+01 -0.57760669494E+01  0.22604165582E+02  0.51100000000E-03 0.  1.
        -12    1    3    3    0    0  0.62682942820E-01  0.21559969076E+00  0.37828645077E+00  0.43990114436E+00  0.00000000000E+00 0.  1.
</event>
<event>
 7    1  0.4141894E-008  0.4614232E+02  0.7816164E-02  0.1320468E+00
        -11   -1    0    0    0    0  0.00000000000E+00  0.00000000000E+00  0.45593999997E+02  0.45594000000E+02  0.51100000000E-03 0.  1.
         11   -1    0    0    0    0 -0.00000000000E+00 -0.00000000000E+00 -0.45593999997E+02  0.45594000000E+02  0.51100000000E-03 0. -1.
    9900012    2    1    2    0    0 -0.16592844061E+02  0.36372568166E+02 -0.20756379641E+02  0.46142317801E+02  0.10000000360E+02 0.  0.
        -12    1    1    2    0    0  0.16592844061E+02 -0.36372568166E+02  0.20756379641E+02  0.45045682199E+02  0.00000000000E+00 0.  1.
         11    1    3    3    0    0 -0.55392940278E+01  0.69170361312E+01 -0.19429176834E+01  0.90721605229E+01  0.51100000000E-03 0. -1.
        -11    1    3    3    0    0 -0.11153917863E+02  0.27248534930E+02 -0.16054503067E+02  0.33535646833E+02  0.51100000000E-03 0.  1.
        -12    1    3    3    0    0  0.10036783003E+00  0.22069971043E+01 -0.27589588907E+01  0.35345104442E+01  0.00000000000E+00 0.  1.
</event>
<event>
 7    1  0.4791352E-008  0.4614232E+02  0.7816164E-02  0.1320468E+00
        -11   -1    0    0    0    0  0.00000000000E+00  0.00000000000E+00  0.45593999997E+02  0.45594000000E+02  0.51100000000E-03 0.  1.
         11   -1    0    0    0    0 -0.00000000000E+00 -0.00000000000E+00 -0.45593999997E+02  0.45594000000E+02  0.51100000000E-03 0. -1.
    9900012    2    1    2    0    0  0.20398739073E+02  0.27362714657E+02 -0.29398755024E+02  0.46142317564E+02  0.99999982058E+01 0.  0.
        -12    1    1    2    0    0 -0.20398739073E+02 -0.27362714657E+02  0.29398755024E+02  0.45045682436E+02  0.00000000000E+00 0.  1.
         11    1    3    3    0    0  0.26382029020E+01  0.80460052538E+01 -0.72465760896E+01  0.11145006971E+02  0.51100000000E-03 0. -1.
        -11    1    3    3    0    0  0.41960861594E+00  0.21892259356E+01 -0.27554524382E+00  0.22460425263E+01  0.51100000000E-03 0.  1.
         12    1    3    3    0    0  0.17340927555E+02  0.17127483467E+02 -0.21876633690E+02  0.32751268067E+02  0.00000000000E+00 0. -1.
</event>
<event>
 7    1  0.4141894E-008  0.4614232E+02  0.7816164E-02  0.1320468E+00
        -11   -1    0    0    0    0  0.00000000000E+00  0.00000000000E+00  0.45593999997E+02  0.45594000000E+02  0.51100000000E-03 0.  1.
         11   -1    0    0    0    0 -0.00000000000E+00 -0.00000000000E+00 -0.45593999997E+02  0.45594000000E+02  0.51100000000E-03 0. -1.
    9900012    2    1    2    0    0  0.74433467255E+01  0.80969295703E+01 -0.43682376207E+02  0.46142315745E+02  0.99999816116E+01 0.  0.
        -12    1    1    2    0    0 -0.74433467255E+01 -0.80969295703E+01  0.43682376207E+02  0.45045684255E+02  0.00000000000E+00 0.  1.
         11    1    3    3    0    0  0.57161718010E+01  0.40404325285E+01 -0.12058386130E+02  0.13942897525E+02  0.51100000000E-03 0. -1.
        -11    1    3    3    0    0  0.58829286429E-01 -0.85050392789E+00 -0.35420980937E+01  0.36432508811E+01  0.51100000000E-03 0.  1.
         12    1    3    3    0    0  0.16683456380E+01  0.49070009697E+01 -0.28081891983E+02  0.28556167338E+02  0.00000000000E+00 0. -1.
</event>
<event>
 7    1  0.4141894E-008  0.4614232E+02  0.7816164E-02  0.1320468E+00
        -11   -1    0    0    0    0  0.00000000000E+00  0.00000000000E+00  0.45593999997E+02  0.45594000000E+02  0.51100000000E-03 0.  1.
         11   -1    0    0    0    0 -0.00000000000E+00 -0.00000000000E+00 -0.45593999997E+02  0.45594000000E+02  0.51100000000E-03 0. -1.
    9900012    2    1    2    0    0 -0.99402576861E+01  0.30443227508E+02 -0.31678298646E+02  0.46142318419E+02  0.10000006001E+02 0.  0.
        -12    1    1    2    0    0  0.99402576861E+01 -0.30443227508E+02  0.31678298646E+02  0.45045681581E+02  0.00000000000E+00 0.  1.
         11    1    3    3    0    0 -0.72389960954E+01  0.22221635682E+02 -0.18105689032E+02  0.29563831491E+02  0.51100000000E-03 0. -1.
        -11    1    3    3    0    0  0.13148189692E+00  0.23800263892E+01 -0.13518696843E+01  0.27403220626E+01  0.51100000000E-03 0.  1.
        -12    1    3    3    0    0 -0.28327434877E+01  0.58415654377E+01 -0.12220739929E+02  0.13838164866E+02  0.00000000000E+00 0.  1.
</event>
<event>
 7    1  0.4141894E-008  0.4614232E+02  0.7816164E-02  0.1320468E+00
        -11   -1    0    0    0    0  0.00000000000E+00  0.00000000000E+00  0.45593999997E+02  0.45594000000E+02  0.51100000000E-03 0. -1.
         11   -1    0    0    0    0 -0.00000000000E+00 -0.00000000000E+00 -0.45593999997E+02  0.45594000000E+02  0.51100000000E-03 0.  1.
    9900012    2    1    2    0    0 -0.78156426527E+01 -0.26154647094E+02  0.35832438906E+02  0.46142317491E+02  0.99999975412E+01 0.  0.
        -12    1    1    2    0    0  0.78156426527E+01  0.26154647094E+02 -0.35832438906E+02  0.45045682509E+02  0.00000000000E+00 0.  1.
         11    1    3    3    0    0 -0.34780532657E+01 -0.13955453812E+02  0.19342732195E+02  0.24103792951E+02  0.51100000000E-03 0. -1.
        -11    1    3    3    0    0 -0.15023134399E+01 -0.96990677094E+01  0.77142728872E+01  0.12483543829E+02  0.51100000000E-03 0.  1.
        -12    1    3    3    0    0 -0.28352759471E+01 -0.25001255723E+01  0.87754338244E+01  0.95549807106E+01  0.00000000000E+00 0.  1.
</event>
<event>
 7    1  0.4141894E-008  0.4614232E+02  0.7816164E-02  0.1320468E+00
        -11   -1    0    0    0    0  0.00000000000E+00  0.00000000000E+00  0.45593999997E+02  0.45594000000E+02  0.51100000000E-03 0.  1.
         11   -1    0    0    0    0 -0.00000000000E+00 -0.00000000000E+00 -0.45593999997E+02  0.45594000000E+02  0.51100000000E-03 0. -1.
    9900012    2    1    2    0    0 -0.23582318036E+02  0.16028106091E+02 -0.34872449041E+02  0.46142316401E+02  0.99999875961E+01 0.  0.
        -12    1    1    2    0    0  0.23582318036E+02 -0.16028106091E+02  0.34872449041E+02  0.45045683599E+02  0.00000000000E+00 0.  1.
         11    1    3    3    0    0 -0.20837797751E+02  0.11677741748E+02 -0.31276321943E+02  0.39354691995E+02  0.51100000000E-03 0. -1.
        -11    1    3    3    0    0  0.40019732260E+00  0.15736074380E+00 -0.63752585185E+00  0.76899920260E+00  0.51100000000E-03 0.  1.
        -12    1    3    3    0    0 -0.31447176071E+01  0.41930035983E+01 -0.29586012460E+01  0.60186252032E+01  0.00000000000E+00 0.  1.
</event>
<event>
 7    1  0.4141894E-008  0.4614232E+02  0.7816164E-02  0.1320468E+00
        -11   -1    0    0    0    0  0.00000000000E+00  0.00000000000E+00  0.45593999997E+02  0.45594000000E+02  0.51100000000E-03 0.  1.
         11   -1    0    0    0    0 -0.00000000000E+00 -0.00000000000E+00 -0.45593999997E+02  0.45594000000E+02  0.51100000000E-03 0. -1.
    9900012    2    1    2    0    0  0.15915531809E+02 -0.36870944672E+02 -0.20404478874E+02  0.46142317944E+02  0.10000001672E+02 0.  0.
        -12    1    1    2    0    0 -0.15915531809E+02  0.36870944672E+02  0.20404478874E+02  0.45045682056E+02  0.00000000000E+00 0.  1.
         11    1    3    3    0    0  0.85172527900E+01 -0.20150934370E+02 -0.94988040334E+01  0.23850178813E+02  0.51100000000E-03 0. -1.
        -11    1    3    3    0    0  0.41814987601E+01 -0.71891340069E+01 -0.13647547910E+01  0.84279971256E+01  0.51100000000E-03 0.  1.
        -12    1    3    3    0    0  0.32167802589E+01 -0.95308762951E+01 -0.95409200491E+01  0.13864142006E+02  0.00000000000E+00 0.  1.
</event>
<event>
 7    1  0.4141894E-008  0.4614232E+02  0.7816164E-02  0.1320468E+00
        -11   -1    0    0    0    0  0.00000000000E+00  0.00000000000E+00  0.45593999997E+02  0.45594000000E+02  0.51100000000E-03 0.  1.
         11   -1    0    0    0    0 -0.00000000000E+00 -0.00000000000E+00 -0.45593999997E+02  0.45594000000E+02  0.51100000000E-03 0. -1.
    9900012    2    1    2    0    0 -0.23169241842E+02  0.60927899412E+01 -0.38146784739E+02  0.46142322708E+02  0.10000045107E+02 0.  0.
        -12    1    1    2    0    0  0.23169241842E+02 -0.60927899412E+01  0.38146784739E+02  0.45045677292E+02  0.00000000000E+00 0.  1.
         11    1    3    3    0    0 -0.58151263358E+01  0.45216570049E+01 -0.10132347603E+02  0.12526992639E+02  0.51100000000E-03 0. -1.
        -11    1    3    3    0    0 -0.25520903885E+01  0.13483586493E+01 -0.93932364685E+01  0.98267048400E+01  0.51100000000E-03 0.  1.
        -12    1    3    3    0    0 -0.14802025118E+02  0.22277428705E+00 -0.18621200668E+02  0.23788625229E+02  0.00000000000E+00 0.  1.
</event>
<event>
 7    1  0.4141894E-008  0.4614232E+02  0.7816164E-02  0.1320468E+00
        -11   -1    0    0    0    0  0.00000000000E+00  0.00000000000E+00  0.45593999997E+02  0.45594000000E+02  0.51100000000E-03 0. -1.
         11   -1    0    0    0    0 -0.00000000000E+00 -0.00000000000E+00 -0.45593999997E+02  0.45594000000E+02  0.51100000000E-03 0.  1.
    9900012    2    1    2    0    0 -0.14508360623E+02 -0.37801154939E+02 -0.19740659432E+02  0.46142317882E+02  0.10000001102E+02 0.  0.
        -12    1    1    2    0    0  0.14508360623E+02  0.37801154939E+02  0.19740659432E+02  0.45045682118E+02  0.00000000000E+00 0.  1.
         11    1    3    3    0    0 -0.12040952772E+00 -0.83581706586E+00  0.74430954040E+00  0.11256489573E+01  0.51100000000E-03 0. -1.
        -11    1    3    3    0    0 -0.29829743137E+01 -0.37685389080E+01 -0.11478071862E+01  0.49414049475E+01  0.51100000000E-03 0.  1.
         12    1    3    3    0    0 -0.11404976782E+02 -0.33196798965E+02 -0.19337161786E+02  0.40075263977E+02  0.00000000000E+00 0. -1.
</event>
<event>
 7    1  0.4141894E-008  0.4614232E+02  0.7816164E-02  0.1320468E+00
        -11   -1    0    0    0    0  0.00000000000E+00  0.00000000000E+00  0.45593999997E+02  0.45594000000E+02  0.51100000000E-03 0.  1.
         11   -1    0    0    0    0 -0.00000000000E+00 -0.00000000000E+00 -0.45593999997E+02  0.45594000000E+02  0.51100000000E-03 0. -1.
    9900012    2    1    2    0    0  0.37371443329E+02 -0.11397793209E+02 -0.22418275829E+02  0.46142316992E+02  0.99999929868E+01 0.  0.
        -12    1    1    2    0    0 -0.37371443329E+02  0.11397793209E+02  0.22418275829E+02  0.45045683008E+02  0.00000000000E+00 0.  1.
         11    1    3    3    0    0  0.12919630273E+01 -0.13881533143E+01 -0.80797270235E+00  0.20613001326E+01  0.51100000000E-03 0. -1.
        -11    1    3    3    0    0  0.21488767268E+02 -0.53710684208E+01 -0.78618121188E+01  0.23503693002E+02  0.51100000000E-03 0.  1.
         12    1    3    3    0    0  0.14590713034E+02 -0.46385714735E+01 -0.13748491008E+02  0.20577323858E+02  0.00000000000E+00 0. -1.
</event>
<event>
 7    1  0.4141894E-008  0.4614232E+02  0.7816164E-02  0.1320468E+00
        -11   -1    0    0    0    0  0.00000000000E+00  0.00000000000E+00  0.45593999997E+02  0.45594000000E+02  0.51100000000E-03 0. -1.
         11   -1    0    0    0    0 -0.00000000000E+00 -0.00000000000E+00 -0.45593999997E+02  0.45594000000E+02  0.51100000000E-03 0.  1.
    9900012    2    1    2    0    0 -0.40616345842E+02  0.18584884098E+02  0.58333508097E+01  0.46142318207E+02  0.10000004067E+02 0.  0.
        -12    1    1    2    0    0  0.40616345842E+02 -0.18584884098E+02 -0.58333508097E+01  0.45045681793E+02  0.00000000000E+00 0.  1.
         11    1    3    3    0    0 -0.88070325944E+01  0.68024058319E+01  0.14869032116E+01  0.11227084646E+02  0.51100000000E-03 0. -1.
        -11    1    3    3    0    0 -0.24244195961E+02  0.72855120570E+01  0.52515804677E+00  0.25320653921E+02  0.51100000000E-03 0.  1.
         12    1    3    3    0    0 -0.75651172870E+01  0.44969662088E+01  0.38212895513E+01  0.95945796408E+01  0.00000000000E+00 0. -1.
</event>
<event>
 7    1  0.4141894E-008  0.4614232E+02  0.7816164E-02  0.1320468E+00
        -11   -1    0    0    0    0  0.00000000000E+00  0.00000000000E+00  0.45593999997E+02  0.45594000000E+02  0.51100000000E-03 0.  1.
         11   -1    0    0    0    0 -0.00000000000E+00 -0.00000000000E+00 -0.45593999997E+02  0.45594000000E+02  0.51100000000E-03 0. -1.
    9900012    2    1    2    0    0  0.34412822964E+02 -0.28029613061E+02  0.76949238901E+01  0.46142318227E+02  0.10000004250E+02 0.  0.
        -12    1    1    2    0    0 -0.34412822964E+02  0.28029613061E+02 -0.76949238901E+01  0.45045681773E+02  0.00000000000E+00 0.  1.
         11    1    3    3    0    0  0.10639178523E+02 -0.33896478075E+01  0.28416337554E+01  0.11522010005E+02  0.51100000000E-03 0. -1.
        -11    1    3    3    0    0  0.87717909486E+01 -0.89153171345E+01  0.98511510762E+00  0.12545821938E+02  0.51100000000E-03 0.  1.
         12    1    3    3    0    0  0.15001853493E+02 -0.15724648119E+02  0.38681750271E+01  0.22074486285E+02  0.00000000000E+00 0. -1.
</event>
<event>
 7    1  0.4141894E-008  0.4614232E+02  0.7816164E-02  0.1320468E+00
        -11   -1    0    0    0    0  0.00000000000E+00  0.00000000000E+00  0.45593999997E+02  0.45594000000E+02  0.51100000000E-03 0.  1.
         11   -1    0    0    0    0 -0.00000000000E+00 -0.00000000000E+00 -0.45593999997E+02  0.45594000000E+02  0.51100000000E-03 0. -1.
    9900012    2    1    2    0    0  0.32668783101E+02 -0.15843142336E+02 -0.26661938067E+02  0.46142317744E+02  0.99999998462E+01 0.  0.
        -12    1    1    2    0    0 -0.32668783101E+02  0.15843142336E+02  0.26661938067E+02  0.45045682256E+02  0.00000000000E+00 0.  1.
         11    1    3    3    0    0  0.31739367369E+01 -0.25190910160E+01 -0.18116905436E+01  0.44386841342E+01  0.51100000000E-03 0. -1.
        -11    1    3    3    0    0  0.17295806897E+01 -0.35611767971E+01 -0.19550890341E+01  0.44154051835E+01  0.51100000000E-03 0.  1.
         12    1    3    3    0    0  0.27765265675E+02 -0.97628745231E+01 -0.22895158489E+02  0.37288228426E+02  0.00000000000E+00 0. -1.
</event>
<event>
 7    1  0.4141894E-008  0.4614232E+02  0.7816164E-02  0.1320468E+00
        -11   -1    0    0    0    0  0.00000000000E+00  0.00000000000E+00  0.45593999997E+02  0.45594000000E+02  0.51100000000E-03 0.  1.
         11   -1    0    0    0    0 -0.00000000000E+00 -0.00000000000E+00 -0.45593999997E+02  0.45594000000E+02  0.51100000000E-03 0. -1.
    9900012    2    1    2    0    0  0.41091554435E+02  0.15022619545E+02 -0.10720012388E+02  0.46142316416E+02  0.99999877380E+01 0.  0.
        -12    1    1    2    0    0 -0.41091554435E+02 -0.15022619545E+02  0.10720012388E+02  0.45045683584E+02  0.00000000000E+00 0.  1.
         11    1    3    3    0    0  0.56527607605E+00  0.88142582304E+00  0.16669237965E+00  0.10602995493E+01  0.51100000000E-03 0. -1.
        -11    1    3    3    0    0  0.16200903309E+02  0.88121810517E+01 -0.76663478648E+01  0.19972398273E+02  0.51100000000E-03 0.  1.
         12    1    3    3    0    0  0.24325375050E+02  0.53290126703E+01 -0.32203569026E+01  0.25109618594E+02  0.00000000000E+00 0. -1.
</event>
<event>
 7    1  0.4141894E-008  0.4614232E+02  0.7816164E-02  0.1320468E+00
        -11   -1    0    0    0    0  0.00000000000E+00  0.00000000000E+00  0.45593999997E+02  0.45594000000E+02  0.51100000000E-03 0.  1.
         11   -1    0    0    0    0 -0.00000000000E+00 -0.00000000000E+00 -0.45593999997E+02  0.45594000000E+02  0.51100000000E-03 0. -1.
    9900012    2    1    2    0    0  0.43654561732E+02  0.10638072739E+02 -0.31975357257E+01  0.46142316674E+02  0.99999900889E+01 0.  0.
        -12    1    1    2    0    0 -0.43654561732E+02 -0.10638072739E+02  0.31975357257E+01  0.45045683326E+02  0.00000000000E+00 0.  1.
         11    1    3    3    0    0  0.27821141946E+02  0.23475964294E+01 -0.29157645820E+01  0.28071851231E+02  0.51100000000E-03 0. -1.
        -11    1    3    3    0    0  0.36677538133E+01  0.17481572189E+01 -0.11715870577E+01  0.42286035747E+01  0.51100000000E-03 0.  1.
        -12    1    3    3    0    0  0.12165665973E+02  0.65423190903E+01  0.88981591396E+00  0.13841861869E+02  0.00000000000E+00 0.  1.
</event>
<event>
 7    1  0.4141894E-008  0.4614232E+02  0.7816164E-02  0.1320468E+00
        -11   -1    0    0    0    0  0.00000000000E+00  0.00000000000E+00  0.45593999997E+02  0.45594000000E+02  0.51100000000E-03 0.  1.
         11   -1    0    0    0    0 -0.00000000000E+00 -0.00000000000E+00 -0.45593999997E+02  0.45594000000E+02  0.51100000000E-03 0. -1.
    9900012    2    1    2    0    0  0.44459304128E+02 -0.70083829553E+01  0.18347408099E+01  0.46142318420E+02  0.10000006006E+02 0.  0.
        -12    1    1    2    0    0 -0.44459304128E+02  0.70083829553E+01 -0.18347408099E+01  0.45045681580E+02  0.00000000000E+00 0.  1.
         11    1    3    3    0    0  0.26177010983E+02 -0.13473280013E+01  0.12103441749E+01  0.26239590889E+02  0.51100000000E-03 0. -1.
        -11    1    3    3    0    0  0.10693223094E+02 -0.18168921084E+01  0.26333948821E+01  0.11161580799E+02  0.51100000000E-03 0.  1.
        -12    1    3    3    0    0  0.75890700514E+01 -0.38441628456E+01 -0.20089982471E+01  0.87411467317E+01  0.00000000000E+00 0.  1.
</event>
<event>
 7    1  0.4141894E-008  0.4614232E+02  0.7816164E-02  0.1320468E+00
        -11   -1    0    0    0    0  0.00000000000E+00  0.00000000000E+00  0.45593999997E+02  0.45594000000E+02  0.51100000000E-03 0. -1.
         11   -1    0    0    0    0 -0.00000000000E+00 -0.00000000000E+00 -0.45593999997E+02  0.45594000000E+02  0.51100000000E-03 0.  1.
    9900012    2    1    2    0    0 -0.37765242981E+02 -0.54370915199E+01  0.23944475214E+02  0.46142318355E+02  0.10000005413E+02 0.  0.
        -12    1    1    2    0    0  0.37765242981E+02  0.54370915199E+01 -0.23944475214E+02  0.45045681645E+02  0.00000000000E+00 0.  1.
         11    1    3    3    0    0 -0.20175455761E+02  0.10025420871E+00  0.15973027826E+02  0.25733182552E+02  0.51100000000E-03 0. -1.
        -11    1    3    3    0    0 -0.51634920402E+01 -0.33862351306E+01  0.24777767431E+01  0.66533913351E+01  0.51100000000E-03 0.  1.
         12    1    3    3    0    0 -0.12426295180E+02 -0.21511105980E+01  0.54936706454E+01  0.13755744468E+02  0.00000000000E+00 0. -1.
</event>
<event>
 7    1  0.4141894E-008  0.4614232E+02  0.7816164E-02  0.1320468E+00
        -11   -1    0    0    0    0  0.00000000000E+00  0.00000000000E+00  0.45593999997E+02  0.45594000000E+02  0.51100000000E-03 0. -1.
         11   -1    0    0    0    0 -0.00000000000E+00 -0.00000000000E+00 -0.45593999997E+02  0.45594000000E+02  0.51100000000E-03 0.  1.
    9900012    2    1    2    0    0 -0.60063025315E+01 -0.44424664778E+02  0.44144195913E+01  0.46142316399E+02  0.99999875816E+01 0.  0.
        -12    1    1    2    0    0  0.60063025315E+01  0.44424664778E+02 -0.44144195913E+01  0.45045683601E+02  0.00000000000E+00 0.  1.
         11    1    3    3    0    0 -0.48552731455E+00 -0.23542055747E+02  0.12048572364E+01  0.23577866883E+02  0.51100000000E-03 0. -1.
        -11    1    3    3    0    0 -0.35066830778E+01 -0.17421845627E+02  0.45453657113E+01  0.18343333420E+02  0.51100000000E-03 0.  1.
        -12    1    3    3    0    0 -0.20140921392E+01 -0.34607634045E+01 -0.13358033563E+01  0.42211160957E+01  0.00000000000E+00 0.  1.
</event>
<event>
 7    1  0.4141894E-008  0.4614232E+02  0.7816164E-02  0.1320468E+00
        -11   -1    0    0    0    0  0.00000000000E+00  0.00000000000E+00  0.45593999997E+02  0.45594000000E+02  0.51100000000E-03 0. -1.
         11   -1    0    0    0    0 -0.00000000000E+00 -0.00000000000E+00 -0.45593999997E+02  0.45594000000E+02  0.51100000000E-03 0.  1.
    9900012    2    1    2    0    0  0.99967493597E+01  0.30223340061E+02  0.31870490095E+02  0.46142318507E+02  0.10000006804E+02 0.  0.
        -12    1    1    2    0    0 -0.99967493597E+01 -0.30223340061E+02 -0.31870490095E+02  0.45045681493E+02  0.00000000000E+00 0.  1.
         11    1    3    3    0    0  0.20223335930E+01  0.76173933063E+01  0.50334858872E+01  0.93514969060E+01  0.51100000000E-03 0. -1.
        -11    1    3    3    0    0  0.25071151948E+01  0.10792303582E+02  0.71401697564E+01  0.13181102670E+02  0.51100000000E-03 0.  1.
        -12    1    3    3    0    0  0.54673005720E+01  0.11813643173E+02  0.19696834452E+02  0.23609718931E+02  0.00000000000E+00 0.  1.
</event>
<event>
 7    1  0.4141894E-008  0.4614231E+02  0.7816164E-02  0.1320468E+00
        -11   -1    0    0    0    0  0.00000000000E+00  0.00000000000E+00  0.45593999997E+02  0.45594000000E+02  0.51100000000E-03 0.  1.
         11   -1    0    0    0    0 -0.00000000000E+00 -0.00000000000E+00 -0.45593999997E+02  0.45594000000E+02  0.51100000000E-03 0. -1.
    9900012    2    1    2    0    0 -0.26744591591E+01 -0.38060867893E+02 -0.23944343842E+02  0.46142312097E+02  0.99999483516E+01 0.  0.
        -12    1    1    2    0    0  0.26744591591E+01  0.38060867893E+02  0.23944343842E+02  0.45045687903E+02  0.00000000000E+00 0.  1.
         11    1    3    3    0    0  0.20881699931E+01 -0.96850541778E+01 -0.59330217155E+01  0.11548223902E+02  0.51100000000E-03 0. -1.
        -11    1    3    3    0    0 -0.10119365110E+00 -0.77018023514E+00 -0.24357855481E+01  0.25566519605E+01  0.51100000000E-03 0.  1.
        -12    1    3    3    0    0 -0.46614355011E+01 -0.27605633481E+02 -0.15575536579E+02  0.32037436235E+02  0.00000000000E+00 0.  1.
</event>
<event>
 7    1  0.4141894E-008  0.4614232E+02  0.7816164E-02  0.1320468E+00
        -11   -1    0    0    0    0  0.00000000000E+00  0.00000000000E+00  0.45593999997E+02  0.45594000000E+02  0.51100000000E-03 0.  1.
         11   -1    0    0    0    0 -0.00000000000E+00 -0.00000000000E+00 -0.45593999997E+02  0.45594000000E+02  0.51100000000E-03 0. -1.
    9900012    2    1    2    0    0 -0.15103829125E+02 -0.40319867595E+02 -0.13239941915E+02  0.46142318309E+02  0.10000004996E+02 0.  0.
        -12    1    1    2    0    0  0.15103829125E+02  0.40319867595E+02  0.13239941915E+02  0.45045681691E+02  0.00000000000E+00 0.  1.
         11    1    3    3    0    0 -0.45603174885E+01 -0.19794131982E+02 -0.29961548668E+01  0.20532440204E+02  0.51100000000E-03 0. -1.
        -11    1    3    3    0    0  0.23218254610E+00  0.56956811545E-01 -0.99075438744E-01  0.25878372588E+00  0.51100000000E-03 0.  1.
         12    1    3    3    0    0 -0.10775694182E+02 -0.20582692425E+02 -0.10144711609E+02  0.25351094379E+02  0.00000000000E+00 0. -1.
</event>
<event>
 7    1  0.4141894E-008  0.4614232E+02  0.7816164E-02  0.1320468E+00
        -11   -1    0    0    0    0  0.00000000000E+00  0.00000000000E+00  0.45593999997E+02  0.45594000000E+02  0.51100000000E-03 0.  1.
         11   -1    0    0    0    0 -0.00000000000E+00 -0.00000000000E+00 -0.45593999997E+02  0.45594000000E+02  0.51100000000E-03 0. -1.
    9900012    2    1    2    0    0 -0.14376761638E+02 -0.36686120185E+02 -0.21830037931E+02  0.46142320457E+02  0.10000024582E+02 0.  0.
        -12    1    1    2    0    0  0.14376761638E+02  0.36686120185E+02  0.21830037931E+02  0.45045679543E+02  0.00000000000E+00 0.  1.
         11    1    3    3    0    0 -0.82366402637E+01 -0.20401112769E+02 -0.12101350833E+02  0.25109566648E+02  0.51100000000E-03 0. -1.
        -11    1    3    3    0    0 -0.51736402728E+01 -0.13660776195E+02 -0.10661704343E+02  0.18084670295E+02  0.51100000000E-03 0.  1.
        -12    1    3    3    0    0 -0.96648110126E+00 -0.26242312220E+01  0.93301724458E+00  0.29480835138E+01  0.00000000000E+00 0.  1.
</event>
<event>
 7    1  0.4141894E-008  0.4614232E+02  0.7816164E-02  0.1320468E+00
        -11   -1    0    0    0    0  0.00000000000E+00  0.00000000000E+00  0.45593999997E+02  0.45594000000E+02  0.51100000000E-03 0. -1.
         11   -1    0    0    0    0 -0.00000000000E+00 -0.00000000000E+00 -0.45593999997E+02  0.45594000000E+02  0.51100000000E-03 0.  1.
    9900012    2    1    2    0    0  0.92914324821E+01  0.35053738113E+02  0.26721121076E+02  0.46142316691E+02  0.99999902406E+01 0.  0.
        -12    1    1    2    0    0 -0.92914324821E+01 -0.35053738113E+02 -0.26721121076E+02  0.45045683309E+02  0.00000000000E+00 0.  1.
         11    1    3    3    0    0  0.20791193424E+01  0.11256548405E+02  0.69351772391E+01  0.13383919562E+02  0.51100000000E-03 0. -1.
        -11    1    3    3    0    0 -0.16099706460E+00  0.96600626967E+01  0.44547658449E+01  0.10638969422E+02  0.51100000000E-03 0.  1.
         12    1    3    3    0    0  0.73733102043E+01  0.14137127010E+02  0.15331177992E+02  0.22119427707E+02  0.00000000000E+00 0. -1.
</event>
<event>
 7    1  0.4141894E-008  0.4614232E+02  0.7816164E-02  0.1320468E+00
        -11   -1    0    0    0    0  0.00000000000E+00  0.00000000000E+00  0.45593999997E+02  0.45594000000E+02  0.51100000000E-03 0. -1.
         11   -1    0    0    0    0 -0.00000000000E+00 -0.00000000000E+00 -0.45593999997E+02  0.45594000000E+02  0.51100000000E-03 0.  1.
    9900012    2    1    2    0    0  0.35577546225E+02 -0.35992760496E+01  0.27393373550E+02  0.46142317655E+02  0.99999990349E+01 0.  0.
        -12    1    1    2    0    0 -0.35577546225E+02  0.35992760496E+01 -0.27393373550E+02  0.45045682345E+02  0.00000000000E+00 0.  1.
         11    1    3    3    0    0  0.11515542419E+02 -0.78550754034E+00  0.64141703935E+01  0.13204784035E+02  0.51100000000E-03 0. -1.
        -11    1    3    3    0    0  0.73427122160E+01  0.22648922383E+01  0.85423275970E+01  0.11489844236E+02  0.51100000000E-03 0.  1.
         12    1    3    3    0    0  0.16719291589E+02 -0.50786607476E+01  0.12436875560E+02  0.21447689384E+02  0.00000000000E+00 0. -1.
</event>
<event>
 7    1  0.4141894E-008  0.4614232E+02  0.7816164E-02  0.1320468E+00
        -11   -1    0    0    0    0  0.00000000000E+00  0.00000000000E+00  0.45593999997E+02  0.45594000000E+02  0.51100000000E-03 0.  1.
         11   -1    0    0    0    0 -0.00000000000E+00 -0.00000000000E+00 -0.45593999997E+02  0.45594000000E+02  0.51100000000E-03 0. -1.
    9900012    2    1    2    0    0 -0.37841336626E+02  0.18109171352E+02 -0.16407457919E+02  0.46142317409E+02  0.99999967912E+01 0.  0.
        -12    1    1    2    0    0  0.37841336626E+02 -0.18109171352E+02  0.16407457919E+02  0.45045682591E+02  0.00000000000E+00 0.  1.
         11    1    3    3    0    0 -0.25476325878E+02  0.76235831283E+01 -0.84268616620E+01  0.27895773832E+02  0.51100000000E-03 0. -1.
        -11    1    3    3    0    0 -0.97838861424E+01  0.68988428314E+01 -0.62066134069E+01  0.13484825201E+02  0.51100000000E-03 0.  1.
        -12    1    3    3    0    0 -0.25811246055E+01  0.35867453926E+01 -0.17739828505E+01  0.47617183762E+01  0.00000000000E+00 0.  1.
</event>
<event>
 7    1  0.4141894E-008  0.4614232E+02  0.7816164E-02  0.1320468E+00
        -11   -1    0    0    0    0  0.00000000000E+00  0.00000000000E+00  0.45593999997E+02  0.45594000000E+02  0.51100000000E-03 0.  1.
         11   -1    0    0    0    0 -0.00000000000E+00 -0.00000000000E+00 -0.45593999997E+02  0.45594000000E+02  0.51100000000E-03 0. -1.
    9900012    2    1    2    0    0 -0.17222946921E+01  0.41651057423E+01 -0.44819627908E+02  0.46142318180E+02  0.10000003818E+02 0.  0.
        -12    1    1    2    0    0  0.17222946921E+01 -0.41651057423E+01  0.44819627908E+02  0.45045681820E+02  0.00000000000E+00 0.  1.
         11    1    3    3    0    0  0.41820937225E+00  0.18426912796E+01 -0.36236211948E+01  0.40866907218E+01  0.51100000000E-03 0. -1.
        -11    1    3    3    0    0  0.26345437763E+01  0.76933505840E+00 -0.23541088853E+02  0.23700539276E+02  0.51100000000E-03 0.  1.
        -12    1    3    3    0    0 -0.47750478407E+01  0.15530794043E+01 -0.17654917860E+02  0.18355088182E+02  0.00000000000E+00 0.  1.
</event>
<event>
 7    1  0.4141894E-008  0.4614232E+02  0.7816164E-02  0.1320468E+00
        -11   -1    0    0    0    0  0.00000000000E+00  0.00000000000E+00  0.45593999997E+02  0.45594000000E+02  0.51100000000E-03 0.  1.
         11   -1    0    0    0    0 -0.00000000000E+00 -0.00000000000E+00 -0.45593999997E+02  0.45594000000E+02  0.51100000000E-03 0. -1.
    9900012    2    1    2    0    0  0.38358898364E+02 -0.14285612380E+02 -0.18805046961E+02  0.46142316566E+02  0.99999891064E+01 0.  0.
        -12    1    1    2    0    0 -0.38358898364E+02  0.14285612380E+02  0.18805046961E+02  0.45045683434E+02  0.00000000000E+00 0.  1.
         11    1    3    3    0    0  0.13761673598E+02 -0.45165718328E+01 -0.84020819185E+01  0.16744493488E+02  0.51100000000E-03 0. -1.
        -11    1    3    3    0    0  0.13596839513E+02 -0.45974704240E+01 -0.17114975464E+01  0.14454757111E+02  0.51100000000E-03 0.  1.
         12    1    3    3    0    0  0.11000385253E+02 -0.51715701237E+01 -0.86914674965E+01  0.14943065967E+02  0.00000000000E+00 0. -1.
</event>
<event>
 7    1  0.4141894E-008  0.4614232E+02  0.7816164E-02  0.1320468E+00
        -11   -1    0    0    0    0  0.00000000000E+00  0.00000000000E+00  0.45593999997E+02  0.45594000000E+02  0.51100000000E-03 0. -1.
         11   -1    0    0    0    0 -0.00000000000E+00 -0.00000000000E+00 -0.45593999997E+02  0.45594000000E+02  0.51100000000E-03 0.  1.
    9900012    2    1    2    0    0 -0.29542021762E+02 -0.13040136870E+02  0.31406006758E+02  0.46142317855E+02  0.10000000860E+02 0.  0.
        -12    1    1    2    0    0  0.29542021762E+02  0.13040136870E+02 -0.31406006758E+02  0.45045682145E+02  0.00000000000E+00 0.  1.
         11    1    3    3    0    0 -0.11172306998E+02 -0.55398511389E+01  0.85692521682E+01  0.15130845227E+02  0.51100000000E-03 0. -1.
        -11    1    3    3    0    0 -0.91529571004E+01 -0.88400363270E-01  0.99082678255E+01  0.13489188629E+02  0.51100000000E-03 0.  1.
         12    1    3    3    0    0 -0.92167576636E+01 -0.74118853680E+01  0.12928486764E+02  0.17522283999E+02  0.00000000000E+00 0. -1.
</event>
<event>
 7    1  0.4141894E-008  0.4614232E+02  0.7816164E-02  0.1320468E+00
        -11   -1    0    0    0    0  0.00000000000E+00  0.00000000000E+00  0.45593999997E+02  0.45594000000E+02  0.51100000000E-03 0.  1.
         11   -1    0    0    0    0 -0.00000000000E+00 -0.00000000000E+00 -0.45593999997E+02  0.45594000000E+02  0.51100000000E-03 0. -1.
    9900012    2    1    2    0    0  0.23211449806E+02 -0.15280470628E+02 -0.35452071120E+02  0.46142317283E+02  0.99999956415E+01 0.  0.
        -12    1    1    2    0    0 -0.23211449806E+02  0.15280470628E+02  0.35452071120E+02  0.45045682717E+02  0.00000000000E+00 0.  1.
         11    1    3    3    0    0  0.10574882246E+02 -0.84615661689E+01 -0.10508475638E+02  0.17142178889E+02  0.51100000000E-03 0. -1.
        -11    1    3    3    0    0  0.31061052593E+01 -0.89848516952E-01 -0.46698930697E+01  0.56092659218E+01  0.51100000000E-03 0.  1.
         12    1    3    3    0    0  0.95304623009E+01 -0.67290559424E+01 -0.20273702412E+02  0.23390872472E+02  0.00000000000E+00 0. -1.
</event>
<event>
 7    1  0.4141894E-008  0.4614232E+02  0.7816164E-02  0.1320468E+00
        -11   -1    0    0    0    0  0.00000000000E+00  0.00000000000E+00  0.45593999997E+02  0.45594000000E+02  0.51100000000E-03 0.  1.
         11   -1    0    0    0    0 -0.00000000000E+00 -0.00000000000E+00 -0.45593999997E+02  0.45594000000E+02  0.51100000000E-03 0. -1.
    9900012    2    1    2    0    0 -0.68304999403E+00  0.38469007047E+02 -0.23426108353E+02  0.46142316377E+02  0.99999873799E+01 0.  0.
        -12    1    1    2    0    0  0.68304999403E+00 -0.38469007047E+02  0.23426108353E+02  0.45045683623E+02  0.00000000000E+00 0.  1.
         11    1    3    3    0    0  0.14366136833E+00  0.12751687142E+00 -0.65091527467E+00  0.67866788429E+00  0.51100000000E-03 0. -1.
        -11    1    3    3    0    0 -0.25603437629E+01  0.29390652211E+01 -0.24726175075E+01  0.46159833359E+01  0.51100000000E-03 0.  1.
         12    1    3    3    0    0  0.17336324005E+01  0.35402424954E+02 -0.20302575571E+02  0.40847665157E+02  0.00000000000E+00 0. -1.
</event>
<event>
 7    1  0.4141894E-008  0.4614232E+02  0.7816164E-02  0.1320468E+00
        -11   -1    0    0    0    0  0.00000000000E+00  0.00000000000E+00  0.45593999997E+02  0.45594000000E+02  0.51100000000E-03 0.  1.
         11   -1    0    0    0    0 -0.00000000000E+00 -0.00000000000E+00 -0.45593999997E+02  0.45594000000E+02  0.51100000000E-03 0. -1.
    9900012    2    1    2    0    0  0.15030417028E+02  0.25635259670E+02 -0.33853116886E+02  0.46142317662E+02  0.99999990939E+01 0.  0.
        -12    1    1    2    0    0 -0.15030417028E+02 -0.25635259670E+02  0.33853116886E+02  0.45045682338E+02  0.00000000000E+00 0.  1.
         11    1    3    3    0    0  0.65832945776E+01  0.11710740873E+02 -0.18065093002E+02  0.22512858653E+02  0.51100000000E-03 0. -1.
        -11    1    3    3    0    0  0.87602829645E+01  0.14399805407E+02 -0.15734101191E+02  0.23057729592E+02  0.51100000000E-03 0.  1.
        -12    1    3    3    0    0 -0.31316051389E+00 -0.47528661044E+00 -0.53922693844E-01  0.57172941715E+00  0.00000000000E+00 0.  1.
</event>
<event>
 7    1  0.4141894E-008  0.4614232E+02  0.7816164E-02  0.1320468E+00
        -11   -1    0    0    0    0  0.00000000000E+00  0.00000000000E+00  0.45593999997E+02  0.45594000000E+02  0.51100000000E-03 0.  1.
         11   -1    0    0    0    0 -0.00000000000E+00 -0.00000000000E+00 -0.45593999997E+02  0.45594000000E+02  0.51100000000E-03 0. -1.
    9900012    2    1    2    0    0  0.55683920546E+00  0.43157398185E+02 -0.12893502872E+02  0.46142317585E+02  0.99999983903E+01 0.  0.
        -12    1    1    2    0    0 -0.55683920546E+00 -0.43157398185E+02  0.12893502872E+02  0.45045682415E+02  0.00000000000E+00 0.  1.
         11    1    3    3    0    0 -0.37415400088E+00  0.35671367121E+01 -0.38155180610E+01  0.52366624747E+01  0.51100000000E-03 0.  1.
        -11    1    3    3    0    0  0.33634942508E+00  0.18018868427E+01 -0.14811537687E+01  0.23566382576E+01  0.51100000000E-03 0. -1.
         12    1    3    3    0    0  0.59464378125E+00  0.37788374630E+02 -0.75968310419E+01  0.38549016852E+02  0.00000000000E+00 0. -1.
</event>
<event>
 7    1  0.4141894E-008  0.4614232E+02  0.7816164E-02  0.1320468E+00
        -11   -1    0    0    0    0  0.00000000000E+00  0.00000000000E+00  0.45593999997E+02  0.45594000000E+02  0.51100000000E-03 0.  1.
         11   -1    0    0    0    0 -0.00000000000E+00 -0.00000000000E+00 -0.45593999997E+02  0.45594000000E+02  0.51100000000E-03 0. -1.
    9900012    2    1    2    0    0 -0.44180963444E+01  0.43511607551E+02 -0.10785820479E+02  0.46142317739E+02  0.99999997939E+01 0.  0.
        -12    1    1    2    0    0  0.44180963444E+01 -0.43511607551E+02  0.10785820479E+02  0.45045682261E+02  0.00000000000E+00 0.  1.
         11    1    3    3    0    0 -0.27337436459E+01  0.30227709927E+02 -0.51154235635E+01  0.30779138394E+02  0.51100000000E-03 0. -1.
        -11    1    3    3    0    0  0.13425721857E+01  0.41827495388E+01 -0.37941466536E+00  0.44092912727E+01  0.51100000000E-03 0.  1.
        -12    1    3    3    0    0 -0.30269248842E+01  0.91011480849E+01 -0.52909822502E+01  0.10953888072E+02  0.00000000000E+00 0.  1.
</event>
<event>
 7    1  0.4141894E-008  0.4614232E+02  0.7816164E-02  0.1320468E+00
        -11   -1    0    0    0    0  0.00000000000E+00  0.00000000000E+00  0.45593999997E+02  0.45594000000E+02  0.51100000000E-03 0.  1.
         11   -1    0    0    0    0 -0.00000000000E+00 -0.00000000000E+00 -0.45593999997E+02  0.45594000000E+02  0.51100000000E-03 0. -1.
    9900012    2    1    2    0    0  0.27743358471E+02 -0.34412908069E+02 -0.86701398966E+01  0.46142317556E+02  0.99999981297E+01 0.  0.
        -12    1    1    2    0    0 -0.27743358471E+02  0.34412908069E+02  0.86701398966E+01  0.45045682444E+02  0.00000000000E+00 0.  1.
         11    1    3    3    0    0  0.55115294530E+01 -0.97421992974E+01 -0.34831533464E+00  0.11198603837E+02  0.51100000000E-03 0.  1.
        -11    1    3    3    0    0  0.11816616075E+02 -0.16144096151E+02 -0.21048311967E+01  0.20117021912E+02  0.51100000000E-03 0. -1.
         12    1    3    3    0    0  0.10415212943E+02 -0.85266126207E+01 -0.62169933652E+01  0.14826691807E+02  0.00000000000E+00 0. -1.
</event>
<event>
 7    1  0.4141894E-008  0.4614232E+02  0.7816164E-02  0.1320468E+00
        -11   -1    0    0    0    0  0.00000000000E+00  0.00000000000E+00  0.45593999997E+02  0.45594000000E+02  0.51100000000E-03 0.  1.
         11   -1    0    0    0    0 -0.00000000000E+00 -0.00000000000E+00 -0.45593999997E+02  0.45594000000E+02  0.51100000000E-03 0. -1.
    9900012    2    1    2    0    0 -0.21034067041E+02  0.37277517451E+02 -0.14038100166E+02  0.46142317189E+02  0.99999947856E+01 0.  0.
        -12    1    1    2    0    0  0.21034067041E+02 -0.37277517451E+02  0.14038100166E+02  0.45045682811E+02  0.00000000000E+00 0.  1.
         11    1    3    3    0    0 -0.13487556909E+02  0.21160388304E+02 -0.84667192780E+01  0.26483231679E+02  0.51100000000E-03 0. -1.
        -11    1    3    3    0    0 -0.47151397952E+01  0.37680943609E+01 -0.66327793629E+00  0.60721508779E+01  0.51100000000E-03 0.  1.
         12    1    3    3    0    0 -0.28313703373E+01  0.12349034786E+02 -0.49081029516E+01  0.13586934633E+02  0.00000000000E+00 0. -1.
</event>
<event>
 7    1  0.4141894E-008  0.4614232E+02  0.7816164E-02  0.1320468E+00
        -11   -1    0    0    0    0  0.00000000000E+00  0.00000000000E+00  0.45593999997E+02  0.45594000000E+02  0.51100000000E-03 0.  1.
         11   -1    0    0    0    0 -0.00000000000E+00 -0.00000000000E+00 -0.45593999997E+02  0.45594000000E+02  0.51100000000E-03 0. -1.
    9900012    2    1    2    0    0 -0.79899152317E+01  0.39832862191E+01 -0.44152101852E+02  0.46142318603E+02  0.10000007679E+02 0.  0.
        -12    1    1    2    0    0  0.79899152317E+01 -0.39832862191E+01  0.44152101852E+02  0.45045681397E+02  0.00000000000E+00 0.  1.
         11    1    3    3    0    0 -0.23321267460E+01  0.18041642515E+00 -0.15937551677E+02  0.16108287276E+02  0.51100000000E-03 0. -1.
        -11    1    3    3    0    0  0.51877378069E+00 -0.16382987233E+01 -0.84663256622E+01  0.86389709701E+01  0.51100000000E-03 0.  1.
         12    1    3    3    0    0 -0.61765622664E+01  0.54411685173E+01 -0.19748224514E+02  0.21395060358E+02  0.00000000000E+00 0. -1.
</event>
<event>
 7    1  0.4141894E-008  0.4614232E+02  0.7816164E-02  0.1320468E+00
        -11   -1    0    0    0    0  0.00000000000E+00  0.00000000000E+00  0.45593999997E+02  0.45594000000E+02  0.51100000000E-03 0.  1.
         11   -1    0    0    0    0 -0.00000000000E+00 -0.00000000000E+00 -0.45593999997E+02  0.45594000000E+02  0.51100000000E-03 0. -1.
    9900012    2    1    2    0    0  0.29806374156E+02 -0.18795981583E+01 -0.33721812887E+02  0.46142317699E+02  0.99999994337E+01 0.  0.
        -12    1    1    2    0    0 -0.29806374156E+02  0.18795981583E+01  0.33721812887E+02  0.45045682301E+02  0.00000000000E+00 0.  1.
         11    1    3    3    0    0  0.38123924699E+01  0.29933106858E+00 -0.31163239854E+01  0.49330934388E+01  0.51100000000E-03 0. -1.
        -11    1    3    3    0    0  0.70379431188E+01 -0.62564107939E+00 -0.29774425170E+01  0.76674137952E+01  0.51100000000E-03 0.  1.
        -12    1    3    3    0    0  0.18956038568E+02 -0.15532881475E+01 -0.27628046384E+02  0.33541810465E+02  0.00000000000E+00 0.  1.
</event>
<event>
 7    1  0.4141894E-008  0.4614232E+02  0.7816164E-02  0.1320468E+00
        -11   -1    0    0    0    0  0.00000000000E+00  0.00000000000E+00  0.45593999997E+02  0.45594000000E+02  0.51100000000E-03 0.  1.
         11   -1    0    0    0    0 -0.00000000000E+00 -0.00000000000E+00 -0.45593999997E+02  0.45594000000E+02  0.51100000000E-03 0. -1.
    9900012    2    1    2    0    0 -0.37568706058E+02  0.14130378463E+02 -0.20445982757E+02  0.46142317840E+02  0.10000000716E+02 0.  0.
        -12    1    1    2    0    0  0.37568706058E+02 -0.14130378463E+02  0.20445982757E+02  0.45045682160E+02  0.00000000000E+00 0.  1.
         11    1    3    3    0    0 -0.65931156882E+01  0.34960489571E+01 -0.72165496050E+00  0.74974875079E+01  0.51100000000E-03 0. -1.
        -11    1    3    3    0    0 -0.49739528899E+01  0.20270527469E+01 -0.99077442374E+00  0.54617565315E+01  0.51100000000E-03 0.  1.
         12    1    3    3    0    0 -0.26001637480E+02  0.86072767589E+01 -0.18733553373E+02  0.33183073800E+02  0.00000000000E+00 0. -1.
</event>
<event>
 7    1  0.4141894E-008  0.4614232E+02  0.7816164E-02  0.1320468E+00
        -11   -1    0    0    0    0  0.00000000000E+00  0.00000000000E+00  0.45593999997E+02  0.45594000000E+02  0.51100000000E-03 0. -1.
         11   -1    0    0    0    0 -0.00000000000E+00 -0.00000000000E+00 -0.45593999997E+02  0.45594000000E+02  0.51100000000E-03 0.  1.
    9900012    2    1    2    0    0  0.12272140559E+02  0.32467072072E+02  0.28712310740E+02  0.46142323284E+02  0.10000050359E+02 0.  0.
        -12    1    1    2    0    0 -0.12272140559E+02 -0.32467072072E+02 -0.28712310740E+02  0.45045676716E+02  0.00000000000E+00 0.  1.
         11    1    3    3    0    0  0.10357528915E+02  0.19520349835E+02  0.13827461698E+02  0.26067626669E+02  0.51100000000E-03 0.  1.
        -11    1    3    3    0    0  0.23565327651E+01  0.52468115929E+01  0.60764842052E+01  0.83669551882E+01  0.51100000000E-03 0. -1.
        -12    1    3    3    0    0 -0.44192112128E+00  0.76999106434E+01  0.88083648371E+01  0.11707741426E+02  0.00000000000E+00 0.  1.
</event>
<event>
 7    1  0.4141894E-008  0.4614232E+02  0.7816164E-02  0.1320468E+00
        -11   -1    0    0    0    0  0.00000000000E+00  0.00000000000E+00  0.45593999997E+02  0.45594000000E+02  0.51100000000E-03 0.  1.
         11   -1    0    0    0    0 -0.00000000000E+00 -0.00000000000E+00 -0.45593999997E+02  0.45594000000E+02  0.51100000000E-03 0. -1.
    9900012    2    1    2    0    0 -0.29783807838E+02  0.19223978764E+02 -0.27793470715E+02  0.46142316708E+02  0.99999903965E+01 0.  0.
        -12    1    1    2    0    0  0.29783807838E+02 -0.19223978764E+02  0.27793470715E+02  0.45045683292E+02  0.00000000000E+00 0.  1.
         11    1    3    3    0    0 -0.69869606307E+01  0.50741492934E+01 -0.10067035145E+02  0.13263099441E+02  0.51100000000E-03 0. -1.
        -11    1    3    3    0    0 -0.19270750353E+02  0.14534222768E+02 -0.15703207321E+02  0.28795766547E+02  0.51100000000E-03 0.  1.
         12    1    3    3    0    0 -0.35260968541E+01 -0.38439329701E+00 -0.20232282501E+01  0.40834507200E+01  0.00000000000E+00 0. -1.
</event>
<event>
 7    1  0.4141894E-008  0.4614231E+02  0.7816164E-02  0.1320468E+00
        -11   -1    0    0    0    0  0.00000000000E+00  0.00000000000E+00  0.45593999997E+02  0.45594000000E+02  0.51100000000E-03 0. -1.
         11   -1    0    0    0    0 -0.00000000000E+00 -0.00000000000E+00 -0.45593999997E+02  0.45594000000E+02  0.51100000000E-03 0.  1.
    9900012    2    1    2    0    0  0.16204701969E+02 -0.13662172540E+01  0.42007795186E+02  0.46142314614E+02  0.99999713015E+01 0.  0.
        -12    1    1    2    0    0 -0.16204701969E+02  0.13662172540E+01 -0.42007795186E+02  0.45045685386E+02  0.00000000000E+00 0.  1.
         11    1    3    3    0    0  0.36500717156E+01 -0.43132941550E+01  0.17217468727E+02  0.18120948088E+02  0.51100000000E-03 0. -1.
        -11    1    3    3    0    0  0.13414619293E+01  0.10015934475E+01  0.35180376488E+01  0.38960619478E+01  0.51100000000E-03 0.  1.
         12    1    3    3    0    0  0.11213168324E+02  0.19454834535E+01  0.21272288811E+02  0.24125304578E+02  0.00000000000E+00 0. -1.
</event>
<event>
 7    1  0.4141894E-008  0.4614231E+02  0.7816164E-02  0.1320468E+00
        -11   -1    0    0    0    0  0.00000000000E+00  0.00000000000E+00  0.45593999997E+02  0.45594000000E+02  0.51100000000E-03 0.  1.
         11   -1    0    0    0    0 -0.00000000000E+00 -0.00000000000E+00 -0.45593999997E+02  0.45594000000E+02  0.51100000000E-03 0. -1.
    9900012    2    1    2    0    0 -0.13872372039E+02 -0.20151341326E+02 -0.37823200780E+02  0.46142314519E+02  0.99999704339E+01 0.  0.
        -12    1    1    2    0    0  0.13872372039E+02  0.20151341326E+02  0.37823200780E+02  0.45045685481E+02  0.00000000000E+00 0.  1.
         11    1    3    3    0    0 -0.96994429278E+01 -0.10583926747E+02 -0.20916095656E+02  0.25368913186E+02  0.51100000000E-03 0. -1.
        -11    1    3    3    0    0 -0.33714400008E+01 -0.12023226640E+01 -0.39572458014E+01  0.53359143604E+01  0.51100000000E-03 0.  1.
        -12    1    3    3    0    0 -0.80148911015E+00 -0.83650919150E+01 -0.12949859323E+02  0.15437486973E+02  0.00000000000E+00 0.  1.
</event>
<event>
 7    1  0.4141894E-008  0.4614232E+02  0.7816164E-02  0.1320468E+00
        -11   -1    0    0    0    0  0.00000000000E+00  0.00000000000E+00  0.45593999997E+02  0.45594000000E+02  0.51100000000E-03 0.  1.
         11   -1    0    0    0    0 -0.00000000000E+00 -0.00000000000E+00 -0.45593999997E+02  0.45594000000E+02  0.51100000000E-03 0. -1.
    9900012    2    1    2    0    0  0.18780356355E+02 -0.27469257682E+02 -0.30362008744E+02  0.46142317883E+02  0.10000001110E+02 0.  0.
        -12    1    1    2    0    0 -0.18780356355E+02  0.27469257682E+02  0.30362008744E+02  0.45045682117E+02  0.00000000000E+00 0.  1.
         11    1    3    3    0    0  0.58775406488E+01 -0.59102645222E+01 -0.10295990387E+02  0.13247042278E+02  0.51100000000E-03 0. -1.
        -11    1    3    3    0    0  0.47731868541E+01 -0.27061757825E+01 -0.50717842756E+01  0.74719272018E+01  0.51100000000E-03 0.  1.
         12    1    3    3    0    0  0.81296288517E+01 -0.18852817378E+02 -0.14994234082E+02  0.25423348403E+02  0.00000000000E+00 0. -1.
</event>
<event>
 7    1  0.4141894E-008  0.4614232E+02  0.7816164E-02  0.1320468E+00
        -11   -1    0    0    0    0  0.00000000000E+00  0.00000000000E+00  0.45593999997E+02  0.45594000000E+02  0.51100000000E-03 0. -1.
         11   -1    0    0    0    0 -0.00000000000E+00 -0.00000000000E+00 -0.45593999997E+02  0.45594000000E+02  0.51100000000E-03 0.  1.
    9900012    2    1    2    0    0  0.39493812417E+02 -0.17965794590E+02  0.12107123324E+02  0.46142318412E+02  0.10000005940E+02 0.  0.
        -12    1    1    2    0    0 -0.39493812417E+02  0.17965794590E+02 -0.12107123324E+02  0.45045681588E+02  0.00000000000E+00 0.  1.
         11    1    3    3    0    0  0.77809282145E+01 -0.47390292892E+01  0.30019685687E-01  0.91105512416E+01  0.51100000000E-03 0. -1.
        -11    1    3    3    0    0  0.20116154863E+02 -0.11755333453E+02  0.74756361126E+01  0.24469014827E+02  0.51100000000E-03 0.  1.
         12    1    3    3    0    0  0.11596729340E+02 -0.14714318482E+01  0.46014675256E+01  0.12562752344E+02  0.00000000000E+00 0. -1.
</event>
<event>
 7    1  0.4141894E-008  0.4614231E+02  0.7816164E-02  0.1320468E+00
        -11   -1    0    0    0    0  0.00000000000E+00  0.00000000000E+00  0.45593999997E+02  0.45594000000E+02  0.51100000000E-03 0.  1.
         11   -1    0    0    0    0 -0.00000000000E+00 -0.00000000000E+00 -0.45593999997E+02  0.45594000000E+02  0.51100000000E-03 0. -1.
    9900012    2    1    2    0    0 -0.99764195538E+01  0.13881238954E+02 -0.41676088944E+02  0.46142310620E+02  0.99999348832E+01 0.  0.
        -12    1    1    2    0    0  0.99764195538E+01 -0.13881238954E+02  0.41676088944E+02  0.45045689380E+02  0.00000000000E+00 0.  1.
         11    1    3    3    0    0 -0.18632314680E+01  0.52505273364E+01 -0.17568919116E+02  0.18431130947E+02  0.51100000000E-03 0. -1.
        -11    1    3    3    0    0 -0.90216725449E+01  0.58883068519E+01 -0.19265027475E+02  0.22072698452E+02  0.51100000000E-03 0.  1.
        -12    1    3    3    0    0  0.90848445921E+00  0.27424047658E+01 -0.48421423537E+01  0.56384812215E+01  0.00000000000E+00 0.  1.
</event>
<event>
 7    1  0.4141894E-008  0.4614232E+02  0.7816164E-02  0.1320468E+00
        -11   -1    0    0    0    0  0.00000000000E+00  0.00000000000E+00  0.45593999997E+02  0.45594000000E+02  0.51100000000E-03 0.  1.
         11   -1    0    0    0    0 -0.00000000000E+00 -0.00000000000E+00 -0.45593999997E+02  0.45594000000E+02  0.51100000000E-03 0. -1.
    9900012    2    1    2    0    0 -0.16543970205E+02 -0.19324825964E+02 -0.37174744858E+02  0.46142317588E+02  0.99999984190E+01 0.  0.
        -12    1    1    2    0    0  0.16543970205E+02  0.19324825964E+02  0.37174744858E+02  0.45045682412E+02  0.00000000000E+00 0.  1.
         11    1    3    3    0    0 -0.25606887745E+01 -0.40358391086E+01 -0.11583623638E+02  0.12530980056E+02  0.51100000000E-03 0. -1.
        -11    1    3    3    0    0 -0.20314666324E+01 -0.45611384426E+01 -0.10249562476E+02  0.11401068887E+02  0.51100000000E-03 0.  1.
        -12    1    3    3    0    0 -0.11951814798E+02 -0.10727848413E+02 -0.15341558745E+02  0.22210268645E+02  0.00000000000E+00 0.  1.
</event>
<event>
 7    1  0.4141894E-008  0.4614232E+02  0.7816164E-02  0.1320468E+00
        -11   -1    0    0    0    0  0.00000000000E+00  0.00000000000E+00  0.45593999997E+02  0.45594000000E+02  0.51100000000E-03 0.  1.
         11   -1    0    0    0    0 -0.00000000000E+00 -0.00000000000E+00 -0.45593999997E+02  0.45594000000E+02  0.51100000000E-03 0. -1.
    9900012    2    1    2    0    0  0.94234090544E+01 -0.39275951107E+02 -0.19942729163E+02  0.46142318520E+02  0.10000006916E+02 0.  0.
        -12    1    1    2    0    0 -0.94234090544E+01  0.39275951107E+02  0.19942729163E+02  0.45045681480E+02  0.00000000000E+00 0.  1.
         11    1    3    3    0    0  0.46680195664E+01 -0.24936367027E+02 -0.11882595371E+02  0.28014440565E+02  0.51100000000E-03 0. -1.
        -11    1    3    3    0    0  0.14197792845E+01 -0.42177435268E+01  0.47294358167E+00  0.44753558034E+01  0.51100000000E-03 0.  1.
         12    1    3    3    0    0  0.33356102035E+01 -0.10121840553E+02 -0.85330773739E+01  0.13652522151E+02  0.00000000000E+00 0. -1.
</event>
<event>
 7    1  0.4141894E-008  0.4614232E+02  0.7816164E-02  0.1320468E+00
        -11   -1    0    0    0    0  0.00000000000E+00  0.00000000000E+00  0.45593999997E+02  0.45594000000E+02  0.51100000000E-03 0.  1.
         11   -1    0    0    0    0 -0.00000000000E+00 -0.00000000000E+00 -0.45593999997E+02  0.45594000000E+02  0.51100000000E-03 0. -1.
    9900012    2    1    2    0    0 -0.11294793425E+02 -0.31320765007E+02 -0.30340579855E+02  0.46142318020E+02  0.10000002359E+02 0.  0.
        -12    1    1    2    0    0  0.11294793425E+02  0.31320765007E+02  0.30340579855E+02  0.45045681980E+02  0.00000000000E+00 0.  1.
         11    1    3    3    0    0 -0.53271071260E+01 -0.76588764305E+01 -0.97148494297E+01  0.13469029594E+02  0.51100000000E-03 0. -1.
        -11    1    3    3    0    0 -0.55751525921E+00 -0.15239186630E+02 -0.11167700277E+02  0.18901353447E+02  0.51100000000E-03 0.  1.
        -12    1    3    3    0    0 -0.54101710394E+01 -0.84227019465E+01 -0.94580301487E+01  0.13771934978E+02  0.00000000000E+00 0.  1.
</event>
<event>
 7    1  0.4141894E-008  0.4614232E+02  0.7816164E-02  0.1320468E+00
        -11   -1    0    0    0    0  0.00000000000E+00  0.00000000000E+00  0.45593999997E+02  0.45594000000E+02  0.51100000000E-03 0. -1.
         11   -1    0    0    0    0 -0.00000000000E+00 -0.00000000000E+00 -0.45593999997E+02  0.45594000000E+02  0.51100000000E-03 0.  1.
    9900012    2    1    2    0    0  0.38788764691E+02 -0.22900523711E+02 -0.33352704097E+00  0.46142317712E+02  0.99999995551E+01 0.  0.
        -12    1    1    2    0    0 -0.38788764691E+02  0.22900523711E+02  0.33352704097E+00  0.45045682288E+02  0.00000000000E+00 0.  1.
         11    1    3    3    0    0  0.34360513885E+02 -0.18141884235E+02 -0.18018306431E+01  0.38897550976E+02  0.51100000000E-03 0.  1.
        -11    1    3    3    0    0  0.36640190819E+01 -0.44839684926E+01  0.26959011013E+00  0.57968688413E+01  0.51100000000E-03 0. -1.
        -12    1    3    3    0    0  0.76423172391E+00 -0.27467098341E+00  0.11987134920E+01  0.14478978945E+01  0.00000000000E+00 0.  1.
</event>
<event>
 7    1  0.4141894E-008  0.4614232E+02  0.7816164E-02  0.1320468E+00
        -11   -1    0    0    0    0  0.00000000000E+00  0.00000000000E+00  0.45593999997E+02  0.45594000000E+02  0.51100000000E-03 0.  1.
         11   -1    0    0    0    0 -0.00000000000E+00 -0.00000000000E+00 -0.45593999997E+02  0.45594000000E+02  0.51100000000E-03 0. -1.
    9900012    2    1    2    0    0 -0.26602374285E+02  0.30257912514E+02  0.20146612807E+02  0.46142316578E+02  0.99999892141E+01 0.  0.
        -12    1    1    2    0    0  0.26602374285E+02 -0.30257912514E+02 -0.20146612807E+02  0.45045683422E+02  0.00000000000E+00 0.  1.
         11    1    3    3    0    0 -0.13859943583E+01  0.15244485302E+00  0.17641714479E+01  0.22486709304E+01  0.51100000000E-03 0. -1.
        -11    1    3    3    0    0 -0.37086275431E+01  0.40601449831E+01  0.53993257452E+01  0.77065825306E+01  0.51100000000E-03 0.  1.
         12    1    3    3    0    0 -0.21507752384E+02  0.26045322678E+02  0.12983115614E+02  0.36187063117E+02  0.00000000000E+00 0. -1.
</event>
<event>
 7    1  0.4141894E-008  0.4614232E+02  0.7816164E-02  0.1320468E+00
        -11   -1    0    0    0    0  0.00000000000E+00  0.00000000000E+00  0.45593999997E+02  0.45594000000E+02  0.51100000000E-03 0. -1.
         11   -1    0    0    0    0 -0.00000000000E+00 -0.00000000000E+00 -0.45593999997E+02  0.45594000000E+02  0.51100000000E-03 0.  1.
    9900012    2    1    2    0    0  0.41842108471E+02  0.98714014386E+01  0.13450165265E+02  0.46142317040E+02  0.99999934250E+01 0.  0.
        -12    1    1    2    0    0 -0.41842108471E+02 -0.98714014386E+01 -0.13450165265E+02  0.45045682960E+02  0.00000000000E+00 0.  1.
         11    1    3    3    0    0  0.21512112259E+02  0.36064933474E+01  0.11002820515E+02  0.24430305517E+02  0.51100000000E-03 0. -1.
        -11    1    3    3    0    0  0.74816063923E+01  0.69315269013E+00  0.11425623861E+00  0.75145159266E+01  0.51100000000E-03 0.  1.
        -12    1    3    3    0    0  0.12848389819E+02  0.55717554011E+01  0.23330885116E+01  0.14197495596E+02  0.00000000000E+00 0.  1.
</event>
<event>
 7    1  0.4141894E-008  0.4614232E+02  0.7816164E-02  0.1320468E+00
        -11   -1    0    0    0    0  0.00000000000E+00  0.00000000000E+00  0.45593999997E+02  0.45594000000E+02  0.51100000000E-03 0.  1.
         11   -1    0    0    0    0 -0.00000000000E+00 -0.00000000000E+00 -0.45593999997E+02  0.45594000000E+02  0.51100000000E-03 0. -1.
    9900012    2    1    2    0    0  0.12569939167E+02 -0.25823248089E+02 -0.34702592616E+02  0.46142318223E+02  0.10000004209E+02 0.  0.
        -12    1    1    2    0    0 -0.12569939167E+02  0.25823248089E+02  0.34702592616E+02  0.45045681777E+02  0.00000000000E+00 0.  1.
         11    1    3    3    0    0  0.66131184771E+00 -0.21902793712E+01 -0.48663546068E+01  0.53773659448E+01  0.51100000000E-03 0. -1.
        -11    1    3    3    0    0  0.10425940880E+01 -0.43453511193E+01 -0.10346705436E+02  0.11270465493E+02  0.51100000000E-03 0.  1.
         12    1    3    3    0    0  0.10866033231E+02 -0.19287617598E+02 -0.19489532573E+02  0.29494486785E+02  0.00000000000E+00 0. -1.
</event>
<event>
 7    1  0.4141894E-008  0.4614232E+02  0.7816164E-02  0.1320468E+00
        -11   -1    0    0    0    0  0.00000000000E+00  0.00000000000E+00  0.45593999997E+02  0.45594000000E+02  0.51100000000E-03 0.  1.
         11   -1    0    0    0    0 -0.00000000000E+00 -0.00000000000E+00 -0.45593999997E+02  0.45594000000E+02  0.51100000000E-03 0. -1.
    9900012    2    1    2    0    0  0.32608648749E+02  0.21839559691E+02 -0.22109338142E+02  0.46142321253E+02  0.10000031839E+02 0.  0.
        -12    1    1    2    0    0 -0.32608648749E+02 -0.21839559691E+02  0.22109338142E+02  0.45045678747E+02  0.00000000000E+00 0.  1.
         11    1    3    3    0    0  0.27837244261E+02  0.19557327222E+02 -0.17689201052E+02  0.38344609141E+02  0.51100000000E-03 0. -1.
        -11    1    3    3    0    0  0.45302434050E+01  0.15976606973E+01 -0.18843173158E+01  0.51600656023E+01  0.51100000000E-03 0.  1.
        -12    1    3    3    0    0  0.24116108371E+00  0.68457177130E+00 -0.25358197744E+01  0.26376465090E+01  0.00000000000E+00 0.  1.
</event>
<event>
 7    1  0.4141894E-008  0.4614232E+02  0.7816164E-02  0.1320468E+00
        -11   -1    0    0    0    0  0.00000000000E+00  0.00000000000E+00  0.45593999997E+02  0.45594000000E+02  0.51100000000E-03 0. -1.
         11   -1    0    0    0    0 -0.00000000000E+00 -0.00000000000E+00 -0.45593999997E+02  0.45594000000E+02  0.51100000000E-03 0.  1.
    9900012    2    1    2    0    0 -0.15047274721E+02  0.42452001502E+02  0.72150082097E+00  0.46142317949E+02  0.10000001712E+02 0.  0.
        -12    1    1    2    0    0  0.15047274721E+02 -0.42452001502E+02 -0.72150082097E+00  0.45045682051E+02  0.00000000000E+00 0.  1.
         11    1    3    3    0    0 -0.11999379818E+02  0.32484327925E+02  0.27818075216E+00  0.34630825308E+02  0.51100000000E-03 0. -1.
        -11    1    3    3    0    0 -0.27881661082E+01  0.22614607333E+01 -0.85990414677E+00  0.36915457871E+01  0.51100000000E-03 0.  1.
        -12    1    3    3    0    0 -0.25972879496E+00  0.77062128432E+01  0.13032242156E+01  0.78199468533E+01  0.00000000000E+00 0.  1.
</event>
<event>
 7    1  0.4141894E-008  0.4614231E+02  0.7816164E-02  0.1320468E+00
        -11   -1    0    0    0    0  0.00000000000E+00  0.00000000000E+00  0.45593999997E+02  0.45594000000E+02  0.51100000000E-03 0.  1.
         11   -1    0    0    0    0 -0.00000000000E+00 -0.00000000000E+00 -0.45593999997E+02  0.45594000000E+02  0.51100000000E-03 0. -1.
    9900012    2    1    2    0    0 -0.80128068666E-01  0.98962517097E+01 -0.43945101831E+02  0.46142309936E+02  0.99999286453E+01 0.  0.
        -12    1    1    2    0    0  0.80128068666E-01 -0.98962517097E+01  0.43945101831E+02  0.45045690064E+02  0.00000000000E+00 0.  1.
         11    1    3    3    0    0  0.18820788880E+00  0.77581068664E+01 -0.19932008250E+02  0.21389450612E+02  0.51100000000E-03 0. -1.
        -11    1    3    3    0    0  0.65239092802E+00  0.20582337530E+01 -0.28796204654E+01  0.35991880183E+01  0.51100000000E-03 0.  1.
        -12    1    3    3    0    0 -0.92072688548E+00  0.79911090259E-01 -0.21133473115E+02  0.21153671305E+02  0.00000000000E+00 0.  1.
</event>
<event>
 7    1  0.4141894E-008  0.4614232E+02  0.7816164E-02  0.1320468E+00
        -11   -1    0    0    0    0  0.00000000000E+00  0.00000000000E+00  0.45593999997E+02  0.45594000000E+02  0.51100000000E-03 0.  1.
         11   -1    0    0    0    0 -0.00000000000E+00 -0.00000000000E+00 -0.45593999997E+02  0.45594000000E+02  0.51100000000E-03 0. -1.
    9900012    2    1    2    0    0  0.29095672966E+02  0.34171479605E+02 -0.38555593022E+01  0.46142317174E+02  0.99999946436E+01 0.  0.
        -12    1    1    2    0    0 -0.29095672966E+02 -0.34171479605E+02  0.38555593022E+01  0.45045682826E+02  0.00000000000E+00 0.  1.
         11    1    3    3    0    0  0.87547620420E+01  0.16484385881E+02  0.12917270284E+00  0.18665409776E+02  0.51100000000E-03 0. -1.
        -11    1    3    3    0    0  0.14450870878E+02  0.12000058636E+02 -0.43515406202E+01  0.19281208013E+02  0.51100000000E-03 0.  1.
         12    1    3    3    0    0  0.58900400458E+01  0.56870350885E+01  0.36680861510E+00  0.81956993844E+01  0.00000000000E+00 0. -1.
</event>
<event>
 7    1  0.4141894E-008  0.4614232E+02  0.7816164E-02  0.1320468E+00
        -11   -1    0    0    0    0  0.00000000000E+00  0.00000000000E+00  0.45593999997E+02  0.45594000000E+02  0.51100000000E-03 0.  1.
         11   -1    0    0    0    0 -0.00000000000E+00 -0.00000000000E+00 -0.45593999997E+02  0.45594000000E+02  0.51100000000E-03 0. -1.
    9900012    2    1    2    0    0 -0.25759284261E+02 -0.60350353130E+01 -0.36457527520E+02  0.46142315526E+02  0.99999796168E+01 0.  0.
        -12    1    1    2    0    0  0.25759284261E+02  0.60350353130E+01  0.36457527520E+02  0.45045684474E+02  0.00000000000E+00 0.  1.
         11    1    3    3    0    0 -0.12578021019E+02 -0.14371227898E+01 -0.22725757015E+02  0.26014072476E+02  0.51100000000E-03 0. -1.
        -11    1    3    3    0    0  0.42006772823E-01  0.53176856965E+00 -0.49949144471E+00  0.73077653567E+00  0.51100000000E-03 0.  1.
        -12    1    3    3    0    0 -0.13223270015E+02 -0.51296810928E+01 -0.13232279061E+02  0.19397466514E+02  0.00000000000E+00 0.  1.
</event>
<event>
 7    1  0.4141894E-008  0.4614232E+02  0.7816164E-02  0.1320468E+00
        -11   -1    0    0    0    0  0.00000000000E+00  0.00000000000E+00  0.45593999997E+02  0.45594000000E+02  0.51100000000E-03 0.  1.
         11   -1    0    0    0    0 -0.00000000000E+00 -0.00000000000E+00 -0.45593999997E+02  0.45594000000E+02  0.51100000000E-03 0. -1.
    9900012    2    1    2    0    0  0.70658077106E+01 -0.44429717150E+02 -0.22777480229E+01  0.46142317181E+02  0.99999947069E+01 0.  0.
        -12    1    1    2    0    0 -0.70658077106E+01  0.44429717150E+02  0.22777480229E+01  0.45045682819E+02  0.00000000000E+00 0.  1.
         11    1    3    3    0    0  0.38251285922E+01 -0.12279614585E+02 -0.38148034071E+01  0.13415411600E+02  0.51100000000E-03 0. -1.
        -11    1    3    3    0    0  0.52166492083E+00 -0.27083047901E+00 -0.33613171946E+00  0.67710282228E+00  0.51100000000E-03 0.  1.
         12    1    3    3    0    0  0.27190141976E+01 -0.31879272086E+02  0.18731871036E+01  0.32049802759E+02  0.00000000000E+00 0. -1.
</event>
<event>
 7    1  0.4141894E-008  0.4614232E+02  0.7816164E-02  0.1320468E+00
        -11   -1    0    0    0    0  0.00000000000E+00  0.00000000000E+00  0.45593999997E+02  0.45594000000E+02  0.51100000000E-03 0.  1.
         11   -1    0    0    0    0 -0.00000000000E+00 -0.00000000000E+00 -0.45593999997E+02  0.45594000000E+02  0.51100000000E-03 0. -1.
    9900012    2    1    2    0    0  0.13123242313E+02  0.30477103567E+02 -0.30463751374E+02  0.46142317872E+02  0.10000001007E+02 0.  0.
        -12    1    1    2    0    0 -0.13123242313E+02 -0.30477103567E+02  0.30463751374E+02  0.45045682128E+02  0.00000000000E+00 0.  1.
         11    1    3    3    0    0  0.26372627596E+01  0.62073192506E+01 -0.49946368980E+01  0.83923992486E+01  0.51100000000E-03 0. -1.
        -11    1    3    3    0    0 -0.45504437655E+00  0.41957263455E+01 -0.11549920627E+01  0.43755218977E+01  0.51100000000E-03 0.  1.
        -12    1    3    3    0    0  0.10941023930E+02  0.20074057971E+02 -0.24314122413E+02  0.33374396725E+02  0.00000000000E+00 0.  1.
</event>
<event>
 7    1  0.4141894E-008  0.4614232E+02  0.7816164E-02  0.1320468E+00
        -11   -1    0    0    0    0  0.00000000000E+00  0.00000000000E+00  0.45593999997E+02  0.45594000000E+02  0.51100000000E-03 0. -1.
         11   -1    0    0    0    0 -0.00000000000E+00 -0.00000000000E+00 -0.45593999997E+02  0.45594000000E+02  0.51100000000E-03 0.  1.
    9900012    2    1    2    0    0 -0.57858459018E+01 -0.43745219443E+02  0.90550037695E+01  0.46142319517E+02  0.10000016008E+02 0.  0.
        -12    1    1    2    0    0  0.57858459018E+01  0.43745219443E+02 -0.90550037695E+01  0.45045680483E+02  0.00000000000E+00 0.  1.
         11    1    3    3    0    0 -0.47188661112E+01 -0.27962166941E+02  0.89230039295E+01  0.29728277394E+02  0.51100000000E-03 0. -1.
        -11    1    3    3    0    0 -0.10323997786E+01 -0.21971032023E+01  0.13427906507E+01  0.27742023677E+01  0.51100000000E-03 0.  1.
        -12    1    3    3    0    0 -0.34580011987E-01 -0.13585949300E+02 -0.12107908107E+01  0.13639839755E+02  0.00000000000E+00 0.  1.
</event>
<event>
 7    1  0.4141894E-008  0.4614232E+02  0.7816164E-02  0.1320468E+00
        -11   -1    0    0    0    0  0.00000000000E+00  0.00000000000E+00  0.45593999997E+02  0.45594000000E+02  0.51100000000E-03 0. -1.
         11   -1    0    0    0    0 -0.00000000000E+00 -0.00000000000E+00 -0.45593999997E+02  0.45594000000E+02  0.51100000000E-03 0.  1.
    9900012    2    1    2    0    0  0.14408540279E+02  0.37007114063E+02 -0.21259842781E+02  0.46142318305E+02  0.10000004963E+02 0.  0.
        -12    1    1    2    0    0 -0.14408540279E+02 -0.37007114063E+02  0.21259842781E+02  0.45045681695E+02  0.00000000000E+00 0.  1.
         11    1    3    3    0    0  0.13833577375E+01  0.89601092378E+00  0.81503720747E+00  0.18386952211E+01  0.51100000000E-03 0. -1.
        -11    1    3    3    0    0  0.71852966560E+01  0.18678352043E+02 -0.12117923404E+02  0.23395584860E+02  0.51100000000E-03 0.  1.
        -12    1    3    3    0    0  0.58398858856E+01  0.17432751097E+02 -0.99569565841E+01  0.20908038224E+02  0.00000000000E+00 0.  1.
</event>
<event>
 7    1  0.4141894E-008  0.4614232E+02  0.7816164E-02  0.1320468E+00
        -11   -1    0    0    0    0  0.00000000000E+00  0.00000000000E+00  0.45593999997E+02  0.45594000000E+02  0.51100000000E-03 0.  1.
         11   -1    0    0    0    0 -0.00000000000E+00 -0.00000000000E+00 -0.45593999997E+02  0.45594000000E+02  0.51100000000E-03 0. -1.
    9900012    2    1    2    0    0 -0.99185364237E+01  0.21435494213E+02 -0.38356950841E+02  0.46142318134E+02  0.10000003402E+02 0.  0.
        -12    1    1    2    0    0  0.99185364237E+01 -0.21435494213E+02  0.38356950841E+02  0.45045681866E+02  0.00000000000E+00 0.  1.
         11    1    3    3    0    0 -0.70175734844E+01  0.79034070169E+01 -0.17444611423E+02  0.20396682280E+02  0.51100000000E-03 0. -1.
        -11    1    3    3    0    0 -0.18865723755E+00  0.44054633064E+01 -0.26343335527E+01  0.51364785627E+01  0.51100000000E-03 0.  1.
         12    1    3    3    0    0 -0.27123057018E+01  0.91266238896E+01 -0.18278005866E+02  0.20609157292E+02  0.00000000000E+00 0. -1.
</event>
<event>
 7    1  0.4141894E-008  0.4614232E+02  0.7816164E-02  0.1320468E+00
        -11   -1    0    0    0    0  0.00000000000E+00  0.00000000000E+00  0.45593999997E+02  0.45594000000E+02  0.51100000000E-03 0.  1.
         11   -1    0    0    0    0 -0.00000000000E+00 -0.00000000000E+00 -0.45593999997E+02  0.45594000000E+02  0.51100000000E-03 0. -1.
    9900012    2    1    2    0    0 -0.31987571090E+02 -0.21719794527E+02 -0.23111886507E+02  0.46142317893E+02  0.10000001203E+02 0.  0.
        -12    1    1    2    0    0  0.31987571090E+02  0.21719794527E+02  0.23111886507E+02  0.45045682107E+02  0.00000000000E+00 0.  1.
         11    1    3    3    0    0 -0.14904377112E+02 -0.12035375644E+02 -0.16109427450E+02  0.25030069457E+02  0.51100000000E-03 0. -1.
        -11    1    3    3    0    0 -0.56402843333E+01 -0.25584813418E+01 -0.37670668846E+01  0.72490983792E+01  0.51100000000E-03 0.  1.
        -12    1    3    3    0    0 -0.11442909645E+02 -0.71259375409E+01 -0.32353921724E+01  0.13863150057E+02  0.00000000000E+00 0.  1.
</event>
<event>
 7    1  0.4141894E-008  0.4614232E+02  0.7816164E-02  0.1320468E+00
        -11   -1    0    0    0    0  0.00000000000E+00  0.00000000000E+00  0.45593999997E+02  0.45594000000E+02  0.51100000000E-03 0.  1.
         11   -1    0    0    0    0 -0.00000000000E+00 -0.00000000000E+00 -0.45593999997E+02  0.45594000000E+02  0.51100000000E-03 0. -1.
    9900012    2    1    2    0    0 -0.54769630651E+01  0.12284636946E+02 -0.42990743921E+02  0.46142317719E+02  0.99999996171E+01 0.  0.
        -12    1    1    2    0    0  0.54769630651E+01 -0.12284636946E+02  0.42990743921E+02  0.45045682281E+02  0.00000000000E+00 0.  1.
         11    1    3    3    0    0  0.18328843162E+01  0.40176788926E+01 -0.70743870772E+01  0.83395540276E+01  0.51100000000E-03 0. -1.
        -11    1    3    3    0    0 -0.63411252954E+00 -0.38128006293E+00 -0.12181721852E+01  0.14252778398E+01  0.51100000000E-03 0.  1.
         12    1    3    3    0    0 -0.66757348517E+01  0.86482381161E+01 -0.34698184658E+02  0.36377485852E+02  0.00000000000E+00 0. -1.
</event>
<event>
 7    1  0.4141894E-008  0.4614232E+02  0.7816164E-02  0.1320468E+00
        -11   -1    0    0    0    0  0.00000000000E+00  0.00000000000E+00  0.45593999997E+02  0.45594000000E+02  0.51100000000E-03 0. -1.
         11   -1    0    0    0    0 -0.00000000000E+00 -0.00000000000E+00 -0.45593999997E+02  0.45594000000E+02  0.51100000000E-03 0.  1.
    9900012    2    1    2    0    0 -0.32758355449E+02  0.69524374746E+01  0.30127516678E+02  0.46142317635E+02  0.99999988512E+01 0.  0.
        -12    1    1    2    0    0  0.32758355449E+02 -0.69524374746E+01 -0.30127516678E+02  0.45045682365E+02  0.00000000000E+00 0.  1.
         11    1    3    3    0    0 -0.22586301479E+02  0.50957029965E+01  0.21863024857E+02  0.31844922039E+02  0.51100000000E-03 0. -1.
        -11    1    3    3    0    0 -0.50055956045E+01  0.30380474710E+01  0.22290977317E+01  0.62653488929E+01  0.51100000000E-03 0.  1.
        -12    1    3    3    0    0 -0.51664583654E+01 -0.11813129929E+01  0.60353940893E+01  0.80320467031E+01  0.00000000000E+00 0.  1.
</event>
<event>
 7    1  0.4141894E-008  0.4614232E+02  0.7816164E-02  0.1320468E+00
        -11   -1    0    0    0    0  0.00000000000E+00  0.00000000000E+00  0.45593999997E+02  0.45594000000E+02  0.51100000000E-03 0.  1.
         11   -1    0    0    0    0 -0.00000000000E+00 -0.00000000000E+00 -0.45593999997E+02  0.45594000000E+02  0.51100000000E-03 0. -1.
    9900012    2    1    2    0    0 -0.25072471844E+02 -0.17333962419E+02 -0.33166524746E+02  0.46142318063E+02  0.10000002750E+02 0.  0.
        -12    1    1    2    0    0  0.25072471844E+02  0.17333962419E+02  0.33166524746E+02  0.45045681937E+02  0.00000000000E+00 0.  1.
         11    1    3    3    0    0 -0.54847471848E+01 -0.50605883615E+01 -0.98919368243E+01  0.12391223533E+02  0.51100000000E-03 0. -1.
        -11    1    3    3    0    0 -0.74209308201E+01 -0.71911350330E+01 -0.57678613069E+01  0.11834308667E+02  0.51100000000E-03 0.  1.
        -12    1    3    3    0    0 -0.12166793839E+02 -0.50822390245E+01 -0.17506726614E+02  0.21916785863E+02  0.00000000000E+00 0.  1.
</event>
<event>
 7    1  0.4141894E-008  0.4614232E+02  0.7816164E-02  0.1320468E+00
        -11   -1    0    0    0    0  0.00000000000E+00  0.00000000000E+00  0.45593999997E+02  0.45594000000E+02  0.51100000000E-03 0.  1.
         11   -1    0    0    0    0 -0.00000000000E+00 -0.00000000000E+00 -0.45593999997E+02  0.45594000000E+02  0.51100000000E-03 0. -1.
    9900012    2    1    2    0    0 -0.36437130138E+02  0.13620801884E+02 -0.22713933089E+02  0.46142318153E+02  0.10000003578E+02 0.  0.
        -12    1    1    2    0    0  0.36437130138E+02 -0.13620801884E+02  0.22713933089E+02  0.45045681847E+02  0.00000000000E+00 0.  1.
         11    1    3    3    0    0 -0.17238391336E+02  0.70197736889E+01 -0.98995797980E+01  0.21081770299E+02  0.51100000000E-03 0. -1.
        -11    1    3    3    0    0 -0.18722395361E+02  0.45054910560E+01 -0.12303149529E+02  0.22851586954E+02  0.51100000000E-03 0.  1.
        -12    1    3    3    0    0 -0.47634344085E+00  0.20955371393E+01 -0.51120376225E+00  0.22089609011E+01  0.00000000000E+00 0.  1.
</event>
<event>
 7    1  0.4141894E-008  0.4614232E+02  0.7816164E-02  0.1320468E+00
        -11   -1    0    0    0    0  0.00000000000E+00  0.00000000000E+00  0.45593999997E+02  0.45594000000E+02  0.51100000000E-03 0.  1.
         11   -1    0    0    0    0 -0.00000000000E+00 -0.00000000000E+00 -0.45593999997E+02  0.45594000000E+02  0.51100000000E-03 0. -1.
    9900012    2    1    2    0    0 -0.16834339406E+02 -0.46450419604E+01 -0.41522788998E+02  0.46142318695E+02  0.10000008519E+02 0.  0.
        -12    1    1    2    0    0  0.16834339406E+02  0.46450419604E+01  0.41522788998E+02  0.45045681305E+02  0.00000000000E+00 0.  1.
         11    1    3    3    0    0 -0.48097746673E+01 -0.48191449784E+01 -0.12300756301E+02  0.14059398867E+02  0.51100000000E-03 0. -1.
        -11    1    3    3    0    0 -0.18340314965E+00  0.11094995343E+01 -0.11855017154E+01  0.16340258597E+01  0.51100000000E-03 0.  1.
         12    1    3    3    0    0 -0.11841161589E+02 -0.93539651635E+00 -0.28036530981E+02  0.30448893968E+02  0.00000000000E+00 0. -1.
</event>
<event>
 7    1  0.4141894E-008  0.4614232E+02  0.7816164E-02  0.1320468E+00
        -11   -1    0    0    0    0  0.00000000000E+00  0.00000000000E+00  0.45593999997E+02  0.45594000000E+02  0.51100000000E-03 0.  1.
         11   -1    0    0    0    0 -0.00000000000E+00 -0.00000000000E+00 -0.45593999997E+02  0.45594000000E+02  0.51100000000E-03 0. -1.
    9900012    2    1    2    0    0 -0.19111310299E+02 -0.61438492076E-01 -0.40790532275E+02  0.46142317861E+02  0.10000000915E+02 0.  0.
        -12    1    1    2    0    0  0.19111310299E+02  0.61438492076E-01  0.40790532275E+02  0.45045682139E+02  0.00000000000E+00 0.  1.
         11    1    3    3    0    0 -0.15073864131E+02 -0.29893831841E+01 -0.28910599301E+02  0.32741113968E+02  0.51100000000E-03 0. -1.
        -11    1    3    3    0    0 -0.31766557276E+01  0.42281705566E-01 -0.65370052601E+01  0.72681061760E+01  0.51100000000E-03 0.  1.
        -12    1    3    3    0    0 -0.86079044085E+00  0.28856629865E+01 -0.53429277144E+01  0.61330977178E+01  0.00000000000E+00 0.  1.
</event>
<event>
 7    1  0.4141894E-008  0.4614232E+02  0.7816164E-02  0.1320468E+00
        -11   -1    0    0    0    0  0.00000000000E+00  0.00000000000E+00  0.45593999997E+02  0.45594000000E+02  0.51100000000E-03 0. -1.
         11   -1    0    0    0    0 -0.00000000000E+00 -0.00000000000E+00 -0.45593999997E+02  0.45594000000E+02  0.51100000000E-03 0.  1.
    9900012    2    1    2    0    0 -0.32546807370E+02  0.50465071361E+01  0.30730306663E+02  0.46142315946E+02  0.99999834503E+01 0.  0.
        -12    1    1    2    0    0  0.32546807370E+02 -0.50465071361E+01 -0.30730306663E+02  0.45045684054E+02  0.00000000000E+00 0.  1.
         11    1    3    3    0    0 -0.52058610419E+00  0.21343523522E+01  0.25713792272E+01  0.33820794264E+01  0.51100000000E-03 0. -1.
        -11    1    3    3    0    0 -0.24212268031E+02  0.20077498845E+01  0.20650772238E+02  0.31886037337E+02  0.51100000000E-03 0.  1.
         12    1    3    3    0    0 -0.78139532357E+01  0.90440489943E+00  0.75081551976E+01  0.10874199183E+02  0.00000000000E+00 0. -1.
</event>
<event>
 7    1  0.4141894E-008  0.4614232E+02  0.7816164E-02  0.1320468E+00
        -11   -1    0    0    0    0  0.00000000000E+00  0.00000000000E+00  0.45593999997E+02  0.45594000000E+02  0.51100000000E-03 0.  1.
         11   -1    0    0    0    0 -0.00000000000E+00 -0.00000000000E+00 -0.45593999997E+02  0.45594000000E+02  0.51100000000E-03 0. -1.
    9900012    2    1    2    0    0 -0.20599850719E+02 -0.25105463022E+02 -0.31216585983E+02  0.46142319145E+02  0.10000012621E+02 0.  0.
        -12    1    1    2    0    0  0.20599850719E+02  0.25105463022E+02  0.31216585983E+02  0.45045680855E+02  0.00000000000E+00 0.  1.
         11    1    3    3    0    0 -0.54717479809E+01 -0.88229705974E+01 -0.13428476381E+02  0.16973768418E+02  0.51100000000E-03 0. -1.
        -11    1    3    3    0    0 -0.11842687897E+02 -0.94160228413E+01 -0.14213744027E+02  0.20759124796E+02  0.51100000000E-03 0.  1.
         12    1    3    3    0    0 -0.32854148408E+01 -0.68664695837E+01 -0.35743655748E+01  0.84094259306E+01  0.00000000000E+00 0. -1.
</event>
<event>
 7    1  0.4141894E-008  0.4614232E+02  0.7816164E-02  0.1320468E+00
        -11   -1    0    0    0    0  0.00000000000E+00  0.00000000000E+00  0.45593999997E+02  0.45594000000E+02  0.51100000000E-03 0.  1.
         11   -1    0    0    0    0 -0.00000000000E+00 -0.00000000000E+00 -0.45593999997E+02  0.45594000000E+02  0.51100000000E-03 0. -1.
    9900012    2    1    2    0    0  0.27136208418E+02  0.16851329150E+02 -0.31761179315E+02  0.46142316379E+02  0.99999873956E+01 0.  0.
        -12    1    1    2    0    0 -0.27136208418E+02 -0.16851329150E+02  0.31761179315E+02  0.45045683621E+02  0.00000000000E+00 0.  1.
         11    1    3    3    0    0  0.28937149738E+01  0.26652581917E+01 -0.18417750170E+01  0.43438834068E+01  0.51100000000E-03 0. -1.
        -11    1    3    3    0    0  0.21176934618E+01  0.30058516609E+00 -0.79033484672E-01  0.21403793106E+01  0.51100000000E-03 0.  1.
         12    1    3    3    0    0  0.22124799982E+02  0.13885485792E+02 -0.29840370814E+02  0.39658053661E+02  0.00000000000E+00 0. -1.
</event>
<event>
 7    1  0.4141894E-008  0.4614233E+02  0.7816164E-02  0.1320468E+00
        -11   -1    0    0    0    0  0.00000000000E+00  0.00000000000E+00  0.45593999997E+02  0.45594000000E+02  0.51100000000E-03 0.  1.
         11   -1    0    0    0    0 -0.00000000000E+00 -0.00000000000E+00 -0.45593999997E+02  0.45594000000E+02  0.51100000000E-03 0. -1.
    9900012    2    1    2    0    0  0.40624663313E+02 -0.17142669715E+01 -0.19385826156E+02  0.46142331659E+02  0.10000126735E+02 0.  0.
        -12    1    1    2    0    0 -0.40624663313E+02  0.17142669715E+01  0.19385826156E+02  0.45045668341E+02  0.00000000000E+00 0.  1.
         11    1    3    3    0    0  0.27259075598E+02 -0.90776806338E+00 -0.12311012316E+02  0.29923941415E+02  0.51100000000E-03 0. -1.
        -11    1    3    3    0    0  0.13201051548E+02 -0.11659583100E+01 -0.50927714680E+01  0.14197307570E+02  0.51100000000E-03 0.  1.
        -12    1    3    3    0    0  0.16453616645E+00  0.35945940186E+00 -0.19820423718E+01  0.20210826740E+01  0.00000000000E+00 0.  1.
</event>
<event>
 7    1  0.4141894E-008  0.4614232E+02  0.7816164E-02  0.1320468E+00
        -11   -1    0    0    0    0  0.00000000000E+00  0.00000000000E+00  0.45593999997E+02  0.45594000000E+02  0.51100000000E-03 0.  1.
         11   -1    0    0    0    0 -0.00000000000E+00 -0.00000000000E+00 -0.45593999997E+02  0.45594000000E+02  0.51100000000E-03 0. -1.
    9900012    2    1    2    0    0 -0.34048877651E+02  0.19615666779E+02  0.22023012383E+02  0.46142317333E+02  0.99999960939E+01 0.  0.
        -12    1    1    2    0    0  0.34048877651E+02 -0.19615666779E+02 -0.22023012383E+02  0.45045682667E+02  0.00000000000E+00 0.  1.
         11    1    3    3    0    0 -0.74284793861E+01  0.22959443702E+01  0.48479501942E+01  0.91627663883E+01  0.51100000000E-03 0. -1.
        -11    1    3    3    0    0 -0.99163507159E+01  0.32924262867E+01  0.86340537743E+01  0.13554370779E+02  0.51100000000E-03 0.  1.
         12    1    3    3    0    0 -0.16704047549E+02  0.14027296123E+02  0.85410084148E+01  0.23425180166E+02  0.00000000000E+00 0. -1.
</event>
<event>
 7    1  0.4141894E-008  0.4614232E+02  0.7816164E-02  0.1320468E+00
        -11   -1    0    0    0    0  0.00000000000E+00  0.00000000000E+00  0.45593999997E+02  0.45594000000E+02  0.51100000000E-03 0. -1.
         11   -1    0    0    0    0 -0.00000000000E+00 -0.00000000000E+00 -0.45593999997E+02  0.45594000000E+02  0.51100000000E-03 0.  1.
    9900012    2    1    2    0    0  0.24212443540E+02 -0.32432371184E+02  0.19774035534E+02  0.46142316477E+02  0.99999882891E+01 0.  0.
        -12    1    1    2    0    0 -0.24212443540E+02  0.32432371184E+02 -0.19774035534E+02  0.45045683523E+02  0.00000000000E+00 0.  1.
         11    1    3    3    0    0  0.81857805277E+01 -0.92778227189E+01  0.44209702014E+01  0.13138872670E+02  0.51100000000E-03 0. -1.
        -11    1    3    3    0    0  0.36095933182E+01 -0.11777342618E+02  0.74963309105E+01  0.14419776019E+02  0.51100000000E-03 0.  1.
        -12    1    3    3    0    0  0.12417069694E+02 -0.11377205846E+02  0.78567344223E+01  0.18583667788E+02  0.00000000000E+00 0.  1.
</event>
<event>
 7    1  0.4141894E-008  0.4614232E+02  0.7816164E-02  0.1320468E+00
        -11   -1    0    0    0    0  0.00000000000E+00  0.00000000000E+00  0.45593999997E+02  0.45594000000E+02  0.51100000000E-03 0.  1.
         11   -1    0    0    0    0 -0.00000000000E+00 -0.00000000000E+00 -0.45593999997E+02  0.45594000000E+02  0.51100000000E-03 0. -1.
    9900012    2    1    2    0    0 -0.27872710618E+02  0.22096471495E+01 -0.35317742812E+02  0.46142317687E+02  0.99999993236E+01 0.  0.
        -12    1    1    2    0    0  0.27872710618E+02 -0.22096471495E+01  0.35317742812E+02  0.45045682313E+02  0.00000000000E+00 0.  1.
         11    1    3    3    0    0 -0.11902368243E+02  0.27594752021E+01 -0.17332188928E+02  0.21205797474E+02  0.51100000000E-03 0. -1.
        -11    1    3    3    0    0 -0.17885063271E+01  0.38162244684E+00 -0.62285955022E+01  0.64915169849E+01  0.51100000000E-03 0.  1.
        -12    1    3    3    0    0 -0.14181836047E+02 -0.93145049939E+00 -0.11756958382E+02  0.18445003228E+02  0.00000000000E+00 0.  1.
</event>
<event>
 7    1  0.4141894E-008  0.4614232E+02  0.7816164E-02  0.1320468E+00
        -11   -1    0    0    0    0  0.00000000000E+00  0.00000000000E+00  0.45593999997E+02  0.45594000000E+02  0.51100000000E-03 0.  1.
         11   -1    0    0    0    0 -0.00000000000E+00 -0.00000000000E+00 -0.45593999997E+02  0.45594000000E+02  0.51100000000E-03 0. -1.
    9900012    2    1    2    0    0  0.23800055925E+02 -0.17776819063E+02 -0.33862303462E+02  0.46142317035E+02  0.99999933775E+01 0.  0.
        -12    1    1    2    0    0 -0.23800055925E+02  0.17776819063E+02  0.33862303462E+02  0.45045682965E+02  0.00000000000E+00 0.  1.
         11    1    3    3    0    0  0.50686294363E+01 -0.70401354311E+01 -0.86152295142E+01  0.12226066051E+02  0.51100000000E-03 0. -1.
        -11    1    3    3    0    0  0.62304368211E+00 -0.13795532903E+01 -0.60233964722E-01  0.15149188434E+01  0.51100000000E-03 0.  1.
         12    1    3    3    0    0  0.18108382807E+02 -0.93571303411E+01 -0.25186839983E+02  0.32401332140E+02  0.00000000000E+00 0. -1.
</event>
<event>
 7    1  0.4141894E-008  0.4614232E+02  0.7816164E-02  0.1320468E+00
        -11   -1    0    0    0    0  0.00000000000E+00  0.00000000000E+00  0.45593999997E+02  0.45594000000E+02  0.51100000000E-03 0.  1.
         11   -1    0    0    0    0 -0.00000000000E+00 -0.00000000000E+00 -0.45593999997E+02  0.45594000000E+02  0.51100000000E-03 0. -1.
    9900012    2    1    2    0    0  0.12222785070E+02 -0.43208356453E+02  0.35713979235E+01  0.46142318460E+02  0.10000006373E+02 0.  0.
        -12    1    1    2    0    0 -0.12222785070E+02  0.43208356453E+02 -0.35713979235E+01  0.45045681540E+02  0.00000000000E+00 0.  1.
         11    1    3    3    0    0  0.11493499583E+02 -0.26007375824E+02  0.13090550774E+01  0.28463972937E+02  0.51100000000E-03 0. -1.
        -11    1    3    3    0    0  0.12419903063E-01 -0.82195869250E+00  0.91248179597E+00  0.12281667783E+01  0.51100000000E-03 0.  1.
         12    1    3    3    0    0  0.71686558425E+00 -0.16379021937E+02  0.13498610501E+01  0.16450178745E+02  0.00000000000E+00 0. -1.
</event>
<event>
 7    1  0.4141894E-008  0.4614232E+02  0.7816164E-02  0.1320468E+00
        -11   -1    0    0    0    0  0.00000000000E+00  0.00000000000E+00  0.45593999997E+02  0.45594000000E+02  0.51100000000E-03 0. -1.
         11   -1    0    0    0    0 -0.00000000000E+00 -0.00000000000E+00 -0.45593999997E+02  0.45594000000E+02  0.51100000000E-03 0.  1.
    9900012    2    1    2    0    0 -0.30746129745E+02  0.29890299947E+02  0.13797062644E+02  0.46142318045E+02  0.10000002587E+02 0.  0.
        -12    1    1    2    0    0  0.30746129745E+02 -0.29890299947E+02 -0.13797062644E+02  0.45045681955E+02  0.00000000000E+00 0.  1.
         11    1    3    3    0    0 -0.69526147067E+01  0.94339654815E+01  0.42002991795E+01  0.12449139305E+02  0.51100000000E-03 0. -1.
        -11    1    3    3    0    0 -0.13621375662E+02  0.70552347406E+01  0.61046184602E+01  0.16510135644E+02  0.51100000000E-03 0.  1.
         12    1    3    3    0    0 -0.10172139376E+02  0.13401099725E+02  0.34921450041E+01  0.17183043096E+02  0.00000000000E+00 0. -1.
</event>
<event>
 7    1  0.4141894E-008  0.4614232E+02  0.7816164E-02  0.1320468E+00
        -11   -1    0    0    0    0  0.00000000000E+00  0.00000000000E+00  0.45593999997E+02  0.45594000000E+02  0.51100000000E-03 0. -1.
         11   -1    0    0    0    0 -0.00000000000E+00 -0.00000000000E+00 -0.45593999997E+02  0.45594000000E+02  0.51100000000E-03 0.  1.
    9900012    2    1    2    0    0 -0.39183495496E+02  0.85300379926E+01  0.20518420318E+02  0.46142318301E+02  0.10000004921E+02 0.  0.
        -12    1    1    2    0    0  0.39183495496E+02 -0.85300379926E+01 -0.20518420318E+02  0.45045681699E+02  0.00000000000E+00 0.  1.
         11    1    3    3    0    0 -0.23504320563E+02  0.71457676591E+01  0.15025713688E+02  0.28797346278E+02  0.51100000000E-03 0. -1.
        -11    1    3    3    0    0 -0.78738311575E+01  0.28441893752E+01  0.39455759392E+01  0.92549554322E+01  0.51100000000E-03 0.  1.
        -12    1    3    3    0    0 -0.78053437758E+01 -0.14599190417E+01  0.15471306901E+01  0.80900165908E+01  0.00000000000E+00 0.  1.
</event>
<event>
 7    1  0.4141894E-008  0.4614232E+02  0.7816164E-02  0.1320468E+00
        -11   -1    0    0    0    0  0.00000000000E+00  0.00000000000E+00  0.45593999997E+02  0.45594000000E+02  0.51100000000E-03 0. -1.
         11   -1    0    0    0    0 -0.00000000000E+00 -0.00000000000E+00 -0.45593999997E+02  0.45594000000E+02  0.51100000000E-03 0.  1.
    9900012    2    1    2    0    0 -0.13697941961E+02 -0.35793875346E+02  0.23670198311E+02  0.46142318583E+02  0.10000007492E+02 0.  0.
        -12    1    1    2    0    0  0.13697941961E+02  0.35793875346E+02 -0.23670198311E+02  0.45045681417E+02  0.00000000000E+00 0.  1.
         11    1    3    3    0    0 -0.82630777005E+01 -0.94079789208E+01  0.81927517063E+01  0.14963612573E+02  0.51100000000E-03 0. -1.
        -11    1    3    3    0    0 -0.14622416819E+01 -0.11822541026E+02  0.78415049752E+01  0.14261831144E+02  0.51100000000E-03 0.  1.
         12    1    3    3    0    0 -0.39726225787E+01 -0.14563355399E+02  0.76359416296E+01  0.16916874865E+02  0.00000000000E+00 0. -1.
</event>
<event>
 7    1  0.4141894E-008  0.4614232E+02  0.7816164E-02  0.1320468E+00
        -11   -1    0    0    0    0  0.00000000000E+00  0.00000000000E+00  0.45593999997E+02  0.45594000000E+02  0.51100000000E-03 0. -1.
         11   -1    0    0    0    0 -0.00000000000E+00 -0.00000000000E+00 -0.45593999997E+02  0.45594000000E+02  0.51100000000E-03 0.  1.
    9900012    2    1    2    0    0 -0.38622477191E+02 -0.22778363843E+02 -0.43085958273E+01  0.46142316503E+02  0.99999885294E+01 0.  0.
        -12    1    1    2    0    0  0.38622477191E+02  0.22778363843E+02  0.43085958273E+01  0.45045683497E+02  0.00000000000E+00 0.  1.
         11    1    3    3    0    0 -0.20465571295E+02 -0.13063635763E+02 -0.35055735891E+01  0.24531352067E+02  0.51100000000E-03 0. -1.
        -11    1    3    3    0    0 -0.16921587023E+02 -0.85517058205E+01  0.11857717217E+01  0.18996784850E+02  0.51100000000E-03 0.  1.
        -12    1    3    3    0    0 -0.12353188726E+01 -0.11630222596E+01 -0.19887939599E+01  0.26141795861E+01  0.00000000000E+00 0.  1.
</event>
<event>
 7    1  0.4141894E-008  0.4614232E+02  0.7816164E-02  0.1320468E+00
        -11   -1    0    0    0    0  0.00000000000E+00  0.00000000000E+00  0.45593999997E+02  0.45594000000E+02  0.51100000000E-03 0.  1.
         11   -1    0    0    0    0 -0.00000000000E+00 -0.00000000000E+00 -0.45593999997E+02  0.45594000000E+02  0.51100000000E-03 0. -1.
    9900012    2    1    2    0    0  0.17786102886E+02 -0.17712102478E+02 -0.37403868852E+02  0.46142318352E+02  0.10000005385E+02 0.  0.
        -12    1    1    2    0    0 -0.17786102886E+02  0.17712102478E+02  0.37403868852E+02  0.45045681648E+02  0.00000000000E+00 0.  1.
         11    1    3    3    0    0  0.64197792689E+01 -0.49538981958E+01 -0.98167189142E+01  0.12732739049E+02  0.51100000000E-03 0. -1.
        -11    1    3    3    0    0  0.78450701876E+00 -0.25832195337E+01 -0.72105454676E+00  0.27943504330E+01  0.51100000000E-03 0.  1.
        -12    1    3    3    0    0  0.10581816598E+02 -0.10174984748E+02 -0.26866095391E+02  0.30615228869E+02  0.00000000000E+00 0.  1.
</event>
<event>
 7    1  0.4141894E-008  0.4614232E+02  0.7816164E-02  0.1320468E+00
        -11   -1    0    0    0    0  0.00000000000E+00  0.00000000000E+00  0.45593999997E+02  0.45594000000E+02  0.51100000000E-03 0. -1.
         11   -1    0    0    0    0 -0.00000000000E+00 -0.00000000000E+00 -0.45593999997E+02  0.45594000000E+02  0.51100000000E-03 0.  1.
    9900012    2    1    2    0    0  0.18955710873E+02 -0.40474671788E+02  0.56209864867E+01  0.46142317409E+02  0.99999967870E+01 0.  0.
        -12    1    1    2    0    0 -0.18955710873E+02  0.40474671788E+02 -0.56209864867E+01  0.45045682591E+02  0.00000000000E+00 0.  1.
         11    1    3    3    0    0  0.10224045474E+02 -0.26387866399E+02  0.34054121740E+01  0.28503463496E+02  0.51100000000E-03 0. -1.
        -11    1    3    3    0    0  0.53506801578E+01 -0.73262154412E+01  0.39319800510E+01  0.98875516800E+01  0.51100000000E-03 0.  1.
        -12    1    3    3    0    0  0.33809852417E+01 -0.67605899472E+01 -0.17164057384E+01  0.77513022324E+01  0.00000000000E+00 0.  1.
</event>
<event>
 7    1  0.4141894E-008  0.4614232E+02  0.7816164E-02  0.1320468E+00
        -11   -1    0    0    0    0  0.00000000000E+00  0.00000000000E+00  0.45593999997E+02  0.45594000000E+02  0.51100000000E-03 0.  1.
         11   -1    0    0    0    0 -0.00000000000E+00 -0.00000000000E+00 -0.45593999997E+02  0.45594000000E+02  0.51100000000E-03 0. -1.
    9900012    2    1    2    0    0  0.34711573252E+02  0.27258979313E+02 -0.90093396123E+01  0.46142317954E+02  0.10000001754E+02 0.  0.
        -12    1    1    2    0    0 -0.34711573252E+02 -0.27258979313E+02  0.90093396123E+01  0.45045682046E+02  0.00000000000E+00 0.  1.
         11    1    3    3    0    0  0.25387458957E+02  0.18382832062E+02 -0.84182175090E+01  0.32454860548E+02  0.51100000000E-03 0. -1.
        -11    1    3    3    0    0  0.31351592591E+01  0.15028421150E+01 -0.19168302073E+01  0.39701380715E+01  0.51100000000E-03 0.  1.
        -12    1    3    3    0    0  0.61889550358E+01  0.73733051357E+01  0.13257081040E+01  0.97173193339E+01  0.00000000000E+00 0.  1.
</event>
<event>
 7    1  0.4141894E-008  0.4614232E+02  0.7816164E-02  0.1320468E+00
        -11   -1    0    0    0    0  0.00000000000E+00  0.00000000000E+00  0.45593999997E+02  0.45594000000E+02  0.51100000000E-03 0.  1.
         11   -1    0    0    0    0 -0.00000000000E+00 -0.00000000000E+00 -0.45593999997E+02  0.45594000000E+02  0.51100000000E-03 0. -1.
    9900012    2    1    2    0    0 -0.48370127046E+01  0.30970663455E+00 -0.44784157741E+02  0.46142318801E+02  0.10000009480E+02 0.  0.
        -12    1    1    2    0    0  0.48370127046E+01 -0.30970663455E+00  0.44784157741E+02  0.45045681199E+02  0.00000000000E+00 0.  1.
         11    1    3    3    0    0 -0.32953535447E+01 -0.24535213917E+01 -0.70254747305E+01  0.81385758984E+01  0.51100000000E-03 0. -1.
        -11    1    3    3    0    0 -0.68157946100E+00 -0.44810605829E+00 -0.40371861714E+01  0.41187646260E+01  0.51100000000E-03 0.  1.
         12    1    3    3    0    0 -0.86007969894E+00  0.32113340846E+01 -0.33721496839E+02  0.33884978276E+02  0.00000000000E+00 0. -1.
</event>
<event>
 7    1  0.4141894E-008  0.4614232E+02  0.7816164E-02  0.1320468E+00
        -11   -1    0    0    0    0  0.00000000000E+00  0.00000000000E+00  0.45593999997E+02  0.45594000000E+02  0.51100000000E-03 0.  1.
         11   -1    0    0    0    0 -0.00000000000E+00 -0.00000000000E+00 -0.45593999997E+02  0.45594000000E+02  0.51100000000E-03 0. -1.
    9900012    2    1    2    0    0  0.29083732185E+02  0.34340851682E+02  0.19889572723E+01  0.46142317375E+02  0.99999964796E+01 0.  0.
        -12    1    1    2    0    0 -0.29083732185E+02 -0.34340851682E+02 -0.19889572723E+01  0.45045682625E+02  0.00000000000E+00 0.  1.
         11    1    3    3    0    0  0.96930927923E+01  0.11756835391E+02 -0.19121402870E+01  0.15356936772E+02  0.51100000000E-03 0. -1.
        -11    1    3    3    0    0  0.18010909889E+02  0.17587937409E+02  0.19578605007E+01  0.25249982878E+02  0.51100000000E-03 0.  1.
        -12    1    3    3    0    0  0.13797295040E+01  0.49960788825E+01  0.19432370586E+01  0.55353977247E+01  0.00000000000E+00 0.  1.
</event>
<event>
 7    1  0.4141894E-008  0.4614232E+02  0.7816164E-02  0.1320468E+00
        -11   -1    0    0    0    0  0.00000000000E+00  0.00000000000E+00  0.45593999997E+02  0.45594000000E+02  0.51100000000E-03 0.  1.
         11   -1    0    0    0    0 -0.00000000000E+00 -0.00000000000E+00 -0.45593999997E+02  0.45594000000E+02  0.51100000000E-03 0. -1.
    9900012    2    1    2    0    0 -0.33043477606E+02  0.26771924216E+02 -0.14849450734E+02  0.46142317348E+02  0.99999962309E+01 0.  0.
        -12    1    1    2    0    0  0.33043477606E+02 -0.26771924216E+02  0.14849450734E+02  0.45045682652E+02  0.00000000000E+00 0.  1.
         11    1    3    3    0    0 -0.97787647397E+01  0.10669244403E+02 -0.57877028102E+01  0.15586998429E+02  0.51100000000E-03 0. -1.
        -11    1    3    3    0    0 -0.25535953561E+01  0.48694393801E+01 -0.28292938851E+01  0.61836229888E+01  0.51100000000E-03 0.  1.
         12    1    3    3    0    0 -0.20711117510E+02  0.11233240434E+02 -0.62324540385E+01  0.24371695930E+02  0.00000000000E+00 0. -1.
</event>
<event>
 7    1  0.4141894E-008  0.4614232E+02  0.7816164E-02  0.1320468E+00
        -11   -1    0    0    0    0  0.00000000000E+00  0.00000000000E+00  0.45593999997E+02  0.45594000000E+02  0.51100000000E-03 0.  1.
         11   -1    0    0    0    0 -0.00000000000E+00 -0.00000000000E+00 -0.45593999997E+02  0.45594000000E+02  0.51100000000E-03 0. -1.
    9900012    2    1    2    0    0 -0.40353737358E+02  0.89490030458E+01 -0.17905437167E+02  0.46142318138E+02  0.10000003437E+02 0.  0.
        -12    1    1    2    0    0  0.40353737358E+02 -0.89490030458E+01  0.17905437167E+02  0.45045681862E+02  0.00000000000E+00 0.  1.
         11    1    3    3    0    0 -0.74826088046E+01 -0.34743746932E+00 -0.13766011449E+01  0.76161130697E+01  0.51100000000E-03 0. -1.
        -11    1    3    3    0    0 -0.33106512979E+00  0.67554869491E+00 -0.14647285686E+01  0.16466329889E+01  0.51100000000E-03 0.  1.
         12    1    3    3    0    0 -0.32540063424E+02  0.86208918202E+01 -0.15064107453E+02  0.36879572079E+02  0.00000000000E+00 0. -1.
</event>
<event>
 7    1  0.4141894E-008  0.4614232E+02  0.7816164E-02  0.1320468E+00
        -11   -1    0    0    0    0  0.00000000000E+00  0.00000000000E+00  0.45593999997E+02  0.45594000000E+02  0.51100000000E-03 0.  1.
         11   -1    0    0    0    0 -0.00000000000E+00 -0.00000000000E+00 -0.45593999997E+02  0.45594000000E+02  0.51100000000E-03 0. -1.
    9900012    2    1    2    0    0  0.20453770648E+02  0.65819623218E+01 -0.39590838430E+02  0.46142318194E+02  0.10000003949E+02 0.  0.
        -12    1    1    2    0    0 -0.20453770648E+02 -0.65819623218E+01  0.39590838430E+02  0.45045681806E+02  0.00000000000E+00 0.  1.
         11    1    3    3    0    0  0.87151170148E+01  0.50507509329E+01 -0.26411833504E+02  0.28267442383E+02  0.51100000000E-03 0. -1.
        -11    1    3    3    0    0  0.34920048912E+01 -0.49228107925E+00 -0.30958519442E+01  0.46926259539E+01  0.51100000000E-03 0.  1.
         12    1    3    3    0    0  0.82466487418E+01  0.20234924681E+01 -0.10083152982E+02  0.13182249857E+02  0.00000000000E+00 0. -1.
</event>
<event>
 7    1  0.4141894E-008  0.4614232E+02  0.7816164E-02  0.1320468E+00
        -11   -1    0    0    0    0  0.00000000000E+00  0.00000000000E+00  0.45593999997E+02  0.45594000000E+02  0.51100000000E-03 0.  1.
         11   -1    0    0    0    0 -0.00000000000E+00 -0.00000000000E+00 -0.45593999997E+02  0.45594000000E+02  0.51100000000E-03 0. -1.
    9900012    2    1    2    0    0  0.93723134245E+01  0.34592136997E+02 -0.27288408177E+02  0.46142318500E+02  0.10000006737E+02 0.  0.
        -12    1    1    2    0    0 -0.93723134245E+01 -0.34592136997E+02  0.27288408177E+02  0.45045681500E+02  0.00000000000E+00 0.  1.
         11    1    3    3    0    0  0.19340641220E+01  0.11499773121E+02 -0.50337065392E+01  0.12701322280E+02  0.51100000000E-03 0.  1.
        -11    1    3    3    0    0  0.32632998453E+00  0.97256408714E+01 -0.10097255742E+02  0.14023164957E+02  0.51100000000E-03 0. -1.
        -12    1    3    3    0    0  0.71119193180E+01  0.13366723005E+02 -0.12157445896E+02  0.19417831263E+02  0.00000000000E+00 0.  1.
</event>
<event>
 7    1  0.4141894E-008  0.4614232E+02  0.7816164E-02  0.1320468E+00
        -11   -1    0    0    0    0  0.00000000000E+00  0.00000000000E+00  0.45593999997E+02  0.45594000000E+02  0.51100000000E-03 0. -1.
         11   -1    0    0    0    0 -0.00000000000E+00 -0.00000000000E+00 -0.45593999997E+02  0.45594000000E+02  0.51100000000E-03 0.  1.
    9900012    2    1    2    0    0  0.20005919940E+02 -0.32704498120E+02  0.23649366112E+02  0.46142317106E+02  0.99999940225E+01 0.  0.
        -12    1    1    2    0    0 -0.20005919940E+02  0.32704498120E+02 -0.23649366112E+02  0.45045682894E+02  0.00000000000E+00 0.  1.
         11    1    3    3    0    0  0.94770463643E+01 -0.73936437166E+01  0.79511626234E+01  0.14411847991E+02  0.51100000000E-03 0.  1.
        -11    1    3    3    0    0  0.99441735546E+01 -0.21389854304E+02  0.12981259094E+02  0.26924441364E+02  0.51100000000E-03 0. -1.
         12    1    3    3    0    0  0.58470002102E+00 -0.39210000996E+01  0.27169443948E+01  0.48060277506E+01  0.00000000000E+00 0. -1.
</event>
<event>
 7    1  0.4141894E-008  0.4614232E+02  0.7816164E-02  0.1320468E+00
        -11   -1    0    0    0    0  0.00000000000E+00  0.00000000000E+00  0.45593999997E+02  0.45594000000E+02  0.51100000000E-03 0.  1.
         11   -1    0    0    0    0 -0.00000000000E+00 -0.00000000000E+00 -0.45593999997E+02  0.45594000000E+02  0.51100000000E-03 0. -1.
    9900012    2    1    2    0    0 -0.28809951773E+01  0.48713381597E+01 -0.44688739327E+02  0.46142317728E+02  0.99999996979E+01 0.  0.
        -12    1    1    2    0    0  0.28809951773E+01 -0.48713381597E+01  0.44688739327E+02  0.45045682272E+02  0.00000000000E+00 0.  1.
         11    1    3    3    0    0  0.17772210166E+01  0.53159626537E+00 -0.50485010936E+01  0.53785195625E+01  0.51100000000E-03 0. -1.
        -11    1    3    3    0    0 -0.20292033843E+01 -0.12371830719E+01 -0.45225866440E+01  0.51090193326E+01  0.51100000000E-03 0.  1.
         12    1    3    3    0    0 -0.26290128096E+01  0.55769249662E+01 -0.35117651590E+02  0.35654778833E+02  0.00000000000E+00 0. -1.
</event>
<event>
 7    1  0.4141894E-008  0.4614232E+02  0.7816164E-02  0.1320468E+00
        -11   -1    0    0    0    0  0.00000000000E+00  0.00000000000E+00  0.45593999997E+02  0.45594000000E+02  0.51100000000E-03 0.  1.
         11   -1    0    0    0    0 -0.00000000000E+00 -0.00000000000E+00 -0.45593999997E+02  0.45594000000E+02  0.51100000000E-03 0. -1.
    9900012    2    1    2    0    0 -0.26451425786E+02  0.52518997213E+01 -0.36081195986E+02  0.46142322287E+02  0.10000041273E+02 0.  0.
        -12    1    1    2    0    0  0.26451425786E+02 -0.52518997213E+01  0.36081195986E+02  0.45045677713E+02  0.00000000000E+00 0.  1.
         11    1    3    3    0    0 -0.17970582950E+01  0.16195573536E+00 -0.84042678516E+00  0.19904686931E+01  0.51100000000E-03 0. -1.
        -11    1    3    3    0    0 -0.45712451067E+01  0.45964589623E+01 -0.77668799047E+01  0.10116725781E+02  0.51100000000E-03 0.  1.
         12    1    3    3    0    0 -0.20083122384E+02  0.49348502360E+00 -0.27473889297E+02  0.34035127813E+02  0.00000000000E+00 0. -1.
</event>
<event>
 7    1  0.4141894E-008  0.4614232E+02  0.7816164E-02  0.1320468E+00
        -11   -1    0    0    0    0  0.00000000000E+00  0.00000000000E+00  0.45593999997E+02  0.45594000000E+02  0.51100000000E-03 0.  1.
         11   -1    0    0    0    0 -0.00000000000E+00 -0.00000000000E+00 -0.45593999997E+02  0.45594000000E+02  0.51100000000E-03 0. -1.
    9900012    2    1    2    0    0 -0.37230765822E+02 -0.13922732100E+02 -0.21192949228E+02  0.46142317745E+02  0.99999998539E+01 0.  0.
        -12    1    1    2    0    0  0.37230765822E+02  0.13922732100E+02  0.21192949228E+02  0.45045682255E+02  0.00000000000E+00 0.  1.
         11    1    3    3    0    0 -0.22031689067E+02 -0.96789392708E+01 -0.17042456271E+02  0.29487666991E+02  0.51100000000E-03 0.  1.
        -11    1    3    3    0    0 -0.15766714883E+01  0.25168415143E+00 -0.12297470995E+01  0.20153203427E+01  0.51100000000E-03 0. -1.
        -12    1    3    3    0    0 -0.13622405266E+02 -0.44954769807E+01 -0.29207458577E+01  0.14639330411E+02  0.00000000000E+00 0.  1.
</event>
<event>
 7    1  0.4141894E-008  0.4614232E+02  0.7816164E-02  0.1320468E+00
        -11   -1    0    0    0    0  0.00000000000E+00  0.00000000000E+00  0.45593999997E+02  0.45594000000E+02  0.51100000000E-03 0.  1.
         11   -1    0    0    0    0 -0.00000000000E+00 -0.00000000000E+00 -0.45593999997E+02  0.45594000000E+02  0.51100000000E-03 0. -1.
    9900012    2    1    2    0    0  0.31855952966E+02 -0.16583516650E+02 -0.27190047792E+02  0.46142318045E+02  0.10000002593E+02 0.  0.
        -12    1    1    2    0    0 -0.31855952966E+02  0.16583516650E+02  0.27190047792E+02  0.45045681955E+02  0.00000000000E+00 0.  1.
         11    1    3    3    0    0  0.58148177524E+01 -0.11968417858E+01 -0.14260982514E+01  0.61055951584E+01  0.51100000000E-03 0. -1.
        -11    1    3    3    0    0  0.10528795701E+02 -0.49133624034E+01 -0.71657114268E+01  0.13650790803E+02  0.51100000000E-03 0.  1.
        -12    1    3    3    0    0  0.15512339512E+02 -0.10473312461E+02 -0.18598238113E+02  0.26385932084E+02  0.00000000000E+00 0.  1.
</event>
<event>
 7    1  0.4141894E-008  0.4614232E+02  0.7816164E-02  0.1320468E+00
        -11   -1    0    0    0    0  0.00000000000E+00  0.00000000000E+00  0.45593999997E+02  0.45594000000E+02  0.51100000000E-03 0.  1.
         11   -1    0    0    0    0 -0.00000000000E+00 -0.00000000000E+00 -0.45593999997E+02  0.45594000000E+02  0.51100000000E-03 0. -1.
    9900012    2    1    2    0    0 -0.24783064533E+02  0.89232379898E+01 -0.36541606328E+02  0.46142318110E+02  0.10000003185E+02 0.  0.
        -12    1    1    2    0    0  0.24783064533E+02 -0.89232379898E+01  0.36541606328E+02  0.45045681890E+02  0.00000000000E+00 0.  1.
         11    1    3    3    0    0 -0.53331286111E+00  0.50453978445E+00 -0.39230590915E+01  0.39911622241E+01  0.51100000000E-03 0. -1.
        -11    1    3    3    0    0 -0.12620004368E+02  0.53235259246E+01 -0.22894943590E+02  0.26679259375E+02  0.51100000000E-03 0.  1.
         12    1    3    3    0    0 -0.11629747303E+02  0.30951722808E+01 -0.97236036463E+01  0.15471896511E+02  0.00000000000E+00 0. -1.
</event>
<event>
 7    1  0.4141894E-008  0.4614232E+02  0.7816164E-02  0.1320468E+00
        -11   -1    0    0    0    0  0.00000000000E+00  0.00000000000E+00  0.45593999997E+02  0.45594000000E+02  0.51100000000E-03 0.  1.
         11   -1    0    0    0    0 -0.00000000000E+00 -0.00000000000E+00 -0.45593999997E+02  0.45594000000E+02  0.51100000000E-03 0. -1.
    9900012    2    1    2    0    0 -0.21133460107E+01 -0.38426720692E+02 -0.23410124940E+02  0.46142322691E+02  0.10000044955E+02 0.  0.
        -12    1    1    2    0    0  0.21133460107E+01  0.38426720692E+02  0.23410124940E+02  0.45045677309E+02  0.00000000000E+00 0.  1.
         11    1    3    3    0    0 -0.36683874771E+01 -0.35272034276E+02 -0.20615493956E+02  0.41019166983E+02  0.51100000000E-03 0. -1.
        -11    1    3    3    0    0  0.65779401188E+00 -0.12529048618E+01  0.23581859931E+00  0.14345989780E+01  0.51100000000E-03 0.  1.
         12    1    3    3    0    0  0.89724745451E+00 -0.19017815542E+01 -0.30304495830E+01  0.36885567299E+01  0.00000000000E+00 0. -1.
</event>
<event>
 7    1  0.4141894E-008  0.4614232E+02  0.7816164E-02  0.1320468E+00
        -11   -1    0    0    0    0  0.00000000000E+00  0.00000000000E+00  0.45593999997E+02  0.45594000000E+02  0.51100000000E-03 0.  1.
         11   -1    0    0    0    0 -0.00000000000E+00 -0.00000000000E+00 -0.45593999997E+02  0.45594000000E+02  0.51100000000E-03 0. -1.
    9900012    2    1    2    0    0 -0.43778854912E+02  0.81012540773E+01  0.68479815783E+01  0.46142319777E+02  0.10000018386E+02 0.  0.
        -12    1    1    2    0    0  0.43778854912E+02 -0.81012540773E+01 -0.68479815783E+01  0.45045680223E+02  0.00000000000E+00 0.  1.
         11    1    3    3    0    0 -0.12135045610E+02  0.42063052682E+01  0.34213683448E+01  0.13291279005E+02  0.51100000000E-03 0. -1.
        -11    1    3    3    0    0 -0.13065865253E+02 -0.53325905828E+00  0.42066717574E+01  0.13736713128E+02  0.51100000000E-03 0.  1.
        -12    1    3    3    0    0 -0.18577944049E+02  0.44282078674E+01 -0.78005852384E+00  0.19114327645E+02  0.00000000000E+00 0.  1.
</event>
<event>
 7    1  0.4141894E-008  0.4614232E+02  0.7816164E-02  0.1320468E+00
        -11   -1    0    0    0    0  0.00000000000E+00  0.00000000000E+00  0.45593999997E+02  0.45594000000E+02  0.51100000000E-03 0.  1.
         11   -1    0    0    0    0 -0.00000000000E+00 -0.00000000000E+00 -0.45593999997E+02  0.45594000000E+02  0.51100000000E-03 0. -1.
    9900012    2    1    2    0    0  0.13105787386E+02  0.13664985201E+02 -0.40873218890E+02  0.46142317565E+02  0.99999982146E+01 0.  0.
        -12    1    1    2    0    0 -0.13105787386E+02 -0.13664985201E+02  0.40873218890E+02  0.45045682435E+02  0.00000000000E+00 0.  1.
         11    1    3    3    0    0  0.86191071247E+01  0.54476609083E+01 -0.20624232750E+02  0.23007063998E+02  0.51100000000E-03 0. -1.
        -11    1    3    3    0    0  0.20577211223E+01  0.10899490071E+00 -0.78968625072E+01  0.81612826090E+01  0.51100000000E-03 0.  1.
        -12    1    3    3    0    0  0.24289591388E+01  0.81083293916E+01 -0.12352123633E+02  0.14973970958E+02  0.00000000000E+00 0.  1.
</event>
<event>
 7    1  0.4141894E-008  0.4614233E+02  0.7816164E-02  0.1320468E+00
        -11   -1    0    0    0    0  0.00000000000E+00  0.00000000000E+00  0.45593999997E+02  0.45594000000E+02  0.51100000000E-03 0.  1.
         11   -1    0    0    0    0 -0.00000000000E+00 -0.00000000000E+00 -0.45593999997E+02  0.45594000000E+02  0.51100000000E-03 0. -1.
    9900012    2    1    2    0    0  0.65270278954E+01 -0.20030196120E+02 -0.39815844457E+02  0.46142330735E+02  0.10000118304E+02 0.  0.
        -12    1    1    2    0    0 -0.65270278954E+01  0.20030196120E+02  0.39815844457E+02  0.45045669265E+02  0.00000000000E+00 0.  1.
         11    1    3    3    0    0  0.42814563352E+01 -0.19923392723E+01 -0.58614461390E+01  0.75270734836E+01  0.51100000000E-03 0. -1.
        -11    1    3    3    0    0 -0.19832614916E+00 -0.14513870929E+00 -0.14554206286E+00  0.28562433292E+00  0.51100000000E-03 0.  1.
         12    1    3    3    0    0  0.24438977094E+01 -0.17892718138E+02 -0.33808856255E+02  0.38329632918E+02  0.00000000000E+00 0. -1.
</event>
<event>
 7    1  0.4141894E-008  0.4614232E+02  0.7816164E-02  0.1320468E+00
        -11   -1    0    0    0    0  0.00000000000E+00  0.00000000000E+00  0.45593999997E+02  0.45594000000E+02  0.51100000000E-03 0.  1.
         11   -1    0    0    0    0 -0.00000000000E+00 -0.00000000000E+00 -0.45593999997E+02  0.45594000000E+02  0.51100000000E-03 0. -1.
    9900012    2    1    2    0    0  0.33585481225E+02  0.27238914456E+02 -0.12616283824E+02  0.46142316218E+02  0.99999859296E+01 0.  0.
        -12    1    1    2    0    0 -0.33585481225E+02 -0.27238914456E+02  0.12616283824E+02  0.45045683782E+02  0.00000000000E+00 0.  1.
         11    1    3    3    0    0  0.55404694068E+01  0.34265003801E+01 -0.23342492246E-01  0.65144647697E+01  0.51100000000E-03 0. -1.
        -11    1    3    3    0    0  0.14005630438E+01  0.38652658455E+01 -0.26473959425E+01  0.48898427820E+01  0.51100000000E-03 0.  1.
         12    1    3    3    0    0  0.26644448774E+02  0.19947148231E+02 -0.99455453890E+01  0.34738008666E+02  0.00000000000E+00 0. -1.
</event>
<event>
 7    1  0.4141894E-008  0.4614232E+02  0.7816164E-02  0.1320468E+00
        -11   -1    0    0    0    0  0.00000000000E+00  0.00000000000E+00  0.45593999997E+02  0.45594000000E+02  0.51100000000E-03 0.  1.
         11   -1    0    0    0    0 -0.00000000000E+00 -0.00000000000E+00 -0.45593999997E+02  0.45594000000E+02  0.51100000000E-03 0. -1.
    9900012    2    1    2    0    0  0.41495693180E+02  0.14236304462E+02  0.10224900726E+02  0.46142317498E+02  0.99999976020E+01 0.  0.
        -12    1    1    2    0    0 -0.41495693180E+02 -0.14236304462E+02 -0.10224900726E+02  0.45045682502E+02  0.00000000000E+00 0.  1.
         11    1    3    3    0    0  0.22097385591E+01  0.30156890314E+01 -0.20245358401E+00  0.37441037043E+01  0.51100000000E-03 0. -1.
        -11    1    3    3    0    0  0.80532129253E+01  0.74402932838E+00  0.30176810107E+01  0.86321617805E+01  0.51100000000E-03 0.  1.
         12    1    3    3    0    0  0.31232741695E+02  0.10476586102E+02  0.74096732996E+01  0.33766052013E+02  0.00000000000E+00 0. -1.
</event>
<event>
 7    1  0.4141894E-008  0.4614232E+02  0.7816164E-02  0.1320468E+00
        -11   -1    0    0    0    0  0.00000000000E+00  0.00000000000E+00  0.45593999997E+02  0.45594000000E+02  0.51100000000E-03 0.  1.
         11   -1    0    0    0    0 -0.00000000000E+00 -0.00000000000E+00 -0.45593999997E+02  0.45594000000E+02  0.51100000000E-03 0. -1.
    9900012    2    1    2    0    0 -0.91551287005E+01 -0.19866280100E+02 -0.39378013545E+02  0.46142318550E+02  0.10000007193E+02 0.  0.
        -12    1    1    2    0    0  0.91551287005E+01  0.19866280100E+02  0.39378013545E+02  0.45045681450E+02  0.00000000000E+00 0.  1.
         11    1    3    3    0    0  0.10058226556E+00 -0.37339391557E+00 -0.21415901244E+01  0.21762234100E+01  0.51100000000E-03 0. -1.
        -11    1    3    3    0    0  0.97279083287E+00 -0.76813775598E+01 -0.12920432373E+02  0.15062783812E+02  0.51100000000E-03 0.  1.
        -12    1    3    3    0    0 -0.10228501799E+02 -0.11811508625E+02 -0.24315991048E+02  0.28903311328E+02  0.00000000000E+00 0.  1.
</event>
<event>
 7    1  0.4141894E-008  0.4614232E+02  0.7816164E-02  0.1320468E+00
        -11   -1    0    0    0    0  0.00000000000E+00  0.00000000000E+00  0.45593999997E+02  0.45594000000E+02  0.51100000000E-03 0.  1.
         11   -1    0    0    0    0 -0.00000000000E+00 -0.00000000000E+00 -0.45593999997E+02  0.45594000000E+02  0.51100000000E-03 0. -1.
    9900012    2    1    2    0    0  0.17239305258E+02  0.26618188583E+02 -0.31990494716E+02  0.46142319171E+02  0.10000012853E+02 0.  0.
        -12    1    1    2    0    0 -0.17239305258E+02 -0.26618188583E+02  0.31990494716E+02  0.45045680829E+02  0.00000000000E+00 0.  1.
         11    1    3    3    0    0  0.18159124686E+01  0.57729581201E+01 -0.87099444740E+01  0.10606022655E+02  0.51100000000E-03 0. -1.
        -11    1    3    3    0    0  0.98764853369E+01  0.76273163997E+01 -0.11742849644E+02  0.17135210418E+02  0.51100000000E-03 0.  1.
         12    1    3    3    0    0  0.55469074521E+01  0.13217914063E+02 -0.11537700599E+02  0.18401086097E+02  0.00000000000E+00 0. -1.
</event>
<event>
 7    1  0.4141894E-008  0.4614232E+02  0.7816164E-02  0.1320468E+00
        -11   -1    0    0    0    0  0.00000000000E+00  0.00000000000E+00  0.45593999997E+02  0.45594000000E+02  0.51100000000E-03 0. -1.
         11   -1    0    0    0    0 -0.00000000000E+00 -0.00000000000E+00 -0.45593999997E+02  0.45594000000E+02  0.51100000000E-03 0.  1.
    9900012    2    1    2    0    0  0.28332475232E+02  0.13678523540E+02  0.32237892351E+02  0.46142324711E+02  0.10000063377E+02 0.  0.
        -12    1    1    2    0    0 -0.28332475232E+02 -0.13678523540E+02 -0.32237892351E+02  0.45045675289E+02  0.00000000000E+00 0.  1.
         11    1    3    3    0    0  0.15343903614E+02  0.79162281505E+01  0.16871684106E+02  0.24140334941E+02  0.51100000000E-03 0. -1.
        -11    1    3    3    0    0  0.45365348957E+01  0.55491067090E+01  0.84375103266E+01  0.11070876880E+02  0.51100000000E-03 0.  1.
        -12    1    3    3    0    0  0.84520367217E+01  0.21318868048E+00  0.69286979186E+01  0.10931112890E+02  0.00000000000E+00 0.  1.
</event>
<event>
 7    1  0.4141894E-008  0.4614232E+02  0.7816164E-02  0.1320468E+00
        -11   -1    0    0    0    0  0.00000000000E+00  0.00000000000E+00  0.45593999997E+02  0.45594000000E+02  0.51100000000E-03 0.  1.
         11   -1    0    0    0    0 -0.00000000000E+00 -0.00000000000E+00 -0.45593999997E+02  0.45594000000E+02  0.51100000000E-03 0. -1.
    9900012    2    1    2    0    0  0.12123119836E+02  0.29414427495E+02 -0.31889415588E+02  0.46142318676E+02  0.10000008340E+02 0.  0.
        -12    1    1    2    0    0 -0.12123119836E+02 -0.29414427495E+02  0.31889415588E+02  0.45045681324E+02  0.00000000000E+00 0.  1.
         11    1    3    3    0    0  0.71957293282E+00  0.15376814241E+01 -0.19414564261E+01  0.25790507329E+01  0.51100000000E-03 0.  1.
        -11    1    3    3    0    0  0.38214599412E+01  0.86601864622E+01 -0.16153798455E+02  0.18722916184E+02  0.51100000000E-03 0. -1.
         12    1    3    3    0    0  0.75820869620E+01  0.19216559609E+02 -0.13794160707E+02  0.24840351759E+02  0.00000000000E+00 0. -1.
</event>
<event>
 7    1  0.4141894E-008  0.4614232E+02  0.7816164E-02  0.1320468E+00
        -11   -1    0    0    0    0  0.00000000000E+00  0.00000000000E+00  0.45593999997E+02  0.45594000000E+02  0.51100000000E-03 0. -1.
         11   -1    0    0    0    0 -0.00000000000E+00 -0.00000000000E+00 -0.45593999997E+02  0.45594000000E+02  0.51100000000E-03 0.  1.
    9900012    2    1    2    0    0 -0.41923641860E+02 -0.69659352956E+01  0.14933100045E+02  0.46142317873E+02  0.10000001019E+02 0.  0.
        -12    1    1    2    0    0  0.41923641860E+02  0.69659352956E+01 -0.14933100045E+02  0.45045682127E+02  0.00000000000E+00 0.  1.
         11    1    3    3    0    0 -0.19932588596E+02 -0.25707671571E+01  0.27646447510E+01  0.20286946364E+02  0.51100000000E-03 0. -1.
        -11    1    3    3    0    0 -0.11443678518E+02 -0.16085763317E+00  0.62974434308E+01  0.13062980028E+02  0.51100000000E-03 0.  1.
         12    1    3    3    0    0 -0.10547374746E+02 -0.42343105053E+01  0.58710118634E+01  0.12792391480E+02  0.00000000000E+00 0. -1.
</event>
<event>
 7    1  0.4141894E-008  0.4614232E+02  0.7816164E-02  0.1320468E+00
        -11   -1    0    0    0    0  0.00000000000E+00  0.00000000000E+00  0.45593999997E+02  0.45594000000E+02  0.51100000000E-03 0.  1.
         11   -1    0    0    0    0 -0.00000000000E+00 -0.00000000000E+00 -0.45593999997E+02  0.45594000000E+02  0.51100000000E-03 0. -1.
    9900012    2    1    2    0    0 -0.42312209379E+02  0.14382166781E+02  0.56518767638E+01  0.46142317690E+02  0.99999993473E+01 0.  0.
        -12    1    1    2    0    0  0.42312209379E+02 -0.14382166781E+02 -0.56518767638E+01  0.45045682310E+02  0.00000000000E+00 0.  1.
         11    1    3    3    0    0 -0.26375906826E+02  0.99408632037E+01  0.24343438991E+01  0.28291964453E+02  0.51100000000E-03 0. -1.
        -11    1    3    3    0    0 -0.11828564693E+02  0.67847364183E+00  0.11315018501E+01  0.11901914379E+02  0.51100000000E-03 0.  1.
        -12    1    3    3    0    0 -0.41077378601E+01  0.37628299356E+01  0.20860310146E+01  0.59484388578E+01  0.00000000000E+00 0.  1.
</event>
<event>
 7    1  0.4141894E-008  0.4614232E+02  0.7816164E-02  0.1320468E+00
        -11   -1    0    0    0    0  0.00000000000E+00  0.00000000000E+00  0.45593999997E+02  0.45594000000E+02  0.51100000000E-03 0.  1.
         11   -1    0    0    0    0 -0.00000000000E+00 -0.00000000000E+00 -0.45593999997E+02  0.45594000000E+02  0.51100000000E-03 0. -1.
    9900012    2    1    2    0    0 -0.89541888494E+00  0.44467779774E+02 -0.71364126175E+01  0.46142316544E+02  0.99999889008E+01 0.  0.
        -12    1    1    2    0    0  0.89541888494E+00 -0.44467779774E+02  0.71364126175E+01  0.45045683456E+02  0.00000000000E+00 0.  1.
         11    1    3    3    0    0  0.27916532253E+01  0.66326531994E+01 -0.22453448110E+01  0.75383678456E+01  0.51100000000E-03 0. -1.
        -11    1    3    3    0    0 -0.11611147287E+01  0.23597329088E+02 -0.10824712071E+01  0.23650663239E+02  0.51100000000E-03 0.  1.
         12    1    3    3    0    0 -0.25259573816E+01  0.14237797487E+02 -0.38085965994E+01  0.14953285459E+02  0.00000000000E+00 0. -1.
</event>
<event>
 7    1  0.4141894E-008  0.4614232E+02  0.7816164E-02  0.1320468E+00
        -11   -1    0    0    0    0  0.00000000000E+00  0.00000000000E+00  0.45593999997E+02  0.45594000000E+02  0.51100000000E-03 0.  1.
         11   -1    0    0    0    0 -0.00000000000E+00 -0.00000000000E+00 -0.45593999997E+02  0.45594000000E+02  0.51100000000E-03 0. -1.
    9900012    2    1    2    0    0  0.47378243159E+01  0.49905879864E+01 -0.44516969819E+02  0.46142317081E+02  0.99999938013E+01 0.  0.
        -12    1    1    2    0    0 -0.47378243159E+01 -0.49905879864E+01  0.44516969819E+02  0.45045682919E+02  0.00000000000E+00 0.  1.
         11    1    3    3    0    0  0.38052509907E+01  0.25044231463E+01 -0.13240074952E+02  0.14001844714E+02  0.51100000000E-03 0. -1.
        -11    1    3    3    0    0  0.26825239198E+01 -0.41766805799E-01 -0.25077034323E+02  0.25220137386E+02  0.51100000000E-03 0.  1.
        -12    1    3    3    0    0 -0.17499505946E+01  0.25279316459E+01 -0.61998605443E+01  0.69203349817E+01  0.00000000000E+00 0.  1.
</event>
<event>
 7    1  0.4141894E-008  0.4614232E+02  0.7816164E-02  0.1320468E+00
        -11   -1    0    0    0    0  0.00000000000E+00  0.00000000000E+00  0.45593999997E+02  0.45594000000E+02  0.51100000000E-03 0.  1.
         11   -1    0    0    0    0 -0.00000000000E+00 -0.00000000000E+00 -0.45593999997E+02  0.45594000000E+02  0.51100000000E-03 0. -1.
    9900012    2    1    2    0    0  0.47572037047E+01 -0.13197520191E+01 -0.44774331590E+02  0.46142317612E+02  0.99999986433E+01 0.  0.
        -12    1    1    2    0    0 -0.47572037047E+01  0.13197520191E+01  0.44774331590E+02  0.45045682388E+02  0.00000000000E+00 0.  1.
         11    1    3    3    0    0 -0.51043563269E+00  0.51308774744E-01 -0.15043884139E+02  0.15052628587E+02  0.51100000000E-03 0. -1.
        -11    1    3    3    0    0  0.12497708324E+01 -0.34430478785E+01 -0.20346864211E+02  0.20673930185E+02  0.51100000000E-03 0.  1.
        -12    1    3    3    0    0  0.40178685049E+01  0.20719870847E+01 -0.93835832400E+01  0.10415758841E+02  0.00000000000E+00 0.  1.
</event>
<event>
 7    1  0.4141894E-008  0.4614232E+02  0.7816164E-02  0.1320468E+00
        -11   -1    0    0    0    0  0.00000000000E+00  0.00000000000E+00  0.45593999997E+02  0.45594000000E+02  0.51100000000E-03 0.  1.
         11   -1    0    0    0    0 -0.00000000000E+00 -0.00000000000E+00 -0.45593999997E+02  0.45594000000E+02  0.51100000000E-03 0. -1.
    9900012    2    1    2    0    0  0.69390472385E+01 -0.31388799476E+01 -0.44397190636E+02  0.46142317851E+02  0.10000000820E+02 0.  0.
        -12    1    1    2    0    0 -0.69390472385E+01  0.31388799476E+01  0.44397190636E+02  0.45045682149E+02  0.00000000000E+00 0.  1.
         11    1    3    3    0    0 -0.13964360580E+01  0.78737180639E+00 -0.83216691523E+01  0.84746779152E+01  0.51100000000E-03 0. -1.
        -11    1    3    3    0    0 -0.40749931430E+00 -0.12443982102E+01 -0.20332330161E+01  0.24183918945E+01  0.51100000000E-03 0.  1.
        -12    1    3    3    0    0  0.87429826109E+01 -0.26818535437E+01 -0.34042288468E+02  0.35249248041E+02  0.00000000000E+00 0.  1.
</event>
<event>
 7    1  0.4141894E-008  0.4614231E+02  0.7816164E-02  0.1320468E+00
        -11   -1    0    0    0    0  0.00000000000E+00  0.00000000000E+00  0.45593999997E+02  0.45594000000E+02  0.51100000000E-03 0. -1.
         11   -1    0    0    0    0 -0.00000000000E+00 -0.00000000000E+00 -0.45593999997E+02  0.45594000000E+02  0.51100000000E-03 0.  1.
    9900012    2    1    2    0    0  0.18945800658E+02  0.39493908064E+02 -0.10507221444E+02  0.46142313867E+02  0.99999644918E+01 0.  0.
        -12    1    1    2    0    0 -0.18945800658E+02 -0.39493908064E+02  0.10507221444E+02  0.45045686133E+02  0.00000000000E+00 0.  1.
         11    1    3    3    0    0  0.14929087597E+01  0.56082391527E+01  0.14202677155E+01  0.59748040640E+01  0.51100000000E-03 0. -1.
        -11    1    3    3    0    0  0.33580696417E+01  0.77244917265E+01 -0.44434733366E+01  0.95230698677E+01  0.51100000000E-03 0.  1.
         12    1    3    3    0    0  0.14094822257E+02  0.26161177184E+02 -0.74840158226E+01  0.30644439935E+02  0.00000000000E+00 0. -1.
</event>
<event>
 7    1  0.4141894E-008  0.4614232E+02  0.7816164E-02  0.1320468E+00
        -11   -1    0    0    0    0  0.00000000000E+00  0.00000000000E+00  0.45593999997E+02  0.45594000000E+02  0.51100000000E-03 0. -1.
         11   -1    0    0    0    0 -0.00000000000E+00 -0.00000000000E+00 -0.45593999997E+02  0.45594000000E+02  0.51100000000E-03 0.  1.
    9900012    2    1    2    0    0  0.26300578957E+02  0.15868645822E+02  0.32948127043E+02  0.46142318194E+02  0.10000003951E+02 0.  0.
        -12    1    1    2    0    0 -0.26300578957E+02 -0.15868645822E+02 -0.32948127043E+02  0.45045681806E+02  0.00000000000E+00 0.  1.
         11    1    3    3    0    0  0.72437357350E+00  0.18504513477E+01  0.69662709291E+00  0.21057485205E+01  0.51100000000E-03 0. -1.
        -11    1    3    3    0    0  0.50810995384E+01  0.59230084171E+01  0.10409560382E+02  0.13009940385E+02  0.51100000000E-03 0.  1.
        -12    1    3    3    0    0  0.20495105846E+02  0.80951860571E+01  0.21841939568E+02  0.31026629289E+02  0.00000000000E+00 0.  1.
</event>
<event>
 7    1  0.4141894E-008  0.4614232E+02  0.7816164E-02  0.1320468E+00
        -11   -1    0    0    0    0  0.00000000000E+00  0.00000000000E+00  0.45593999997E+02  0.45594000000E+02  0.51100000000E-03 0. -1.
         11   -1    0    0    0    0 -0.00000000000E+00 -0.00000000000E+00 -0.45593999997E+02  0.45594000000E+02  0.51100000000E-03 0.  1.
    9900012    2    1    2    0    0 -0.14658883491E+02 -0.29751318731E+02  0.30480972138E+02  0.46142317700E+02  0.99999994387E+01 0.  0.
        -12    1    1    2    0    0  0.14658883491E+02  0.29751318731E+02 -0.30480972138E+02  0.45045682300E+02  0.00000000000E+00 0.  1.
         11    1    3    3    0    0 -0.53924023517E+00  0.16622064467E+00  0.10708502274E+00  0.57434902033E+00  0.51100000000E-03 0. -1.
        -11    1    3    3    0    0 -0.93132061677E+01 -0.14870715990E+02  0.11605496865E+02  0.21037147167E+02  0.51100000000E-03 0.  1.
         12    1    3    3    0    0 -0.48064370880E+01 -0.15046823385E+02  0.18768390251E+02  0.24530821512E+02  0.00000000000E+00 0. -1.
</event>
<event>
 7    1  0.4141894E-008  0.4614232E+02  0.7816164E-02  0.1320468E+00
        -11   -1    0    0    0    0  0.00000000000E+00  0.00000000000E+00  0.45593999997E+02  0.45594000000E+02  0.51100000000E-03 0.  1.
         11   -1    0    0    0    0 -0.00000000000E+00 -0.00000000000E+00 -0.45593999997E+02  0.45594000000E+02  0.51100000000E-03 0. -1.
    9900012    2    1    2    0    0 -0.21165308968E+01 -0.44989080536E+02 -0.78516160224E+00  0.46142317086E+02  0.99999938414E+01 0.  0.
        -12    1    1    2    0    0  0.21165308968E+01  0.44989080536E+02  0.78516160224E+00  0.45045682914E+02  0.00000000000E+00 0.  1.
         11    1    3    3    0    0  0.32293288899E+00 -0.16077241374E+02 -0.10435040994E+01  0.16114306591E+02  0.51100000000E-03 0. -1.
        -11    1    3    3    0    0 -0.59575781105E+00 -0.95323806504E+01  0.37307731023E+01  0.10253773766E+02  0.51100000000E-03 0.  1.
        -12    1    3    3    0    0 -0.18437059748E+01 -0.19379458511E+02 -0.34724306051E+01  0.19774236729E+02  0.00000000000E+00 0.  1.
</event>
<event>
 7    1  0.4141894E-008  0.4614232E+02  0.7816164E-02  0.1320468E+00
        -11   -1    0    0    0    0  0.00000000000E+00  0.00000000000E+00  0.45593999997E+02  0.45594000000E+02  0.51100000000E-03 0. -1.
         11   -1    0    0    0    0 -0.00000000000E+00 -0.00000000000E+00 -0.45593999997E+02  0.45594000000E+02  0.51100000000E-03 0.  1.
    9900012    2    1    2    0    0  0.44685377435E+02 -0.45976038609E+01 -0.33455243437E+01  0.46142318177E+02  0.10000003788E+02 0.  0.
        -12    1    1    2    0    0 -0.44685377435E+02  0.45976038609E+01  0.33455243437E+01  0.45045681823E+02  0.00000000000E+00 0.  1.
         11    1    3    3    0    0  0.34878030303E+02 -0.33816947408E+01 -0.52355024611E+01  0.35430542522E+02  0.51100000000E-03 0. -1.
        -11    1    3    3    0    0  0.42781843448E+01 -0.12190244032E+01 -0.86889512902E+00  0.45325335951E+01  0.51100000000E-03 0.  1.
         12    1    3    3    0    0  0.55291627874E+01  0.31152830893E-02  0.27588732464E+01  0.61792420591E+01  0.00000000000E+00 0. -1.
</event>
<event>
 7    1  0.4141894E-008  0.4614232E+02  0.7816164E-02  0.1320468E+00
        -11   -1    0    0    0    0  0.00000000000E+00  0.00000000000E+00  0.45593999997E+02  0.45594000000E+02  0.51100000000E-03 0. -1.
         11   -1    0    0    0    0 -0.00000000000E+00 -0.00000000000E+00 -0.45593999997E+02  0.45594000000E+02  0.51100000000E-03 0.  1.
    9900012    2    1    2    0    0  0.35196684750E+02  0.23725837633E+02 -0.15079506703E+02  0.46142317508E+02  0.99999976898E+01 0.  0.
        -12    1    1    2    0    0 -0.35196684750E+02 -0.23725837633E+02  0.15079506703E+02  0.45045682492E+02  0.00000000000E+00 0.  1.
         11    1    3    3    0    0  0.16738782235E+02  0.78938113213E+01 -0.39923115909E+01  0.18932449392E+02  0.51100000000E-03 0. -1.
        -11    1    3    3    0    0  0.15560860678E+01  0.41567307536E+00  0.32759354764E+00  0.16436257936E+01  0.51100000000E-03 0.  1.
        -12    1    3    3    0    0  0.16901816448E+02  0.15416353236E+02 -0.11414788660E+02  0.25566242322E+02  0.00000000000E+00 0.  1.
</event>
<event>
 7    1  0.4141894E-008  0.4614232E+02  0.7816164E-02  0.1320468E+00
        -11   -1    0    0    0    0  0.00000000000E+00  0.00000000000E+00  0.45593999997E+02  0.45594000000E+02  0.51100000000E-03 0.  1.
         11   -1    0    0    0    0 -0.00000000000E+00 -0.00000000000E+00 -0.45593999997E+02  0.45594000000E+02  0.51100000000E-03 0. -1.
    9900012    2    1    2    0    0 -0.13652412535E+02 -0.40826421156E+02 -0.13263807392E+02  0.46142316312E+02  0.99999867813E+01 0.  0.
        -12    1    1    2    0    0  0.13652412535E+02  0.40826421156E+02  0.13263807392E+02  0.45045683688E+02  0.00000000000E+00 0.  1.
         11    1    3    3    0    0 -0.68133912827E+01 -0.18871742747E+02 -0.39968648754E+01  0.20458247828E+02  0.51100000000E-03 0. -1.
        -11    1    3    3    0    0 -0.70311871295E+01 -0.18809222883E+02 -0.55951585455E+01  0.20845389354E+02  0.51100000000E-03 0.  1.
        -12    1    3    3    0    0  0.19216587718E+00 -0.31454555251E+01 -0.36717839709E+01  0.48386791290E+01  0.00000000000E+00 0.  1.
</event>
<event>
 7    1  0.4141894E-008  0.4614232E+02  0.7816164E-02  0.1320468E+00
        -11   -1    0    0    0    0  0.00000000000E+00  0.00000000000E+00  0.45593999997E+02  0.45594000000E+02  0.51100000000E-03 0. -1.
         11   -1    0    0    0    0 -0.00000000000E+00 -0.00000000000E+00 -0.45593999997E+02  0.45594000000E+02  0.51100000000E-03 0.  1.
    9900012    2    1    2    0    0 -0.25592262082E+02  0.17185118161E+02  0.32845412261E+02  0.46142320171E+02  0.10000021972E+02 0.  0.
        -12    1    1    2    0    0  0.25592262082E+02 -0.17185118161E+02 -0.32845412261E+02  0.45045679829E+02  0.00000000000E+00 0.  1.
         11    1    3    3    0    0 -0.10751591168E+02  0.11340229754E+02  0.19828634924E+02  0.25246233120E+02  0.51100000000E-03 0. -1.
        -11    1    3    3    0    0 -0.75063851920E+01  0.48455787533E+01  0.74819109374E+01  0.11653516364E+02  0.51100000000E-03 0.  1.
        -12    1    3    3    0    0 -0.73342857226E+01  0.99930965291E+00  0.55348663991E+01  0.92425706868E+01  0.00000000000E+00 0.  1.
</event>
<event>
 7    1  0.4141894E-008  0.4614232E+02  0.7816164E-02  0.1320468E+00
        -11   -1    0    0    0    0  0.00000000000E+00  0.00000000000E+00  0.45593999997E+02  0.45594000000E+02  0.51100000000E-03 0.  1.
         11   -1    0    0    0    0 -0.00000000000E+00 -0.00000000000E+00 -0.45593999997E+02  0.45594000000E+02  0.51100000000E-03 0. -1.
    9900012    2    1    2    0    0 -0.16786957662E+02  0.15444198026E+02 -0.38843127020E+02  0.46142315225E+02  0.99999768692E+01 0.  0.
        -12    1    1    2    0    0  0.16786957662E+02 -0.15444198026E+02  0.38843127020E+02  0.45045684775E+02  0.00000000000E+00 0.  1.
         11    1    3    3    0    0 -0.46533490751E+01  0.35545987047E+01 -0.11117558404E+02  0.12565386373E+02  0.51100000000E-03 0. -1.
        -11    1    3    3    0    0 -0.74873587783E+01  0.22461449750E+01 -0.83290962283E+01  0.11422764681E+02  0.51100000000E-03 0.  1.
        -12    1    3    3    0    0 -0.46462498083E+01  0.96434543458E+01 -0.19396472388E+02  0.22154164171E+02  0.00000000000E+00 0.  1.
</event>
<event>
 7    1  0.4141894E-008  0.4614232E+02  0.7816164E-02  0.1320468E+00
        -11   -1    0    0    0    0  0.00000000000E+00  0.00000000000E+00  0.45593999997E+02  0.45594000000E+02  0.51100000000E-03 0. -1.
         11   -1    0    0    0    0 -0.00000000000E+00 -0.00000000000E+00 -0.45593999997E+02  0.45594000000E+02  0.51100000000E-03 0.  1.
    9900012    2    1    2    0    0  0.85453081677E+01 -0.38477992921E+02  0.21806770207E+02  0.46142318101E+02  0.10000003095E+02 0.  0.
        -12    1    1    2    0    0 -0.85453081677E+01  0.38477992921E+02 -0.21806770207E+02  0.45045681899E+02  0.00000000000E+00 0.  1.
         11    1    3    3    0    0  0.10760706930E+01 -0.46388465951E+01  0.63419008619E+01  0.79307334259E+01  0.51100000000E-03 0. -1.
        -11    1    3    3    0    0  0.58555663777E+01 -0.23684074646E+02  0.86936863530E+01  0.25899869346E+02  0.51100000000E-03 0.  1.
        -12    1    3    3    0    0  0.16136710970E+01 -0.10155071680E+02  0.67711829921E+01  0.12311715329E+02  0.00000000000E+00 0.  1.
</event>
<event>
 7    1  0.4141894E-008  0.4614231E+02  0.7816164E-02  0.1320468E+00
        -11   -1    0    0    0    0  0.00000000000E+00  0.00000000000E+00  0.45593999997E+02  0.45594000000E+02  0.51100000000E-03 0.  1.
         11   -1    0    0    0    0 -0.00000000000E+00 -0.00000000000E+00 -0.45593999997E+02  0.45594000000E+02  0.51100000000E-03 0. -1.
    9900012    2    1    2    0    0 -0.33397910268E+02 -0.20324937029E+02 -0.22373892569E+02  0.46142306042E+02  0.99998931317E+01 0.  0.
        -12    1    1    2    0    0  0.33397910268E+02  0.20324937029E+02  0.22373892569E+02  0.45045693958E+02  0.00000000000E+00 0.  1.
         11    1    3    3    0    0 -0.23863201614E+02 -0.13849074937E+02 -0.19173600579E+02  0.33598753359E+02  0.51100000000E-03 0. -1.
        -11    1    3    3    0    0 -0.46865793978E+00  0.48093660049E+00 -0.38579125374E+00  0.77445169687E+00  0.51100000000E-03 0.  1.
         12    1    3    3    0    0 -0.90660507146E+01 -0.69567986932E+01 -0.28145007356E+01  0.11769100986E+02  0.00000000000E+00 0. -1.
</event>
<event>
 7    1  0.4141894E-008  0.4614232E+02  0.7816164E-02  0.1320468E+00
        -11   -1    0    0    0    0  0.00000000000E+00  0.00000000000E+00  0.45593999997E+02  0.45594000000E+02  0.51100000000E-03 0.  1.
         11   -1    0    0    0    0 -0.00000000000E+00 -0.00000000000E+00 -0.45593999997E+02  0.45594000000E+02  0.51100000000E-03 0. -1.
    9900012    2    1    2    0    0  0.44358519745E+02 -0.51459379383E+01  0.59122318102E+01  0.46142318340E+02  0.10000005277E+02 0.  0.
        -12    1    1    2    0    0 -0.44358519745E+02  0.51459379383E+01 -0.59122318102E+01  0.45045681660E+02  0.00000000000E+00 0.  1.
         11    1    3    3    0    0  0.19802651336E+02 -0.68313146146E+01  0.38201373315E+01  0.21293316059E+02  0.51100000000E-03 0. -1.
        -11    1    3    3    0    0  0.34317937928E+01 -0.60720941340E+00 -0.11182637964E+00  0.34868922135E+01  0.51100000000E-03 0.  1.
        -12    1    3    3    0    0  0.21124074616E+02  0.22925860897E+01  0.22039208583E+01  0.21362110067E+02  0.00000000000E+00 0.  1.
</event>
<event>
 7    1  0.4141894E-008  0.4614232E+02  0.7816164E-02  0.1320468E+00
        -11   -1    0    0    0    0  0.00000000000E+00  0.00000000000E+00  0.45593999997E+02  0.45594000000E+02  0.51100000000E-03 0. -1.
         11   -1    0    0    0    0 -0.00000000000E+00 -0.00000000000E+00 -0.45593999997E+02  0.45594000000E+02  0.51100000000E-03 0.  1.
    9900012    2    1    2    0    0 -0.69187891322E+01 -0.44423884460E+02 -0.27861385711E+01  0.46142315171E+02  0.99999763844E+01 0.  0.
        -12    1    1    2    0    0  0.69187891322E+01  0.44423884460E+02  0.27861385711E+01  0.45045684829E+02  0.00000000000E+00 0.  1.
         11    1    3    3    0    0 -0.74478079651E+01 -0.30369931353E+02 -0.29192452657E+01  0.31405804671E+02  0.51100000000E-03 0. -1.
        -11    1    3    3    0    0 -0.16066662581E+01 -0.67937299124E+01 -0.11051155905E+01  0.70680565446E+01  0.51100000000E-03 0.  1.
        -12    1    3    3    0    0  0.21356850911E+01 -0.72602231944E+01  0.12382222851E+01  0.76684539556E+01  0.00000000000E+00 0.  1.
</event>
<event>
 7    1  0.4141894E-008  0.4614232E+02  0.7816164E-02  0.1320468E+00
        -11   -1    0    0    0    0  0.00000000000E+00  0.00000000000E+00  0.45593999997E+02  0.45594000000E+02  0.51100000000E-03 0.  1.
         11   -1    0    0    0    0 -0.00000000000E+00 -0.00000000000E+00 -0.45593999997E+02  0.45594000000E+02  0.51100000000E-03 0. -1.
    9900012    2    1    2    0    0  0.25333809168E+01  0.24321292015E+02 -0.37830809418E+02  0.46142318682E+02  0.10000008400E+02 0.  0.
        -12    1    1    2    0    0 -0.25333809168E+01 -0.24321292015E+02  0.37830809418E+02  0.45045681318E+02  0.00000000000E+00 0.  1.
         11    1    3    3    0    0 -0.23598284119E+01  0.12724494655E+02 -0.21570168368E+02  0.25154596360E+02  0.51100000000E-03 0.  1.
        -11    1    3    3    0    0  0.35977961756E+01  0.10187312102E+02 -0.15572766094E+02  0.18953535535E+02  0.51100000000E-03 0. -1.
        -12    1    3    3    0    0  0.12954131532E+01  0.14094852582E+01 -0.68787495552E+00  0.20341867871E+01  0.00000000000E+00 0.  1.
</event>
<event>
 7    1  0.4141894E-008  0.4614232E+02  0.7816164E-02  0.1320468E+00
        -11   -1    0    0    0    0  0.00000000000E+00  0.00000000000E+00  0.45593999997E+02  0.45594000000E+02  0.51100000000E-03 0.  1.
         11   -1    0    0    0    0 -0.00000000000E+00 -0.00000000000E+00 -0.45593999997E+02  0.45594000000E+02  0.51100000000E-03 0. -1.
    9900012    2    1    2    0    0  0.20561912619E+02  0.22777632158E+02 -0.32977274337E+02  0.46142318742E+02  0.10000008946E+02 0.  0.
        -12    1    1    2    0    0 -0.20561912619E+02 -0.22777632158E+02  0.32977274337E+02  0.45045681258E+02  0.00000000000E+00 0.  1.
         11    1    3    3    0    0  0.24246316481E+01  0.29156735938E+01 -0.26841345429E+01  0.46459196765E+01  0.51100000000E-03 0. -1.
        -11    1    3    3    0    0  0.96881944512E+01  0.88779792782E+01 -0.84329289305E+01  0.15613901447E+02  0.51100000000E-03 0.  1.
         12    1    3    3    0    0  0.84490865200E+01  0.10983979286E+02 -0.21860210864E+02  0.25882497619E+02  0.00000000000E+00 0. -1.
</event>
<event>
 7    1  0.4141894E-008  0.4614231E+02  0.7816164E-02  0.1320468E+00
        -11   -1    0    0    0    0  0.00000000000E+00  0.00000000000E+00  0.45593999997E+02  0.45594000000E+02  0.51100000000E-03 0.  1.
         11   -1    0    0    0    0 -0.00000000000E+00 -0.00000000000E+00 -0.45593999997E+02  0.45594000000E+02  0.51100000000E-03 0. -1.
    9900012    2    1    2    0    0  0.18131370921E+02  0.23185965685E+02 -0.34099533202E+02  0.46142314515E+02  0.99999704024E+01 0.  0.
        -12    1    1    2    0    0 -0.18131370921E+02 -0.23185965685E+02  0.34099533202E+02  0.45045685485E+02  0.00000000000E+00 0.  1.
         11    1    3    3    0    0  0.41877305410E+01  0.18938732679E+01 -0.57880558285E+01  0.73909020812E+01  0.51100000000E-03 0. -1.
        -11    1    3    3    0    0  0.93328317499E+01  0.18865429984E+02 -0.24477650094E+02  0.32282527028E+02  0.51100000000E-03 0.  1.
         12    1    3    3    0    0  0.46108086300E+01  0.24266624325E+01 -0.38338272795E+01  0.64688854057E+01  0.00000000000E+00 0. -1.
</event>
<event>
 7    1  0.4141894E-008  0.4614232E+02  0.7816164E-02  0.1320468E+00
        -11   -1    0    0    0    0  0.00000000000E+00  0.00000000000E+00  0.45593999997E+02  0.45594000000E+02  0.51100000000E-03 0.  1.
         11   -1    0    0    0    0 -0.00000000000E+00 -0.00000000000E+00 -0.45593999997E+02  0.45594000000E+02  0.51100000000E-03 0. -1.
    9900012    2    1    2    0    0  0.28705020362E+02  0.82866827033E+01 -0.33711513061E+02  0.46142318552E+02  0.10000007213E+02 0.  0.
        -12    1    1    2    0    0 -0.28705020362E+02 -0.82866827033E+01  0.33711513061E+02  0.45045681448E+02  0.00000000000E+00 0.  1.
         11    1    3    3    0    0  0.97795771714E+01  0.17140345982E+01 -0.15265236104E+02  0.18210037831E+02  0.51100000000E-03 0. -1.
        -11    1    3    3    0    0  0.61127342700E+00 -0.26747193205E-04  0.48817376537E+00  0.78228453237E+00  0.51100000000E-03 0.  1.
         12    1    3    3    0    0  0.18314169764E+02  0.65726748523E+01 -0.18934450723E+02  0.27149996188E+02  0.00000000000E+00 0. -1.
</event>
<event>
 7    1  0.4141894E-008  0.4614232E+02  0.7816164E-02  0.1320468E+00
        -11   -1    0    0    0    0  0.00000000000E+00  0.00000000000E+00  0.45593999997E+02  0.45594000000E+02  0.51100000000E-03 0. -1.
         11   -1    0    0    0    0 -0.00000000000E+00 -0.00000000000E+00 -0.45593999997E+02  0.45594000000E+02  0.51100000000E-03 0.  1.
    9900012    2    1    2    0    0 -0.42268242238E+02  0.15141998759E+02  0.36371828997E+01  0.46142317324E+02  0.99999960110E+01 0.  0.
        -12    1    1    2    0    0  0.42268242238E+02 -0.15141998759E+02 -0.36371828997E+01  0.45045682676E+02  0.00000000000E+00 0.  1.
         11    1    3    3    0    0 -0.25933037893E+02  0.57134684087E+01  0.22556302200E+01  0.26650591805E+02  0.51100000000E-03 0.  1.
        -11    1    3    3    0    0 -0.12807799492E+02  0.50482970133E+01  0.33295228427E+00  0.13770834690E+02  0.51100000000E-03 0. -1.
        -12    1    3    3    0    0 -0.35274048529E+01  0.43802333370E+01  0.10486003954E+01  0.57208908286E+01  0.00000000000E+00 0.  1.
</event>
<event>
 7    1  0.4141894E-008  0.4614232E+02  0.7816164E-02  0.1320468E+00
        -11   -1    0    0    0    0  0.00000000000E+00  0.00000000000E+00  0.45593999997E+02  0.45594000000E+02  0.51100000000E-03 0. -1.
         11   -1    0    0    0    0 -0.00000000000E+00 -0.00000000000E+00 -0.45593999997E+02  0.45594000000E+02  0.51100000000E-03 0.  1.
    9900012    2    1    2    0    0 -0.91781664528E+01  0.42869541344E+02 -0.10347810944E+02  0.46142317567E+02  0.99999982338E+01 0.  0.
        -12    1    1    2    0    0  0.91781664528E+01 -0.42869541344E+02  0.10347810944E+02  0.45045682433E+02  0.00000000000E+00 0.  1.
         11    1    3    3    0    0 -0.54696056228E+01  0.25703252512E+02 -0.51750418233E+01  0.26783480608E+02  0.51100000000E-03 0. -1.
        -11    1    3    3    0    0 -0.26852274108E+01  0.15079830845E+02 -0.65485929921E+01  0.16658205636E+02  0.51100000000E-03 0.  1.
        -12    1    3    3    0    0 -0.10233334193E+01  0.20864579869E+01  0.13758238717E+01  0.27006313232E+01  0.00000000000E+00 0.  1.
</event>
<event>
 7    1  0.4141894E-008  0.4614232E+02  0.7816164E-02  0.1320468E+00
        -11   -1    0    0    0    0  0.00000000000E+00  0.00000000000E+00  0.45593999997E+02  0.45594000000E+02  0.51100000000E-03 0.  1.
         11   -1    0    0    0    0 -0.00000000000E+00 -0.00000000000E+00 -0.45593999997E+02  0.45594000000E+02  0.51100000000E-03 0. -1.
    9900012    2    1    2    0    0 -0.97942801843E+01  0.14055052659E+02 -0.41661025046E+02  0.46142318326E+02  0.10000005155E+02 0.  0.
        -12    1    1    2    0    0  0.97942801843E+01 -0.14055052659E+02  0.41661025046E+02  0.45045681674E+02  0.00000000000E+00 0.  1.
         11    1    3    3    0    0 -0.18898063519E+01  0.50336157477E+00 -0.52061792540E+01  0.55613886403E+01  0.51100000000E-03 0. -1.
        -11    1    3    3    0    0 -0.86742028965E+01  0.12165218783E+02 -0.25842722728E+02  0.29850974225E+02  0.51100000000E-03 0.  1.
        -12    1    3    3    0    0  0.76972906409E+00  0.13864723012E+01 -0.10612123064E+02  0.10729955462E+02  0.00000000000E+00 0.  1.
</event>
<event>
 7    1  0.4141894E-008  0.4614232E+02  0.7816164E-02  0.1320468E+00
        -11   -1    0    0    0    0  0.00000000000E+00  0.00000000000E+00  0.45593999997E+02  0.45594000000E+02  0.51100000000E-03 0.  1.
         11   -1    0    0    0    0 -0.00000000000E+00 -0.00000000000E+00 -0.45593999997E+02  0.45594000000E+02  0.51100000000E-03 0. -1.
    9900012    2    1    2    0    0 -0.25122809721E+01 -0.44971085469E+02 -0.63513943869E+00  0.46142317787E+02  0.10000000237E+02 0.  0.
        -12    1    1    2    0    0  0.25122809721E+01  0.44971085469E+02  0.63513943869E+00  0.45045682213E+02  0.00000000000E+00 0.  1.
         11    1    3    3    0    0 -0.85658112765E+00 -0.93818840890E+01 -0.13296616853E+00  0.94218448592E+01  0.51100000000E-03 0. -1.
        -11    1    3    3    0    0 -0.55254088648E+00 -0.50465721689E+01  0.30968688680E+01  0.59467460963E+01  0.51100000000E-03 0.  1.
        -12    1    3    3    0    0 -0.11031589580E+01 -0.30542629211E+02 -0.35990421382E+01  0.30773726832E+02  0.00000000000E+00 0.  1.
</event>
<event>
 7    1  0.4141894E-008  0.4614232E+02  0.7816164E-02  0.1320468E+00
        -11   -1    0    0    0    0  0.00000000000E+00  0.00000000000E+00  0.45593999997E+02  0.45594000000E+02  0.51100000000E-03 0.  1.
         11   -1    0    0    0    0 -0.00000000000E+00 -0.00000000000E+00 -0.45593999997E+02  0.45594000000E+02  0.51100000000E-03 0. -1.
    9900012    2    1    2    0    0  0.15626842963E+02 -0.37768949313E+00 -0.42246571713E+02  0.46142315503E+02  0.99999794056E+01 0.  0.
        -12    1    1    2    0    0 -0.15626842963E+02  0.37768949313E+00  0.42246571713E+02  0.45045684497E+02  0.00000000000E+00 0.  1.
         11    1    3    3    0    0  0.96798972372E+01 -0.15084810954E+01 -0.17932539497E+02  0.20434086689E+02  0.51100000000E-03 0. -1.
        -11    1    3    3    0    0  0.72064433911E+00 -0.19870089478E+01 -0.43337775622E+01  0.48217383838E+01  0.51100000000E-03 0.  1.
         12    1    3    3    0    0  0.52263013870E+01  0.31178005500E+01 -0.19980254654E+02  0.20886490430E+02  0.00000000000E+00 0. -1.
</event>
<event>
 7    1  0.4141894E-008  0.4614232E+02  0.7816164E-02  0.1320468E+00
        -11   -1    0    0    0    0  0.00000000000E+00  0.00000000000E+00  0.45593999997E+02  0.45594000000E+02  0.51100000000E-03 0. -1.
         11   -1    0    0    0    0 -0.00000000000E+00 -0.00000000000E+00 -0.45593999997E+02  0.45594000000E+02  0.51100000000E-03 0.  1.
    9900012    2    1    2    0    0  0.26611190871E+02  0.22216913155E+02  0.28763983394E+02  0.46142318182E+02  0.10000003838E+02 0.  0.
        -12    1    1    2    0    0 -0.26611190871E+02 -0.22216913155E+02 -0.28763983394E+02  0.45045681818E+02  0.00000000000E+00 0.  1.
         11    1    3    3    0    0  0.40120831808E+01  0.49389369436E+01  0.23221781086E+01  0.67736563990E+01  0.51100000000E-03 0. -1.
        -11    1    3    3    0    0  0.11534122565E+01 -0.33662651850E+00  0.29033783868E+00  0.12361122797E+01  0.51100000000E-03 0.  1.
         12    1    3    3    0    0  0.21445695434E+02  0.17614602730E+02  0.26151467447E+02  0.38132549503E+02  0.00000000000E+00 0. -1.
</event>
<event>
 7    1  0.4141894E-008  0.4614232E+02  0.7816164E-02  0.1320468E+00
        -11   -1    0    0    0    0  0.00000000000E+00  0.00000000000E+00  0.45593999997E+02  0.45594000000E+02  0.51100000000E-03 0.  1.
         11   -1    0    0    0    0 -0.00000000000E+00 -0.00000000000E+00 -0.45593999997E+02  0.45594000000E+02  0.51100000000E-03 0. -1.
    9900012    2    1    2    0    0 -0.40972801213E+02  0.18658782097E+02 -0.14808467884E+01  0.46142317678E+02  0.99999992454E+01 0.  0.
        -12    1    1    2    0    0  0.40972801213E+02 -0.18658782097E+02  0.14808467884E+01  0.45045682322E+02  0.00000000000E+00 0.  1.
         11    1    3    3    0    0 -0.23748274546E+02  0.12584151885E+02 -0.26163529425E+00  0.26877683603E+02  0.51100000000E-03 0. -1.
        -11    1    3    3    0    0 -0.12788453094E+02  0.15852506039E+01 -0.13089010269E+01  0.12952635800E+02  0.51100000000E-03 0.  1.
         12    1    3    3    0    0 -0.44360735736E+01  0.44893796079E+01  0.89689532823E-01  0.63119982752E+01  0.00000000000E+00 0. -1.
</event>
<event>
 7    1  0.4141894E-008  0.4614232E+02  0.7816164E-02  0.1320468E+00
        -11   -1    0    0    0    0  0.00000000000E+00  0.00000000000E+00  0.45593999997E+02  0.45594000000E+02  0.51100000000E-03 0. -1.
         11   -1    0    0    0    0 -0.00000000000E+00 -0.00000000000E+00 -0.45593999997E+02  0.45594000000E+02  0.51100000000E-03 0.  1.
    9900012    2    1    2    0    0 -0.31694659853E+02  0.31335663330E+02  0.65298042383E+01  0.46142316490E+02  0.99999884083E+01 0.  0.
        -12    1    1    2    0    0  0.31694659853E+02 -0.31335663330E+02 -0.65298042383E+01  0.45045683510E+02  0.00000000000E+00 0.  1.
         11    1    3    3    0    0 -0.36462525882E+00  0.44826987862E+00 -0.74485077238E+00  0.94270907372E+00  0.51100000000E-03 0.  1.
        -11    1    3    3    0    0 -0.19339363756E+02  0.16771885534E+02  0.90833312354E+00  0.25615077673E+02  0.51100000000E-03 0. -1.
         12    1    3    3    0    0 -0.11990670838E+02  0.14115507917E+02  0.63663218871E+01  0.19584529743E+02  0.00000000000E+00 0. -1.
</event>
<event>
 7    1  0.4141894E-008  0.4614232E+02  0.7816164E-02  0.1320468E+00
        -11   -1    0    0    0    0  0.00000000000E+00  0.00000000000E+00  0.45593999997E+02  0.45594000000E+02  0.51100000000E-03 0. -1.
         11   -1    0    0    0    0 -0.00000000000E+00 -0.00000000000E+00 -0.45593999997E+02  0.45594000000E+02  0.51100000000E-03 0.  1.
    9900012    2    1    2    0    0 -0.18776978022E+02  0.23267085337E+01  0.40879395983E+02  0.46142317719E+02  0.99999996133E+01 0.  0.
        -12    1    1    2    0    0  0.18776978022E+02 -0.23267085337E+01 -0.40879395983E+02  0.45045682281E+02  0.00000000000E+00 0.  1.
         11    1    3    3    0    0 -0.75116661093E+01 -0.21413491385E+01  0.10954560887E+02  0.13454103774E+02  0.51100000000E-03 0. -1.
        -11    1    3    3    0    0 -0.50357249208E+01  0.15530213389E+01  0.70507756542E+01  0.88024904626E+01  0.51100000000E-03 0.  1.
         12    1    3    3    0    0 -0.62295869915E+01  0.29150363333E+01  0.22874059442E+02  0.23885723482E+02  0.00000000000E+00 0. -1.
</event>
<event>
 7    1  0.4141894E-008  0.4614232E+02  0.7816164E-02  0.1320468E+00
        -11   -1    0    0    0    0  0.00000000000E+00  0.00000000000E+00  0.45593999997E+02  0.45594000000E+02  0.51100000000E-03 0.  1.
         11   -1    0    0    0    0 -0.00000000000E+00 -0.00000000000E+00 -0.45593999997E+02  0.45594000000E+02  0.51100000000E-03 0. -1.
    9900012    2    1    2    0    0 -0.22630047387E+02 -0.12130291235E+02 -0.37011493282E+02  0.46142316021E+02  0.99999841283E+01 0.  0.
        -12    1    1    2    0    0  0.22630047387E+02  0.12130291235E+02  0.37011493282E+02  0.45045683979E+02  0.00000000000E+00 0.  1.
         11    1    3    3    0    0 -0.34974727189E+01 -0.31622065095E+01 -0.41585848227E+01  0.62869462712E+01  0.51100000000E-03 0. -1.
        -11    1    3    3    0    0 -0.40687297190E+01  0.59527095695E+00 -0.30513368466E+01  0.51205044528E+01  0.51100000000E-03 0.  1.
         12    1    3    3    0    0 -0.15063844949E+02 -0.95633556826E+01 -0.29801571613E+02  0.34734865297E+02  0.00000000000E+00 0. -1.
</event>
<event>
 7    1  0.4141894E-008  0.4614232E+02  0.7816164E-02  0.1320468E+00
        -11   -1    0    0    0    0  0.00000000000E+00  0.00000000000E+00  0.45593999997E+02  0.45594000000E+02  0.51100000000E-03 0.  1.
         11   -1    0    0    0    0 -0.00000000000E+00 -0.00000000000E+00 -0.45593999997E+02  0.45594000000E+02  0.51100000000E-03 0. -1.
    9900012    2    1    2    0    0  0.29990611917E+02  0.43512155001E+01 -0.33327820612E+02  0.46142317563E+02  0.99999981956E+01 0.  0.
        -12    1    1    2    0    0 -0.29990611917E+02 -0.43512155001E+01  0.33327820612E+02  0.45045682437E+02  0.00000000000E+00 0.  1.
         11    1    3    3    0    0  0.54933555966E+01  0.21260444148E+01 -0.73919704024E+01  0.94518911999E+01  0.51100000000E-03 0. -1.
        -11    1    3    3    0    0  0.15053573895E+02  0.10138129866E+01 -0.99149944189E+01  0.18053947446E+02  0.51100000000E-03 0.  1.
        -12    1    3    3    0    0  0.94436824252E+01  0.12113580987E+01 -0.16020855791E+02  0.18636478918E+02  0.00000000000E+00 0.  1.
</event>
<event>
 7    1  0.4141894E-008  0.4614232E+02  0.7816164E-02  0.1320468E+00
        -11   -1    0    0    0    0  0.00000000000E+00  0.00000000000E+00  0.45593999997E+02  0.45594000000E+02  0.51100000000E-03 0. -1.
         11   -1    0    0    0    0 -0.00000000000E+00 -0.00000000000E+00 -0.45593999997E+02  0.45594000000E+02  0.51100000000E-03 0.  1.
    9900012    2    1    2    0    0 -0.20086469830E+02 -0.25296241667E+02  0.31396610627E+02  0.46142320167E+02  0.10000021938E+02 0.  0.
        -12    1    1    2    0    0  0.20086469830E+02  0.25296241667E+02 -0.31396610627E+02  0.45045679833E+02  0.00000000000E+00 0.  1.
         11    1    3    3    0    0 -0.33876107987E+01 -0.65428256674E+01  0.95593684902E+01  0.12069217076E+02  0.51100000000E-03 0. -1.
        -11    1    3    3    0    0 -0.32625736123E+01 -0.85934395047E+01  0.92868738739E+01  0.13066660465E+02  0.51100000000E-03 0.  1.
         12    1    3    3    0    0 -0.13436285419E+02 -0.10159976495E+02  0.12550368263E+02  0.21006442626E+02  0.00000000000E+00 0. -1.
</event>
<event>
 7    1  0.4141894E-008  0.4614232E+02  0.7816164E-02  0.1320468E+00
        -11   -1    0    0    0    0  0.00000000000E+00  0.00000000000E+00  0.45593999997E+02  0.45594000000E+02  0.51100000000E-03 0.  1.
         11   -1    0    0    0    0 -0.00000000000E+00 -0.00000000000E+00 -0.45593999997E+02  0.45594000000E+02  0.51100000000E-03 0. -1.
    9900012    2    1    2    0    0 -0.32230737898E+02 -0.11774975869E+02 -0.29182922312E+02  0.46142317889E+02  0.10000001165E+02 0.  0.
        -12    1    1    2    0    0  0.32230737898E+02  0.11774975869E+02  0.29182922312E+02  0.45045682111E+02  0.00000000000E+00 0.  1.
         11    1    3    3    0    0 -0.28152866135E+02 -0.10913681184E+02 -0.23691697680E+02  0.38379536837E+02  0.51100000000E-03 0. -1.
        -11    1    3    3    0    0 -0.83995210994E+00 -0.17781881008E+01 -0.29518226126E+01  0.35469324023E+01  0.51100000000E-03 0.  1.
         12    1    3    3    0    0 -0.32379196540E+01  0.91689341638E+00 -0.25394020189E+01  0.42158486496E+01  0.00000000000E+00 0. -1.
</event>
<event>
 7    1  0.4141894E-008  0.4614232E+02  0.7816164E-02  0.1320468E+00
        -11   -1    0    0    0    0  0.00000000000E+00  0.00000000000E+00  0.45593999997E+02  0.45594000000E+02  0.51100000000E-03 0.  1.
         11   -1    0    0    0    0 -0.00000000000E+00 -0.00000000000E+00 -0.45593999997E+02  0.45594000000E+02  0.51100000000E-03 0. -1.
    9900012    2    1    2    0    0 -0.79384262590E+01 -0.38472989595E+01 -0.44173443252E+02  0.46142318636E+02  0.10000007982E+02 0.  0.
        -12    1    1    2    0    0  0.79384262590E+01  0.38472989595E+01  0.44173443252E+02  0.45045681364E+02  0.00000000000E+00 0.  1.
         11    1    3    3    0    0 -0.36781962392E+01 -0.29754309962E+01 -0.22986681972E+02  0.23468486648E+02  0.51100000000E-03 0. -1.
        -11    1    3    3    0    0 -0.22349483984E+01  0.28783575862E+01 -0.74940453413E+01  0.83331058181E+01  0.51100000000E-03 0.  1.
        -12    1    3    3    0    0 -0.20252816214E+01 -0.37502255494E+01 -0.13692715939E+02  0.14340726171E+02  0.00000000000E+00 0.  1.
</event>
<event>
 7    1  0.4141894E-008  0.4614232E+02  0.7816164E-02  0.1320468E+00
        -11   -1    0    0    0    0  0.00000000000E+00  0.00000000000E+00  0.45593999997E+02  0.45594000000E+02  0.51100000000E-03 0.  1.
         11   -1    0    0    0    0 -0.00000000000E+00 -0.00000000000E+00 -0.45593999997E+02  0.45594000000E+02  0.51100000000E-03 0. -1.
    9900012    2    1    2    0    0 -0.18664059856E+01 -0.25871342032E+02 -0.36828028238E+02  0.46142317923E+02  0.10000001480E+02 0.  0.
        -12    1    1    2    0    0  0.18664059856E+01  0.25871342032E+02  0.36828028238E+02  0.45045682077E+02  0.00000000000E+00 0.  1.
         11    1    3    3    0    0  0.14383030037E+01 -0.61323696163E+00 -0.22554681432E+01  0.27444328936E+01  0.51100000000E-03 0. -1.
        -11    1    3    3    0    0 -0.53902477207E+00 -0.11253148572E+01 -0.13443330746E+00  0.12549716364E+01  0.51100000000E-03 0.  1.
         12    1    3    3    0    0 -0.27656842173E+01 -0.24132790214E+02 -0.34438126787E+02  0.42142913393E+02  0.00000000000E+00 0. -1.
</event>
<event>
 7    1  0.4141894E-008  0.4614232E+02  0.7816164E-02  0.1320468E+00
        -11   -1    0    0    0    0  0.00000000000E+00  0.00000000000E+00  0.45593999997E+02  0.45594000000E+02  0.51100000000E-03 0.  1.
         11   -1    0    0    0    0 -0.00000000000E+00 -0.00000000000E+00 -0.45593999997E+02  0.45594000000E+02  0.51100000000E-03 0. -1.
    9900012    2    1    2    0    0 -0.28042028890E+01 -0.44916817622E+02 -0.19311720295E+01  0.46142317804E+02  0.10000000391E+02 0.  0.
        -12    1    1    2    0    0  0.28042028890E+01  0.44916817622E+02  0.19311720295E+01  0.45045682196E+02  0.00000000000E+00 0.  1.
         11    1    3    3    0    0  0.68647236454E+00 -0.20437307622E+02  0.35527344172E+00  0.20451919388E+02  0.51100000000E-03 0. -1.
        -11    1    3    3    0    0 -0.35750201434E+01 -0.11476747561E+02  0.15815179870E+01  0.12124260926E+02  0.51100000000E-03 0.  1.
         12    1    3    3    0    0  0.84344889854E-01 -0.13002762439E+02 -0.38679634582E+01  0.13566137491E+02  0.00000000000E+00 0. -1.
</event>
<event>
 7    1  0.4141894E-008  0.4614232E+02  0.7816164E-02  0.1320468E+00
        -11   -1    0    0    0    0  0.00000000000E+00  0.00000000000E+00  0.45593999997E+02  0.45594000000E+02  0.51100000000E-03 0.  1.
         11   -1    0    0    0    0 -0.00000000000E+00 -0.00000000000E+00 -0.45593999997E+02  0.45594000000E+02  0.51100000000E-03 0. -1.
    9900012    2    1    2    0    0  0.21403401596E+02 -0.12245753810E+02 -0.37696807794E+02  0.46142318697E+02  0.10000008530E+02 0.  0.
        -12    1    1    2    0    0 -0.21403401596E+02  0.12245753810E+02  0.37696807794E+02  0.45045681303E+02  0.00000000000E+00 0.  1.
         11    1    3    3    0    0  0.11562386228E+02 -0.58411048262E+01 -0.13019097167E+02  0.18365842539E+02  0.51100000000E-03 0. -1.
        -11    1    3    3    0    0  0.52350312049E+00 -0.25975032151E+01 -0.43542396440E+01  0.50971052184E+01  0.51100000000E-03 0.  1.
        -12    1    3    3    0    0  0.93175122472E+01 -0.38071457686E+01 -0.20323470983E+02  0.22679370939E+02  0.00000000000E+00 0.  1.
</event>
<event>
 7    1  0.4141894E-008  0.4614232E+02  0.7816164E-02  0.1320468E+00
        -11   -1    0    0    0    0  0.00000000000E+00  0.00000000000E+00  0.45593999997E+02  0.45594000000E+02  0.51100000000E-03 0. -1.
         11   -1    0    0    0    0 -0.00000000000E+00 -0.00000000000E+00 -0.45593999997E+02  0.45594000000E+02  0.51100000000E-03 0.  1.
    9900012    2    1    2    0    0 -0.32626601323E+02 -0.83770259085E+01 -0.29907254584E+02  0.46142317036E+02  0.99999933898E+01 0.  0.
        -12    1    1    2    0    0  0.32626601323E+02  0.83770259085E+01  0.29907254584E+02  0.45045682964E+02  0.00000000000E+00 0.  1.
         11    1    3    3    0    0 -0.47363994025E+01  0.12186553048E+01 -0.22929296883E+01  0.54014930222E+01  0.51100000000E-03 0. -1.
        -11    1    3    3    0    0 -0.45564517815E+01 -0.31505503514E+01 -0.71326442293E+01  0.90311590793E+01  0.51100000000E-03 0.  1.
         12    1    3    3    0    0 -0.23333750139E+02 -0.64451308620E+01 -0.20481680666E+02  0.31709664935E+02  0.00000000000E+00 0. -1.
</event>
<event>
 7    1  0.4141894E-008  0.4614232E+02  0.7816164E-02  0.1320468E+00
        -11   -1    0    0    0    0  0.00000000000E+00  0.00000000000E+00  0.45593999997E+02  0.45594000000E+02  0.51100000000E-03 0.  1.
         11   -1    0    0    0    0 -0.00000000000E+00 -0.00000000000E+00 -0.45593999997E+02  0.45594000000E+02  0.51100000000E-03 0. -1.
    9900012    2    1    2    0    0 -0.38369829597E+02 -0.50912944206E+01 -0.23042317402E+02  0.46142317705E+02  0.99999994855E+01 0.  0.
        -12    1    1    2    0    0  0.38369829597E+02  0.50912944206E+01  0.23042317402E+02  0.45045682295E+02  0.00000000000E+00 0.  1.
         11    1    3    3    0    0 -0.21163151470E+02 -0.18416846028E+01 -0.12883693904E+02  0.24844724816E+02  0.51100000000E-03 0. -1.
        -11    1    3    3    0    0 -0.37312874663E+00 -0.11492655264E+01  0.45015075162E+00  0.12894464983E+01  0.51100000000E-03 0.  1.
         12    1    3    3    0    0 -0.16833549380E+02 -0.21003442913E+01 -0.10608774250E+02  0.20008146390E+02  0.00000000000E+00 0. -1.
</event>
<event>
 7    1  0.4141894E-008  0.4614232E+02  0.7816164E-02  0.1320468E+00
        -11   -1    0    0    0    0  0.00000000000E+00  0.00000000000E+00  0.45593999997E+02  0.45594000000E+02  0.51100000000E-03 0.  1.
         11   -1    0    0    0    0 -0.00000000000E+00 -0.00000000000E+00 -0.45593999997E+02  0.45594000000E+02  0.51100000000E-03 0. -1.
    9900012    2    1    2    0    0 -0.30676663611E+02  0.32112880530E+02 -0.75378160549E+01  0.46142318108E+02  0.10000003161E+02 0.  0.
        -12    1    1    2    0    0  0.30676663611E+02 -0.32112880530E+02  0.75378160549E+01  0.45045681892E+02  0.00000000000E+00 0.  1.
         11    1    3    3    0    0 -0.31481438559E+01  0.34211980892E+01 -0.19153838199E+01  0.50283298959E+01  0.51100000000E-03 0. -1.
        -11    1    3    3    0    0 -0.16151591716E+02  0.10700068611E+02 -0.38521327426E+01  0.19753589805E+02  0.51100000000E-03 0.  1.
         12    1    3    3    0    0 -0.11376928039E+02  0.17991613830E+02 -0.17702994925E+01  0.21360398407E+02  0.00000000000E+00 0. -1.
</event>
<event>
 7    1  0.4141894E-008  0.4614232E+02  0.7816164E-02  0.1320468E+00
        -11   -1    0    0    0    0  0.00000000000E+00  0.00000000000E+00  0.45593999997E+02  0.45594000000E+02  0.51100000000E-03 0. -1.
         11   -1    0    0    0    0 -0.00000000000E+00 -0.00000000000E+00 -0.45593999997E+02  0.45594000000E+02  0.51100000000E-03 0.  1.
    9900012    2    1    2    0    0  0.27392338716E+02 -0.21338311445E+02  0.28695814095E+02  0.46142317607E+02  0.99999985929E+01 0.  0.
        -12    1    1    2    0    0 -0.27392338716E+02  0.21338311445E+02 -0.28695814095E+02  0.45045682393E+02  0.00000000000E+00 0.  1.
         11    1    3    3    0    0  0.64879110220E+01 -0.71789444416E+01  0.36321078486E+01  0.10335494202E+02  0.51100000000E-03 0. -1.
        -11    1    3    3    0    0  0.74265070851E+00 -0.30069307020E-02  0.12698032666E+00  0.75343439062E+00  0.51100000000E-03 0.  1.
         12    1    3    3    0    0  0.20161776986E+02 -0.14156360073E+02  0.24936725920E+02  0.35053389014E+02  0.00000000000E+00 0. -1.
</event>
<event>
 7    1  0.4141894E-008  0.4614232E+02  0.7816164E-02  0.1320468E+00
        -11   -1    0    0    0    0  0.00000000000E+00  0.00000000000E+00  0.45593999997E+02  0.45594000000E+02  0.51100000000E-03 0.  1.
         11   -1    0    0    0    0 -0.00000000000E+00 -0.00000000000E+00 -0.45593999997E+02  0.45594000000E+02  0.51100000000E-03 0. -1.
    9900012    2    1    2    0    0 -0.33486071849E+02 -0.92853625246E+01 -0.28663190411E+02  0.46142318192E+02  0.10000003926E+02 0.  0.
        -12    1    1    2    0    0  0.33486071849E+02  0.92853625246E+01  0.28663190411E+02  0.45045681808E+02  0.00000000000E+00 0.  1.
         11    1    3    3    0    0 -0.26133616438E+02 -0.10702814184E+02 -0.22444892820E+02  0.36073388440E+02  0.51100000000E-03 0. -1.
        -11    1    3    3    0    0 -0.22333071734E+01  0.37000406005E+00 -0.49134676528E+00  0.23164597644E+01  0.51100000000E-03 0.  1.
         12    1    3    3    0    0 -0.51191482372E+01  0.10474475992E+01 -0.57269508253E+01  0.77524699872E+01  0.00000000000E+00 0. -1.
</event>
<event>
 7    1  0.4141894E-008  0.4614232E+02  0.7816164E-02  0.1320468E+00
        -11   -1    0    0    0    0  0.00000000000E+00  0.00000000000E+00  0.45593999997E+02  0.45594000000E+02  0.51100000000E-03 0.  1.
         11   -1    0    0    0    0 -0.00000000000E+00 -0.00000000000E+00 -0.45593999997E+02  0.45594000000E+02  0.51100000000E-03 0. -1.
    9900012    2    1    2    0    0  0.41666057208E+02 -0.14788135212E+02  0.86234680710E+01  0.46142317988E+02  0.10000002070E+02 0.  0.
        -12    1    1    2    0    0 -0.41666057208E+02  0.14788135212E+02 -0.86234680710E+01  0.45045682012E+02  0.00000000000E+00 0.  1.
         11    1    3    3    0    0  0.22452930188E+02 -0.63191611995E+01  0.81235167158E+01  0.24699339999E+02  0.51100000000E-03 0. -1.
        -11    1    3    3    0    0  0.11973704234E+01 -0.19302941392E+01  0.56458321533E-01  0.22722058001E+01  0.51100000000E-03 0.  1.
         12    1    3    3    0    0  0.18015756597E+02 -0.65386798735E+01  0.44349303369E+00  0.19170772189E+02  0.00000000000E+00 0. -1.
</event>
<event>
 7    1  0.4141894E-008  0.4614232E+02  0.7816164E-02  0.1320468E+00
        -11   -1    0    0    0    0  0.00000000000E+00  0.00000000000E+00  0.45593999997E+02  0.45594000000E+02  0.51100000000E-03 0.  1.
         11   -1    0    0    0    0 -0.00000000000E+00 -0.00000000000E+00 -0.45593999997E+02  0.45594000000E+02  0.51100000000E-03 0. -1.
    9900012    2    1    2    0    0 -0.29569408065E+02 -0.33918630170E+02 -0.20712556378E+01  0.46142318012E+02  0.10000002285E+02 0.  0.
        -12    1    1    2    0    0  0.29569408065E+02  0.33918630170E+02  0.20712556378E+01  0.45045681988E+02  0.00000000000E+00 0.  1.
         11    1    3    3    0    0 -0.20066434721E+02 -0.17312530445E+02 -0.38076847154E+01  0.26774689092E+02  0.51100000000E-03 0. -1.
        -11    1    3    3    0    0 -0.20644884537E+01 -0.47172542299E+01 -0.47150142557E+00  0.51707749806E+01  0.51100000000E-03 0.  1.
         12    1    3    3    0    0 -0.74384848898E+01 -0.11888845495E+02  0.22079305032E+01  0.14196853939E+02  0.00000000000E+00 0. -1.
</event>
<event>
 7    1  0.4141894E-008  0.4614232E+02  0.7816164E-02  0.1320468E+00
        -11   -1    0    0    0    0  0.00000000000E+00  0.00000000000E+00  0.45593999997E+02  0.45594000000E+02  0.51100000000E-03 0. -1.
         11   -1    0    0    0    0 -0.00000000000E+00 -0.00000000000E+00 -0.45593999997E+02  0.45594000000E+02  0.51100000000E-03 0.  1.
    9900012    2    1    2    0    0  0.62405029186E+01  0.40829211932E+02 -0.17976240076E+02  0.46142316178E+02  0.99999855653E+01 0.  0.
        -12    1    1    2    0    0 -0.62405029186E+01 -0.40829211932E+02  0.17976240076E+02  0.45045683822E+02  0.00000000000E+00 0.  1.
         11    1    3    3    0    0  0.41508102609E+01  0.20350470320E+02 -0.11322087789E+02  0.23655032028E+02  0.51100000000E-03 0. -1.
        -11    1    3    3    0    0  0.36937344294E+00  0.37177669045E+01 -0.39246709877E+01  0.54186040748E+01  0.51100000000E-03 0.  1.
         12    1    3    3    0    0  0.17203192147E+01  0.16760974708E+02 -0.27294812994E+01  0.17068680075E+02  0.00000000000E+00 0. -1.
</event>
<event>
 7    1  0.4141894E-008  0.4614232E+02  0.7816164E-02  0.1320468E+00
        -11   -1    0    0    0    0  0.00000000000E+00  0.00000000000E+00  0.45593999997E+02  0.45594000000E+02  0.51100000000E-03 0. -1.
         11   -1    0    0    0    0 -0.00000000000E+00 -0.00000000000E+00 -0.45593999997E+02  0.45594000000E+02  0.51100000000E-03 0.  1.
    9900012    2    1    2    0    0  0.10488061578E+02 -0.43434659931E+02  0.57047591521E+01  0.46142318787E+02  0.10000009353E+02 0.  0.
        -12    1    1    2    0    0 -0.10488061578E+02  0.43434659931E+02 -0.57047591521E+01  0.45045681213E+02  0.00000000000E+00 0.  1.
         11    1    3    3    0    0  0.35061715217E+01 -0.12581144006E+02  0.23224250247E+01  0.13265446902E+02  0.51100000000E-03 0. -1.
        -11    1    3    3    0    0  0.49747703240E+01 -0.61669883283E+01  0.45413684088E+00  0.79363924644E+01  0.51100000000E-03 0.  1.
        -12    1    3    3    0    0  0.20071197325E+01 -0.24686527596E+02  0.29281972865E+01  0.24940479421E+02  0.00000000000E+00 0.  1.
</event>
<event>
 7    1  0.4141894E-008  0.4614232E+02  0.7816164E-02  0.1320468E+00
        -11   -1    0    0    0    0  0.00000000000E+00  0.00000000000E+00  0.45593999997E+02  0.45594000000E+02  0.51100000000E-03 0. -1.
         11   -1    0    0    0    0 -0.00000000000E+00 -0.00000000000E+00 -0.45593999997E+02  0.45594000000E+02  0.51100000000E-03 0.  1.
    9900012    2    1    2    0    0 -0.35328152411E+02  0.13178898670E+02  0.24644506332E+02  0.46142318573E+02  0.10000007400E+02 0.  0.
        -12    1    1    2    0    0  0.35328152411E+02 -0.13178898670E+02 -0.24644506332E+02  0.45045681427E+02  0.00000000000E+00 0.  1.
         11    1    3    3    0    0 -0.19944275527E+02  0.72566299120E+01  0.13663604754E+02  0.25241372765E+02  0.51100000000E-03 0. -1.
        -11    1    3    3    0    0 -0.10965979406E+02  0.24321834957E+01  0.39793911966E+01  0.11916533701E+02  0.51100000000E-03 0.  1.
         12    1    3    3    0    0 -0.44178974779E+01  0.34900852624E+01  0.70015103816E+01  0.89844121059E+01  0.00000000000E+00 0. -1.
</event>
<event>
 7    1  0.4141894E-008  0.4614232E+02  0.7816164E-02  0.1320468E+00
        -11   -1    0    0    0    0  0.00000000000E+00  0.00000000000E+00  0.45593999997E+02  0.45594000000E+02  0.51100000000E-03 0.  1.
         11   -1    0    0    0    0 -0.00000000000E+00 -0.00000000000E+00 -0.45593999997E+02  0.45594000000E+02  0.51100000000E-03 0. -1.
    9900012    2    1    2    0    0  0.22226607127E+02 -0.23867884548E+02 -0.31071137651E+02  0.46142316832E+02  0.99999915257E+01 0.  0.
        -12    1    1    2    0    0 -0.22226607127E+02  0.23867884548E+02  0.31071137651E+02  0.45045683168E+02  0.00000000000E+00 0.  1.
         11    1    3    3    0    0  0.77758033697E+01 -0.51324555439E+01 -0.10766447038E+02  0.14238033573E+02  0.51100000000E-03 0. -1.
        -11    1    3    3    0    0  0.13497577015E+01  0.38359804098E+00 -0.15394379879E+01  0.20829937325E+01  0.51100000000E-03 0.  1.
        -12    1    3    3    0    0  0.13101046056E+02 -0.19119027045E+02 -0.18765252625E+02  0.29821289526E+02  0.00000000000E+00 0.  1.
</event>
<event>
 7    1  0.4141894E-008  0.4614232E+02  0.7816164E-02  0.1320468E+00
        -11   -1    0    0    0    0  0.00000000000E+00  0.00000000000E+00  0.45593999997E+02  0.45594000000E+02  0.51100000000E-03 0.  1.
         11   -1    0    0    0    0 -0.00000000000E+00 -0.00000000000E+00 -0.45593999997E+02  0.45594000000E+02  0.51100000000E-03 0. -1.
    9900012    2    1    2    0    0 -0.11429730030E+02  0.43531737736E+02 -0.18608424314E+01  0.46142315929E+02  0.99999832918E+01 0.  0.
        -12    1    1    2    0    0  0.11429730030E+02 -0.43531737736E+02  0.18608424314E+01  0.45045684071E+02  0.00000000000E+00 0.  1.
         11    1    3    3    0    0 -0.19440764961E+01  0.46625674113E+01 -0.11401286115E+01  0.51786930590E+01  0.51100000000E-03 0.  1.
        -11    1    3    3    0    0  0.16393780653E+01  0.73814702376E+01 -0.38664417312E-01  0.75614256928E+01  0.51100000000E-03 0. -1.
         12    1    3    3    0    0 -0.11125031599E+02  0.31487700087E+02 -0.68204940257E+00  0.33402197177E+02  0.00000000000E+00 0. -1.
</event>
<event>
 7    1  0.4141894E-008  0.4614231E+02  0.7816164E-02  0.1320468E+00
        -11   -1    0    0    0    0  0.00000000000E+00  0.00000000000E+00  0.45593999997E+02  0.45594000000E+02  0.51100000000E-03 0.  1.
         11   -1    0    0    0    0 -0.00000000000E+00 -0.00000000000E+00 -0.45593999997E+02  0.45594000000E+02  0.51100000000E-03 0. -1.
    9900012    2    1    2    0    0  0.67570889961E+01  0.36271692460E+02 -0.25842210134E+02  0.46142314855E+02  0.99999735014E+01 0.  0.
        -12    1    1    2    0    0 -0.67570889961E+01 -0.36271692460E+02  0.25842210134E+02  0.45045685145E+02  0.00000000000E+00 0.  1.
         11    1    3    3    0    0  0.26100547959E+01  0.42926693583E+01 -0.52870486108E+01  0.72933037460E+01  0.51100000000E-03 0. -1.
        -11    1    3    3    0    0  0.31853728444E+01  0.74643224994E+01 -0.75364971092E+01  0.11075265210E+02  0.51100000000E-03 0.  1.
         12    1    3    3    0    0  0.96166135574E+00  0.24514700602E+02 -0.13018664414E+02  0.27773745899E+02  0.00000000000E+00 0. -1.
</event>
<event>
 7    1  0.4141894E-008  0.4614232E+02  0.7816164E-02  0.1320468E+00
        -11   -1    0    0    0    0  0.00000000000E+00  0.00000000000E+00  0.45593999997E+02  0.45594000000E+02  0.51100000000E-03 0. -1.
         11   -1    0    0    0    0 -0.00000000000E+00 -0.00000000000E+00 -0.45593999997E+02  0.45594000000E+02  0.51100000000E-03 0.  1.
    9900012    2    1    2    0    0 -0.40040863828E+02  0.20609615680E+02 -0.10421469766E+01  0.46142322018E+02  0.10000038818E+02 0.  0.
        -12    1    1    2    0    0  0.40040863828E+02 -0.20609615680E+02  0.10421469766E+01  0.45045677982E+02  0.00000000000E+00 0.  1.
         11    1    3    3    0    0 -0.23310821712E+02  0.95248101718E+01  0.28601378525E+01  0.25343575251E+02  0.51100000000E-03 0. -1.
        -11    1    3    3    0    0 -0.15003491419E+02  0.85993735789E+01 -0.40775583538E+01  0.17767398884E+02  0.51100000000E-03 0.  1.
         12    1    3    3    0    0 -0.17265506973E+01  0.24854319293E+01  0.17527352468E+00  0.30313478840E+01  0.00000000000E+00 0. -1.
</event>
<event>
 7    1  0.4141894E-008  0.4614232E+02  0.7816164E-02  0.1320468E+00
        -11   -1    0    0    0    0  0.00000000000E+00  0.00000000000E+00  0.45593999997E+02  0.45594000000E+02  0.51100000000E-03 0. -1.
         11   -1    0    0    0    0 -0.00000000000E+00 -0.00000000000E+00 -0.45593999997E+02  0.45594000000E+02  0.51100000000E-03 0.  1.
    9900012    2    1    2    0    0 -0.34688412999E+02 -0.28539491760E+02 -0.33652235190E+01  0.46142319679E+02  0.10000017488E+02 0.  0.
        -12    1    1    2    0    0  0.34688412999E+02  0.28539491760E+02  0.33652235190E+01  0.45045680321E+02  0.00000000000E+00 0.  1.
         11    1    3    3    0    0 -0.39559070826E+00  0.40840821295E+00  0.12237121388E+00  0.58160489335E+00  0.51100000000E-03 0.  1.
        -11    1    3    3    0    0 -0.28726066570E+02 -0.22614610954E+02 -0.52837685233E+01  0.36939487534E+02  0.51100000000E-03 0. -1.
         12    1    3    3    0    0 -0.55667557204E+01 -0.63332890188E+01  0.17961737904E+01  0.86212272520E+01  0.00000000000E+00 0. -1.
</event>
<event>
 7    1  0.4141894E-008  0.4614232E+02  0.7816164E-02  0.1320468E+00
        -11   -1    0    0    0    0  0.00000000000E+00  0.00000000000E+00  0.45593999997E+02  0.45594000000E+02  0.51100000000E-03 0. -1.
         11   -1    0    0    0    0 -0.00000000000E+00 -0.00000000000E+00 -0.45593999997E+02  0.45594000000E+02  0.51100000000E-03 0.  1.
    9900012    2    1    2    0    0  0.25085141667E+02  0.14285385378E+01  0.37387275965E+02  0.46142318088E+02  0.10000002981E+02 0.  0.
        -12    1    1    2    0    0 -0.25085141667E+02 -0.14285385378E+01 -0.37387275965E+02  0.45045681912E+02  0.00000000000E+00 0.  1.
         11    1    3    3    0    0  0.98019998351E+01 -0.44800562185E-01  0.17778801964E+02  0.20301896646E+02  0.51100000000E-03 0. -1.
        -11    1    3    3    0    0  0.73668484847E+01  0.41525582173E+01  0.10418099027E+02  0.13418307790E+02  0.51100000000E-03 0.  1.
        -12    1    3    3    0    0  0.79162933472E+01 -0.26792191173E+01  0.91903749740E+01  0.12422113653E+02  0.00000000000E+00 0.  1.
</event>
<event>
 7    1  0.4141894E-008  0.4614232E+02  0.7816164E-02  0.1320468E+00
        -11   -1    0    0    0    0  0.00000000000E+00  0.00000000000E+00  0.45593999997E+02  0.45594000000E+02  0.51100000000E-03 0.  1.
         11   -1    0    0    0    0 -0.00000000000E+00 -0.00000000000E+00 -0.45593999997E+02  0.45594000000E+02  0.51100000000E-03 0. -1.
    9900012    2    1    2    0    0  0.14869011367E+02 -0.37020010144E+02 -0.20917571714E+02  0.46142318115E+02  0.10000003225E+02 0.  0.
        -12    1    1    2    0    0 -0.14869011367E+02  0.37020010144E+02  0.20917571714E+02  0.45045681885E+02  0.00000000000E+00 0.  1.
         11    1    3    3    0    0  0.32587980199E+01 -0.13470066202E+02 -0.57761283399E+01  0.15014196844E+02  0.51100000000E-03 0. -1.
        -11    1    3    3    0    0  0.96877235534E+00 -0.53342737347E+01 -0.49091416548E+00  0.54437113380E+01  0.51100000000E-03 0.  1.
        -12    1    3    3    0    0  0.10641440992E+02 -0.18215670208E+02 -0.14650529208E+02  0.25684409933E+02  0.00000000000E+00 0.  1.
</event>
<event>
 7    1  0.4141894E-008  0.4614232E+02  0.7816164E-02  0.1320468E+00
        -11   -1    0    0    0    0  0.00000000000E+00  0.00000000000E+00  0.45593999997E+02  0.45594000000E+02  0.51100000000E-03 0.  1.
         11   -1    0    0    0    0 -0.00000000000E+00 -0.00000000000E+00 -0.45593999997E+02  0.45594000000E+02  0.51100000000E-03 0. -1.
    9900012    2    1    2    0    0 -0.16477814567E+02  0.25711546519E+02 -0.33113613507E+02  0.46142318777E+02  0.10000009267E+02 0.  0.
        -12    1    1    2    0    0  0.16477814567E+02 -0.25711546519E+02  0.33113613507E+02  0.45045681223E+02  0.00000000000E+00 0.  1.
         11    1    3    3    0    0 -0.41469278814E+00  0.96795974140E+00 -0.37640133601E+01  0.39085435913E+01  0.51100000000E-03 0. -1.
        -11    1    3    3    0    0 -0.11783065797E+02  0.17104456042E+02 -0.24855726849E+02  0.32391514530E+02  0.51100000000E-03 0.  1.
        -12    1    3    3    0    0 -0.42800559817E+01  0.76391307363E+01 -0.44938732980E+01  0.98422606565E+01  0.00000000000E+00 0.  1.
</event>
<event>
 7    1  0.4141894E-008  0.4614232E+02  0.7816164E-02  0.1320468E+00
        -11   -1    0    0    0    0  0.00000000000E+00  0.00000000000E+00  0.45593999997E+02  0.45594000000E+02  0.51100000000E-03 0.  1.
         11   -1    0    0    0    0 -0.00000000000E+00 -0.00000000000E+00 -0.45593999997E+02  0.45594000000E+02  0.51100000000E-03 0. -1.
    9900012    2    1    2    0    0  0.23960338398E+02  0.21835757752E+02 -0.31276434727E+02  0.46142317610E+02  0.99999986210E+01 0.  0.
        -12    1    1    2    0    0 -0.23960338398E+02 -0.21835757752E+02  0.31276434727E+02  0.45045682390E+02  0.00000000000E+00 0.  1.
         11    1    3    3    0    0  0.17064061988E+02  0.16040888571E+02 -0.17932266442E+02  0.29496754019E+02  0.51100000000E-03 0. -1.
        -11    1    3    3    0    0  0.46587196218E+01  0.60872906536E+01 -0.10814796198E+02  0.13255888997E+02  0.51100000000E-03 0.  1.
        -12    1    3    3    0    0  0.22375567881E+01 -0.29242147275E+00 -0.25293720871E+01  0.33896745939E+01  0.00000000000E+00 0.  1.
</event>
<event>
 7    1  0.4141894E-008  0.4614232E+02  0.7816164E-02  0.1320468E+00
        -11   -1    0    0    0    0  0.00000000000E+00  0.00000000000E+00  0.45593999997E+02  0.45594000000E+02  0.51100000000E-03 0.  1.
         11   -1    0    0    0    0 -0.00000000000E+00 -0.00000000000E+00 -0.45593999997E+02  0.45594000000E+02  0.51100000000E-03 0. -1.
    9900012    2    1    2    0    0  0.25994145924E+02 -0.74067074288E+01 -0.36035517538E+02  0.46142318059E+02  0.10000002719E+02 0.  0.
        -12    1    1    2    0    0 -0.25994145924E+02  0.74067074288E+01  0.36035517538E+02  0.45045681941E+02  0.00000000000E+00 0.  1.
         11    1    3    3    0    0  0.23623185767E+02 -0.73750037607E+01 -0.29665390764E+02  0.38632641583E+02  0.51100000000E-03 0. -1.
        -11    1    3    3    0    0  0.27826656889E+01 -0.97437222186E+00 -0.47382400233E+01  0.55806404957E+01  0.51100000000E-03 0.  1.
        -12    1    3    3    0    0 -0.41170553140E+00  0.94266855375E+00 -0.16318867511E+01  0.19290359808E+01  0.00000000000E+00 0.  1.
</event>
<event>
 7    1  0.4141894E-008  0.4614232E+02  0.7816164E-02  0.1320468E+00
        -11   -1    0    0    0    0  0.00000000000E+00  0.00000000000E+00  0.45593999997E+02  0.45594000000E+02  0.51100000000E-03 0.  1.
         11   -1    0    0    0    0 -0.00000000000E+00 -0.00000000000E+00 -0.45593999997E+02  0.45594000000E+02  0.51100000000E-03 0. -1.
    9900012    2    1    2    0    0 -0.42372013469E+01 -0.29942188903E+02 -0.33385999249E+02  0.46142317661E+02  0.99999990838E+01 0.  0.
        -12    1    1    2    0    0  0.42372013469E+01  0.29942188903E+02  0.33385999249E+02  0.45045682339E+02  0.00000000000E+00 0.  1.
         11    1    3    3    0    0 -0.93553640853E-01 -0.27296325812E+01 -0.47874793368E+01  0.55117696771E+01  0.51100000000E-03 0. -1.
        -11    1    3    3    0    0 -0.28773166917E+01 -0.16207722017E+02 -0.22816988710E+02  0.28135105800E+02  0.51100000000E-03 0.  1.
         12    1    3    3    0    0 -0.12663310143E+01 -0.11004834305E+02 -0.57815312019E+01  0.12495442183E+02  0.00000000000E+00 0. -1.
</event>
<event>
 7    1  0.4141894E-008  0.4614232E+02  0.7816164E-02  0.1320468E+00
        -11   -1    0    0    0    0  0.00000000000E+00  0.00000000000E+00  0.45593999997E+02  0.45594000000E+02  0.51100000000E-03 0.  1.
         11   -1    0    0    0    0 -0.00000000000E+00 -0.00000000000E+00 -0.45593999997E+02  0.45594000000E+02  0.51100000000E-03 0. -1.
    9900012    2    1    2    0    0  0.22112747994E+02  0.27305658483E+02 -0.28187601332E+02  0.46142317877E+02  0.10000001060E+02 0.  0.
        -12    1    1    2    0    0 -0.22112747994E+02 -0.27305658483E+02  0.28187601332E+02  0.45045682123E+02  0.00000000000E+00 0.  1.
         11    1    3    3    0    0  0.19339112607E+02  0.21858315659E+02 -0.25566836329E+02  0.38800133505E+02  0.51100000000E-03 0. -1.
        -11    1    3    3    0    0  0.22518362379E+01  0.47175142927E+01 -0.33305020429E+01  0.61982216533E+01  0.51100000000E-03 0.  1.
        -12    1    3    3    0    0  0.52179914852E+00  0.72982853152E+00  0.70973703974E+00  0.11439627190E+01  0.00000000000E+00 0.  1.
</event>
<event>
 7    1  0.4141894E-008  0.4614232E+02  0.7816164E-02  0.1320468E+00
        -11   -1    0    0    0    0  0.00000000000E+00  0.00000000000E+00  0.45593999997E+02  0.45594000000E+02  0.51100000000E-03 0.  1.
         11   -1    0    0    0    0 -0.00000000000E+00 -0.00000000000E+00 -0.45593999997E+02  0.45594000000E+02  0.51100000000E-03 0. -1.
    9900012    2    1    2    0    0  0.35120287054E+02 -0.24922145609E+02 -0.13212326459E+02  0.46142317910E+02  0.10000001360E+02 0.  0.
        -12    1    1    2    0    0 -0.35120287054E+02  0.24922145609E+02  0.13212326459E+02  0.45045682090E+02  0.00000000000E+00 0.  1.
         11    1    3    3    0    0  0.36314293558E+01 -0.14298257796E+01 -0.16351018323E+01  0.42314582816E+01  0.51100000000E-03 0. -1.
        -11    1    3    3    0    0  0.31519351889E+02 -0.22245290716E+02 -0.99147863238E+01  0.39832467795E+02  0.51100000000E-03 0.  1.
        -12    1    3    3    0    0 -0.30494190702E-01 -0.12470291126E+01 -0.16624383028E+01  0.20783918336E+01  0.00000000000E+00 0.  1.
</event>
<event>
 7    1  0.4141894E-008  0.4614232E+02  0.7816164E-02  0.1320468E+00
        -11   -1    0    0    0    0  0.00000000000E+00  0.00000000000E+00  0.45593999997E+02  0.45594000000E+02  0.51100000000E-03 0. -1.
         11   -1    0    0    0    0 -0.00000000000E+00 -0.00000000000E+00 -0.45593999997E+02  0.45594000000E+02  0.51100000000E-03 0.  1.
    9900012    2    1    2    0    0 -0.25110682699E+02 -0.20652197057E+02  0.31177778310E+02  0.46142317751E+02  0.99999999109E+01 0.  0.
        -12    1    1    2    0    0  0.25110682699E+02  0.20652197057E+02 -0.31177778310E+02  0.45045682249E+02  0.00000000000E+00 0.  1.
         11    1    3    3    0    0 -0.41816906074E+01 -0.42535337025E+01  0.73178484471E+01  0.94408681513E+01  0.51100000000E-03 0. -1.
        -11    1    3    3    0    0  0.51615127904E+00 -0.10725816787E+01  0.25208499318E+01  0.27877460860E+01  0.51100000000E-03 0.  1.
         12    1    3    3    0    0 -0.21445143371E+02 -0.15326081676E+02  0.21339079931E+02  0.33913703514E+02  0.00000000000E+00 0. -1.
</event>
<event>
 7    1  0.4141894E-008  0.4614232E+02  0.7816164E-02  0.1320468E+00
        -11   -1    0    0    0    0  0.00000000000E+00  0.00000000000E+00  0.45593999997E+02  0.45594000000E+02  0.51100000000E-03 0. -1.
         11   -1    0    0    0    0 -0.00000000000E+00 -0.00000000000E+00 -0.45593999997E+02  0.45594000000E+02  0.51100000000E-03 0.  1.
    9900012    2    1    2    0    0 -0.17424529968E+02 -0.24500618809E+02  0.33544283220E+02  0.46142317594E+02  0.99999984764E+01 0.  0.
        -12    1    1    2    0    0  0.17424529968E+02  0.24500618809E+02 -0.33544283220E+02  0.45045682406E+02  0.00000000000E+00 0.  1.
         11    1    3    3    0    0 -0.14259313951E+02 -0.15834796486E+02  0.19836243552E+02  0.29112632527E+02  0.51100000000E-03 0. -1.
        -11    1    3    3    0    0  0.47882781927E+00  0.17095342353E+00  0.41242277246E+00  0.65467087753E+00  0.51100000000E-03 0.  1.
         12    1    3    3    0    0 -0.36440438364E+01 -0.88367757467E+01  0.13295616895E+02  0.16375014190E+02  0.00000000000E+00 0. -1.
</event>
<event>
 7    1  0.4141894E-008  0.4614232E+02  0.7816164E-02  0.1320468E+00
        -11   -1    0    0    0    0  0.00000000000E+00  0.00000000000E+00  0.45593999997E+02  0.45594000000E+02  0.51100000000E-03 0.  1.
         11   -1    0    0    0    0 -0.00000000000E+00 -0.00000000000E+00 -0.45593999997E+02  0.45594000000E+02  0.51100000000E-03 0. -1.
    9900012    2    1    2    0    0  0.42677127182E+02 -0.61518745138E+01  0.13035750865E+02  0.46142317130E+02  0.99999942491E+01 0.  0.
        -12    1    1    2    0    0 -0.42677127182E+02  0.61518745138E+01 -0.13035750865E+02  0.45045682870E+02  0.00000000000E+00 0.  1.
         11    1    3    3    0    0  0.76167164143E+01 -0.62745446772E+00  0.17122791665E+01  0.78319836728E+01  0.51100000000E-03 0. -1.
        -11    1    3    3    0    0  0.19191928947E+02 -0.65817857786E+01  0.91567575879E+01  0.22259745069E+02  0.51100000000E-03 0.  1.
        -12    1    3    3    0    0  0.15868481821E+02  0.10573657325E+01  0.21667141111E+01  0.16050588389E+02  0.00000000000E+00 0.  1.
</event>
<event>
 7    1  0.4141894E-008  0.4614232E+02  0.7816164E-02  0.1320468E+00
        -11   -1    0    0    0    0  0.00000000000E+00  0.00000000000E+00  0.45593999997E+02  0.45594000000E+02  0.51100000000E-03 0.  1.
         11   -1    0    0    0    0 -0.00000000000E+00 -0.00000000000E+00 -0.45593999997E+02  0.45594000000E+02  0.51100000000E-03 0. -1.
    9900012    2    1    2    0    0 -0.69342187477E+01 -0.44058534637E+02  0.63147098532E+01  0.46142318469E+02  0.10000006459E+02 0.  0.
        -12    1    1    2    0    0  0.69342187477E+01  0.44058534637E+02 -0.63147098532E+01  0.45045681531E+02  0.00000000000E+00 0.  1.
         11    1    3    3    0    0 -0.11576186492E+01 -0.67607273551E+01 -0.24855501625E+01  0.72955791530E+01  0.51100000000E-03 0. -1.
        -11    1    3    3    0    0 -0.25499946294E+01 -0.24239769528E+02  0.61481483618E+01  0.25136997194E+02  0.51100000000E-03 0.  1.
         12    1    3    3    0    0 -0.32266054691E+01 -0.13058037754E+02  0.26521116539E+01  0.13709742123E+02  0.00000000000E+00 0. -1.
</event>
<event>
 7    1  0.4141894E-008  0.4614232E+02  0.7816164E-02  0.1320468E+00
        -11   -1    0    0    0    0  0.00000000000E+00  0.00000000000E+00  0.45593999997E+02  0.45594000000E+02  0.51100000000E-03 0.  1.
         11   -1    0    0    0    0 -0.00000000000E+00 -0.00000000000E+00 -0.45593999997E+02  0.45594000000E+02  0.51100000000E-03 0. -1.
    9900012    2    1    2    0    0  0.14810034451E+02  0.23070801417E+02 -0.35742331194E+02  0.46142320544E+02  0.10000025376E+02 0.  0.
        -12    1    1    2    0    0 -0.14810034451E+02 -0.23070801417E+02  0.35742331194E+02  0.45045679456E+02  0.00000000000E+00 0.  1.
         11    1    3    3    0    0  0.35728602910E+01  0.15575096377E+01 -0.35595874807E+01  0.52784306592E+01  0.51100000000E-03 0. -1.
        -11    1    3    3    0    0  0.11245180671E+01  0.45777071938E+00 -0.44116857559E+01  0.45757039223E+01  0.51100000000E-03 0.  1.
        -12    1    3    3    0    0  0.10112656093E+02  0.21055521059E+02 -0.27771057958E+02  0.36288185962E+02  0.00000000000E+00 0.  1.
</event>
<event>
 7    1  0.4141894E-008  0.4614232E+02  0.7816164E-02  0.1320468E+00
        -11   -1    0    0    0    0  0.00000000000E+00  0.00000000000E+00  0.45593999997E+02  0.45594000000E+02  0.51100000000E-03 0. -1.
         11   -1    0    0    0    0 -0.00000000000E+00 -0.00000000000E+00 -0.45593999997E+02  0.45594000000E+02  0.51100000000E-03 0.  1.
    9900012    2    1    2    0    0 -0.86261517059E+01  0.37586775111E+02  0.23279545811E+02  0.46142318634E+02  0.10000007961E+02 0.  0.
        -12    1    1    2    0    0  0.86261517059E+01 -0.37586775111E+02 -0.23279545811E+02  0.45045681366E+02  0.00000000000E+00 0.  1.
         11    1    3    3    0    0  0.10881374263E+01  0.13500284494E+02  0.68963969417E+01  0.15198750459E+02  0.51100000000E-03 0. -1.
        -11    1    3    3    0    0 -0.21109379429E+01  0.26963851272E+01  0.11812483913E+01  0.36224162897E+01  0.51100000000E-03 0.  1.
        -12    1    3    3    0    0 -0.76033511892E+01  0.21390105490E+02  0.15201900478E+02  0.27321151886E+02  0.00000000000E+00 0.  1.
</event>
<event>
 7    1  0.4141894E-008  0.4614232E+02  0.7816164E-02  0.1320468E+00
        -11   -1    0    0    0    0  0.00000000000E+00  0.00000000000E+00  0.45593999997E+02  0.45594000000E+02  0.51100000000E-03 0. -1.
         11   -1    0    0    0    0 -0.00000000000E+00 -0.00000000000E+00 -0.45593999997E+02  0.45594000000E+02  0.51100000000E-03 0.  1.
    9900012    2    1    2    0    0 -0.26143692019E+02 -0.29760202682E+02  0.21446473240E+02  0.46142317515E+02  0.99999977603E+01 0.  0.
        -12    1    1    2    0    0  0.26143692019E+02  0.29760202682E+02 -0.21446473240E+02  0.45045682485E+02  0.00000000000E+00 0.  1.
         11    1    3    3    0    0 -0.17469071864E+02 -0.20250439984E+02  0.11012771198E+02  0.28922826990E+02  0.51100000000E-03 0.  1.
        -11    1    3    3    0    0 -0.88046266490E+01 -0.99218896443E+01  0.10064605916E+02  0.16651175245E+02  0.51100000000E-03 0. -1.
        -12    1    3    3    0    0  0.13000649429E+00  0.41212694613E+00  0.36909612614E+00  0.56831528100E+00  0.00000000000E+00 0.  1.
</event>
<event>
 7    1  0.4141894E-008  0.4614232E+02  0.7816164E-02  0.1320468E+00
        -11   -1    0    0    0    0  0.00000000000E+00  0.00000000000E+00  0.45593999997E+02  0.45594000000E+02  0.51100000000E-03 0.  1.
         11   -1    0    0    0    0 -0.00000000000E+00 -0.00000000000E+00 -0.45593999997E+02  0.45594000000E+02  0.51100000000E-03 0. -1.
    9900012    2    1    2    0    0  0.99201798799E+01  0.42484720259E+02 -0.11213925486E+02  0.46142317086E+02  0.99999938470E+01 0.  0.
        -12    1    1    2    0    0 -0.99201798799E+01 -0.42484720259E+02  0.11213925486E+02  0.45045682914E+02  0.00000000000E+00 0.  1.
         11    1    3    3    0    0  0.48698118795E+01  0.21787495124E+02 -0.74760637060E+01  0.23543609330E+02  0.51100000000E-03 0. -1.
        -11    1    3    3    0    0  0.34895910805E+01  0.10344039876E+02 -0.50836132660E+01  0.12042405530E+02  0.51100000000E-03 0.  1.
        -12    1    3    3    0    0  0.15607769199E+01  0.10353185260E+02  0.13457514857E+01  0.10556302226E+02  0.00000000000E+00 0.  1.
</event>
<event>
 7    1  0.4141894E-008  0.4614232E+02  0.7816164E-02  0.1320468E+00
        -11   -1    0    0    0    0  0.00000000000E+00  0.00000000000E+00  0.45593999997E+02  0.45594000000E+02  0.51100000000E-03 0. -1.
         11   -1    0    0    0    0 -0.00000000000E+00 -0.00000000000E+00 -0.45593999997E+02  0.45594000000E+02  0.51100000000E-03 0.  1.
    9900012    2    1    2    0    0 -0.12368808311E+02 -0.38748486431E+02 -0.19356674326E+02  0.46142318068E+02  0.10000002802E+02 0.  0.
        -12    1    1    2    0    0  0.12368808311E+02  0.38748486431E+02  0.19356674326E+02  0.45045681932E+02  0.00000000000E+00 0.  1.
         11    1    3    3    0    0 -0.48885849453E+01 -0.64463997502E+01 -0.19194070872E+01  0.83149537782E+01  0.51100000000E-03 0. -1.
        -11    1    3    3    0    0  0.20022284369E+00 -0.14825030148E+01  0.17960611459E+00  0.15067060077E+01  0.51100000000E-03 0.  1.
        -12    1    3    3    0    0 -0.76804462094E+01 -0.30819583666E+02 -0.17616873354E+02  0.36320658282E+02  0.00000000000E+00 0.  1.
</event>
<event>
 7    1  0.4141894E-008  0.4614232E+02  0.7816164E-02  0.1320468E+00
        -11   -1    0    0    0    0  0.00000000000E+00  0.00000000000E+00  0.45593999997E+02  0.45594000000E+02  0.51100000000E-03 0. -1.
         11   -1    0    0    0    0 -0.00000000000E+00 -0.00000000000E+00 -0.45593999997E+02  0.45594000000E+02  0.51100000000E-03 0.  1.
    9900012    2    1    2    0    0  0.22416322010E+02  0.28217791127E+02  0.27025508049E+02  0.46142319698E+02  0.10000017661E+02 0.  0.
        -12    1    1    2    0    0 -0.22416322010E+02 -0.28217791127E+02 -0.27025508049E+02  0.45045680302E+02  0.00000000000E+00 0.  1.
         11    1    3    3    0    0  0.16774013766E+02  0.18577835816E+02  0.21346306989E+02  0.32896327208E+02  0.51100000000E-03 0. -1.
        -11    1    3    3    0    0  0.22615146709E+01  0.13562563508E+01 -0.21585408792E-01  0.26371094188E+01  0.51100000000E-03 0.  1.
         12    1    3    3    0    0  0.33807935725E+01  0.82836989609E+01  0.57007864691E+01  0.10608883071E+02  0.00000000000E+00 0. -1.
</event>
<event>
 7    1  0.4141894E-008  0.4614232E+02  0.7816164E-02  0.1320468E+00
        -11   -1    0    0    0    0  0.00000000000E+00  0.00000000000E+00  0.45593999997E+02  0.45594000000E+02  0.51100000000E-03 0.  1.
         11   -1    0    0    0    0 -0.00000000000E+00 -0.00000000000E+00 -0.45593999997E+02  0.45594000000E+02  0.51100000000E-03 0. -1.
    9900012    2    1    2    0    0  0.98357969961E+01 -0.39955717304E+02 -0.18327881574E+02  0.46142317734E+02  0.99999997512E+01 0.  0.
        -12    1    1    2    0    0 -0.98357969961E+01  0.39955717304E+02  0.18327881574E+02  0.45045682266E+02  0.00000000000E+00 0.  1.
         11    1    3    3    0    0  0.38638292130E+01 -0.24118054881E+02 -0.11193937120E+02  0.26868456895E+02  0.51100000000E-03 0. -1.
        -11    1    3    3    0    0  0.69813860198E+01 -0.12089362479E+02 -0.62340708205E+01  0.15289083529E+02  0.51100000000E-03 0.  1.
        -12    1    3    3    0    0 -0.10094182367E+01 -0.37482999450E+01 -0.89987363362E+00  0.39847773101E+01  0.00000000000E+00 0.  1.
</event>
<event>
 7    1  0.4141894E-008  0.4614232E+02  0.7816164E-02  0.1320468E+00
        -11   -1    0    0    0    0  0.00000000000E+00  0.00000000000E+00  0.45593999997E+02  0.45594000000E+02  0.51100000000E-03 0.  1.
         11   -1    0    0    0    0 -0.00000000000E+00 -0.00000000000E+00 -0.45593999997E+02  0.45594000000E+02  0.51100000000E-03 0. -1.
    9900012    2    1    2    0    0  0.37715198184E+02  0.12544659491E+02 -0.21196906651E+02  0.46142317550E+02  0.99999980736E+01 0.  0.
        -12    1    1    2    0    0 -0.37715198184E+02 -0.12544659491E+02  0.21196906651E+02  0.45045682450E+02  0.00000000000E+00 0.  1.
         11    1    3    3    0    0  0.14367197311E+02  0.58876622615E+01 -0.71330326458E+01  0.17086868656E+02  0.51100000000E-03 0. -1.
        -11    1    3    3    0    0  0.21962100590E+02  0.80127093723E+01 -0.12217193073E+02  0.26377967713E+02  0.51100000000E-03 0.  1.
        -12    1    3    3    0    0  0.13859002833E+01 -0.13557121427E+01 -0.18466809331E+01  0.26774811816E+01  0.00000000000E+00 0.  1.
</event>
<event>
 7    1  0.4141894E-008  0.4614232E+02  0.7816164E-02  0.1320468E+00
        -11   -1    0    0    0    0  0.00000000000E+00  0.00000000000E+00  0.45593999997E+02  0.45594000000E+02  0.51100000000E-03 0.  1.
         11   -1    0    0    0    0 -0.00000000000E+00 -0.00000000000E+00 -0.45593999997E+02  0.45594000000E+02  0.51100000000E-03 0. -1.
    9900012    2    1    2    0    0 -0.23038011005E+02  0.36040462787E+02 -0.14122625333E+02  0.46142318128E+02  0.10000003349E+02 0.  0.
        -12    1    1    2    0    0  0.23038011005E+02 -0.36040462787E+02  0.14122625333E+02  0.45045681872E+02  0.00000000000E+00 0.  1.
         11    1    3    3    0    0 -0.10122585738E+02  0.10338595687E+02 -0.69087500067E+01  0.16033843261E+02  0.51100000000E-03 0. -1.
        -11    1    3    3    0    0 -0.43857399191E+01  0.90311087155E+01  0.31781176560E-02  0.10039703662E+02  0.51100000000E-03 0.  1.
        -12    1    3    3    0    0 -0.85296853475E+01  0.16670758385E+02 -0.72170534439E+01  0.20068771205E+02  0.00000000000E+00 0.  1.
</event>
<event>
 7    1  0.4141894E-008  0.4614232E+02  0.7816164E-02  0.1320468E+00
        -11   -1    0    0    0    0  0.00000000000E+00  0.00000000000E+00  0.45593999997E+02  0.45594000000E+02  0.51100000000E-03 0.  1.
         11   -1    0    0    0    0 -0.00000000000E+00 -0.00000000000E+00 -0.45593999997E+02  0.45594000000E+02  0.51100000000E-03 0. -1.
    9900012    2    1    2    0    0  0.25518680531E+02 -0.19705213975E+02 -0.31458147138E+02  0.46142317241E+02  0.99999952581E+01 0.  0.
        -12    1    1    2    0    0 -0.25518680531E+02  0.19705213975E+02  0.31458147138E+02  0.45045682759E+02  0.00000000000E+00 0.  1.
         11    1    3    3    0    0  0.19963076950E+02 -0.14487515526E+02 -0.20845643615E+02  0.32294789137E+02  0.51100000000E-03 0. -1.
        -11    1    3    3    0    0  0.39003883410E+01 -0.37348135377E+01 -0.10264192934E+02  0.11598082524E+02  0.51100000000E-03 0.  1.
        -12    1    3    3    0    0  0.16552152403E+01 -0.14828849109E+01 -0.34831058835E+00  0.22494455798E+01  0.00000000000E+00 0.  1.
</event>
<event>
 7    1  0.4141894E-008  0.4614232E+02  0.7816164E-02  0.1320468E+00
        -11   -1    0    0    0    0  0.00000000000E+00  0.00000000000E+00  0.45593999997E+02  0.45594000000E+02  0.51100000000E-03 0.  1.
         11   -1    0    0    0    0 -0.00000000000E+00 -0.00000000000E+00 -0.45593999997E+02  0.45594000000E+02  0.51100000000E-03 0. -1.
    9900012    2    1    2    0    0 -0.32670750096E+02 -0.27864345344E+02 -0.13612999315E+02  0.46142318701E+02  0.10000008574E+02 0.  0.
        -12    1    1    2    0    0  0.32670750096E+02  0.27864345344E+02  0.13612999315E+02  0.45045681299E+02  0.00000000000E+00 0.  1.
         11    1    3    3    0    0 -0.14345717737E+02 -0.10438074210E+02 -0.91135256416E+01  0.19945158823E+02  0.51100000000E-03 0. -1.
        -11    1    3    3    0    0 -0.14600144685E+02 -0.16266671020E+02 -0.32342431362E+01  0.22095907762E+02  0.51100000000E-03 0.  1.
        -12    1    3    3    0    0 -0.37248876735E+01 -0.11596001145E+01 -0.12652305374E+01  0.41012521160E+01  0.00000000000E+00 0.  1.
</event>
<event>
 7    1  0.4141894E-008  0.4614232E+02  0.7816164E-02  0.1320468E+00
        -11   -1    0    0    0    0  0.00000000000E+00  0.00000000000E+00  0.45593999997E+02  0.45594000000E+02  0.51100000000E-03 0. -1.
         11   -1    0    0    0    0 -0.00000000000E+00 -0.00000000000E+00 -0.45593999997E+02  0.45594000000E+02  0.51100000000E-03 0.  1.
    9900012    2    1    2    0    0 -0.91492311681E+01  0.15124436328E+02  0.41432553313E+02  0.46142317862E+02  0.10000000923E+02 0.  0.
        -12    1    1    2    0    0  0.91492311681E+01 -0.15124436328E+02 -0.41432553313E+02  0.45045682138E+02  0.00000000000E+00 0.  1.
         11    1    3    3    0    0 -0.17925583267E+01  0.64734092142E+01  0.24336240352E+02  0.25246205397E+02  0.51100000000E-03 0. -1.
        -11    1    3    3    0    0 -0.26817911612E+00  0.25488130831E+01  0.26528218368E+01  0.36886084272E+01  0.51100000000E-03 0.  1.
         12    1    3    3    0    0 -0.70884937252E+01  0.61022140303E+01  0.14443491125E+02  0.17207504039E+02  0.00000000000E+00 0. -1.
</event>
<event>
 7    1  0.4141894E-008  0.4614232E+02  0.7816164E-02  0.1320468E+00
        -11   -1    0    0    0    0  0.00000000000E+00  0.00000000000E+00  0.45593999997E+02  0.45594000000E+02  0.51100000000E-03 0. -1.
         11   -1    0    0    0    0 -0.00000000000E+00 -0.00000000000E+00 -0.45593999997E+02  0.45594000000E+02  0.51100000000E-03 0.  1.
    9900012    2    1    2    0    0  0.20030649490E+02  0.34102682558E+02  0.21561391061E+02  0.46142318063E+02  0.10000002754E+02 0.  0.
        -12    1    1    2    0    0 -0.20030649490E+02 -0.34102682558E+02 -0.21561391061E+02  0.45045681937E+02  0.00000000000E+00 0.  1.
         11    1    3    3    0    0  0.16165200922E+01  0.59123979794E+01  0.26256666739E+01  0.66681116382E+01  0.51100000000E-03 0. -1.
        -11    1    3    3    0    0  0.11667520832E+02  0.17782370712E+02  0.73528487240E+01  0.22503513839E+02  0.51100000000E-03 0.  1.
        -12    1    3    3    0    0  0.67466085661E+01  0.10407913867E+02  0.11582875663E+02  0.16970692586E+02  0.00000000000E+00 0.  1.
</event>
<event>
 7    1  0.4141894E-008  0.4614232E+02  0.7816164E-02  0.1320468E+00
        -11   -1    0    0    0    0  0.00000000000E+00  0.00000000000E+00  0.45593999997E+02  0.45594000000E+02  0.51100000000E-03 0. -1.
         11   -1    0    0    0    0 -0.00000000000E+00 -0.00000000000E+00 -0.45593999997E+02  0.45594000000E+02  0.51100000000E-03 0.  1.
    9900012    2    1    2    0    0 -0.26449779623E+02  0.25330724324E+02  0.26227409914E+02  0.46142317991E+02  0.10000002096E+02 0.  0.
        -12    1    1    2    0    0  0.26449779623E+02 -0.25330724324E+02 -0.26227409914E+02  0.45045682009E+02  0.00000000000E+00 0.  1.
         11    1    3    3    0    0 -0.21592370678E+02  0.18985395993E+02  0.17127486549E+02  0.33466797401E+02  0.51100000000E-03 0. -1.
        -11    1    3    3    0    0  0.48151402398E+00  0.16209772063E+01  0.18934006254E+01  0.25385801244E+01  0.51100000000E-03 0.  1.
         12    1    3    3    0    0 -0.53389229687E+01  0.47243511250E+01  0.72065227391E+01  0.10136940466E+02  0.00000000000E+00 0. -1.
</event>
<event>
 7    1  0.4141894E-008  0.4614232E+02  0.7816164E-02  0.1320468E+00
        -11   -1    0    0    0    0  0.00000000000E+00  0.00000000000E+00  0.45593999997E+02  0.45594000000E+02  0.51100000000E-03 0.  1.
         11   -1    0    0    0    0 -0.00000000000E+00 -0.00000000000E+00 -0.45593999997E+02  0.45594000000E+02  0.51100000000E-03 0. -1.
    9900012    2    1    2    0    0  0.70467178021E+01  0.44462914649E+02  0.15831843939E+01  0.46142317813E+02  0.10000000469E+02 0.  0.
        -12    1    1    2    0    0 -0.70467178021E+01 -0.44462914649E+02 -0.15831843939E+01  0.45045682187E+02  0.00000000000E+00 0.  1.
         11    1    3    3    0    0 -0.32466219338E+00  0.42191601602E+01 -0.10305223705E+01  0.43553064891E+01  0.51100000000E-03 0.  1.
        -11    1    3    3    0    0 -0.95604388630E+00  0.37561794902E+01  0.19879178545E+01  0.43559983853E+01  0.51100000000E-03 0. -1.
         12    1    3    3    0    0  0.83274238818E+01  0.36487574999E+02  0.62578890982E+00  0.37431012938E+02  0.00000000000E+00 0. -1.
</event>
<event>
 7    1  0.4141894E-008  0.4614232E+02  0.7816164E-02  0.1320468E+00
        -11   -1    0    0    0    0  0.00000000000E+00  0.00000000000E+00  0.45593999997E+02  0.45594000000E+02  0.51100000000E-03 0.  1.
         11   -1    0    0    0    0 -0.00000000000E+00 -0.00000000000E+00 -0.45593999997E+02  0.45594000000E+02  0.51100000000E-03 0. -1.
    9900012    2    1    2    0    0  0.21194041036E+02  0.33372217606E+02 -0.21592155499E+02  0.46142318049E+02  0.10000002622E+02 0.  0.
        -12    1    1    2    0    0 -0.21194041036E+02 -0.33372217606E+02  0.21592155499E+02  0.45045681951E+02  0.00000000000E+00 0.  1.
         11    1    3    3    0    0  0.50629909989E+01  0.85031125365E+01 -0.83213182244E+01  0.12929854520E+02  0.51100000000E-03 0. -1.
        -11    1    3    3    0    0  0.17787305221E+01  0.28258158375E+01 -0.42498533523E+01  0.54046619871E+01  0.51100000000E-03 0.  1.
        -12    1    3    3    0    0  0.14352319515E+02  0.22043289232E+02 -0.90209839219E+01  0.27807801541E+02  0.00000000000E+00 0.  1.
</event>
<event>
 7    1  0.4141894E-008  0.4614232E+02  0.7816164E-02  0.1320468E+00
        -11   -1    0    0    0    0  0.00000000000E+00  0.00000000000E+00  0.45593999997E+02  0.45594000000E+02  0.51100000000E-03 0. -1.
         11   -1    0    0    0    0 -0.00000000000E+00 -0.00000000000E+00 -0.45593999997E+02  0.45594000000E+02  0.51100000000E-03 0.  1.
    9900012    2    1    2    0    0 -0.42385023174E+02  0.15192913788E+02 -0.13411635244E+01  0.46142317206E+02  0.99999949342E+01 0.  0.
        -12    1    1    2    0    0  0.42385023174E+02 -0.15192913788E+02  0.13411635244E+01  0.45045682794E+02  0.00000000000E+00 0.  1.
         11    1    3    3    0    0 -0.63869198461E+00  0.13963030466E+00 -0.10771726635E+01  0.12600497139E+01  0.51100000000E-03 0. -1.
        -11    1    3    3    0    0 -0.19853686613E+02  0.42806588461E+01 -0.20748326684E+01  0.20415627425E+02  0.51100000000E-03 0.  1.
         12    1    3    3    0    0 -0.21892644576E+02  0.10772624637E+02  0.18108418076E+01  0.24466640067E+02  0.00000000000E+00 0. -1.
</event>
<event>
 7    1  0.4141894E-008  0.4614232E+02  0.7816164E-02  0.1320468E+00
        -11   -1    0    0    0    0  0.00000000000E+00  0.00000000000E+00  0.45593999997E+02  0.45594000000E+02  0.51100000000E-03 0.  1.
         11   -1    0    0    0    0 -0.00000000000E+00 -0.00000000000E+00 -0.45593999997E+02  0.45594000000E+02  0.51100000000E-03 0. -1.
    9900012    2    1    2    0    0  0.30546863200E+01  0.44762671406E+02 -0.40106754937E+01  0.46142318988E+02  0.10000011192E+02 0.  0.
        -12    1    1    2    0    0 -0.30546863200E+01 -0.44762671406E+02  0.40106754937E+01  0.45045681012E+02  0.00000000000E+00 0.  1.
         11    1    3    3    0    0  0.10594890003E+01  0.57990051773E+01  0.23744012752E+01  0.63552151549E+01  0.51100000000E-03 0. -1.
        -11    1    3    3    0    0  0.74343155588E+00  0.13425058686E+02 -0.54180607331E-01  0.13445736387E+02  0.51100000000E-03 0.  1.
         12    1    3    3    0    0  0.12517657639E+01  0.25538607542E+02 -0.63308961615E+01  0.26341367446E+02  0.00000000000E+00 0. -1.
</event>
<event>
 7    1  0.4141894E-008  0.4614232E+02  0.7816164E-02  0.1320468E+00
        -11   -1    0    0    0    0  0.00000000000E+00  0.00000000000E+00  0.45593999997E+02  0.45594000000E+02  0.51100000000E-03 0. -1.
         11   -1    0    0    0    0 -0.00000000000E+00 -0.00000000000E+00 -0.45593999997E+02  0.45594000000E+02  0.51100000000E-03 0.  1.
    9900012    2    1    2    0    0  0.30363055602E+02 -0.30485534563E+02 -0.13335313498E+02  0.46142317086E+02  0.99999938412E+01 0.  0.
        -12    1    1    2    0    0 -0.30363055602E+02  0.30485534563E+02  0.13335313498E+02  0.45045682914E+02  0.00000000000E+00 0.  1.
         11    1    3    3    0    0 -0.12722015464E+00 -0.41929042837E+00  0.86770955950E+00  0.97206459242E+00  0.51100000000E-03 0. -1.
        -11    1    3    3    0    0  0.20442573852E+01 -0.17738945403E+01 -0.36759979646E+00  0.27314501585E+01  0.51100000000E-03 0.  1.
        -12    1    3    3    0    0  0.28446018372E+02 -0.28292349595E+02 -0.13835423261E+02  0.42438802335E+02  0.00000000000E+00 0.  1.
</event>
<event>
 7    1  0.4141894E-008  0.4614232E+02  0.7816164E-02  0.1320468E+00
        -11   -1    0    0    0    0  0.00000000000E+00  0.00000000000E+00  0.45593999997E+02  0.45594000000E+02  0.51100000000E-03 0.  1.
         11   -1    0    0    0    0 -0.00000000000E+00 -0.00000000000E+00 -0.45593999997E+02  0.45594000000E+02  0.51100000000E-03 0. -1.
    9900012    2    1    2    0    0 -0.27700959060E+02  0.24083116797E+02 -0.26110799820E+02  0.46142317468E+02  0.99999973311E+01 0.  0.
        -12    1    1    2    0    0  0.27700959060E+02 -0.24083116797E+02  0.26110799820E+02  0.45045682532E+02  0.00000000000E+00 0.  1.
         11    1    3    3    0    0 -0.93349128175E+01  0.12443064713E+02 -0.98796213565E+01  0.18427625326E+02  0.51100000000E-03 0. -1.
        -11    1    3    3    0    0 -0.65439157381E+01  0.67505896960E+01 -0.90200234833E+01  0.13028972267E+02  0.51100000000E-03 0.  1.
        -12    1    3    3    0    0 -0.11822130504E+02  0.48894623879E+01 -0.72111549806E+01  0.14685719875E+02  0.00000000000E+00 0.  1.
</event>
<event>
 7    1  0.4141894E-008  0.4614231E+02  0.7816164E-02  0.1320468E+00
        -11   -1    0    0    0    0  0.00000000000E+00  0.00000000000E+00  0.45593999997E+02  0.45594000000E+02  0.51100000000E-03 0.  1.
         11   -1    0    0    0    0 -0.00000000000E+00 -0.00000000000E+00 -0.45593999997E+02  0.45594000000E+02  0.51100000000E-03 0. -1.
    9900012    2    1    2    0    0 -0.21618838355E+02  0.37368679733E+02 -0.12857761422E+02  0.46142307358E+02  0.99999051323E+01 0.  0.
        -12    1    1    2    0    0  0.21618838355E+02 -0.37368679733E+02  0.12857761422E+02  0.45045692642E+02  0.00000000000E+00 0.  1.
         11    1    3    3    0    0 -0.15382677664E+02  0.28913525632E+02 -0.91915265342E+01  0.34016215205E+02  0.51100000000E-03 0. -1.
        -11    1    3    3    0    0 -0.44325709322E+01  0.52263181349E+01 -0.46712735176E+01  0.82935446495E+01  0.51100000000E-03 0.  1.
         12    1    3    3    0    0 -0.18035897592E+01  0.32288359664E+01  0.10050386294E+01  0.38325475031E+01  0.00000000000E+00 0. -1.
</event>
<event>
 7    1  0.4141894E-008  0.4614232E+02  0.7816164E-02  0.1320468E+00
        -11   -1    0    0    0    0  0.00000000000E+00  0.00000000000E+00  0.45593999997E+02  0.45594000000E+02  0.51100000000E-03 0.  1.
         11   -1    0    0    0    0 -0.00000000000E+00 -0.00000000000E+00 -0.45593999997E+02  0.45594000000E+02  0.51100000000E-03 0. -1.
    9900012    2    1    2    0    0  0.17498903149E+02 -0.23179189532E+02 -0.34432935121E+02  0.46142318078E+02  0.10000002888E+02 0.  0.
        -12    1    1    2    0    0 -0.17498903149E+02  0.23179189532E+02  0.34432935121E+02  0.45045681922E+02  0.00000000000E+00 0.  1.
         11    1    3    3    0    0  0.88985740265E+01 -0.82603674773E+01 -0.94690534884E+01  0.15397443450E+02  0.51100000000E-03 0. -1.
        -11    1    3    3    0    0  0.45698380469E+01 -0.88113970495E+01 -0.10011750233E+02  0.14098201329E+02  0.51100000000E-03 0.  1.
        -12    1    3    3    0    0  0.40304910757E+01 -0.61074250050E+01 -0.14952131400E+02  0.16646673298E+02  0.00000000000E+00 0.  1.
</event>
<event>
 7    1  0.4141894E-008  0.4614232E+02  0.7816164E-02  0.1320468E+00
        -11   -1    0    0    0    0  0.00000000000E+00  0.00000000000E+00  0.45593999997E+02  0.45594000000E+02  0.51100000000E-03 0.  1.
         11   -1    0    0    0    0 -0.00000000000E+00 -0.00000000000E+00 -0.45593999997E+02  0.45594000000E+02  0.51100000000E-03 0. -1.
    9900012    2    1    2    0    0  0.44765063831E+02 -0.49909455530E+01  0.54128818788E+00  0.46142317963E+02  0.10000001842E+02 0.  0.
        -12    1    1    2    0    0 -0.44765063831E+02  0.49909455530E+01 -0.54128818788E+00  0.45045682037E+02  0.00000000000E+00 0.  1.
         11    1    3    3    0    0  0.63856098706E+01 -0.40911701158E+01 -0.30508011503E+00  0.75899117566E+01  0.51100000000E-03 0. -1.
        -11    1    3    3    0    0  0.72365800715E+01  0.23782363085E+00 -0.11208685707E+01  0.73267317287E+01  0.51100000000E-03 0.  1.
         12    1    3    3    0    0  0.31142873889E+02 -0.11375990680E+01  0.19672368736E+01  0.31225674478E+02  0.00000000000E+00 0. -1.
</event>
<event>
 7    1  0.4141894E-008  0.4614232E+02  0.7816164E-02  0.1320468E+00
        -11   -1    0    0    0    0  0.00000000000E+00  0.00000000000E+00  0.45593999997E+02  0.45594000000E+02  0.51100000000E-03 0. -1.
         11   -1    0    0    0    0 -0.00000000000E+00 -0.00000000000E+00 -0.45593999997E+02  0.45594000000E+02  0.51100000000E-03 0.  1.
    9900012    2    1    2    0    0 -0.12791884236E+02  0.33071247402E+02  0.27780817348E+02  0.46142317415E+02  0.99999968444E+01 0.  0.
        -12    1    1    2    0    0  0.12791884236E+02 -0.33071247402E+02 -0.27780817348E+02  0.45045682585E+02  0.00000000000E+00 0.  1.
         11    1    3    3    0    0 -0.19613190771E+01  0.96029045101E+01  0.78923905609E+01  0.12583814071E+02  0.51100000000E-03 0.  1.
        -11    1    3    3    0    0 -0.11620641481E+02  0.23395108570E+02  0.18684720412E+02  0.32116805422E+02  0.51100000000E-03 0. -1.
         12    1    3    3    0    0  0.79007632125E+00  0.73234322015E-01  0.12037063751E+01  0.14416979215E+01  0.00000000000E+00 0. -1.
</event>
<event>
 7    1  0.4141894E-008  0.4614232E+02  0.7816164E-02  0.1320468E+00
        -11   -1    0    0    0    0  0.00000000000E+00  0.00000000000E+00  0.45593999997E+02  0.45594000000E+02  0.51100000000E-03 0.  1.
         11   -1    0    0    0    0 -0.00000000000E+00 -0.00000000000E+00 -0.45593999997E+02  0.45594000000E+02  0.51100000000E-03 0. -1.
    9900012    2    1    2    0    0  0.19770280185E+02  0.40197588125E+02  0.47332224995E+01  0.46142318022E+02  0.10000002379E+02 0.  0.
        -12    1    1    2    0    0 -0.19770280185E+02 -0.40197588125E+02 -0.47332224995E+01  0.45045681978E+02  0.00000000000E+00 0.  1.
         11    1    3    3    0    0  0.88122885631E+01  0.22510869100E+02  0.14887225914E+00  0.24174735171E+02  0.51100000000E-03 0. -1.
        -11    1    3    3    0    0  0.11012082952E+02  0.17841562066E+02  0.49710032935E+01  0.21547579491E+02  0.51100000000E-03 0.  1.
         12    1    3    3    0    0 -0.54091330524E-01 -0.15484304129E+00 -0.38665305312E+00  0.42000336065E+00  0.00000000000E+00 0. -1.
</event>
<event>
 7    1  0.4141894E-008  0.4614232E+02  0.7816164E-02  0.1320468E+00
        -11   -1    0    0    0    0  0.00000000000E+00  0.00000000000E+00  0.45593999997E+02  0.45594000000E+02  0.51100000000E-03 0. -1.
         11   -1    0    0    0    0 -0.00000000000E+00 -0.00000000000E+00 -0.45593999997E+02  0.45594000000E+02  0.51100000000E-03 0.  1.
    9900012    2    1    2    0    0 -0.33988137040E+02 -0.28183183392E+02  0.89234657793E+01  0.46142317332E+02  0.99999960883E+01 0.  0.
        -12    1    1    2    0    0  0.33988137040E+02  0.28183183392E+02 -0.89234657793E+01  0.45045682668E+02  0.00000000000E+00 0.  1.
         11    1    3    3    0    0 -0.17744671405E+02 -0.14557541169E+02  0.60856969648E+01  0.23745127415E+02  0.51100000000E-03 0. -1.
        -11    1    3    3    0    0 -0.13446920136E+02 -0.73134624057E+01  0.17209202948E+01  0.15403504809E+02  0.51100000000E-03 0.  1.
        -12    1    3    3    0    0 -0.27965454994E+01 -0.63121798169E+01  0.11168485197E+01  0.69936851078E+01  0.00000000000E+00 0.  1.
</event>
<event>
 7    1  0.4141894E-008  0.4614232E+02  0.7816164E-02  0.1320468E+00
        -11   -1    0    0    0    0  0.00000000000E+00  0.00000000000E+00  0.45593999997E+02  0.45594000000E+02  0.51100000000E-03 0.  1.
         11   -1    0    0    0    0 -0.00000000000E+00 -0.00000000000E+00 -0.45593999997E+02  0.45594000000E+02  0.51100000000E-03 0. -1.
    9900012    2    1    2    0    0  0.40841714584E+02 -0.12341628399E+02 -0.14448254272E+02  0.46142317708E+02  0.99999995129E+01 0.  0.
        -12    1    1    2    0    0 -0.40841714584E+02  0.12341628399E+02  0.14448254272E+02  0.45045682292E+02  0.00000000000E+00 0.  1.
         11    1    3    3    0    0  0.10754203593E+02 -0.39760529966E+01 -0.50735384784E+01  0.12538049502E+02  0.51100000000E-03 0. -1.
        -11    1    3    3    0    0  0.20900780540E+02 -0.44445378926E+01 -0.25789904350E+01  0.21523190660E+02  0.51100000000E-03 0.  1.
        -12    1    3    3    0    0  0.91867304501E+01 -0.39210375099E+01 -0.67957253584E+01  0.12081077546E+02  0.00000000000E+00 0.  1.
</event>
<event>
 7    1  0.4141894E-008  0.4614232E+02  0.7816164E-02  0.1320468E+00
        -11   -1    0    0    0    0  0.00000000000E+00  0.00000000000E+00  0.45593999997E+02  0.45594000000E+02  0.51100000000E-03 0.  1.
         11   -1    0    0    0    0 -0.00000000000E+00 -0.00000000000E+00 -0.45593999997E+02  0.45594000000E+02  0.51100000000E-03 0. -1.
    9900012    2    1    2    0    0  0.16541801052E+01  0.27521639583E+02 -0.35622133960E+02  0.46142318908E+02  0.10000010456E+02 0.  0.
        -12    1    1    2    0    0 -0.16541801052E+01 -0.27521639583E+02  0.35622133960E+02  0.45045681092E+02  0.00000000000E+00 0.  1.
         11    1    3    3    0    0  0.48238325784E+01  0.16525606109E+02 -0.21151733223E+02  0.27271978964E+02  0.51100000000E-03 0. -1.
        -11    1    3    3    0    0 -0.54917486332E+00 -0.21852514720E+00 -0.81757253404E+00  0.10088465592E+01  0.51100000000E-03 0.  1.
         12    1    3    3    0    0 -0.26204776099E+01  0.11214558621E+02 -0.13652828204E+02  0.17861493385E+02  0.00000000000E+00 0. -1.
</event>
<event>
 7    1  0.4141894E-008  0.4614231E+02  0.7816164E-02  0.1320468E+00
        -11   -1    0    0    0    0  0.00000000000E+00  0.00000000000E+00  0.45593999997E+02  0.45594000000E+02  0.51100000000E-03 0. -1.
         11   -1    0    0    0    0 -0.00000000000E+00 -0.00000000000E+00 -0.45593999997E+02  0.45594000000E+02  0.51100000000E-03 0.  1.
    9900012    2    1    2    0    0 -0.38364014436E+02 -0.20652419614E+02  0.11436508265E+02  0.46142314737E+02  0.99999724210E+01 0.  0.
        -12    1    1    2    0    0  0.38364014436E+02  0.20652419614E+02 -0.11436508265E+02  0.45045685263E+02  0.00000000000E+00 0.  1.
         11    1    3    3    0    0 -0.18774713633E+02 -0.95281062157E+01  0.82654677920E+01  0.22618413697E+02  0.51100000000E-03 0.  1.
        -11    1    3    3    0    0 -0.55906510645E+01 -0.22743924944E+01 -0.16827747731E+01  0.62657778241E+01  0.51100000000E-03 0. -1.
         12    1    3    3    0    0 -0.13998649738E+02 -0.88499209033E+01  0.48538152463E+01  0.17258123216E+02  0.00000000000E+00 0. -1.
</event>
<event>
 7    1  0.4141894E-008  0.4614232E+02  0.7816164E-02  0.1320468E+00
        -11   -1    0    0    0    0  0.00000000000E+00  0.00000000000E+00  0.45593999997E+02  0.45594000000E+02  0.51100000000E-03 0.  1.
         11   -1    0    0    0    0 -0.00000000000E+00 -0.00000000000E+00 -0.45593999997E+02  0.45594000000E+02  0.51100000000E-03 0. -1.
    9900012    2    1    2    0    0 -0.75957545719E+01  0.43077437547E+02 -0.10758823553E+02  0.46142318771E+02  0.10000009210E+02 0.  0.
        -12    1    1    2    0    0  0.75957545719E+01 -0.43077437547E+02  0.10758823553E+02  0.45045681229E+02  0.00000000000E+00 0.  1.
         11    1    3    3    0    0  0.12993256362E-01  0.61108675947E+01 -0.13144176608E+01  0.62506452174E+01  0.51100000000E-03 0. -1.
        -11    1    3    3    0    0  0.65058024600E+00  0.15260830173E+02 -0.60125371818E+01  0.16415443821E+02  0.51100000000E-03 0.  1.
         12    1    3    3    0    0 -0.82593280743E+01  0.21705739780E+02 -0.34318687104E+01  0.23476229733E+02  0.00000000000E+00 0. -1.
</event>
<event>
 7    1  0.4141894E-008  0.4614232E+02  0.7816164E-02  0.1320468E+00
        -11   -1    0    0    0    0  0.00000000000E+00  0.00000000000E+00  0.45593999997E+02  0.45594000000E+02  0.51100000000E-03 0.  1.
         11   -1    0    0    0    0 -0.00000000000E+00 -0.00000000000E+00 -0.45593999997E+02  0.45594000000E+02  0.51100000000E-03 0. -1.
    9900012    2    1    2    0    0 -0.24112986296E+02 -0.33111321062E+02 -0.18743473343E+02  0.46142317815E+02  0.10000000487E+02 0.  0.
        -12    1    1    2    0    0  0.24112986296E+02  0.33111321062E+02  0.18743473343E+02  0.45045682185E+02  0.00000000000E+00 0.  1.
         11    1    3    3    0    0 -0.13076257855E+02 -0.10242108372E+02 -0.61062743511E+01  0.17696776263E+02  0.51100000000E-03 0. -1.
        -11    1    3    3    0    0 -0.50827964252E+01 -0.81647227180E+01 -0.49667175341E+01  0.10824315216E+02  0.51100000000E-03 0.  1.
        -12    1    3    3    0    0 -0.59539320164E+01 -0.14704489972E+02 -0.76704814575E+01  0.17621226336E+02  0.00000000000E+00 0.  1.
</event>
<event>
 7    1  0.4141894E-008  0.4614232E+02  0.7816164E-02  0.1320468E+00
        -11   -1    0    0    0    0  0.00000000000E+00  0.00000000000E+00  0.45593999997E+02  0.45594000000E+02  0.51100000000E-03 0.  1.
         11   -1    0    0    0    0 -0.00000000000E+00 -0.00000000000E+00 -0.45593999997E+02  0.45594000000E+02  0.51100000000E-03 0. -1.
    9900012    2    1    2    0    0  0.23473646963E+02  0.24967907751E+00 -0.38445273917E+02  0.46142317322E+02  0.99999959931E+01 0.  0.
        -12    1    1    2    0    0 -0.23473646963E+02 -0.24967907751E+00  0.38445273917E+02  0.45045682678E+02  0.00000000000E+00 0.  1.
         11    1    3    3    0    0  0.49726219364E+01 -0.10027681776E+01 -0.44517775772E+01  0.67491360038E+01  0.51100000000E-03 0.  1.
        -11    1    3    3    0    0  0.14315890615E+02 -0.20391873479E+00 -0.19201530516E+02  0.23951723975E+02  0.51100000000E-03 0. -1.
        -12    1    3    3    0    0  0.41851344119E+01  0.14563659899E+01 -0.14791965824E+02  0.15441457343E+02  0.00000000000E+00 0.  1.
</event>
<event>
 7    1  0.4141894E-008  0.4614232E+02  0.7816164E-02  0.1320468E+00
        -11   -1    0    0    0    0  0.00000000000E+00  0.00000000000E+00  0.45593999997E+02  0.45594000000E+02  0.51100000000E-03 0.  1.
         11   -1    0    0    0    0 -0.00000000000E+00 -0.00000000000E+00 -0.45593999997E+02  0.45594000000E+02  0.51100000000E-03 0. -1.
    9900012    2    1    2    0    0  0.19164631848E+01 -0.26021495488E+02 -0.36719510277E+02  0.46142317704E+02  0.99999994785E+01 0.  0.
        -12    1    1    2    0    0 -0.19164631848E+01  0.26021495488E+02  0.36719510277E+02  0.45045682296E+02  0.00000000000E+00 0.  1.
         11    1    3    3    0    0  0.16974001368E+01 -0.19733191927E+02 -0.32796555030E+02  0.38313105498E+02  0.51100000000E-03 0. -1.
        -11    1    3    3    0    0 -0.10502777962E+01 -0.41699960289E+01 -0.26460988794E+01  0.50491375373E+01  0.51100000000E-03 0.  1.
         12    1    3    3    0    0  0.12693408442E+01 -0.21183075316E+01 -0.12768563679E+01  0.27800746683E+01  0.00000000000E+00 0. -1.
</event>
<event>
 7    1  0.4141894E-008  0.4614232E+02  0.7816164E-02  0.1320468E+00
        -11   -1    0    0    0    0  0.00000000000E+00  0.00000000000E+00  0.45593999997E+02  0.45594000000E+02  0.51100000000E-03 0.  1.
         11   -1    0    0    0    0 -0.00000000000E+00 -0.00000000000E+00 -0.45593999997E+02  0.45594000000E+02  0.51100000000E-03 0. -1.
    9900012    2    1    2    0    0  0.38264302334E+02  0.18873577515E+02 -0.14448005271E+02  0.46142316326E+02  0.99999869129E+01 0.  0.
        -12    1    1    2    0    0 -0.38264302334E+02 -0.18873577515E+02  0.14448005271E+02  0.45045683674E+02  0.00000000000E+00 0.  1.
         11    1    3    3    0    0  0.27979620835E+01 -0.61549478449E+00 -0.14307819795E+01  0.32022746579E+01  0.51100000000E-03 0.  1.
        -11    1    3    3    0    0  0.64024359757E+01  0.25128735492E+01 -0.73229318884E-01  0.68783052194E+01  0.51100000000E-03 0. -1.
         12    1    3    3    0    0  0.29063904275E+02  0.16976198750E+02 -0.12943993973E+02  0.36061736449E+02  0.00000000000E+00 0. -1.
</event>
<event>
 7    1  0.4141894E-008  0.4614232E+02  0.7816164E-02  0.1320468E+00
        -11   -1    0    0    0    0  0.00000000000E+00  0.00000000000E+00  0.45593999997E+02  0.45594000000E+02  0.51100000000E-03 0.  1.
         11   -1    0    0    0    0 -0.00000000000E+00 -0.00000000000E+00 -0.45593999997E+02  0.45594000000E+02  0.51100000000E-03 0. -1.
    9900012    2    1    2    0    0  0.34586125188E+02 -0.13625137712E+02 -0.25441483910E+02  0.46142317224E+02  0.99999951047E+01 0.  0.
        -12    1    1    2    0    0 -0.34586125188E+02  0.13625137712E+02  0.25441483910E+02  0.45045682776E+02  0.00000000000E+00 0.  1.
         11    1    3    3    0    0  0.84156364755E+01 -0.44960703075E+01 -0.26470020736E+01  0.99017274117E+01  0.51100000000E-03 0. -1.
        -11    1    3    3    0    0  0.35240279329E+01 -0.22091395074E+01 -0.56032939674E+01  0.69782500515E+01  0.51100000000E-03 0.  1.
         12    1    3    3    0    0  0.22646460780E+02 -0.69199278967E+01 -0.17191187869E+02  0.29262339761E+02  0.00000000000E+00 0. -1.
</event>
<event>
 7    1  0.4141894E-008  0.4614232E+02  0.7816164E-02  0.1320468E+00
        -11   -1    0    0    0    0  0.00000000000E+00  0.00000000000E+00  0.45593999997E+02  0.45594000000E+02  0.51100000000E-03 0.  1.
         11   -1    0    0    0    0 -0.00000000000E+00 -0.00000000000E+00 -0.45593999997E+02  0.45594000000E+02  0.51100000000E-03 0. -1.
    9900012    2    1    2    0    0  0.39179125576E+01 -0.41304527834E+02 -0.17541367163E+02  0.46142316296E+02  0.99999866435E+01 0.  0.
        -12    1    1    2    0    0 -0.39179125576E+01  0.41304527834E+02  0.17541367163E+02  0.45045683704E+02  0.00000000000E+00 0.  1.
         11    1    3    3    0    0 -0.56451087848E+00 -0.20508786789E+02 -0.69012556004E+01  0.21646162182E+02  0.51100000000E-03 0. -1.
        -11    1    3    3    0    0  0.41645626183E+01 -0.89901735315E+01 -0.70239847176E+01  0.12145088040E+02  0.51100000000E-03 0.  1.
        -12    1    3    3    0    0  0.31786081781E+00 -0.11805567513E+02 -0.36161268448E+01  0.12351066074E+02  0.00000000000E+00 0.  1.
</event>
<event>
 7    1  0.4141894E-008  0.4614232E+02  0.7816164E-02  0.1320468E+00
        -11   -1    0    0    0    0  0.00000000000E+00  0.00000000000E+00  0.45593999997E+02  0.45594000000E+02  0.51100000000E-03 0. -1.
         11   -1    0    0    0    0 -0.00000000000E+00 -0.00000000000E+00 -0.45593999997E+02  0.45594000000E+02  0.51100000000E-03 0.  1.
    9900012    2    1    2    0    0  0.23898523968E+02 -0.26612457402E+02  0.27381585072E+02  0.46142317212E+02  0.99999949919E+01 0.  0.
        -12    1    1    2    0    0 -0.23898523968E+02  0.26612457402E+02 -0.27381585072E+02  0.45045682788E+02  0.00000000000E+00 0.  1.
         11    1    3    3    0    0  0.63020297427E+01 -0.32468265837E+01  0.81824967246E+01  0.10826389733E+02  0.51100000000E-03 0.  1.
        -11    1    3    3    0    0  0.85971686404E+01 -0.92311284427E+01  0.10627736583E+02  0.16494660533E+02  0.51100000000E-03 0. -1.
         12    1    3    3    0    0  0.89993255845E+01 -0.14134502376E+02  0.85713517637E+01  0.18821266946E+02  0.00000000000E+00 0. -1.
</event>
<event>
 7    1  0.4141894E-008  0.4614232E+02  0.7816164E-02  0.1320468E+00
        -11   -1    0    0    0    0  0.00000000000E+00  0.00000000000E+00  0.45593999997E+02  0.45594000000E+02  0.51100000000E-03 0.  1.
         11   -1    0    0    0    0 -0.00000000000E+00 -0.00000000000E+00 -0.45593999997E+02  0.45594000000E+02  0.51100000000E-03 0. -1.
    9900012    2    1    2    0    0 -0.15699014024E+02  0.65689709746E-01 -0.42221441465E+02  0.46142317900E+02  0.10000001266E+02 0.  0.
        -12    1    1    2    0    0  0.15699014024E+02 -0.65689709746E-01  0.42221441465E+02  0.45045682100E+02  0.00000000000E+00 0.  1.
         11    1    3    3    0    0 -0.31689801903E+01 -0.33113707134E+00 -0.10548106045E+02  0.11018830637E+02  0.51100000000E-03 0. -1.
        -11    1    3    3    0    0  0.73530443611E+00  0.11703422006E+00  0.40799319609E-01  0.74567718755E+00  0.51100000000E-03 0.  1.
         12    1    3    3    0    0 -0.13265338270E+02  0.27979256103E+00 -0.31714134739E+02  0.34377810075E+02  0.00000000000E+00 0. -1.
</event>
<event>
 7    1  0.4141894E-008  0.4614232E+02  0.7816164E-02  0.1320468E+00
        -11   -1    0    0    0    0  0.00000000000E+00  0.00000000000E+00  0.45593999997E+02  0.45594000000E+02  0.51100000000E-03 0.  1.
         11   -1    0    0    0    0 -0.00000000000E+00 -0.00000000000E+00 -0.45593999997E+02  0.45594000000E+02  0.51100000000E-03 0. -1.
    9900012    2    1    2    0    0  0.20754493797E+02  0.34649136457E+02 -0.19944969883E+02  0.46142317703E+02  0.99999994696E+01 0.  0.
        -12    1    1    2    0    0 -0.20754493797E+02 -0.34649136457E+02  0.19944969883E+02  0.45045682297E+02  0.00000000000E+00 0.  1.
         11    1    3    3    0    0  0.91360300588E+01  0.17484186572E+02 -0.70132815317E+01  0.20936808339E+02  0.51100000000E-03 0. -1.
        -11    1    3    3    0    0  0.47604883712E+01  0.10442181968E+02 -0.41836817331E+01  0.12214933765E+02  0.51100000000E-03 0.  1.
         12    1    3    3    0    0  0.68579753669E+01  0.67227679172E+01 -0.87480066177E+01  0.12990575599E+02  0.00000000000E+00 0. -1.
</event>
<event>
 7    1  0.4141894E-008  0.4614232E+02  0.7816164E-02  0.1320468E+00
        -11   -1    0    0    0    0  0.00000000000E+00  0.00000000000E+00  0.45593999997E+02  0.45594000000E+02  0.51100000000E-03 0.  1.
         11   -1    0    0    0    0 -0.00000000000E+00 -0.00000000000E+00 -0.45593999997E+02  0.45594000000E+02  0.51100000000E-03 0. -1.
    9900012    2    1    2    0    0  0.14951185764E+02  0.40810613982E+02 -0.11835088248E+02  0.46142317819E+02  0.10000000523E+02 0.  0.
        -12    1    1    2    0    0 -0.14951185764E+02 -0.40810613982E+02  0.11835088248E+02  0.45045682181E+02  0.00000000000E+00 0.  1.
         11    1    3    3    0    0  0.11974743710E+02  0.25840017011E+02 -0.61180186033E+01  0.29129557462E+02  0.51100000000E-03 0. -1.
        -11    1    3    3    0    0 -0.12330230773E+01  0.54562417702E+01 -0.15433395196E+01  0.58028283878E+01  0.51100000000E-03 0.  1.
        -12    1    3    3    0    0  0.42094651315E+01  0.95143552009E+01 -0.41737301252E+01  0.11209931969E+02  0.00000000000E+00 0.  1.
</event>
<event>
 7    1  0.4141894E-008  0.4614231E+02  0.7816164E-02  0.1320468E+00
        -11   -1    0    0    0    0  0.00000000000E+00  0.00000000000E+00  0.45593999997E+02  0.45594000000E+02  0.51100000000E-03 0.  1.
         11   -1    0    0    0    0 -0.00000000000E+00 -0.00000000000E+00 -0.45593999997E+02  0.45594000000E+02  0.51100000000E-03 0. -1.
    9900012    2    1    2    0    0 -0.14875194165E+01  0.35242446507E+02 -0.28015550880E+02  0.46142313848E+02  0.99999643166E+01 0.  0.
        -12    1    1    2    0    0  0.14875194165E+01 -0.35242446507E+02  0.28015550880E+02  0.45045686152E+02  0.00000000000E+00 0.  1.
         11    1    3    3    0    0  0.15057918404E+00  0.70496098370E+01 -0.56409112673E+01  0.90299254222E+01  0.51100000000E-03 0. -1.
        -11    1    3    3    0    0  0.34423340648E+01  0.15470378235E+02 -0.13186462041E+02  0.20617105712E+02  0.51100000000E-03 0.  1.
         12    1    3    3    0    0 -0.50804326654E+01  0.12722458435E+02 -0.91881775712E+01  0.16495282713E+02  0.00000000000E+00 0. -1.
</event>
<event>
 7    1  0.4141894E-008  0.4614232E+02  0.7816164E-02  0.1320468E+00
        -11   -1    0    0    0    0  0.00000000000E+00  0.00000000000E+00  0.45593999997E+02  0.45594000000E+02  0.51100000000E-03 0. -1.
         11   -1    0    0    0    0 -0.00000000000E+00 -0.00000000000E+00 -0.45593999997E+02  0.45594000000E+02  0.51100000000E-03 0.  1.
    9900012    2    1    2    0    0 -0.20596516982E+01  0.28346440842E+02  0.34947827938E+02  0.46142317065E+02  0.99999936519E+01 0.  0.
        -12    1    1    2    0    0  0.20596516982E+01 -0.28346440842E+02 -0.34947827938E+02  0.45045682935E+02  0.00000000000E+00 0.  1.
         11    1    3    3    0    0 -0.33300914531E+00  0.17850970903E+02  0.17778242002E+02  0.25195911300E+02  0.51100000000E-03 0. -1.
        -11    1    3    3    0    0 -0.18925080234E+01  0.87380955130E+01  0.93763644777E+01  0.12955775195E+02  0.51100000000E-03 0.  1.
        -12    1    3    3    0    0  0.16586547057E+00  0.17573744258E+01  0.77932214578E+01  0.79906305706E+01  0.00000000000E+00 0.  1.
</event>
<event>
 7    1  0.4141894E-008  0.4614232E+02  0.7816164E-02  0.1320468E+00
        -11   -1    0    0    0    0  0.00000000000E+00  0.00000000000E+00  0.45593999997E+02  0.45594000000E+02  0.51100000000E-03 0.  1.
         11   -1    0    0    0    0 -0.00000000000E+00 -0.00000000000E+00 -0.45593999997E+02  0.45594000000E+02  0.51100000000E-03 0. -1.
    9900012    2    1    2    0    0  0.16083141487E+02 -0.32720787114E+02 -0.26453660412E+02  0.46142317647E+02  0.99999989613E+01 0.  0.
        -12    1    1    2    0    0 -0.16083141487E+02  0.32720787114E+02  0.26453660412E+02  0.45045682353E+02  0.00000000000E+00 0.  1.
         11    1    3    3    0    0  0.93042243101E+01 -0.19913553702E+02 -0.20608353736E+02  0.30130092184E+02  0.51100000000E-03 0. -1.
        -11    1    3    3    0    0  0.39973919659E+01 -0.97008190613E+01 -0.54516791827E+01  0.11823951927E+02  0.51100000000E-03 0.  1.
        -12    1    3    3    0    0  0.27815252108E+01 -0.31064143501E+01 -0.39362749376E+00  0.41882735365E+01  0.00000000000E+00 0.  1.
</event>
<event>
 7    1  0.4141894E-008  0.4614232E+02  0.7816164E-02  0.1320468E+00
        -11   -1    0    0    0    0  0.00000000000E+00  0.00000000000E+00  0.45593999997E+02  0.45594000000E+02  0.51100000000E-03 0.  1.
         11   -1    0    0    0    0 -0.00000000000E+00 -0.00000000000E+00 -0.45593999997E+02  0.45594000000E+02  0.51100000000E-03 0. -1.
    9900012    2    1    2    0    0  0.10797218211E+02 -0.30409459676E+02 -0.31429259015E+02  0.46142317842E+02  0.10000000734E+02 0.  0.
        -12    1    1    2    0    0 -0.10797218211E+02  0.30409459676E+02  0.31429259015E+02  0.45045682158E+02  0.00000000000E+00 0.  1.
         11    1    3    3    0    0  0.47809848398E+01 -0.13588720074E+02 -0.12459226079E+02  0.19045824846E+02  0.51100000000E-03 0. -1.
        -11    1    3    3    0    0  0.27266922672E+01 -0.56564377778E+01 -0.21399235793E+01  0.66339590171E+01  0.51100000000E-03 0.  1.
        -12    1    3    3    0    0  0.32895411040E+01 -0.11164301824E+02 -0.16830109356E+02  0.20462533979E+02  0.00000000000E+00 0.  1.
</event>
<event>
 7    1  0.4141894E-008  0.4614232E+02  0.7816164E-02  0.1320468E+00
        -11   -1    0    0    0    0  0.00000000000E+00  0.00000000000E+00  0.45593999997E+02  0.45594000000E+02  0.51100000000E-03 0.  1.
         11   -1    0    0    0    0 -0.00000000000E+00 -0.00000000000E+00 -0.45593999997E+02  0.45594000000E+02  0.51100000000E-03 0. -1.
    9900012    2    1    2    0    0 -0.42692748779E+02  0.12817153642E+02 -0.64933237523E+01  0.46142317863E+02  0.10000000931E+02 0.  0.
        -12    1    1    2    0    0  0.42692748779E+02 -0.12817153642E+02  0.64933237523E+01  0.45045682137E+02  0.00000000000E+00 0.  1.
         11    1    3    3    0    0 -0.26393792039E+02  0.63513424126E+01 -0.67303496137E+01  0.27969079621E+02  0.51100000000E-03 0. -1.
        -11    1    3    3    0    0 -0.33119206358E+01  0.19937757544E+01 -0.18405966508E+01  0.42815600368E+01  0.51100000000E-03 0.  1.
        -12    1    3    3    0    0 -0.12987036105E+02  0.44720354753E+01  0.20776225123E+01  0.13891678206E+02  0.00000000000E+00 0.  1.
</event>
<event>
 7    1  0.4141894E-008  0.4614232E+02  0.7816164E-02  0.1320468E+00
        -11   -1    0    0    0    0  0.00000000000E+00  0.00000000000E+00  0.45593999997E+02  0.45594000000E+02  0.51100000000E-03 0.  1.
         11   -1    0    0    0    0 -0.00000000000E+00 -0.00000000000E+00 -0.45593999997E+02  0.45594000000E+02  0.51100000000E-03 0. -1.
    9900012    2    1    2    0    0  0.34612630731E+02  0.17841842405E+02 -0.22643938932E+02  0.46142317445E+02  0.99999971147E+01 0.  0.
        -12    1    1    2    0    0 -0.34612630731E+02 -0.17841842405E+02  0.22643938932E+02  0.45045682555E+02  0.00000000000E+00 0.  1.
         11    1    3    3    0    0  0.13573196027E+02  0.72793821259E+01 -0.11557555461E+02  0.19256119625E+02  0.51100000000E-03 0. -1.
        -11    1    3    3    0    0  0.10915932523E+02  0.72603040359E+01 -0.28300122031E+01  0.13411881556E+02  0.51100000000E-03 0.  1.
        -12    1    3    3    0    0  0.10123502181E+02  0.33021562433E+01 -0.82563712677E+01  0.13474316264E+02  0.00000000000E+00 0.  1.
</event>
<event>
 7    1  0.4141894E-008  0.4614232E+02  0.7816164E-02  0.1320468E+00
        -11   -1    0    0    0    0  0.00000000000E+00  0.00000000000E+00  0.45593999997E+02  0.45594000000E+02  0.51100000000E-03 0.  1.
         11   -1    0    0    0    0 -0.00000000000E+00 -0.00000000000E+00 -0.45593999997E+02  0.45594000000E+02  0.51100000000E-03 0. -1.
    9900012    2    1    2    0    0  0.43138116476E+02 -0.11810765190E+02 -0.53593176223E+01  0.46142317045E+02  0.99999934739E+01 0.  0.
        -12    1    1    2    0    0 -0.43138116476E+02  0.11810765190E+02  0.53593176223E+01  0.45045682955E+02  0.00000000000E+00 0.  1.
         11    1    3    3    0    0  0.33965941088E+02 -0.10251608330E+02 -0.22720968306E+01  0.35551976761E+02  0.51100000000E-03 0. -1.
        -11    1    3    3    0    0  0.45674727332E+01 -0.37397359437E+00  0.53380016086E+00  0.46137410299E+01  0.51100000000E-03 0.  1.
        -12    1    3    3    0    0  0.46047026550E+01 -0.11851832657E+01 -0.36210209525E+01  0.59765992548E+01  0.00000000000E+00 0.  1.
</event>
<event>
 7    1  0.4141894E-008  0.4614232E+02  0.7816164E-02  0.1320468E+00
        -11   -1    0    0    0    0  0.00000000000E+00  0.00000000000E+00  0.45593999997E+02  0.45594000000E+02  0.51100000000E-03 0. -1.
         11   -1    0    0    0    0 -0.00000000000E+00 -0.00000000000E+00 -0.45593999997E+02  0.45594000000E+02  0.51100000000E-03 0.  1.
    9900012    2    1    2    0    0  0.42196472331E+02  0.10786864698E+02  0.11498468430E+02  0.46142317594E+02  0.99999984772E+01 0.  0.
        -12    1    1    2    0    0 -0.42196472331E+02 -0.10786864698E+02 -0.11498468430E+02  0.45045682406E+02  0.00000000000E+00 0.  1.
         11    1    3    3    0    0  0.17566741300E+02  0.42875019732E+01  0.91722273269E+01  0.20275670827E+02  0.51100000000E-03 0. -1.
        -11    1    3    3    0    0  0.96112818032E+01  0.37986749759E+01  0.23886251708E+01  0.10607176813E+02  0.51100000000E-03 0.  1.
        -12    1    3    3    0    0  0.15018449228E+02  0.27006877486E+01 -0.62384068126E-01  0.15259469955E+02  0.00000000000E+00 0.  1.
</event>
<event>
 7    1  0.4141894E-008  0.4614232E+02  0.7816164E-02  0.1320468E+00
        -11   -1    0    0    0    0  0.00000000000E+00  0.00000000000E+00  0.45593999997E+02  0.45594000000E+02  0.51100000000E-03 0.  1.
         11   -1    0    0    0    0 -0.00000000000E+00 -0.00000000000E+00 -0.45593999997E+02  0.45594000000E+02  0.51100000000E-03 0. -1.
    9900012    2    1    2    0    0 -0.27223939361E+02  0.65339473491E+01 -0.35288499632E+02  0.46142317092E+02  0.99999939025E+01 0.  0.
        -12    1    1    2    0    0  0.27223939361E+02 -0.65339473491E+01  0.35288499632E+02  0.45045682908E+02  0.00000000000E+00 0.  1.
         11    1    3    3    0    0 -0.13038590493E+02  0.40088796565E+01 -0.13650123164E+02  0.19297715430E+02  0.51100000000E-03 0. -1.
        -11    1    3    3    0    0 -0.85809877482E+00  0.19850440424E+01 -0.54862240650E+01  0.58970660595E+01  0.51100000000E-03 0.  1.
        -12    1    3    3    0    0 -0.13327250093E+02  0.54002365023E+00 -0.16152152403E+02  0.20947535603E+02  0.00000000000E+00 0.  1.
</event>
<event>
 7    1  0.4141894E-008  0.4614232E+02  0.7816164E-02  0.1320468E+00
        -11   -1    0    0    0    0  0.00000000000E+00  0.00000000000E+00  0.45593999997E+02  0.45594000000E+02  0.51100000000E-03 0.  1.
         11   -1    0    0    0    0 -0.00000000000E+00 -0.00000000000E+00 -0.45593999997E+02  0.45594000000E+02  0.51100000000E-03 0. -1.
    9900012    2    1    2    0    0  0.12302041136E+02  0.35494437878E+02 -0.24857959845E+02  0.46142317588E+02  0.99999984170E+01 0.  0.
        -12    1    1    2    0    0 -0.12302041136E+02 -0.35494437878E+02  0.24857959845E+02  0.45045682412E+02  0.00000000000E+00 0.  1.
         11    1    3    3    0    0  0.64888364030E+01  0.22766809058E+02 -0.14590336606E+02  0.27808461214E+02  0.51100000000E-03 0. -1.
        -11    1    3    3    0    0 -0.10699433956E+01  0.94668176378E+00 -0.17085907391E+01  0.22271658687E+01  0.51100000000E-03 0.  1.
        -12    1    3    3    0    0  0.68831481283E+01  0.11780947056E+02 -0.85590324995E+01  0.16106690505E+02  0.00000000000E+00 0.  1.
</event>
<event>
 7    1  0.4141894E-008  0.4614232E+02  0.7816164E-02  0.1320468E+00
        -11   -1    0    0    0    0  0.00000000000E+00  0.00000000000E+00  0.45593999997E+02  0.45594000000E+02  0.51100000000E-03 0.  1.
         11   -1    0    0    0    0 -0.00000000000E+00 -0.00000000000E+00 -0.45593999997E+02  0.45594000000E+02  0.51100000000E-03 0. -1.
    9900012    2    1    2    0    0  0.16897011266E+02  0.38872327439E+02 -0.15249481420E+02  0.46142317478E+02  0.99999974201E+01 0.  0.
        -12    1    1    2    0    0 -0.16897011266E+02 -0.38872327439E+02  0.15249481420E+02  0.45045682522E+02  0.00000000000E+00 0.  1.
         11    1    3    3    0    0  0.11505569781E+02  0.21095582708E+02 -0.73735619648E+01  0.25135058426E+02  0.51100000000E-03 0. -1.
        -11    1    3    3    0    0  0.60666619333E+01  0.10693091714E+02 -0.41546748949E+01  0.12977207756E+02  0.51100000000E-03 0.  1.
        -12    1    3    3    0    0 -0.67522044864E+00  0.70836530175E+01 -0.37212445608E+01  0.80300512955E+01  0.00000000000E+00 0.  1.
</event>
<event>
 7    1  0.4141894E-008  0.4614232E+02  0.7816164E-02  0.1320468E+00
        -11   -1    0    0    0    0  0.00000000000E+00  0.00000000000E+00  0.45593999997E+02  0.45594000000E+02  0.51100000000E-03 0.  1.
         11   -1    0    0    0    0 -0.00000000000E+00 -0.00000000000E+00 -0.45593999997E+02  0.45594000000E+02  0.51100000000E-03 0. -1.
    9900012    2    1    2    0    0  0.13411105120E+02  0.31980297742E+02 -0.28749196698E+02  0.46142317688E+02  0.99999993327E+01 0.  0.
        -12    1    1    2    0    0 -0.13411105120E+02 -0.31980297742E+02  0.28749196698E+02  0.45045682312E+02  0.00000000000E+00 0.  1.
         11    1    3    3    0    0  0.34621574476E+01  0.11510302705E+02 -0.13503228056E+02  0.18077908362E+02  0.51100000000E-03 0. -1.
        -11    1    3    3    0    0  0.56304627805E+01  0.88315134282E+01 -0.10335541597E+02  0.14714658029E+02  0.51100000000E-03 0.  1.
        -12    1    3    3    0    0  0.43184848917E+01  0.11638481609E+02 -0.49104270447E+01  0.13349751297E+02  0.00000000000E+00 0.  1.
</event>
<event>
 7    1  0.4141894E-008  0.4614232E+02  0.7816164E-02  0.1320468E+00
        -11   -1    0    0    0    0  0.00000000000E+00  0.00000000000E+00  0.45593999997E+02  0.45594000000E+02  0.51100000000E-03 0.  1.
         11   -1    0    0    0    0 -0.00000000000E+00 -0.00000000000E+00 -0.45593999997E+02  0.45594000000E+02  0.51100000000E-03 0. -1.
    9900012    2    1    2    0    0  0.23757084982E+02 -0.33718407501E+02 -0.18104789812E+02  0.46142317572E+02  0.99999982763E+01 0.  0.
        -12    1    1    2    0    0 -0.23757084982E+02  0.33718407501E+02  0.18104789812E+02  0.45045682428E+02  0.00000000000E+00 0.  1.
         11    1    3    3    0    0  0.57071564151E+01 -0.93137868124E+01 -0.29955377608E+01  0.11326584034E+02  0.51100000000E-03 0. -1.
        -11    1    3    3    0    0  0.10085712787E+02 -0.88872380388E+01 -0.35915140451E+01  0.13914150199E+02  0.51100000000E-03 0.  1.
         12    1    3    3    0    0  0.79642157799E+01 -0.15517382650E+02 -0.11517738006E+02  0.20901583339E+02  0.00000000000E+00 0. -1.
</event>
<event>
 7    1  0.4141894E-008  0.4614232E+02  0.7816164E-02  0.1320468E+00
        -11   -1    0    0    0    0  0.00000000000E+00  0.00000000000E+00  0.45593999997E+02  0.45594000000E+02  0.51100000000E-03 0. -1.
         11   -1    0    0    0    0 -0.00000000000E+00 -0.00000000000E+00 -0.45593999997E+02  0.45594000000E+02  0.51100000000E-03 0.  1.
    9900012    2    1    2    0    0  0.18296837802E+02 -0.15706867981E+02  0.38047779419E+02  0.46142317699E+02  0.99999994297E+01 0.  0.
        -12    1    1    2    0    0 -0.18296837802E+02  0.15706867981E+02 -0.38047779419E+02  0.45045682301E+02  0.00000000000E+00 0.  1.
         11    1    3    3    0    0  0.10717412258E+02 -0.89704038264E+01  0.23128617433E+02  0.27023397546E+02  0.51100000000E-03 0.  1.
        -11    1    3    3    0    0  0.69415454094E+01 -0.79690430567E+01  0.13182119609E+02  0.16895531289E+02  0.51100000000E-03 0. -1.
        -12    1    3    3    0    0  0.63788013493E+00  0.12325789025E+01  0.17370423766E+01  0.22233888629E+01  0.00000000000E+00 0.  1.
</event>
<event>
 7    1  0.4141894E-008  0.4614230E+02  0.7816164E-02  0.1320468E+00
        -11   -1    0    0    0    0  0.00000000000E+00  0.00000000000E+00  0.45593999997E+02  0.45594000000E+02  0.51100000000E-03 0. -1.
         11   -1    0    0    0    0 -0.00000000000E+00 -0.00000000000E+00 -0.45593999997E+02  0.45594000000E+02  0.51100000000E-03 0.  1.
    9900012    2    1    2    0    0  0.11136073972E+02  0.40019465103E+02  0.17422549318E+02  0.46142301477E+02  0.99998515074E+01 0.  0.
        -12    1    1    2    0    0 -0.11136073972E+02 -0.40019465103E+02 -0.17422549318E+02  0.45045698523E+02  0.00000000000E+00 0.  1.
         11    1    3    3    0    0  0.17244824744E-01 -0.13222269752E+00  0.30167286380E+00  0.32982874889E+00  0.51100000000E-03 0.  1.
        -11    1    3    3    0    0  0.61194234976E+01  0.27307742695E+02  0.15344801346E+02  0.31915875104E+02  0.51100000000E-03 0. -1.
        -12    1    3    3    0    0  0.49994056500E+01  0.12843945106E+02  0.17760751083E+01  0.13896597624E+02  0.00000000000E+00 0.  1.
</event>
<event>
 7    1  0.4141894E-008  0.4614232E+02  0.7816164E-02  0.1320468E+00
        -11   -1    0    0    0    0  0.00000000000E+00  0.00000000000E+00  0.45593999997E+02  0.45594000000E+02  0.51100000000E-03 0.  1.
         11   -1    0    0    0    0 -0.00000000000E+00 -0.00000000000E+00 -0.45593999997E+02  0.45594000000E+02  0.51100000000E-03 0. -1.
    9900012    2    1    2    0    0  0.21671963920E+02  0.37902079764E+02 -0.11084758183E+02  0.46142317249E+02  0.99999953298E+01 0.  0.
        -12    1    1    2    0    0 -0.21671963920E+02 -0.37902079764E+02  0.11084758183E+02  0.45045682751E+02  0.00000000000E+00 0.  1.
         11    1    3    3    0    0  0.54256893498E+01  0.53723186868E+01 -0.35580207485E+01  0.84237417399E+01  0.51100000000E-03 0. -1.
        -11    1    3    3    0    0  0.40703782110E+01  0.13647500281E+02 -0.79308247604E+00  0.14263632874E+02  0.51100000000E-03 0.  1.
         12    1    3    3    0    0  0.12175896359E+02  0.18882260796E+02 -0.67336549583E+01  0.23454942635E+02  0.00000000000E+00 0. -1.
</event>
<event>
 7    1  0.4141894E-008  0.4614232E+02  0.7816164E-02  0.1320468E+00
        -11   -1    0    0    0    0  0.00000000000E+00  0.00000000000E+00  0.45593999997E+02  0.45594000000E+02  0.51100000000E-03 0.  1.
         11   -1    0    0    0    0 -0.00000000000E+00 -0.00000000000E+00 -0.45593999997E+02  0.45594000000E+02  0.51100000000E-03 0. -1.
    9900012    2    1    2    0    0  0.38287434016E+01  0.40979758550E+02 -0.18306109287E+02  0.46142317365E+02  0.99999963849E+01 0.  0.
        -12    1    1    2    0    0 -0.38287434016E+01 -0.40979758550E+02  0.18306109287E+02  0.45045682635E+02  0.00000000000E+00 0.  1.
         11    1    3    3    0    0  0.19162363318E+01  0.36355132524E+01 -0.15278109341E-01  0.41096413432E+01  0.51100000000E-03 0. -1.
        -11    1    3    3    0    0  0.22599563264E+01  0.98902706184E+01 -0.71031237185E+01  0.12384636544E+02  0.51100000000E-03 0.  1.
         12    1    3    3    0    0 -0.34744925662E+00  0.27453974679E+02 -0.11187707459E+02  0.29648039478E+02  0.00000000000E+00 0. -1.
</event>
<event>
 7    1  0.4141894E-008  0.4614232E+02  0.7816164E-02  0.1320468E+00
        -11   -1    0    0    0    0  0.00000000000E+00  0.00000000000E+00  0.45593999997E+02  0.45594000000E+02  0.51100000000E-03 0. -1.
         11   -1    0    0    0    0 -0.00000000000E+00 -0.00000000000E+00 -0.45593999997E+02  0.45594000000E+02  0.51100000000E-03 0.  1.
    9900012    2    1    2    0    0 -0.13171050909E+02  0.22608339656E+02  0.36667421489E+02  0.46142318712E+02  0.10000008671E+02 0.  0.
        -12    1    1    2    0    0  0.13171050909E+02 -0.22608339656E+02 -0.36667421489E+02  0.45045681288E+02  0.00000000000E+00 0.  1.
         11    1    3    3    0    0 -0.14442570468E+01  0.86437153204E+01  0.10815302209E+02  0.13920145656E+02  0.51100000000E-03 0. -1.
        -11    1    3    3    0    0 -0.61820884196E+01  0.77559853761E+01  0.19030131138E+02  0.21459716162E+02  0.51100000000E-03 0.  1.
         12    1    3    3    0    0 -0.55447054430E+01  0.62086389590E+01  0.68219881430E+01  0.10762456894E+02  0.00000000000E+00 0. -1.
</event>
<event>
 7    1  0.4141894E-008  0.4614232E+02  0.7816164E-02  0.1320468E+00
        -11   -1    0    0    0    0  0.00000000000E+00  0.00000000000E+00  0.45593999997E+02  0.45594000000E+02  0.51100000000E-03 0.  1.
         11   -1    0    0    0    0 -0.00000000000E+00 -0.00000000000E+00 -0.45593999997E+02  0.45594000000E+02  0.51100000000E-03 0. -1.
    9900012    2    1    2    0    0  0.84049886928E+01 -0.41986198242E+02 -0.13986730206E+02  0.46142319857E+02  0.10000019109E+02 0.  0.
        -12    1    1    2    0    0 -0.84049886928E+01  0.41986198242E+02  0.13986730206E+02  0.45045680143E+02  0.00000000000E+00 0.  1.
         11    1    3    3    0    0  0.51223039910E+01 -0.22538967084E+02 -0.10135174524E+02  0.25238161548E+02  0.51100000000E-03 0. -1.
        -11    1    3    3    0    0 -0.86144847133E+00 -0.14273318838E+01 -0.15406677255E+01  0.22700279903E+01  0.51100000000E-03 0.  1.
        -12    1    3    3    0    0  0.41441331731E+01 -0.18019899274E+02 -0.23108879560E+01  0.18634130319E+02  0.00000000000E+00 0.  1.
</event>
<event>
 7    1  0.4141894E-008  0.4614232E+02  0.7816164E-02  0.1320468E+00
        -11   -1    0    0    0    0  0.00000000000E+00  0.00000000000E+00  0.45593999997E+02  0.45594000000E+02  0.51100000000E-03 0.  1.
         11   -1    0    0    0    0 -0.00000000000E+00 -0.00000000000E+00 -0.45593999997E+02  0.45594000000E+02  0.51100000000E-03 0. -1.
    9900012    2    1    2    0    0 -0.33294231745E+02  0.40719288727E+00 -0.30338784286E+02  0.46142317571E+02  0.99999982627E+01 0.  0.
        -12    1    1    2    0    0  0.33294231745E+02 -0.40719288727E+00  0.30338784286E+02  0.45045682429E+02  0.00000000000E+00 0.  1.
         11    1    3    3    0    0 -0.17089241514E+02 -0.32144357986E+01 -0.15623216616E+02  0.23376476867E+02  0.51100000000E-03 0. -1.
        -11    1    3    3    0    0 -0.70934349630E+01  0.25372568278E-01 -0.88739983176E+01  0.11360691429E+02  0.51100000000E-03 0.  1.
         12    1    3    3    0    0 -0.91115552686E+01  0.35962561176E+01 -0.58415693526E+01  0.11405149275E+02  0.00000000000E+00 0. -1.
</event>
<event>
 7    1  0.4141894E-008  0.4614232E+02  0.7816164E-02  0.1320468E+00
        -11   -1    0    0    0    0  0.00000000000E+00  0.00000000000E+00  0.45593999997E+02  0.45594000000E+02  0.51100000000E-03 0. -1.
         11   -1    0    0    0    0 -0.00000000000E+00 -0.00000000000E+00 -0.45593999997E+02  0.45594000000E+02  0.51100000000E-03 0.  1.
    9900012    2    1    2    0    0 -0.18525137880E+02  0.25725207807E+02  0.32002287881E+02  0.46142317856E+02  0.10000000866E+02 0.  0.
        -12    1    1    2    0    0  0.18525137880E+02 -0.25725207807E+02 -0.32002287881E+02  0.45045682144E+02  0.00000000000E+00 0.  1.
         11    1    3    3    0    0 -0.33139069406E+01  0.44290838949E+01  0.61691142628E+01  0.82859359404E+01  0.51100000000E-03 0. -1.
        -11    1    3    3    0    0 -0.56872401223E+01  0.17934100116E+01  0.58654841439E+01  0.83645038216E+01  0.51100000000E-03 0.  1.
         12    1    3    3    0    0 -0.95239908171E+01  0.19502713901E+02  0.19967689474E+02  0.29491878094E+02  0.00000000000E+00 0. -1.
</event>
<event>
 7    1  0.4141894E-008  0.4614232E+02  0.7816164E-02  0.1320468E+00
        -11   -1    0    0    0    0  0.00000000000E+00  0.00000000000E+00  0.45593999997E+02  0.45594000000E+02  0.51100000000E-03 0. -1.
         11   -1    0    0    0    0 -0.00000000000E+00 -0.00000000000E+00 -0.45593999997E+02  0.45594000000E+02  0.51100000000E-03 0.  1.
    9900012    2    1    2    0    0  0.21564116359E+02  0.27213972221E+02  0.28696727374E+02  0.46142316962E+02  0.99999927128E+01 0.  0.
        -12    1    1    2    0    0 -0.21564116359E+02 -0.27213972221E+02 -0.28696727374E+02  0.45045683038E+02  0.00000000000E+00 0.  1.
         11    1    3    3    0    0  0.17020160029E+02  0.22175994874E+02  0.20193939990E+02  0.34485588419E+02  0.51100000000E-03 0. -1.
        -11    1    3    3    0    0  0.31199654581E+01  0.87669859217E+00  0.20066680791E+01  0.38117583767E+01  0.51100000000E-03 0.  1.
         12    1    3    3    0    0  0.14239908722E+01  0.41612787547E+01  0.64961193052E+01  0.78449701660E+01  0.00000000000E+00 0. -1.
</event>
<event>
 7    1  0.4141894E-008  0.4614233E+02  0.7816164E-02  0.1320468E+00
        -11   -1    0    0    0    0  0.00000000000E+00  0.00000000000E+00  0.45593999997E+02  0.45594000000E+02  0.51100000000E-03 0.  1.
         11   -1    0    0    0    0 -0.00000000000E+00 -0.00000000000E+00 -0.45593999997E+02  0.45594000000E+02  0.51100000000E-03 0. -1.
    9900012    2    1    2    0    0  0.26780277429E+02  0.30187907713E+02 -0.20015483577E+02  0.46142327465E+02  0.10000088486E+02 0.  0.
        -12    1    1    2    0    0 -0.26780277429E+02 -0.30187907713E+02  0.20015483577E+02  0.45045672535E+02  0.00000000000E+00 0.  1.
         11    1    3    3    0    0  0.10672572404E+02  0.13487612200E+02 -0.10381028858E+02  0.20089431176E+02  0.51100000000E-03 0. -1.
        -11    1    3    3    0    0  0.12607330426E+02  0.89137489883E+01 -0.78901056120E+01  0.17339361820E+02  0.51100000000E-03 0.  1.
        -12    1    3    3    0    0  0.35003745999E+01  0.77865465255E+01 -0.17443491070E+01  0.87135344689E+01  0.00000000000E+00 0.  1.
</event>
<event>
 7    1  0.4141894E-008  0.4614232E+02  0.7816164E-02  0.1320468E+00
        -11   -1    0    0    0    0  0.00000000000E+00  0.00000000000E+00  0.45593999997E+02  0.45594000000E+02  0.51100000000E-03 0.  1.
         11   -1    0    0    0    0 -0.00000000000E+00 -0.00000000000E+00 -0.45593999997E+02  0.45594000000E+02  0.51100000000E-03 0. -1.
    9900012    2    1    2    0    0 -0.38303782604E+02  0.23230943753E+02  0.47177325808E+01  0.46142317519E+02  0.99999977966E+01 0.  0.
        -12    1    1    2    0    0  0.38303782604E+02 -0.23230943753E+02 -0.47177325808E+01  0.45045682481E+02  0.00000000000E+00 0.  1.
         11    1    3    3    0    0 -0.12610075492E+02  0.79572309646E+01 -0.11400876657E+01  0.14954308031E+02  0.51100000000E-03 0. -1.
        -11    1    3    3    0    0 -0.88920080950E+01  0.66602838636E+01 -0.87113699900E+00  0.11143880340E+02  0.51100000000E-03 0.  1.
         12    1    3    3    0    0 -0.16801699017E+02  0.86134289250E+01  0.67289572455E+01  0.20044129148E+02  0.00000000000E+00 0. -1.
</event>
<event>
 7    1  0.4141894E-008  0.4614232E+02  0.7816164E-02  0.1320468E+00
        -11   -1    0    0    0    0  0.00000000000E+00  0.00000000000E+00  0.45593999997E+02  0.45594000000E+02  0.51100000000E-03 0.  1.
         11   -1    0    0    0    0 -0.00000000000E+00 -0.00000000000E+00 -0.45593999997E+02  0.45594000000E+02  0.51100000000E-03 0. -1.
    9900012    2    1    2    0    0 -0.66503931147E+01 -0.34581029749E+02 -0.28089824925E+02  0.46142316395E+02  0.99999875434E+01 0.  0.
        -12    1    1    2    0    0  0.66503931147E+01  0.34581029749E+02  0.28089824925E+02  0.45045683605E+02  0.00000000000E+00 0.  1.
         11    1    3    3    0    0 -0.35853182465E+01 -0.10811853754E+02 -0.55276415786E+01  0.12661181232E+02  0.51100000000E-03 0. -1.
        -11    1    3    3    0    0  0.27526839624E+00 -0.17718783943E+02 -0.17576627673E+02  0.24959345298E+02  0.51100000000E-03 0.  1.
         12    1    3    3    0    0 -0.33403432645E+01 -0.60503920528E+01 -0.49855556742E+01  0.85217898647E+01  0.00000000000E+00 0. -1.
</event>
<event>
 7    1  0.4141894E-008  0.4614232E+02  0.7816164E-02  0.1320468E+00
        -11   -1    0    0    0    0  0.00000000000E+00  0.00000000000E+00  0.45593999997E+02  0.45594000000E+02  0.51100000000E-03 0.  1.
         11   -1    0    0    0    0 -0.00000000000E+00 -0.00000000000E+00 -0.45593999997E+02  0.45594000000E+02  0.51100000000E-03 0. -1.
    9900012    2    1    2    0    0  0.16691618957E+02 -0.19169208447E+01 -0.41795078704E+02  0.46142319488E+02  0.10000015749E+02 0.  0.
        -12    1    1    2    0    0 -0.16691618957E+02  0.19169208447E+01  0.41795078704E+02  0.45045680512E+02  0.00000000000E+00 0.  1.
         11    1    3    3    0    0  0.11941760242E+02 -0.27238419422E+01 -0.24318755676E+02  0.27229154054E+02  0.51100000000E-03 0. -1.
        -11    1    3    3    0    0  0.28812910317E+01 -0.33970025927E+00 -0.26618156171E+01  0.39373210329E+01  0.51100000000E-03 0.  1.
        -12    1    3    3    0    0  0.18685676836E+01  0.11466213568E+01 -0.14814507410E+02  0.14975844401E+02  0.00000000000E+00 0.  1.
</event>
<event>
 7    1  0.4141894E-008  0.4614232E+02  0.7816164E-02  0.1320468E+00
        -11   -1    0    0    0    0  0.00000000000E+00  0.00000000000E+00  0.45593999997E+02  0.45594000000E+02  0.51100000000E-03 0.  1.
         11   -1    0    0    0    0 -0.00000000000E+00 -0.00000000000E+00 -0.45593999997E+02  0.45594000000E+02  0.51100000000E-03 0. -1.
    9900012    2    1    2    0    0 -0.36703620322E+02 -0.19876178754E+02 -0.16937982696E+02  0.46142317805E+02  0.10000000397E+02 0.  0.
        -12    1    1    2    0    0  0.36703620322E+02  0.19876178754E+02  0.16937982696E+02  0.45045682195E+02  0.00000000000E+00 0.  1.
         11    1    3    3    0    0 -0.55348227188E+01 -0.32710221242E+01 -0.26628648459E+01  0.69587856494E+01  0.51100000000E-03 0. -1.
        -11    1    3    3    0    0 -0.16941466938E+02 -0.41943856726E+01 -0.50399701619E+01  0.18166107802E+02  0.51100000000E-03 0.  1.
        -12    1    3    3    0    0 -0.14227330666E+02 -0.12410770957E+02 -0.92351476882E+01  0.21017424354E+02  0.00000000000E+00 0.  1.
</event>
<event>
 7    1  0.4141894E-008  0.4614232E+02  0.7816164E-02  0.1320468E+00
        -11   -1    0    0    0    0  0.00000000000E+00  0.00000000000E+00  0.45593999997E+02  0.45594000000E+02  0.51100000000E-03 0.  1.
         11   -1    0    0    0    0 -0.00000000000E+00 -0.00000000000E+00 -0.45593999997E+02  0.45594000000E+02  0.51100000000E-03 0. -1.
    9900012    2    1    2    0    0 -0.16392411450E+02  0.19497929204E+02 -0.37151488073E+02  0.46142318049E+02  0.10000002624E+02 0.  0.
        -12    1    1    2    0    0  0.16392411450E+02 -0.19497929204E+02  0.37151488073E+02  0.45045681951E+02  0.00000000000E+00 0.  1.
         11    1    3    3    0    0 -0.38817468623E+01  0.24850633637E+01 -0.90242532347E+01  0.10133145875E+02  0.51100000000E-03 0. -1.
        -11    1    3    3    0    0 -0.57712509455E+01  0.50556822748E+01 -0.51372400352E+01  0.92335527388E+01  0.51100000000E-03 0.  1.
         12    1    3    3    0    0 -0.67394136420E+01  0.11957183566E+02 -0.22989994803E+02  0.26775619435E+02  0.00000000000E+00 0. -1.
</event>
<event>
 7    1  0.4141894E-008  0.4614232E+02  0.7816164E-02  0.1320468E+00
        -11   -1    0    0    0    0  0.00000000000E+00  0.00000000000E+00  0.45593999997E+02  0.45594000000E+02  0.51100000000E-03 0.  1.
         11   -1    0    0    0    0 -0.00000000000E+00 -0.00000000000E+00 -0.45593999997E+02  0.45594000000E+02  0.51100000000E-03 0. -1.
    9900012    2    1    2    0    0 -0.43288619060E+02  0.95191011582E+00 -0.12421870451E+02  0.46142317204E+02  0.99999949241E+01 0.  0.
        -12    1    1    2    0    0  0.43288619060E+02 -0.95191011582E+00  0.12421870451E+02  0.45045682796E+02  0.00000000000E+00 0.  1.
         11    1    3    3    0    0 -0.35393841467E+01  0.78015861288E+00 -0.28117991868E+01  0.45871671571E+01  0.51100000000E-03 0. -1.
        -11    1    3    3    0    0 -0.28903734779E+02 -0.21294774405E+01 -0.93925763337E+01  0.30466063887E+02  0.51100000000E-03 0.  1.
        -12    1    3    3    0    0 -0.10845500135E+02  0.23012289435E+01 -0.21749493078E+00  0.11089086160E+02  0.00000000000E+00 0.  1.
</event>
<event>
 7    1  0.4141894E-008  0.4614232E+02  0.7816164E-02  0.1320468E+00
        -11   -1    0    0    0    0  0.00000000000E+00  0.00000000000E+00  0.45593999997E+02  0.45594000000E+02  0.51100000000E-03 0.  1.
         11   -1    0    0    0    0 -0.00000000000E+00 -0.00000000000E+00 -0.45593999997E+02  0.45594000000E+02  0.51100000000E-03 0. -1.
    9900012    2    1    2    0    0  0.42860867347E+02 -0.23285064556E+01  0.13661536892E+02  0.46142317828E+02  0.10000000611E+02 0.  0.
        -12    1    1    2    0    0 -0.42860867347E+02  0.23285064556E+01 -0.13661536892E+02  0.45045682172E+02  0.00000000000E+00 0.  1.
         11    1    3    3    0    0  0.10873624113E+02 -0.40792033375E+01  0.26347722151E+01  0.11908720590E+02  0.51100000000E-03 0. -1.
        -11    1    3    3    0    0  0.24110767390E+02  0.80453102084E+00  0.10416732352E+02  0.26277075321E+02  0.51100000000E-03 0.  1.
         12    1    3    3    0    0  0.78764758446E+01  0.94616586104E+00  0.61003232502E+00  0.79565219164E+01  0.00000000000E+00 0. -1.
</event>
<event>
 7    1  0.4141894E-008  0.4614232E+02  0.7816164E-02  0.1320468E+00
        -11   -1    0    0    0    0  0.00000000000E+00  0.00000000000E+00  0.45593999997E+02  0.45594000000E+02  0.51100000000E-03 0. -1.
         11   -1    0    0    0    0 -0.00000000000E+00 -0.00000000000E+00 -0.45593999997E+02  0.45594000000E+02  0.51100000000E-03 0.  1.
    9900012    2    1    2    0    0 -0.21341599776E+02  0.34985686124E+02  0.18698967996E+02  0.46142317425E+02  0.99999969309E+01 0.  0.
        -12    1    1    2    0    0  0.21341599776E+02 -0.34985686124E+02 -0.18698967996E+02  0.45045682575E+02  0.00000000000E+00 0.  1.
         11    1    3    3    0    0 -0.29394358194E+01  0.38911804437E+01  0.41885392080E+01  0.64284857579E+01  0.51100000000E-03 0. -1.
        -11    1    3    3    0    0 -0.17610605138E+02  0.23988827001E+02  0.10794921342E+02  0.31656398425E+02  0.51100000000E-03 0.  1.
        -12    1    3    3    0    0 -0.79155881842E+00  0.71056786788E+01  0.37155074468E+01  0.80574332412E+01  0.00000000000E+00 0.  1.
</event>
<event>
 7    1  0.4141894E-008  0.4614232E+02  0.7816164E-02  0.1320468E+00
        -11   -1    0    0    0    0  0.00000000000E+00  0.00000000000E+00  0.45593999997E+02  0.45594000000E+02  0.51100000000E-03 0.  1.
         11   -1    0    0    0    0 -0.00000000000E+00 -0.00000000000E+00 -0.45593999997E+02  0.45594000000E+02  0.51100000000E-03 0. -1.
    9900012    2    1    2    0    0 -0.30977815645E+01  0.16126638680E+02 -0.41945782942E+02  0.46142318383E+02  0.10000005667E+02 0.  0.
        -12    1    1    2    0    0  0.30977815645E+01 -0.16126638680E+02  0.41945782942E+02  0.45045681617E+02  0.00000000000E+00 0.  1.
         11    1    3    3    0    0  0.37896075366E+00  0.32253537682E+01 -0.18514535861E+02  0.18797195445E+02  0.51100000000E-03 0. -1.
        -11    1    3    3    0    0  0.18538010837E+00  0.68963809016E+01 -0.95201151331E+01  0.11756999096E+02  0.51100000000E-03 0.  1.
         12    1    3    3    0    0 -0.36621224265E+01  0.60049040104E+01 -0.13911131948E+02  0.15588123843E+02  0.00000000000E+00 0. -1.
</event>
<event>
 7    1  0.4141894E-008  0.4614232E+02  0.7816164E-02  0.1320468E+00
        -11   -1    0    0    0    0  0.00000000000E+00  0.00000000000E+00  0.45593999997E+02  0.45594000000E+02  0.51100000000E-03 0.  1.
         11   -1    0    0    0    0 -0.00000000000E+00 -0.00000000000E+00 -0.45593999997E+02  0.45594000000E+02  0.51100000000E-03 0. -1.
    9900012    2    1    2    0    0 -0.33792810974E+02 -0.19128071295E+02 -0.22831475583E+02  0.46142318051E+02  0.10000002640E+02 0.  0.
        -12    1    1    2    0    0  0.33792810974E+02  0.19128071295E+02  0.22831475583E+02  0.45045681949E+02  0.00000000000E+00 0.  1.
         11    1    3    3    0    0 -0.13751044566E+02 -0.39030223610E+01 -0.11536344115E+02  0.18368779110E+02  0.51100000000E-03 0. -1.
        -11    1    3    3    0    0 -0.79175193935E+01 -0.41306301949E+01 -0.36335756193E+01  0.96411664852E+01  0.51100000000E-03 0.  1.
        -12    1    3    3    0    0 -0.12124247015E+02 -0.11094418739E+02 -0.76615558492E+01  0.18132372455E+02  0.00000000000E+00 0.  1.
</event>
<event>
 7    1  0.4141894E-008  0.4614232E+02  0.7816164E-02  0.1320468E+00
        -11   -1    0    0    0    0  0.00000000000E+00  0.00000000000E+00  0.45593999997E+02  0.45594000000E+02  0.51100000000E-03 0. -1.
         11   -1    0    0    0    0 -0.00000000000E+00 -0.00000000000E+00 -0.45593999997E+02  0.45594000000E+02  0.51100000000E-03 0.  1.
    9900012    2    1    2    0    0 -0.12464808703E+02 -0.18270280750E+02  0.39242055531E+02  0.46142317221E+02  0.99999950783E+01 0.  0.
        -12    1    1    2    0    0  0.12464808703E+02  0.18270280750E+02 -0.39242055531E+02  0.45045682779E+02  0.00000000000E+00 0.  1.
         11    1    3    3    0    0 -0.69463049290E+01 -0.15438831269E+02  0.27842734892E+02  0.32585680132E+02  0.51100000000E-03 0. -1.
        -11    1    3    3    0    0 -0.43210914367E+00 -0.23534388924E+00  0.48183524576E+01  0.48434105468E+01  0.51100000000E-03 0.  1.
        -12    1    3    3    0    0 -0.50863946307E+01 -0.25961055918E+01  0.65809681814E+01  0.87132265429E+01  0.00000000000E+00 0.  1.
</event>
<event>
 7    1  0.4141894E-008  0.4614232E+02  0.7816164E-02  0.1320468E+00
        -11   -1    0    0    0    0  0.00000000000E+00  0.00000000000E+00  0.45593999997E+02  0.45594000000E+02  0.51100000000E-03 0.  1.
         11   -1    0    0    0    0 -0.00000000000E+00 -0.00000000000E+00 -0.45593999997E+02  0.45594000000E+02  0.51100000000E-03 0. -1.
    9900012    2    1    2    0    0  0.59130172665E+01  0.24390460308E+02 -0.37406620554E+02  0.46142316650E+02  0.99999898655E+01 0.  0.
        -12    1    1    2    0    0 -0.59130172665E+01 -0.24390460308E+02  0.37406620554E+02  0.45045683350E+02  0.00000000000E+00 0.  1.
         11    1    3    3    0    0 -0.33921527447E+00 -0.73282843592E+00 -0.79452561536E+00  0.11328617451E+01  0.51100000000E-03 0.  1.
        -11    1    3    3    0    0  0.53979808075E+00  0.59907715210E+01 -0.62859404082E+01  0.87002168054E+01  0.51100000000E-03 0. -1.
         12    1    3    3    0    0  0.57124344602E+01  0.19132517223E+02 -0.30326154530E+02  0.36309238099E+02  0.00000000000E+00 0. -1.
</event>
<event>
 7    1  0.4141894E-008  0.4614232E+02  0.7816164E-02  0.1320468E+00
        -11   -1    0    0    0    0  0.00000000000E+00  0.00000000000E+00  0.45593999997E+02  0.45594000000E+02  0.51100000000E-03 0.  1.
         11   -1    0    0    0    0 -0.00000000000E+00 -0.00000000000E+00 -0.45593999997E+02  0.45594000000E+02  0.51100000000E-03 0. -1.
    9900012    2    1    2    0    0  0.26275609350E+02  0.31024075755E+02 -0.19396200944E+02  0.46142317252E+02  0.99999953600E+01 0.  0.
        -12    1    1    2    0    0 -0.26275609350E+02 -0.31024075755E+02  0.19396200944E+02  0.45045682748E+02  0.00000000000E+00 0.  1.
         11    1    3    3    0    0  0.28110440391E+01  0.69705857452E+01 -0.32762992411E+01  0.81990957550E+01  0.51100000000E-03 0. -1.
        -11    1    3    3    0    0  0.65399136131E+01  0.81379673715E+01 -0.16411120990E+01  0.10568359957E+02  0.51100000000E-03 0.  1.
         12    1    3    3    0    0  0.16924651697E+02  0.15915522638E+02 -0.14478789604E+02  0.27374861540E+02  0.00000000000E+00 0. -1.
</event>
<event>
 7    1  0.4141894E-008  0.4614232E+02  0.7816164E-02  0.1320468E+00
        -11   -1    0    0    0    0  0.00000000000E+00  0.00000000000E+00  0.45593999997E+02  0.45594000000E+02  0.51100000000E-03 0.  1.
         11   -1    0    0    0    0 -0.00000000000E+00 -0.00000000000E+00 -0.45593999997E+02  0.45594000000E+02  0.51100000000E-03 0. -1.
    9900012    2    1    2    0    0  0.20858388270E+02  0.14887766739E+02 -0.37045858212E+02  0.46142316851E+02  0.99999916999E+01 0.  0.
        -12    1    1    2    0    0 -0.20858388270E+02 -0.14887766739E+02  0.37045858212E+02  0.45045683149E+02  0.00000000000E+00 0.  1.
         11    1    3    3    0    0  0.58118324409E+01  0.90614136186E+00 -0.67335831314E+01  0.89408965176E+01  0.51100000000E-03 0. -1.
        -11    1    3    3    0    0  0.85088779515E+01  0.61426343021E+01 -0.10136219517E+02  0.14590267527E+02  0.51100000000E-03 0.  1.
         12    1    3    3    0    0  0.65376778778E+01  0.78389910748E+01 -0.20176055564E+02  0.22611152806E+02  0.00000000000E+00 0. -1.
</event>
<event>
 7    1  0.4141894E-008  0.4614232E+02  0.7816164E-02  0.1320468E+00
        -11   -1    0    0    0    0  0.00000000000E+00  0.00000000000E+00  0.45593999997E+02  0.45594000000E+02  0.51100000000E-03 0. -1.
         11   -1    0    0    0    0 -0.00000000000E+00 -0.00000000000E+00 -0.45593999997E+02  0.45594000000E+02  0.51100000000E-03 0.  1.
    9900012    2    1    2    0    0  0.26497614274E+01 -0.11079572888E+02  0.43581364437E+02  0.46142317663E+02  0.99999991057E+01 0.  0.
        -12    1    1    2    0    0 -0.26497614274E+01  0.11079572888E+02 -0.43581364437E+02  0.45045682337E+02  0.00000000000E+00 0.  1.
         11    1    3    3    0    0  0.17906067611E-01 -0.39349528898E+01  0.77399783689E+01  0.86828244416E+01  0.51100000000E-03 0. -1.
        -11    1    3    3    0    0  0.22415275527E+01 -0.84952981710E+01  0.24431189579E+02  0.25963003703E+02  0.51100000000E-03 0.  1.
         12    1    3    3    0    0  0.39032780712E+00  0.13506781724E+01  0.11410196490E+02  0.11496489519E+02  0.00000000000E+00 0. -1.
</event>
<event>
 7    1  0.4141894E-008  0.4614232E+02  0.7816164E-02  0.1320468E+00
        -11   -1    0    0    0    0  0.00000000000E+00  0.00000000000E+00  0.45593999997E+02  0.45594000000E+02  0.51100000000E-03 0.  1.
         11   -1    0    0    0    0 -0.00000000000E+00 -0.00000000000E+00 -0.45593999997E+02  0.45594000000E+02  0.51100000000E-03 0. -1.
    9900012    2    1    2    0    0 -0.41558595168E+02  0.37051739255E+01 -0.16978470098E+02  0.46142316600E+02  0.99999894094E+01 0.  0.
        -12    1    1    2    0    0  0.41558595168E+02 -0.37051739255E+01  0.16978470098E+02  0.45045683400E+02  0.00000000000E+00 0.  1.
         11    1    3    3    0    0 -0.58194571476E+01  0.39594456859E+01 -0.29018642998E+01  0.76134163362E+01  0.51100000000E-03 0. -1.
        -11    1    3    3    0    0 -0.11285315824E+02 -0.13206408966E+01 -0.51489832437E+01  0.12474553071E+02  0.51100000000E-03 0.  1.
         12    1    3    3    0    0 -0.24453822196E+02  0.10663691361E+01 -0.89276225546E+01  0.26054347192E+02  0.00000000000E+00 0. -1.
</event>
<event>
 7    1  0.4141894E-008  0.4614232E+02  0.7816164E-02  0.1320468E+00
        -11   -1    0    0    0    0  0.00000000000E+00  0.00000000000E+00  0.45593999997E+02  0.45594000000E+02  0.51100000000E-03 0.  1.
         11   -1    0    0    0    0 -0.00000000000E+00 -0.00000000000E+00 -0.45593999997E+02  0.45594000000E+02  0.51100000000E-03 0. -1.
    9900012    2    1    2    0    0  0.52772116621E+01 -0.13993177971E+02 -0.42490651992E+02  0.46142317639E+02  0.99999988887E+01 0.  0.
        -12    1    1    2    0    0 -0.52772116621E+01  0.13993177971E+02  0.42490651992E+02  0.45045682361E+02  0.00000000000E+00 0.  1.
         11    1    3    3    0    0  0.12348064608E+01 -0.13331282392E+01 -0.71968404475E+00  0.19544624026E+01  0.51100000000E-03 0. -1.
        -11    1    3    3    0    0 -0.10407251200E+00 -0.91752549585E+00 -0.44250922590E+00  0.10239623037E+01  0.51100000000E-03 0.  1.
        -12    1    3    3    0    0  0.41464777133E+01 -0.11742524236E+02 -0.41328458721E+02  0.43163892933E+02  0.00000000000E+00 0.  1.
</event>
<event>
 7    1  0.4141894E-008  0.4614232E+02  0.7816164E-02  0.1320468E+00
        -11   -1    0    0    0    0  0.00000000000E+00  0.00000000000E+00  0.45593999997E+02  0.45594000000E+02  0.51100000000E-03 0.  1.
         11   -1    0    0    0    0 -0.00000000000E+00 -0.00000000000E+00 -0.45593999997E+02  0.45594000000E+02  0.51100000000E-03 0. -1.
    9900012    2    1    2    0    0  0.40247771333E+02 -0.54172090942E+01 -0.19490618817E+02  0.46142317926E+02  0.10000001507E+02 0.  0.
        -12    1    1    2    0    0 -0.40247771333E+02  0.54172090942E+01  0.19490618817E+02  0.45045682074E+02  0.00000000000E+00 0.  1.
         11    1    3    3    0    0  0.58502102710E+01 -0.22960732908E+01 -0.43101881829E+01  0.76206715718E+01  0.51100000000E-03 0. -1.
        -11    1    3    3    0    0  0.54779565347E+01 -0.20045561199E+01 -0.54650655503E+01  0.79933218854E+01  0.51100000000E-03 0.  1.
         12    1    3    3    0    0  0.28919604527E+02 -0.11165796835E+01 -0.97153650833E+01  0.30528324469E+02  0.00000000000E+00 0. -1.
</event>
<event>
 7    1  0.4141894E-008  0.4614232E+02  0.7816164E-02  0.1320468E+00
        -11   -1    0    0    0    0  0.00000000000E+00  0.00000000000E+00  0.45593999997E+02  0.45594000000E+02  0.51100000000E-03 0. -1.
         11   -1    0    0    0    0 -0.00000000000E+00 -0.00000000000E+00 -0.45593999997E+02  0.45594000000E+02  0.51100000000E-03 0.  1.
    9900012    2    1    2    0    0  0.43356896063E+02 -0.11106784167E+02  0.50923825438E+01  0.46142318179E+02  0.10000003809E+02 0.  0.
        -12    1    1    2    0    0 -0.43356896063E+02  0.11106784167E+02 -0.50923825438E+01  0.45045681821E+02  0.00000000000E+00 0.  1.
         11    1    3    3    0    0  0.11504316467E+02 -0.48109339549E+01  0.69328491582E+00  0.12488996242E+02  0.51100000000E-03 0. -1.
        -11    1    3    3    0    0  0.11977611773E+02 -0.19343518446E+01 -0.20566269388E+01  0.12305877273E+02  0.51100000000E-03 0.  1.
        -12    1    3    3    0    0  0.19874967823E+02 -0.43614983675E+01  0.64557245668E+01  0.21347444663E+02  0.00000000000E+00 0.  1.
</event>
<event>
 7    1  0.4141894E-008  0.4614232E+02  0.7816164E-02  0.1320468E+00
        -11   -1    0    0    0    0  0.00000000000E+00  0.00000000000E+00  0.45593999997E+02  0.45594000000E+02  0.51100000000E-03 0.  1.
         11   -1    0    0    0    0 -0.00000000000E+00 -0.00000000000E+00 -0.45593999997E+02  0.45594000000E+02  0.51100000000E-03 0. -1.
    9900012    2    1    2    0    0  0.25269690714E+02 -0.25515519487E+02 -0.27194015845E+02  0.46142317618E+02  0.99999986908E+01 0.  0.
        -12    1    1    2    0    0 -0.25269690714E+02  0.25515519487E+02  0.27194015845E+02  0.45045682382E+02  0.00000000000E+00 0.  1.
         11    1    3    3    0    0  0.19318006357E+02 -0.19959875109E+02 -0.15343199903E+02  0.31733196616E+02  0.51100000000E-03 0. -1.
        -11    1    3    3    0    0  0.30025944327E+01 -0.25118555624E+01 -0.64339478107E+01  0.75313130585E+01  0.51100000000E-03 0.  1.
         12    1    3    3    0    0  0.29490899246E+01 -0.30437888164E+01 -0.54168681316E+01  0.68778079428E+01  0.00000000000E+00 0. -1.
</event>
<event>
 7    1  0.4141894E-008  0.4614232E+02  0.7816164E-02  0.1320468E+00
        -11   -1    0    0    0    0  0.00000000000E+00  0.00000000000E+00  0.45593999997E+02  0.45594000000E+02  0.51100000000E-03 0. -1.
         11   -1    0    0    0    0 -0.00000000000E+00 -0.00000000000E+00 -0.45593999997E+02  0.45594000000E+02  0.51100000000E-03 0.  1.
    9900012    2    1    2    0    0 -0.56013702050E+01 -0.39911740236E+02 -0.20119421733E+02  0.46142317768E+02  0.10000000065E+02 0.  0.
        -12    1    1    2    0    0  0.56013702050E+01  0.39911740236E+02  0.20119421733E+02  0.45045682232E+02  0.00000000000E+00 0.  1.
         11    1    3    3    0    0  0.46344082928E-01  0.16813438196E+00 -0.38577026480E+00  0.42336261378E+00  0.51100000000E-03 0. -1.
        -11    1    3    3    0    0  0.18382331163E+01 -0.13187667274E+02 -0.58818610198E+01  0.14556440446E+02  0.51100000000E-03 0.  1.
         12    1    3    3    0    0 -0.74859474042E+01 -0.26892207344E+02 -0.13851790448E+02  0.31162514709E+02  0.00000000000E+00 0. -1.
</event>
<event>
 7    1  0.4141894E-008  0.4614232E+02  0.7816164E-02  0.1320468E+00
        -11   -1    0    0    0    0  0.00000000000E+00  0.00000000000E+00  0.45593999997E+02  0.45594000000E+02  0.51100000000E-03 0.  1.
         11   -1    0    0    0    0 -0.00000000000E+00 -0.00000000000E+00 -0.45593999997E+02  0.45594000000E+02  0.51100000000E-03 0. -1.
    9900012    2    1    2    0    0 -0.34637103991E+02 -0.28791894845E+02  0.64133646273E+00  0.46142317698E+02  0.99999994215E+01 0.  0.
        -12    1    1    2    0    0  0.34637103991E+02  0.28791894845E+02 -0.64133646273E+00  0.45045682302E+02  0.00000000000E+00 0.  1.
         11    1    3    3    0    0  0.31013244980E+00 -0.17443545259E+01 -0.11810615265E+00  0.17756419044E+01  0.51100000000E-03 0. -1.
        -11    1    3    3    0    0 -0.12876346448E+02 -0.77547934004E+01  0.79567580234E+00  0.15052249625E+02  0.51100000000E-03 0.  1.
         12    1    3    3    0    0 -0.22070889993E+02 -0.19292746918E+02 -0.36233186959E-01  0.29314426168E+02  0.00000000000E+00 0. -1.
</event>
<event>
 7    1  0.5385854E-008  0.4614232E+02  0.7816164E-02  0.1320468E+00
        -11   -1    0    0    0    0  0.00000000000E+00  0.00000000000E+00  0.45593999997E+02  0.45594000000E+02  0.51100000000E-03 0. -1.
         11   -1    0    0    0    0 -0.00000000000E+00 -0.00000000000E+00 -0.45593999997E+02  0.45594000000E+02  0.51100000000E-03 0.  1.
    9900012    2    1    2    0    0 -0.63098910301E+01 -0.24097847827E+02  0.37531215818E+02  0.46142321456E+02  0.10000033693E+02 0.  0.
        -12    1    1    2    0    0  0.63098910301E+01  0.24097847827E+02 -0.37531215818E+02  0.45045678544E+02  0.00000000000E+00 0.  1.
         11    1    3    3    0    0 -0.43599557789E+01 -0.80588969398E+01  0.10423446443E+02  0.13878158030E+02  0.51100000000E-03 0.  1.
        -11    1    3    3    0    0 -0.13213548770E+00 -0.79369835059E-01 -0.38957804754E+00  0.41896380998E+00  0.51100000000E-03 0. -1.
         12    1    3    3    0    0 -0.18177997636E+01 -0.15959581052E+02  0.27497347422E+02  0.31845199616E+02  0.00000000000E+00 0. -1.
</event>
<event>
 7    1  0.4141894E-008  0.4614232E+02  0.7816164E-02  0.1320468E+00
        -11   -1    0    0    0    0  0.00000000000E+00  0.00000000000E+00  0.45593999997E+02  0.45594000000E+02  0.51100000000E-03 0. -1.
         11   -1    0    0    0    0 -0.00000000000E+00 -0.00000000000E+00 -0.45593999997E+02  0.45594000000E+02  0.51100000000E-03 0.  1.
    9900012    2    1    2    0    0  0.10821365444E+02  0.30961693722E+01  0.43616799777E+02  0.46142318325E+02  0.10000005138E+02 0.  0.
        -12    1    1    2    0    0 -0.10821365444E+02 -0.30961693722E+01 -0.43616799777E+02  0.45045681675E+02  0.00000000000E+00 0.  1.
         11    1    3    3    0    0  0.54379227221E+01 -0.15773099853E+01  0.89706133250E+01  0.10608054205E+02  0.51100000000E-03 0. -1.
        -11    1    3    3    0    0  0.40460198244E+01  0.19992747213E+01  0.15076480039E+02  0.15737459339E+02  0.51100000000E-03 0.  1.
        -12    1    3    3    0    0  0.13374228978E+01  0.26742046362E+01  0.19569706413E+02  0.19796804781E+02  0.00000000000E+00 0.  1.
</event>
<event>
 7    1  0.4141894E-008  0.4614232E+02  0.7816164E-02  0.1320468E+00
        -11   -1    0    0    0    0  0.00000000000E+00  0.00000000000E+00  0.45593999997E+02  0.45594000000E+02  0.51100000000E-03 0.  1.
         11   -1    0    0    0    0 -0.00000000000E+00 -0.00000000000E+00 -0.45593999997E+02  0.45594000000E+02  0.51100000000E-03 0. -1.
    9900012    2    1    2    0    0  0.27343117524E+02 -0.53303807260E+01 -0.35398507982E+02  0.46142318720E+02  0.10000008744E+02 0.  0.
        -12    1    1    2    0    0 -0.27343117524E+02  0.53303807260E+01  0.35398507982E+02  0.45045681280E+02  0.00000000000E+00 0.  1.
         11    1    3    3    0    0  0.32374537983E+01 -0.10171991409E+01 -0.14611286787E+01  0.36946851645E+01  0.51100000000E-03 0. -1.
        -11    1    3    3    0    0  0.68307978977E+01 -0.34109874213E+01 -0.65758360083E+01  0.10076519964E+02  0.51100000000E-03 0.  1.
         12    1    3    3    0    0  0.17274865828E+02 -0.90219416383E+00 -0.27361543296E+02  0.32371113592E+02  0.00000000000E+00 0. -1.
</event>
<event>
 7    1  0.4141894E-008  0.4614232E+02  0.7816164E-02  0.1320468E+00
        -11   -1    0    0    0    0  0.00000000000E+00  0.00000000000E+00  0.45593999997E+02  0.45594000000E+02  0.51100000000E-03 0.  1.
         11   -1    0    0    0    0 -0.00000000000E+00 -0.00000000000E+00 -0.45593999997E+02  0.45594000000E+02  0.51100000000E-03 0. -1.
    9900012    2    1    2    0    0 -0.23906109259E+02 -0.37576195420E+02 -0.67558076629E+01  0.46142318084E+02  0.10000002940E+02 0.  0.
        -12    1    1    2    0    0  0.23906109259E+02  0.37576195420E+02  0.67558076629E+01  0.45045681916E+02  0.00000000000E+00 0.  1.
         11    1    3    3    0    0 -0.12148834451E+02 -0.16423781853E+02 -0.72517005383E+01  0.21677683221E+02  0.51100000000E-03 0. -1.
        -11    1    3    3    0    0 -0.74904582340E+01 -0.12630385260E+02 -0.13872746921E+01  0.14749851786E+02  0.51100000000E-03 0.  1.
        -12    1    3    3    0    0 -0.42668165747E+01 -0.85220283066E+01  0.18831675676E+01  0.97147830768E+01  0.00000000000E+00 0.  1.
</event>
<event>
 7    1  0.4141894E-008  0.4614232E+02  0.7816164E-02  0.1320468E+00
        -11   -1    0    0    0    0  0.00000000000E+00  0.00000000000E+00  0.45593999997E+02  0.45594000000E+02  0.51100000000E-03 0.  1.
         11   -1    0    0    0    0 -0.00000000000E+00 -0.00000000000E+00 -0.45593999997E+02  0.45594000000E+02  0.51100000000E-03 0. -1.
    9900012    2    1    2    0    0 -0.19989066009E+02 -0.11678593388E+02 -0.38641444297E+02  0.46142317401E+02  0.99999967166E+01 0.  0.
        -12    1    1    2    0    0  0.19989066009E+02  0.11678593388E+02  0.38641444297E+02  0.45045682599E+02  0.00000000000E+00 0.  1.
         11    1    3    3    0    0 -0.10796511972E+02 -0.15718357078E+01 -0.21499173810E+02  0.24109123025E+02  0.51100000000E-03 0. -1.
        -11    1    3    3    0    0  0.12824075531E+00 -0.16833349349E+00 -0.19402544618E+00  0.28710275380E+00  0.51100000000E-03 0.  1.
        -12    1    3    3    0    0 -0.93207947917E+01 -0.99384241871E+01 -0.16948245041E+02  0.21746091622E+02  0.00000000000E+00 0.  1.
</event>
<event>
 7    1  0.4141894E-008  0.4614232E+02  0.7816164E-02  0.1320468E+00
        -11   -1    0    0    0    0  0.00000000000E+00  0.00000000000E+00  0.45593999997E+02  0.45594000000E+02  0.51100000000E-03 0.  1.
         11   -1    0    0    0    0 -0.00000000000E+00 -0.00000000000E+00 -0.45593999997E+02  0.45594000000E+02  0.51100000000E-03 0. -1.
    9900012    2    1    2    0    0 -0.83319892764E+01 -0.56218815162E+01 -0.43909974345E+02  0.46142318253E+02  0.10000004486E+02 0.  0.
        -12    1    1    2    0    0  0.83319892764E+01  0.56218815162E+01  0.43909974345E+02  0.45045681747E+02  0.00000000000E+00 0.  1.
         11    1    3    3    0    0  0.18508560051E+00 -0.18943465961E+01 -0.12536207954E+02  0.12679878384E+02  0.51100000000E-03 0.  1.
        -11    1    3    3    0    0 -0.26600348922E+01 -0.14636658691E+01 -0.21817520223E+02  0.22027761855E+02  0.51100000000E-03 0. -1.
        -12    1    3    3    0    0 -0.58570399848E+01 -0.22638690510E+01 -0.95562461680E+01  0.11434678014E+02  0.00000000000E+00 0.  1.
</event>
<event>
 7    1  0.4141894E-008  0.4614232E+02  0.7816164E-02  0.1320468E+00
        -11   -1    0    0    0    0  0.00000000000E+00  0.00000000000E+00  0.45593999997E+02  0.45594000000E+02  0.51100000000E-03 0.  1.
         11   -1    0    0    0    0 -0.00000000000E+00 -0.00000000000E+00 -0.45593999997E+02  0.45594000000E+02  0.51100000000E-03 0. -1.
    9900012    2    1    2    0    0  0.96744886562E+01  0.35215659829E+02 -0.26369965809E+02  0.46142317358E+02  0.99999963211E+01 0.  0.
        -12    1    1    2    0    0 -0.96744886562E+01 -0.35215659829E+02  0.26369965809E+02  0.45045682642E+02  0.00000000000E+00 0.  1.
         11    1    3    3    0    0  0.10131959891E+01  0.24336424961E+01 -0.48264972914E+01  0.54994780003E+01  0.51100000000E-03 0. -1.
        -11    1    3    3    0    0  0.66615911085E+01  0.16688467110E+02 -0.87464239800E+01  0.19984535603E+02  0.51100000000E-03 0.  1.
         12    1    3    3    0    0  0.19997015587E+01  0.16093550223E+02 -0.12797044538E+02  0.20658303754E+02  0.00000000000E+00 0. -1.
</event>
<event>
 7    1  0.4141894E-008  0.4614232E+02  0.7816164E-02  0.1320468E+00
        -11   -1    0    0    0    0  0.00000000000E+00  0.00000000000E+00  0.45593999997E+02  0.45594000000E+02  0.51100000000E-03 0. -1.
         11   -1    0    0    0    0 -0.00000000000E+00 -0.00000000000E+00 -0.45593999997E+02  0.45594000000E+02  0.51100000000E-03 0.  1.
    9900012    2    1    2    0    0  0.18492724472E+02 -0.19447687687E+02  0.36179001151E+02  0.46142317198E+02  0.99999948692E+01 0.  0.
        -12    1    1    2    0    0 -0.18492724472E+02  0.19447687687E+02 -0.36179001151E+02  0.45045682802E+02  0.00000000000E+00 0.  1.
         11    1    3    3    0    0  0.85246341389E+01 -0.65429705370E+01  0.16569130526E+02  0.19748821162E+02  0.51100000000E-03 0. -1.
        -11    1    3    3    0    0  0.48249850955E+01 -0.58246920026E+01  0.14246436632E+02  0.16129738840E+02  0.51100000000E-03 0.  1.
        -12    1    3    3    0    0  0.51431052374E+01 -0.70800251477E+01  0.53634339935E+01  0.10263757196E+02  0.00000000000E+00 0.  1.
</event>
<event>
 7    1  0.4141894E-008  0.4614232E+02  0.7816164E-02  0.1320468E+00
        -11   -1    0    0    0    0  0.00000000000E+00  0.00000000000E+00  0.45593999997E+02  0.45594000000E+02  0.51100000000E-03 0.  1.
         11   -1    0    0    0    0 -0.00000000000E+00 -0.00000000000E+00 -0.45593999997E+02  0.45594000000E+02  0.51100000000E-03 0. -1.
    9900012    2    1    2    0    0  0.12794601653E+02  0.30004396413E+02 -0.31066829144E+02  0.46142317537E+02  0.99999979542E+01 0.  0.
        -12    1    1    2    0    0 -0.12794601653E+02 -0.30004396413E+02  0.31066829144E+02  0.45045682463E+02  0.00000000000E+00 0.  1.
         11    1    3    3    0    0  0.63208263781E+01  0.14551505996E+02 -0.14219051491E+02  0.21304473672E+02  0.51100000000E-03 0. -1.
        -11    1    3    3    0    0 -0.11968916033E+01  0.33238218509E+00 -0.71067147150E+00  0.14311120252E+01  0.51100000000E-03 0.  1.
        -12    1    3    3    0    0  0.76706668779E+01  0.15120508231E+02 -0.16137106181E+02  0.23406731840E+02  0.00000000000E+00 0.  1.
</event>
<event>
 7    1  0.4141894E-008  0.4614232E+02  0.7816164E-02  0.1320468E+00
        -11   -1    0    0    0    0  0.00000000000E+00  0.00000000000E+00  0.45593999997E+02  0.45594000000E+02  0.51100000000E-03 0.  1.
         11   -1    0    0    0    0 -0.00000000000E+00 -0.00000000000E+00 -0.45593999997E+02  0.45594000000E+02  0.51100000000E-03 0. -1.
    9900012    2    1    2    0    0  0.46396955138E+01  0.35964464294E+02 -0.26723471855E+02  0.46142318583E+02  0.10000007491E+02 0.  0.
        -12    1    1    2    0    0 -0.46396955138E+01 -0.35964464294E+02  0.26723471855E+02  0.45045681417E+02  0.00000000000E+00 0.  1.
         11    1    3    3    0    0 -0.16239140057E+01  0.27486135830E+01 -0.45691166309E+01  0.55739393946E+01  0.51100000000E-03 0. -1.
        -11    1    3    3    0    0  0.14532316800E+01  0.81703122777E+01 -0.73130552457E+01  0.11061042551E+02  0.51100000000E-03 0.  1.
         12    1    3    3    0    0  0.48103778396E+01  0.25045538433E+02 -0.14841299978E+02  0.29507336637E+02  0.00000000000E+00 0. -1.
</event>
<event>
 7    1  0.4141894E-008  0.4614232E+02  0.7816164E-02  0.1320468E+00
        -11   -1    0    0    0    0  0.00000000000E+00  0.00000000000E+00  0.45593999997E+02  0.45594000000E+02  0.51100000000E-03 0.  1.
         11   -1    0    0    0    0 -0.00000000000E+00 -0.00000000000E+00 -0.45593999997E+02  0.45594000000E+02  0.51100000000E-03 0. -1.
    9900012    2    1    2    0    0 -0.15913427118E+02  0.16934053523E+02 -0.38589041458E+02  0.46142318165E+02  0.10000003684E+02 0.  0.
        -12    1    1    2    0    0  0.15913427118E+02 -0.16934053523E+02  0.38589041458E+02  0.45045681835E+02  0.00000000000E+00 0.  1.
         11    1    3    3    0    0 -0.12757237887E+01 -0.75879622195E+00 -0.17634101367E+01  0.23049638745E+01  0.51100000000E-03 0. -1.
        -11    1    3    3    0    0  0.26447229938E-01  0.19047966954E+01 -0.54652363293E+01  0.57877247950E+01  0.51100000000E-03 0.  1.
         12    1    3    3    0    0 -0.14664150559E+02  0.15788053050E+02 -0.31360394992E+02  0.38049629496E+02  0.00000000000E+00 0. -1.
</event>
<event>
 7    1  0.4141894E-008  0.4614232E+02  0.7816164E-02  0.1320468E+00
        -11   -1    0    0    0    0  0.00000000000E+00  0.00000000000E+00  0.45593999997E+02  0.45594000000E+02  0.51100000000E-03 0. -1.
         11   -1    0    0    0    0 -0.00000000000E+00 -0.00000000000E+00 -0.45593999997E+02  0.45594000000E+02  0.51100000000E-03 0.  1.
    9900012    2    1    2    0    0 -0.67736290515E+00 -0.41779927875E+02  0.16825346035E+02  0.46142318044E+02  0.10000002576E+02 0.  0.
        -12    1    1    2    0    0  0.67736290515E+00  0.41779927875E+02 -0.16825346035E+02  0.45045681956E+02  0.00000000000E+00 0.  1.
         11    1    3    3    0    0  0.33639667688E+01 -0.24096451767E+02  0.84643578291E+01  0.25760446694E+02  0.51100000000E-03 0. -1.
        -11    1    3    3    0    0 -0.14903946646E+01 -0.13926990611E+02  0.68851778675E+01  0.15607306566E+02  0.51100000000E-03 0.  1.
         12    1    3    3    0    0 -0.25509350093E+01 -0.37564854969E+01  0.14758103386E+01  0.47745647829E+01  0.00000000000E+00 0. -1.
</event>
<event>
 7    1  0.4141894E-008  0.4614232E+02  0.7816164E-02  0.1320468E+00
        -11   -1    0    0    0    0  0.00000000000E+00  0.00000000000E+00  0.45593999997E+02  0.45594000000E+02  0.51100000000E-03 0. -1.
         11   -1    0    0    0    0 -0.00000000000E+00 -0.00000000000E+00 -0.45593999997E+02  0.45594000000E+02  0.51100000000E-03 0.  1.
    9900012    2    1    2    0    0  0.14183752146E+02 -0.22538441853E+02  0.36331161206E+02  0.46142318069E+02  0.10000002805E+02 0.  0.
        -12    1    1    2    0    0 -0.14183752146E+02  0.22538441853E+02 -0.36331161206E+02  0.45045681931E+02  0.00000000000E+00 0.  1.
         11    1    3    3    0    0  0.10093254408E+02 -0.13757834744E+02  0.19649238040E+02  0.26023918944E+02  0.51100000000E-03 0. -1.
        -11    1    3    3    0    0  0.26246317014E+01 -0.89220426493E+01  0.11830201708E+02  0.15048096535E+02  0.51100000000E-03 0.  1.
        -12    1    3    3    0    0  0.14658660365E+01  0.14143554076E+00  0.48517214578E+01  0.50703025899E+01  0.00000000000E+00 0.  1.
</event>
<event>
 7    1  0.4141894E-008  0.4614232E+02  0.7816164E-02  0.1320468E+00
        -11   -1    0    0    0    0  0.00000000000E+00  0.00000000000E+00  0.45593999997E+02  0.45594000000E+02  0.51100000000E-03 0. -1.
         11   -1    0    0    0    0 -0.00000000000E+00 -0.00000000000E+00 -0.45593999997E+02  0.45594000000E+02  0.51100000000E-03 0.  1.
    9900012    2    1    2    0    0  0.35148139387E+02  0.25609508138E+02 -0.11742010569E+02  0.46142318502E+02  0.10000006754E+02 0.  0.
        -12    1    1    2    0    0 -0.35148139387E+02 -0.25609508138E+02  0.11742010569E+02  0.45045681498E+02  0.00000000000E+00 0.  1.
         11    1    3    3    0    0  0.15688263439E+02  0.80024881180E+01 -0.74622687358E+01  0.19127124215E+02  0.51100000000E-03 0. -1.
        -11    1    3    3    0    0  0.94298628943E+01  0.10920836478E+02 -0.39363708382E+01  0.14956002114E+02  0.51100000000E-03 0.  1.
        -12    1    3    3    0    0  0.10030013054E+02  0.66861835417E+01 -0.34337099462E+00  0.12059192173E+02  0.00000000000E+00 0.  1.
</event>
<event>
 7    1  0.4141894E-008  0.4614232E+02  0.7816164E-02  0.1320468E+00
        -11   -1    0    0    0    0  0.00000000000E+00  0.00000000000E+00  0.45593999997E+02  0.45594000000E+02  0.51100000000E-03 0.  1.
         11   -1    0    0    0    0 -0.00000000000E+00 -0.00000000000E+00 -0.45593999997E+02  0.45594000000E+02  0.51100000000E-03 0. -1.
    9900012    2    1    2    0    0 -0.33016928930E+02  0.24808876791E+02 -0.17986538492E+02  0.46142317293E+02  0.99999957323E+01 0.  0.
        -12    1    1    2    0    0  0.33016928930E+02 -0.24808876791E+02  0.17986538492E+02  0.45045682707E+02  0.00000000000E+00 0.  1.
         11    1    3    3    0    0 -0.79519146266E+01  0.59903557976E+01 -0.58069085459E+01  0.11525514996E+02  0.51100000000E-03 0. -1.
        -11    1    3    3    0    0 -0.60387969094E+01  0.73066757359E+00 -0.14265842107E+01  0.62478865216E+01  0.51100000000E-03 0.  1.
        -12    1    3    3    0    0 -0.19026217394E+02  0.18087853420E+02 -0.10753045736E+02  0.28368915775E+02  0.00000000000E+00 0.  1.
</event>
<event>
 7    1  0.4141894E-008  0.4614232E+02  0.7816164E-02  0.1320468E+00
        -11   -1    0    0    0    0  0.00000000000E+00  0.00000000000E+00  0.45593999997E+02  0.45594000000E+02  0.51100000000E-03 0. -1.
         11   -1    0    0    0    0 -0.00000000000E+00 -0.00000000000E+00 -0.45593999997E+02  0.45594000000E+02  0.51100000000E-03 0.  1.
    9900012    2    1    2    0    0  0.28232620246E+01  0.44954816573E+02 -0.45510722581E+00  0.46142318030E+02  0.10000002450E+02 0.  0.
        -12    1    1    2    0    0 -0.28232620246E+01 -0.44954816573E+02  0.45510722581E+00  0.45045681970E+02  0.00000000000E+00 0.  1.
         11    1    3    3    0    0 -0.12717204404E+00  0.11309432470E+02  0.18849701746E+01  0.11466147930E+02  0.51100000000E-03 0. -1.
        -11    1    3    3    0    0  0.40746487500E+01  0.27286826777E+02  0.56600094602E+00  0.27595181379E+02  0.51100000000E-03 0.  1.
        -12    1    3    3    0    0 -0.11242146813E+01  0.63585573258E+01 -0.29060783465E+01  0.70809887213E+01  0.00000000000E+00 0.  1.
</event>
<event>
 7    1  0.4263728E-008  0.4614232E+02  0.7816164E-02  0.1320468E+00
        -11   -1    0    0    0    0  0.00000000000E+00  0.00000000000E+00  0.45593999997E+02  0.45594000000E+02  0.51100000000E-03 0. -1.
         11   -1    0    0    0    0 -0.00000000000E+00 -0.00000000000E+00 -0.45593999997E+02  0.45594000000E+02  0.51100000000E-03 0.  1.
    9900012    2    1    2    0    0  0.28569927866E+02 -0.13966632002E+02  0.31903069257E+02  0.46142318567E+02  0.10000007346E+02 0.  0.
        -12    1    1    2    0    0 -0.28569927866E+02  0.13966632002E+02 -0.31903069257E+02  0.45045681433E+02  0.00000000000E+00 0.  1.
         11    1    3    3    0    0  0.10705271872E+01 -0.43394825197E+00 -0.65012468485E-01  0.11569643150E+01  0.51100000000E-03 0. -1.
        -11    1    3    3    0    0  0.25379001678E+00 -0.58244052531E+00 -0.39079750894E+00  0.74590166394E+00  0.51100000000E-03 0.  1.
         12    1    3    3    0    0  0.27245610662E+02 -0.12950243225E+02  0.32358879235E+02  0.44239452588E+02  0.00000000000E+00 0. -1.
</event>
<event>
 7    1  0.4141894E-008  0.4614232E+02  0.7816164E-02  0.1320468E+00
        -11   -1    0    0    0    0  0.00000000000E+00  0.00000000000E+00  0.45593999997E+02  0.45594000000E+02  0.51100000000E-03 0.  1.
         11   -1    0    0    0    0 -0.00000000000E+00 -0.00000000000E+00 -0.45593999997E+02  0.45594000000E+02  0.51100000000E-03 0. -1.
    9900012    2    1    2    0    0  0.16146398023E+02  0.38611460259E+02 -0.16660204304E+02  0.46142318298E+02  0.10000004900E+02 0.  0.
        -12    1    1    2    0    0 -0.16146398023E+02 -0.38611460259E+02  0.16660204304E+02  0.45045681702E+02  0.00000000000E+00 0.  1.
         11    1    3    3    0    0  0.62618243881E+01  0.16778909728E+02 -0.35041398802E+01  0.18248869907E+02  0.51100000000E-03 0. -1.
        -11    1    3    3    0    0  0.37710656146E+01  0.53993220031E+01 -0.12603299045E+01  0.67053743886E+01  0.51100000000E-03 0.  1.
         12    1    3    3    0    0  0.61135080207E+01  0.16433228529E+02 -0.11895734520E+02  0.21188074003E+02  0.00000000000E+00 0. -1.
</event>
<event>
 7    1  0.4141894E-008  0.4614232E+02  0.7816164E-02  0.1320468E+00
        -11   -1    0    0    0    0  0.00000000000E+00  0.00000000000E+00  0.45593999997E+02  0.45594000000E+02  0.51100000000E-03 0. -1.
         11   -1    0    0    0    0 -0.00000000000E+00 -0.00000000000E+00 -0.45593999997E+02  0.45594000000E+02  0.51100000000E-03 0.  1.
    9900012    2    1    2    0    0  0.21701450411E+01  0.40221122965E+02  0.20165932099E+02  0.46142322300E+02  0.10000041386E+02 0.  0.
        -12    1    1    2    0    0 -0.21701450411E+01 -0.40221122965E+02 -0.20165932099E+02  0.45045677700E+02  0.00000000000E+00 0.  1.
         11    1    3    3    0    0 -0.21859004976E+01  0.33493616195E+01  0.35402379441E+01  0.53413171789E+01  0.51100000000E-03 0.  1.
        -11    1    3    3    0    0  0.26647073444E+01  0.14908284821E+02  0.81495006215E+01  0.17198022624E+02  0.51100000000E-03 0. -1.
        -12    1    3    3    0    0  0.16913381943E+01  0.21963476524E+02  0.84761935338E+01  0.23602982497E+02  0.00000000000E+00 0.  1.
</event>
<event>
 7    1  0.4141894E-008  0.4614232E+02  0.7816164E-02  0.1320468E+00
        -11   -1    0    0    0    0  0.00000000000E+00  0.00000000000E+00  0.45593999997E+02  0.45594000000E+02  0.51100000000E-03 0. -1.
         11   -1    0    0    0    0 -0.00000000000E+00 -0.00000000000E+00 -0.45593999997E+02  0.45594000000E+02  0.51100000000E-03 0.  1.
    9900012    2    1    2    0    0  0.12871299794E+02 -0.35393921203E+02  0.24712615195E+02  0.46142319116E+02  0.10000012357E+02 0.  0.
        -12    1    1    2    0    0 -0.12871299794E+02  0.35393921203E+02 -0.24712615195E+02  0.45045680884E+02  0.00000000000E+00 0.  1.
         11    1    3    3    0    0  0.70830741509E+01 -0.20705770585E+02  0.19540647676E+02  0.29338298976E+02  0.51100000000E-03 0. -1.
        -11    1    3    3    0    0  0.24537102783E+01 -0.86822255570E+01  0.38454403695E+01  0.98076065709E+01  0.51100000000E-03 0.  1.
        -12    1    3    3    0    0  0.33345153651E+01 -0.60059250611E+01  0.13265271499E+01  0.69964135698E+01  0.00000000000E+00 0.  1.
</event>
<event>
 7    1  0.4141894E-008  0.4614232E+02  0.7816164E-02  0.1320468E+00
        -11   -1    0    0    0    0  0.00000000000E+00  0.00000000000E+00  0.45593999997E+02  0.45594000000E+02  0.51100000000E-03 0. -1.
         11   -1    0    0    0    0 -0.00000000000E+00 -0.00000000000E+00 -0.45593999997E+02  0.45594000000E+02  0.51100000000E-03 0.  1.
    9900012    2    1    2    0    0 -0.41554259866E+02 -0.55287594915E+01  0.16486048122E+02  0.46142317885E+02  0.10000001129E+02 0.  0.
        -12    1    1    2    0    0  0.41554259866E+02  0.55287594915E+01 -0.16486048122E+02  0.45045682115E+02  0.00000000000E+00 0.  1.
         11    1    3    3    0    0 -0.22401190009E+02 -0.74997609935E+01  0.82771931080E+01  0.25031413360E+02  0.51100000000E-03 0. -1.
        -11    1    3    3    0    0 -0.53879828962E+01  0.12072105024E+01  0.12216648568E+01  0.56551023130E+01  0.51100000000E-03 0.  1.
         12    1    3    3    0    0 -0.13765086960E+02  0.76379099953E+00  0.69871901574E+01  0.15455802212E+02  0.00000000000E+00 0. -1.
</event>
<event>
 7    1  0.4141894E-008  0.4614232E+02  0.7816164E-02  0.1320468E+00
        -11   -1    0    0    0    0  0.00000000000E+00  0.00000000000E+00  0.45593999997E+02  0.45594000000E+02  0.51100000000E-03 0.  1.
         11   -1    0    0    0    0 -0.00000000000E+00 -0.00000000000E+00 -0.45593999997E+02  0.45594000000E+02  0.51100000000E-03 0. -1.
    9900012    2    1    2    0    0  0.32385709068E+02 -0.29243450731E+02 -0.11184802615E+02  0.46142319052E+02  0.10000011775E+02 0.  0.
        -12    1    1    2    0    0 -0.32385709068E+02  0.29243450731E+02  0.11184802615E+02  0.45045680948E+02  0.00000000000E+00 0.  1.
         11    1    3    3    0    0  0.97645816682E+01 -0.46171521141E+01 -0.33025930304E+01  0.11294789497E+02  0.51100000000E-03 0. -1.
        -11    1    3    3    0    0  0.84863873710E+00 -0.31645396202E+01 -0.15593769497E+01  0.36285197321E+01  0.51100000000E-03 0.  1.
         12    1    3    3    0    0  0.21772488663E+02 -0.21461758997E+02 -0.63228326351E+01  0.31219009823E+02  0.00000000000E+00 0. -1.
</event>
<event>
 7    1  0.4141894E-008  0.4614232E+02  0.7816164E-02  0.1320468E+00
        -11   -1    0    0    0    0  0.00000000000E+00  0.00000000000E+00  0.45593999997E+02  0.45594000000E+02  0.51100000000E-03 0. -1.
         11   -1    0    0    0    0 -0.00000000000E+00 -0.00000000000E+00 -0.45593999997E+02  0.45594000000E+02  0.51100000000E-03 0.  1.
    9900012    2    1    2    0    0 -0.42443165765E+02 -0.18429394481E+01  0.14976471880E+02  0.46142318121E+02  0.10000003285E+02 0.  0.
        -12    1    1    2    0    0  0.42443165765E+02  0.18429394481E+01 -0.14976471880E+02  0.45045681879E+02  0.00000000000E+00 0.  1.
         11    1    3    3    0    0 -0.12707037755E+02  0.95265127515E+00  0.17759835692E+01  0.12865864559E+02  0.51100000000E-03 0.  1.
        -11    1    3    3    0    0 -0.14427313025E+02 -0.63697958060E+00  0.29866673075E+01  0.14746975485E+02  0.51100000000E-03 0. -1.
         12    1    3    3    0    0 -0.15308814985E+02 -0.21586111427E+01  0.10213821003E+02  0.18529478077E+02  0.00000000000E+00 0. -1.
</event>
<event>
 7    1  0.4141894E-008  0.4614232E+02  0.7816164E-02  0.1320468E+00
        -11   -1    0    0    0    0  0.00000000000E+00  0.00000000000E+00  0.45593999997E+02  0.45594000000E+02  0.51100000000E-03 0.  1.
         11   -1    0    0    0    0 -0.00000000000E+00 -0.00000000000E+00 -0.45593999997E+02  0.45594000000E+02  0.51100000000E-03 0. -1.
    9900012    2    1    2    0    0  0.34214439736E+02  0.67570046335E+01 -0.28510147219E+02  0.46142317715E+02  0.99999995806E+01 0.  0.
        -12    1    1    2    0    0 -0.34214439736E+02 -0.67570046335E+01  0.28510147219E+02  0.45045682285E+02  0.00000000000E+00 0.  1.
         11    1    3    3    0    0  0.10189648347E+02  0.80275549662E+00 -0.12183419036E+02  0.15903114459E+02  0.51100000000E-03 0. -1.
        -11    1    3    3    0    0  0.42095547951E+01  0.20271727210E+01 -0.58393161543E+01  0.74784620227E+01  0.51100000000E-03 0.  1.
         12    1    3    3    0    0  0.19815236593E+02  0.39270764158E+01 -0.10487412029E+02  0.22760741233E+02  0.00000000000E+00 0. -1.
</event>
<event>
 7    1  0.4141894E-008  0.4614232E+02  0.7816164E-02  0.1320468E+00
        -11   -1    0    0    0    0  0.00000000000E+00  0.00000000000E+00  0.45593999997E+02  0.45594000000E+02  0.51100000000E-03 0.  1.
         11   -1    0    0    0    0 -0.00000000000E+00 -0.00000000000E+00 -0.45593999997E+02  0.45594000000E+02  0.51100000000E-03 0. -1.
    9900012    2    1    2    0    0  0.41780946923E+02 -0.85930252822E+01 -0.14478466418E+02  0.46142316532E+02  0.99999887907E+01 0.  0.
        -12    1    1    2    0    0 -0.41780946923E+02  0.85930252822E+01  0.14478466418E+02  0.45045683468E+02  0.00000000000E+00 0.  1.
         11    1    3    3    0    0  0.13395040645E+02 -0.38892823782E+01 -0.48827763049E+01  0.14778197996E+02  0.51100000000E-03 0. -1.
        -11    1    3    3    0    0  0.25837024492E+02 -0.63705241238E+01 -0.96819718507E+01  0.28317414984E+02  0.51100000000E-03 0.  1.
        -12    1    3    3    0    0  0.25488817868E+01  0.16667812198E+01  0.86281737564E-01  0.30467035524E+01  0.00000000000E+00 0.  1.
</event>
<event>
 7    1  0.4141894E-008  0.4614232E+02  0.7816164E-02  0.1320468E+00
        -11   -1    0    0    0    0  0.00000000000E+00  0.00000000000E+00  0.45593999997E+02  0.45594000000E+02  0.51100000000E-03 0. -1.
         11   -1    0    0    0    0 -0.00000000000E+00 -0.00000000000E+00 -0.45593999997E+02  0.45594000000E+02  0.51100000000E-03 0.  1.
    9900012    2    1    2    0    0  0.18491162996E+02  0.36762720370E+02  0.18321917392E+02  0.46142319021E+02  0.10000011489E+02 0.  0.
        -12    1    1    2    0    0 -0.18491162996E+02 -0.36762720370E+02 -0.18321917392E+02  0.45045680979E+02  0.00000000000E+00 0.  1.
         11    1    3    3    0    0  0.25618198330E+01  0.58395281579E+01  0.49669184083E+01  0.80829010077E+01  0.51100000000E-03 0.  1.
        -11    1    3    3    0    0  0.89023793426E-02  0.47003349648E+01  0.34219925066E+01  0.58140571901E+01  0.51100000000E-03 0. -1.
        -12    1    3    3    0    0  0.15920440783E+02  0.26222857247E+02  0.99330064775E+01  0.32245360823E+02  0.00000000000E+00 0.  1.
</event>
<event>
 7    1  0.4141894E-008  0.4614232E+02  0.7816164E-02  0.1320468E+00
        -11   -1    0    0    0    0  0.00000000000E+00  0.00000000000E+00  0.45593999997E+02  0.45594000000E+02  0.51100000000E-03 0. -1.
         11   -1    0    0    0    0 -0.00000000000E+00 -0.00000000000E+00 -0.45593999997E+02  0.45594000000E+02  0.51100000000E-03 0.  1.
    9900012    2    1    2    0    0 -0.69485774332E+01  0.35141385973E+02  0.27311419715E+02  0.46142318928E+02  0.10000010640E+02 0.  0.
        -12    1    1    2    0    0  0.69485774332E+01 -0.35141385973E+02 -0.27311419715E+02  0.45045681072E+02  0.00000000000E+00 0.  1.
         11    1    3    3    0    0 -0.20892244794E+01  0.53467886962E+01  0.54555969842E+01  0.79193779429E+01  0.51100000000E-03 0. -1.
        -11    1    3    3    0    0 -0.56365932054E+01  0.21838706893E+02  0.12049490592E+02  0.25571283220E+02  0.51100000000E-03 0.  1.
        -12    1    3    3    0    0  0.77724025163E+00  0.79558903831E+01  0.98063321380E+01  0.12651657765E+02  0.00000000000E+00 0.  1.
</event>
<event>
 7    1  0.4141894E-008  0.4614232E+02  0.7816164E-02  0.1320468E+00
        -11   -1    0    0    0    0  0.00000000000E+00  0.00000000000E+00  0.45593999997E+02  0.45594000000E+02  0.51100000000E-03 0. -1.
         11   -1    0    0    0    0 -0.00000000000E+00 -0.00000000000E+00 -0.45593999997E+02  0.45594000000E+02  0.51100000000E-03 0.  1.
    9900012    2    1    2    0    0  0.15183798313E+02  0.58341255905E+01  0.42006293773E+02  0.46142317974E+02  0.10000001943E+02 0.  0.
        -12    1    1    2    0    0 -0.15183798313E+02 -0.58341255905E+01 -0.42006293773E+02  0.45045682026E+02  0.00000000000E+00 0.  1.
         11    1    3    3    0    0  0.62296871684E+01  0.10947508534E+01  0.90453498829E+01  0.11037474186E+02  0.51100000000E-03 0. -1.
        -11    1    3    3    0    0  0.23149254693E+01 -0.13129592425E+01  0.12141859674E+02  0.12430104525E+02  0.51100000000E-03 0.  1.
        -12    1    3    3    0    0  0.66391856756E+01  0.60523339796E+01  0.20819084216E+02  0.22674739263E+02  0.00000000000E+00 0.  1.
</event>
<event>
 7    1  0.4141894E-008  0.4614232E+02  0.7816164E-02  0.1320468E+00
        -11   -1    0    0    0    0  0.00000000000E+00  0.00000000000E+00  0.45593999997E+02  0.45594000000E+02  0.51100000000E-03 0.  1.
         11   -1    0    0    0    0 -0.00000000000E+00 -0.00000000000E+00 -0.45593999997E+02  0.45594000000E+02  0.51100000000E-03 0. -1.
    9900012    2    1    2    0    0 -0.40561134087E+01 -0.42872982532E+02  0.13212455884E+02  0.46142315660E+02  0.99999808426E+01 0.  0.
        -12    1    1    2    0    0  0.40561134087E+01  0.42872982532E+02 -0.13212455884E+02  0.45045684340E+02  0.00000000000E+00 0.  1.
         11    1    3    3    0    0  0.50301388762E+00 -0.10218642121E+02  0.98485038674E+00  0.10278307269E+02  0.51100000000E-03 0. -1.
        -11    1    3    3    0    0 -0.63567655845E+01 -0.25270668255E+02  0.85762062257E+01  0.27432944724E+02  0.51100000000E-03 0.  1.
        -12    1    3    3    0    0  0.17976382883E+01 -0.73836721556E+01  0.36513992720E+01  0.84310636672E+01  0.00000000000E+00 0.  1.
</event>
<event>
 7    1  0.4141894E-008  0.4614232E+02  0.7816164E-02  0.1320468E+00
        -11   -1    0    0    0    0  0.00000000000E+00  0.00000000000E+00  0.45593999997E+02  0.45594000000E+02  0.51100000000E-03 0.  1.
         11   -1    0    0    0    0 -0.00000000000E+00 -0.00000000000E+00 -0.45593999997E+02  0.45594000000E+02  0.51100000000E-03 0. -1.
    9900012    2    1    2    0    0 -0.25481152762E+02  0.10561661486E+02 -0.35612857736E+02  0.46142317903E+02  0.10000001296E+02 0.  0.
        -12    1    1    2    0    0  0.25481152762E+02 -0.10561661486E+02  0.35612857736E+02  0.45045682097E+02  0.00000000000E+00 0.  1.
         11    1    3    3    0    0 -0.23587381664E+01  0.56964108303E+00 -0.24658104479E+01  0.34595314896E+01  0.51100000000E-03 0. -1.
        -11    1    3    3    0    0 -0.11453353342E+02  0.19420016820E+01 -0.21066932104E+02  0.24057562259E+02  0.51100000000E-03 0.  1.
        -12    1    3    3    0    0 -0.11669061253E+02  0.80500187212E+01 -0.12080115184E+02  0.18625224155E+02  0.00000000000E+00 0.  1.
</event>
<event>
 7    1  0.4141894E-008  0.4614232E+02  0.7816164E-02  0.1320468E+00
        -11   -1    0    0    0    0  0.00000000000E+00  0.00000000000E+00  0.45593999997E+02  0.45594000000E+02  0.51100000000E-03 0.  1.
         11   -1    0    0    0    0 -0.00000000000E+00 -0.00000000000E+00 -0.45593999997E+02  0.45594000000E+02  0.51100000000E-03 0. -1.
    9900012    2    1    2    0    0 -0.12100647239E+02 -0.88861023437E+01 -0.42470282727E+02  0.46142318816E+02  0.10000009619E+02 0.  0.
        -12    1    1    2    0    0  0.12100647239E+02  0.88861023437E+01  0.42470282727E+02  0.45045681184E+02  0.00000000000E+00 0.  1.
         11    1    3    3    0    0 -0.20558702456E+01 -0.54272471248E+01 -0.12410227946E+02  0.13700196048E+02  0.51100000000E-03 0.  1.
        -11    1    3    3    0    0 -0.25223036082E+01 -0.29883383873E+01 -0.16199344958E+02  0.16664661987E+02  0.51100000000E-03 0. -1.
         12    1    3    3    0    0 -0.75224733847E+01 -0.47051683157E+00 -0.13860709823E+02  0.15777460781E+02  0.00000000000E+00 0. -1.
</event>
<event>
 7    1  0.4141894E-008  0.4614232E+02  0.7816164E-02  0.1320468E+00
        -11   -1    0    0    0    0  0.00000000000E+00  0.00000000000E+00  0.45593999997E+02  0.45594000000E+02  0.51100000000E-03 0.  1.
         11   -1    0    0    0    0 -0.00000000000E+00 -0.00000000000E+00 -0.45593999997E+02  0.45594000000E+02  0.51100000000E-03 0. -1.
    9900012    2    1    2    0    0 -0.75182206254E+01 -0.36734643733E+02  0.24963089258E+02  0.46142317445E+02  0.99999971165E+01 0.  0.
        -12    1    1    2    0    0  0.75182206254E+01  0.36734643733E+02 -0.24963089258E+02  0.45045682555E+02  0.00000000000E+00 0.  1.
         11    1    3    3    0    0 -0.61644313982E+01 -0.33247170793E+02  0.18352626736E+02  0.38473282789E+02  0.51100000000E-03 0. -1.
        -11    1    3    3    0    0 -0.15806275849E+00 -0.41323547144E+00  0.16772276734E+01  0.17346009109E+01  0.51100000000E-03 0.  1.
         12    1    3    3    0    0 -0.11957264687E+01 -0.30742374686E+01  0.49332348490E+01  0.59344337452E+01  0.00000000000E+00 0. -1.
</event>
<event>
 7    1  0.4141894E-008  0.4614232E+02  0.7816164E-02  0.1320468E+00
        -11   -1    0    0    0    0  0.00000000000E+00  0.00000000000E+00  0.45593999997E+02  0.45594000000E+02  0.51100000000E-03 0.  1.
         11   -1    0    0    0    0 -0.00000000000E+00 -0.00000000000E+00 -0.45593999997E+02  0.45594000000E+02  0.51100000000E-03 0. -1.
    9900012    2    1    2    0    0  0.40591656154E+02  0.34167516751E+00 -0.19527266459E+02  0.46142318447E+02  0.10000006252E+02 0.  0.
        -12    1    1    2    0    0 -0.40591656154E+02 -0.34167516751E+00  0.19527266459E+02  0.45045681553E+02  0.00000000000E+00 0.  1.
         11    1    3    3    0    0  0.56679688322E+01 -0.67630783133E+00 -0.45633364683E+01  0.73080300321E+01  0.51100000000E-03 0. -1.
        -11    1    3    3    0    0  0.23318208288E+00  0.52611640114E+00 -0.15222733417E+01  0.16274178134E+01  0.51100000000E-03 0.  1.
         12    1    3    3    0    0  0.34690505239E+02  0.49186659770E+00 -0.13441656649E+02  0.37206870601E+02  0.00000000000E+00 0. -1.
</event>
<event>
 7    1  0.4141894E-008  0.4614232E+02  0.7816164E-02  0.1320468E+00
        -11   -1    0    0    0    0  0.00000000000E+00  0.00000000000E+00  0.45593999997E+02  0.45594000000E+02  0.51100000000E-03 0.  1.
         11   -1    0    0    0    0 -0.00000000000E+00 -0.00000000000E+00 -0.45593999997E+02  0.45594000000E+02  0.51100000000E-03 0. -1.
    9900012    2    1    2    0    0  0.11351285100E+01  0.40261696938E+02 -0.20169796956E+02  0.46142318006E+02  0.10000002230E+02 0.  0.
        -12    1    1    2    0    0 -0.11351285100E+01 -0.40261696938E+02  0.20169796956E+02  0.45045681994E+02  0.00000000000E+00 0.  1.
         11    1    3    3    0    0  0.23254397692E+01  0.70727494079E+01 -0.74308268751E+01  0.10518965853E+02  0.51100000000E-03 0. -1.
        -11    1    3    3    0    0 -0.12746812997E+01  0.13398574739E+02 -0.45810884076E+01  0.14217348160E+02  0.51100000000E-03 0.  1.
         12    1    3    3    0    0  0.84370040477E-01  0.19790372791E+02 -0.81578816735E+01  0.21406003992E+02  0.00000000000E+00 0. -1.
</event>
<event>
 7    1  0.4141894E-008  0.4614232E+02  0.7816164E-02  0.1320468E+00
        -11   -1    0    0    0    0  0.00000000000E+00  0.00000000000E+00  0.45593999997E+02  0.45594000000E+02  0.51100000000E-03 0.  1.
         11   -1    0    0    0    0 -0.00000000000E+00 -0.00000000000E+00 -0.45593999997E+02  0.45594000000E+02  0.51100000000E-03 0. -1.
    9900012    2    1    2    0    0 -0.26153007733E+02 -0.21082664503E+02 -0.30010913635E+02  0.46142317707E+02  0.99999995062E+01 0.  0.
        -12    1    1    2    0    0  0.26153007733E+02  0.21082664503E+02  0.30010913635E+02  0.45045682293E+02  0.00000000000E+00 0.  1.
         11    1    3    3    0    0 -0.17531136185E+02 -0.14795594628E+02 -0.24146737585E+02  0.33306385162E+02  0.51100000000E-03 0. -1.
        -11    1    3    3    0    0 -0.63627174887E+00  0.20323832734E+00 -0.15309702436E+01  0.16703346084E+01  0.51100000000E-03 0.  1.
         12    1    3    3    0    0 -0.79855997991E+01 -0.64903082022E+01 -0.43332058073E+01  0.11165597936E+02  0.00000000000E+00 0. -1.
</event>
<event>
 7    1  0.4141894E-008  0.4614232E+02  0.7816164E-02  0.1320468E+00
        -11   -1    0    0    0    0  0.00000000000E+00  0.00000000000E+00  0.45593999997E+02  0.45594000000E+02  0.51100000000E-03 0.  1.
         11   -1    0    0    0    0 -0.00000000000E+00 -0.00000000000E+00 -0.45593999997E+02  0.45594000000E+02  0.51100000000E-03 0. -1.
    9900012    2    1    2    0    0  0.10008966128E+02 -0.10941113150E+02 -0.42534999198E+02  0.46142317447E+02  0.99999971370E+01 0.  0.
        -12    1    1    2    0    0 -0.10008966128E+02  0.10941113150E+02  0.42534999198E+02  0.45045682553E+02  0.00000000000E+00 0.  1.
         11    1    3    3    0    0 -0.75338256904E+00 -0.12762119201E+01 -0.19653110429E+01  0.24614528062E+01  0.51100000000E-03 0. -1.
        -11    1    3    3    0    0  0.52628874599E+01 -0.22195849989E+01 -0.80567911066E+01  0.98760531175E+01  0.51100000000E-03 0.  1.
         12    1    3    3    0    0  0.54994612368E+01 -0.74453162305E+01 -0.32512897048E+02  0.33804811524E+02  0.00000000000E+00 0. -1.
</event>
<event>
 7    1  0.4141894E-008  0.4614232E+02  0.7816164E-02  0.1320468E+00
        -11   -1    0    0    0    0  0.00000000000E+00  0.00000000000E+00  0.45593999997E+02  0.45594000000E+02  0.51100000000E-03 0. -1.
         11   -1    0    0    0    0 -0.00000000000E+00 -0.00000000000E+00 -0.45593999997E+02  0.45594000000E+02  0.51100000000E-03 0.  1.
    9900012    2    1    2    0    0 -0.39137881860E+01 -0.18484436924E+01  0.44837247738E+02  0.46142320221E+02  0.10000022431E+02 0.  0.
        -12    1    1    2    0    0  0.39137881860E+01  0.18484436924E+01 -0.44837247738E+02  0.45045679779E+02  0.00000000000E+00 0.  1.
         11    1    3    3    0    0 -0.33699634044E+00 -0.30163462342E+01  0.61226247752E+01  0.68336260900E+01  0.51100000000E-03 0. -1.
        -11    1    3    3    0    0 -0.10237916694E+01  0.26592321781E+01  0.88351900082E+01  0.92833317242E+01  0.51100000000E-03 0.  1.
         12    1    3    3    0    0 -0.25530001762E+01 -0.14913296363E+01  0.29879432954E+02  0.30025362407E+02  0.00000000000E+00 0. -1.
</event>
<event>
 7    1  0.4141894E-008  0.4614232E+02  0.7816164E-02  0.1320468E+00
        -11   -1    0    0    0    0  0.00000000000E+00  0.00000000000E+00  0.45593999997E+02  0.45594000000E+02  0.51100000000E-03 0. -1.
         11   -1    0    0    0    0 -0.00000000000E+00 -0.00000000000E+00 -0.45593999997E+02  0.45594000000E+02  0.51100000000E-03 0.  1.
    9900012    2    1    2    0    0  0.25819463646E+02  0.36887255735E+02 -0.13411621118E+01  0.46142322577E+02  0.10000043920E+02 0.  0.
        -12    1    1    2    0    0 -0.25819463646E+02 -0.36887255735E+02  0.13411621118E+01  0.45045677423E+02  0.00000000000E+00 0.  1.
         11    1    3    3    0    0 -0.14679275044E+00  0.36020982267E+01 -0.14733641894E+01  0.38945425973E+01  0.51100000000E-03 0.  1.
        -11    1    3    3    0    0  0.72019116545E+01  0.83658058757E+01  0.52372153329E+00  0.11051177491E+02  0.51100000000E-03 0. -1.
        -12    1    3    3    0    0  0.18764344742E+02  0.24919351633E+02 -0.39151945576E+00  0.31196602489E+02  0.00000000000E+00 0.  1.
</event>
<event>
 7    1  0.4141894E-008  0.4614232E+02  0.7816164E-02  0.1320468E+00
        -11   -1    0    0    0    0  0.00000000000E+00  0.00000000000E+00  0.45593999997E+02  0.45594000000E+02  0.51100000000E-03 0.  1.
         11   -1    0    0    0    0 -0.00000000000E+00 -0.00000000000E+00 -0.45593999997E+02  0.45594000000E+02  0.51100000000E-03 0. -1.
    9900012    2    1    2    0    0  0.47522754094E+01 -0.43881566680E+02  0.89965262729E+01  0.46142317623E+02  0.99999987383E+01 0.  0.
        -12    1    1    2    0    0 -0.47522754094E+01  0.43881566680E+02 -0.89965262729E+01  0.45045682377E+02  0.00000000000E+00 0.  1.
         11    1    3    3    0    0 -0.13097907949E+00 -0.19947303655E+01  0.16053339158E+01  0.25638256557E+01  0.51100000000E-03 0. -1.
        -11    1    3    3    0    0 -0.10402727341E+01 -0.33118883081E+01 -0.10937979968E+01  0.36396656228E+01  0.51100000000E-03 0.  1.
         12    1    3    3    0    0  0.59235272230E+01 -0.38574948006E+02  0.84849903539E+01  0.39938826344E+02  0.00000000000E+00 0. -1.
</event>
<event>
 7    1  0.4141894E-008  0.4614232E+02  0.7816164E-02  0.1320468E+00
        -11   -1    0    0    0    0  0.00000000000E+00  0.00000000000E+00  0.45593999997E+02  0.45594000000E+02  0.51100000000E-03 0.  1.
         11   -1    0    0    0    0 -0.00000000000E+00 -0.00000000000E+00 -0.45593999997E+02  0.45594000000E+02  0.51100000000E-03 0. -1.
    9900012    2    1    2    0    0  0.30323414383E+01  0.17702481875E+02 -0.41310293958E+02  0.46142319340E+02  0.10000014401E+02 0.  0.
        -12    1    1    2    0    0 -0.30323414383E+01 -0.17702481875E+02  0.41310293958E+02  0.45045680660E+02  0.00000000000E+00 0.  1.
         11    1    3    3    0    0  0.22845372323E+01  0.17517689278E+02 -0.31241120419E+02  0.35890056468E+02  0.51100000000E-03 0. -1.
        -11    1    3    3    0    0 -0.51076535061E+00  0.83487709148E-02 -0.50072547593E+01  0.50332446226E+01  0.51100000000E-03 0.  1.
         12    1    3    3    0    0  0.12585695566E+01  0.17644382685E+00 -0.50619187799E+01  0.52190182494E+01  0.00000000000E+00 0. -1.
</event>
<event>
 7    1  0.4141894E-008  0.4614232E+02  0.7816164E-02  0.1320468E+00
        -11   -1    0    0    0    0  0.00000000000E+00  0.00000000000E+00  0.45593999997E+02  0.45594000000E+02  0.51100000000E-03 0. -1.
         11   -1    0    0    0    0 -0.00000000000E+00 -0.00000000000E+00 -0.45593999997E+02  0.45594000000E+02  0.51100000000E-03 0.  1.
    9900012    2    1    2    0    0 -0.28720016652E+02  0.27692236654E+02  0.20914449587E+02  0.46142317311E+02  0.99999959000E+01 0.  0.
        -12    1    1    2    0    0  0.28720016652E+02 -0.27692236654E+02 -0.20914449587E+02  0.45045682689E+02  0.00000000000E+00 0.  1.
         11    1    3    3    0    0 -0.14259423631E+02  0.13762831626E+02  0.10587355996E+02  0.22468618202E+02  0.51100000000E-03 0. -1.
        -11    1    3    3    0    0 -0.65138869362E+01  0.28085229761E+01  0.10900561050E+01  0.71768201105E+01  0.51100000000E-03 0.  1.
         12    1    3    3    0    0 -0.79467060844E+01  0.11120882052E+02  0.92370374857E+01  0.16496878999E+02  0.00000000000E+00 0. -1.
</event>
<event>
 7    1  0.4141894E-008  0.4614232E+02  0.7816164E-02  0.1320468E+00
        -11   -1    0    0    0    0  0.00000000000E+00  0.00000000000E+00  0.45593999997E+02  0.45594000000E+02  0.51100000000E-03 0.  1.
         11   -1    0    0    0    0 -0.00000000000E+00 -0.00000000000E+00 -0.45593999997E+02  0.45594000000E+02  0.51100000000E-03 0. -1.
    9900012    2    1    2    0    0  0.37160015517E+02  0.18221524165E+01 -0.25395402643E+02  0.46142317987E+02  0.10000002058E+02 0.  0.
        -12    1    1    2    0    0 -0.37160015517E+02 -0.18221524165E+01  0.25395402643E+02  0.45045682013E+02  0.00000000000E+00 0.  1.
         11    1    3    3    0    0  0.10032215951E+02 -0.15725819646E+01 -0.11740437166E+02  0.15522765090E+02  0.51100000000E-03 0.  1.
        -11    1    3    3    0    0  0.13020685379E+02  0.70980258909E+00 -0.61834801870E+01  0.14431822301E+02  0.51100000000E-03 0. -1.
        -12    1    3    3    0    0  0.14107114187E+02  0.26849317920E+01 -0.74714852903E+01  0.16187730596E+02  0.00000000000E+00 0.  1.
</event>
<event>
 7    1  0.4141894E-008  0.4614232E+02  0.7816164E-02  0.1320468E+00
        -11   -1    0    0    0    0  0.00000000000E+00  0.00000000000E+00  0.45593999997E+02  0.45594000000E+02  0.51100000000E-03 0.  1.
         11   -1    0    0    0    0 -0.00000000000E+00 -0.00000000000E+00 -0.45593999997E+02  0.45594000000E+02  0.51100000000E-03 0. -1.
    9900012    2    1    2    0    0 -0.38198717848E+02  0.72566995408E+00 -0.23863044387E+02  0.46142317305E+02  0.99999958395E+01 0.  0.
        -12    1    1    2    0    0  0.38198717848E+02 -0.72566995408E+00  0.23863044387E+02  0.45045682695E+02  0.00000000000E+00 0.  1.
         11    1    3    3    0    0 -0.79908909438E+01 -0.19084213991E+01 -0.62520251035E+01  0.10323963796E+02  0.51100000000E-03 0. -1.
        -11    1    3    3    0    0 -0.97234730841E+00 -0.13527701621E+01 -0.67739676314E+00  0.17984195939E+01  0.51100000000E-03 0.  1.
         12    1    3    3    0    0 -0.29235479595E+02  0.39868615153E+01 -0.16933622520E+02  0.34019933915E+02  0.00000000000E+00 0. -1.
</event>
<event>
 7    1  0.4141894E-008  0.4614232E+02  0.7816164E-02  0.1320468E+00
        -11   -1    0    0    0    0  0.00000000000E+00  0.00000000000E+00  0.45593999997E+02  0.45594000000E+02  0.51100000000E-03 0.  1.
         11   -1    0    0    0    0 -0.00000000000E+00 -0.00000000000E+00 -0.45593999997E+02  0.45594000000E+02  0.51100000000E-03 0. -1.
    9900012    2    1    2    0    0  0.14306715295E+02 -0.41987159692E+02  0.78428196621E+01  0.46142317612E+02  0.99999986389E+01 0.  0.
        -12    1    1    2    0    0 -0.14306715295E+02  0.41987159692E+02 -0.78428196621E+01  0.45045682388E+02  0.00000000000E+00 0.  1.
         11    1    3    3    0    0  0.69962238460E+01 -0.11420538275E+02  0.46612120449E+01  0.14181069797E+02  0.51100000000E-03 0. -1.
        -11    1    3    3    0    0  0.13509220361E+01 -0.21819246041E+01  0.13504717183E+01  0.28999240419E+01  0.51100000000E-03 0.  1.
         12    1    3    3    0    0  0.59595694133E+01 -0.28384696813E+02  0.18311358990E+01  0.29061323773E+02  0.00000000000E+00 0. -1.
</event>
<event>
 7    1  0.4141894E-008  0.4614232E+02  0.7816164E-02  0.1320468E+00
        -11   -1    0    0    0    0  0.00000000000E+00  0.00000000000E+00  0.45593999997E+02  0.45594000000E+02  0.51100000000E-03 0. -1.
         11   -1    0    0    0    0 -0.00000000000E+00 -0.00000000000E+00 -0.45593999997E+02  0.45594000000E+02  0.51100000000E-03 0.  1.
    9900012    2    1    2    0    0 -0.83677610810E+01  0.23392169938E+02  0.37575265521E+02  0.46142316312E+02  0.99999867878E+01 0.  0.
        -12    1    1    2    0    0  0.83677610810E+01 -0.23392169938E+02 -0.37575265521E+02  0.45045683688E+02  0.00000000000E+00 0.  1.
         11    1    3    3    0    0  0.34876571684E-01  0.93124943726E+01  0.15272856103E+02  0.17888093851E+02  0.51100000000E-03 0. -1.
        -11    1    3    3    0    0 -0.42088361184E+01  0.40780488841E+01  0.11709008131E+02  0.13093725820E+02  0.51100000000E-03 0.  1.
         12    1    3    3    0    0 -0.41938015343E+01  0.10001626682E+02  0.10593401287E+02  0.15160496641E+02  0.00000000000E+00 0. -1.
</event>
<event>
 7    1  0.4141894E-008  0.4614232E+02  0.7816164E-02  0.1320468E+00
        -11   -1    0    0    0    0  0.00000000000E+00  0.00000000000E+00  0.45593999997E+02  0.45594000000E+02  0.51100000000E-03 0.  1.
         11   -1    0    0    0    0 -0.00000000000E+00 -0.00000000000E+00 -0.45593999997E+02  0.45594000000E+02  0.51100000000E-03 0. -1.
    9900012    2    1    2    0    0  0.36705755277E+02  0.10444401787E+02 -0.23931474874E+02  0.46142317756E+02  0.99999999544E+01 0.  0.
        -12    1    1    2    0    0 -0.36705755277E+02 -0.10444401787E+02  0.23931474874E+02  0.45045682244E+02  0.00000000000E+00 0.  1.
         11    1    3    3    0    0  0.24723032963E+01  0.23381703939E+01 -0.11521997585E+01  0.35926158888E+01  0.51100000000E-03 0. -1.
        -11    1    3    3    0    0  0.11468117837E+02  0.50043896165E+01 -0.49028503706E+01  0.13438734471E+02  0.51100000000E-03 0.  1.
         12    1    3    3    0    0  0.22765334144E+02  0.31018417761E+01 -0.17876424745E+02  0.29110967396E+02  0.00000000000E+00 0. -1.
</event>
<event>
 7    1  0.4141894E-008  0.4614232E+02  0.7816164E-02  0.1320468E+00
        -11   -1    0    0    0    0  0.00000000000E+00  0.00000000000E+00  0.45593999997E+02  0.45594000000E+02  0.51100000000E-03 0.  1.
         11   -1    0    0    0    0 -0.00000000000E+00 -0.00000000000E+00 -0.45593999997E+02  0.45594000000E+02  0.51100000000E-03 0. -1.
    9900012    2    1    2    0    0  0.23787866659E+02 -0.68526757226E+01 -0.37633650163E+02  0.46142318861E+02  0.10000010026E+02 0.  0.
        -12    1    1    2    0    0 -0.23787866659E+02  0.68526757226E+01  0.37633650163E+02  0.45045681139E+02  0.00000000000E+00 0.  1.
         11    1    3    3    0    0  0.15084014169E+02 -0.77418430324E+01 -0.25322402728E+02  0.30474377716E+02  0.51100000000E-03 0. -1.
        -11    1    3    3    0    0  0.20529222486E+01  0.12606020655E+00 -0.64503735087E+01  0.67703544662E+01  0.51100000000E-03 0.  1.
        -12    1    3    3    0    0  0.66509302411E+01  0.76310710326E+00 -0.58608739255E+01  0.88975866780E+01  0.00000000000E+00 0.  1.
</event>
<event>
 7    1  0.4141894E-008  0.4614232E+02  0.7816164E-02  0.1320468E+00
        -11   -1    0    0    0    0  0.00000000000E+00  0.00000000000E+00  0.45593999997E+02  0.45594000000E+02  0.51100000000E-03 0.  1.
         11   -1    0    0    0    0 -0.00000000000E+00 -0.00000000000E+00 -0.45593999997E+02  0.45594000000E+02  0.51100000000E-03 0. -1.
    9900012    2    1    2    0    0  0.15408958692E+02 -0.28396609622E+02 -0.31389647028E+02  0.46142318891E+02  0.10000010307E+02 0.  0.
        -12    1    1    2    0    0 -0.15408958692E+02  0.28396609622E+02  0.31389647028E+02  0.45045681109E+02  0.00000000000E+00 0.  1.
         11    1    3    3    0    0  0.77882511075E+01 -0.18425025383E+02 -0.19670073614E+02  0.28054415194E+02  0.51100000000E-03 0. -1.
        -11    1    3    3    0    0  0.13018860892E+01 -0.53375550294E+01 -0.71496082465E+01  0.90167233195E+01  0.51100000000E-03 0.  1.
        -12    1    3    3    0    0  0.63188214953E+01 -0.46340292096E+01 -0.45699651680E+01  0.90711803775E+01  0.00000000000E+00 0.  1.
</event>
<event>
 7    1  0.4141894E-008  0.4614232E+02  0.7816164E-02  0.1320468E+00
        -11   -1    0    0    0    0  0.00000000000E+00  0.00000000000E+00  0.45593999997E+02  0.45594000000E+02  0.51100000000E-03 0.  1.
         11   -1    0    0    0    0 -0.00000000000E+00 -0.00000000000E+00 -0.45593999997E+02  0.45594000000E+02  0.51100000000E-03 0. -1.
    9900012    2    1    2    0    0 -0.92449543984E+00  0.22270615387E+02 -0.39144328344E+02  0.46142318264E+02  0.10000004590E+02 0.  0.
        -12    1    1    2    0    0  0.92449543984E+00 -0.22270615387E+02  0.39144328344E+02  0.45045681736E+02  0.00000000000E+00 0.  1.
         11    1    3    3    0    0  0.16082481254E+01  0.17036033632E+02 -0.23879410943E+02  0.29377528337E+02  0.51100000000E-03 0. -1.
        -11    1    3    3    0    0 -0.28281493156E+01  0.47821189424E+01 -0.97371361338E+01  0.11210660573E+02  0.51100000000E-03 0.  1.
        -12    1    3    3    0    0  0.29540575034E+00  0.45246281286E+00 -0.55277812666E+01  0.55541293544E+01  0.00000000000E+00 0.  1.
</event>
<event>
 7    1  0.4141894E-008  0.4614231E+02  0.7816164E-02  0.1320468E+00
        -11   -1    0    0    0    0  0.00000000000E+00  0.00000000000E+00  0.45593999997E+02  0.45594000000E+02  0.51100000000E-03 0.  1.
         11   -1    0    0    0    0 -0.00000000000E+00 -0.00000000000E+00 -0.45593999997E+02  0.45594000000E+02  0.51100000000E-03 0. -1.
    9900012    2    1    2    0    0 -0.81456034648E+01 -0.44301198086E+02  0.40854488064E+00  0.46142313008E+02  0.99999566548E+01 0.  0.
        -12    1    1    2    0    0  0.81456034648E+01  0.44301198086E+02 -0.40854488064E+00  0.45045686992E+02  0.00000000000E+00 0.  1.
         11    1    3    3    0    0 -0.56341711241E+01 -0.16216555203E+02  0.29425952098E-01  0.17167452142E+02  0.51100000000E-03 0. -1.
        -11    1    3    3    0    0  0.51753744122E+00 -0.22532659348E+02  0.13370977635E+01  0.22578228739E+02  0.51100000000E-03 0.  1.
        -12    1    3    3    0    0 -0.30289697819E+01 -0.55519835360E+01 -0.95797883496E+00  0.63966321273E+01  0.00000000000E+00 0.  1.
</event>
<event>
 7    1  0.4141894E-008  0.4614232E+02  0.7816164E-02  0.1320468E+00
        -11   -1    0    0    0    0  0.00000000000E+00  0.00000000000E+00  0.45593999997E+02  0.45594000000E+02  0.51100000000E-03 0.  1.
         11   -1    0    0    0    0 -0.00000000000E+00 -0.00000000000E+00 -0.45593999997E+02  0.45594000000E+02  0.51100000000E-03 0. -1.
    9900012    2    1    2    0    0  0.25365150931E+02 -0.28793172368E+02  0.23593977152E+02  0.46142318580E+02  0.10000007469E+02 0.  0.
        -12    1    1    2    0    0 -0.25365150931E+02  0.28793172368E+02 -0.23593977152E+02  0.45045681420E+02  0.00000000000E+00 0.  1.
         11    1    3    3    0    0  0.13561772055E+02 -0.15030029561E+02  0.16475600235E+02  0.26101127432E+02  0.51100000000E-03 0.  1.
        -11    1    3    3    0    0  0.10546815145E+02 -0.12603122450E+02  0.78114327361E+01  0.18195946990E+02  0.51100000000E-03 0. -1.
        -12    1    3    3    0    0  0.12565637299E+01 -0.11600203566E+01 -0.69305581877E+00  0.18452441581E+01  0.00000000000E+00 0.  1.
</event>
<event>
 7    1  0.4141894E-008  0.4614232E+02  0.7816164E-02  0.1320468E+00
        -11   -1    0    0    0    0  0.00000000000E+00  0.00000000000E+00  0.45593999997E+02  0.45594000000E+02  0.51100000000E-03 0.  1.
         11   -1    0    0    0    0 -0.00000000000E+00 -0.00000000000E+00 -0.45593999997E+02  0.45594000000E+02  0.51100000000E-03 0. -1.
    9900012    2    1    2    0    0  0.25179761563E+02 -0.11435318230E+02 -0.35557370205E+02  0.46142317951E+02  0.10000001728E+02 0.  0.
        -12    1    1    2    0    0 -0.25179761563E+02  0.11435318230E+02  0.35557370205E+02  0.45045682049E+02  0.00000000000E+00 0.  1.
         11    1    3    3    0    0  0.10038098724E+02 -0.52886620224E+01 -0.14439977724E+02  0.18364267721E+02  0.51100000000E-03 0. -1.
        -11    1    3    3    0    0  0.15667535530E+02 -0.67225681775E+01 -0.19031727563E+02  0.25551345303E+02  0.51100000000E-03 0.  1.
        -12    1    3    3    0    0 -0.52587269092E+00  0.57591196995E+00 -0.20856649173E+01  0.22267049269E+01  0.00000000000E+00 0.  1.
</event>
<event>
 7    1  0.4141894E-008  0.4614231E+02  0.7816164E-02  0.1320468E+00
        -11   -1    0    0    0    0  0.00000000000E+00  0.00000000000E+00  0.45593999997E+02  0.45594000000E+02  0.51100000000E-03 0.  1.
         11   -1    0    0    0    0 -0.00000000000E+00 -0.00000000000E+00 -0.45593999997E+02  0.45594000000E+02  0.51100000000E-03 0. -1.
    9900012    2    1    2    0    0 -0.29777140417E+02  0.82298507908E+01 -0.32782700937E+02  0.46142311903E+02  0.99999465769E+01 0.  0.
        -12    1    1    2    0    0  0.29777140417E+02 -0.82298507908E+01  0.32782700937E+02  0.45045688097E+02  0.00000000000E+00 0.  1.
         11    1    3    3    0    0 -0.90346349423E+01 -0.40667032791E+00 -0.93239807352E+01  0.12989481372E+02  0.51100000000E-03 0. -1.
        -11    1    3    3    0    0 -0.76739290451E+01  0.38181849935E+00 -0.54496804763E+01  0.94198720751E+01  0.51100000000E-03 0.  1.
        -12    1    3    3    0    0 -0.13068576430E+02  0.82547026194E+01 -0.18009039725E+02  0.23732958456E+02  0.00000000000E+00 0.  1.
</event>
<event>
 7    1  0.4141894E-008  0.4614232E+02  0.7816164E-02  0.1320468E+00
        -11   -1    0    0    0    0  0.00000000000E+00  0.00000000000E+00  0.45593999997E+02  0.45594000000E+02  0.51100000000E-03 0.  1.
         11   -1    0    0    0    0 -0.00000000000E+00 -0.00000000000E+00 -0.45593999997E+02  0.45594000000E+02  0.51100000000E-03 0. -1.
    9900012    2    1    2    0    0  0.61237553023E+01  0.96053708098E+01 -0.43581532071E+02  0.46142318020E+02  0.10000002364E+02 0.  0.
        -12    1    1    2    0    0 -0.61237553023E+01 -0.96053708098E+01  0.43581532071E+02  0.45045681980E+02  0.00000000000E+00 0.  1.
         11    1    3    3    0    0  0.46884029570E+01  0.11580265106E+01 -0.27362354511E+02  0.27785258543E+02  0.51100000000E-03 0. -1.
        -11    1    3    3    0    0  0.18927995888E+00  0.30467262745E+01 -0.55472421587E+01  0.63316872730E+01  0.51100000000E-03 0.  1.
         12    1    3    3    0    0  0.12460723864E+01  0.54006180246E+01 -0.10671935401E+02  0.12025372204E+02  0.00000000000E+00 0. -1.
</event>
<event>
 7    1  0.4141894E-008  0.4614231E+02  0.7816164E-02  0.1320468E+00
        -11   -1    0    0    0    0  0.00000000000E+00  0.00000000000E+00  0.45593999997E+02  0.45594000000E+02  0.51100000000E-03 0. -1.
         11   -1    0    0    0    0 -0.00000000000E+00 -0.00000000000E+00 -0.45593999997E+02  0.45594000000E+02  0.51100000000E-03 0.  1.
    9900012    2    1    2    0    0 -0.15929890319E+01 -0.10970114932E+02  0.43660427670E+02  0.46142312304E+02  0.99999502357E+01 0.  0.
        -12    1    1    2    0    0  0.15929890319E+01  0.10970114932E+02 -0.43660427670E+02  0.45045687696E+02  0.00000000000E+00 0.  1.
         11    1    3    3    0    0  0.83651780833E+00 -0.54806272744E+00  0.28529713196E+00  0.10399661107E+01  0.51100000000E-03 0. -1.
        -11    1    3    3    0    0  0.54449094099E+00 -0.25367755087E+00  0.18016521334E+00  0.62712235637E+00  0.51100000000E-03 0.  1.
         12    1    3    3    0    0 -0.29739977812E+01 -0.10168374653E+02  0.43194965325E+02  0.44475223837E+02  0.00000000000E+00 0. -1.
</event>
<event>
 7    1  0.4141894E-008  0.4614232E+02  0.7816164E-02  0.1320468E+00
        -11   -1    0    0    0    0  0.00000000000E+00  0.00000000000E+00  0.45593999997E+02  0.45594000000E+02  0.51100000000E-03 0.  1.
         11   -1    0    0    0    0 -0.00000000000E+00 -0.00000000000E+00 -0.45593999997E+02  0.45594000000E+02  0.51100000000E-03 0. -1.
    9900012    2    1    2    0    0  0.14410224549E+02  0.34029533145E+02 -0.25757519250E+02  0.46142317681E+02  0.99999992733E+01 0.  0.
        -12    1    1    2    0    0 -0.14410224549E+02 -0.34029533145E+02  0.25757519250E+02  0.45045682319E+02  0.00000000000E+00 0.  1.
         11    1    3    3    0    0  0.11134425655E+02  0.18568631131E+02 -0.11638235857E+02  0.24580846830E+02  0.51100000000E-03 0. -1.
        -11    1    3    3    0    0  0.26485229381E+01  0.11982558925E+02 -0.12944388448E+02  0.17836860281E+02  0.51100000000E-03 0.  1.
        -12    1    3    3    0    0  0.62727595618E+00  0.34783430887E+01 -0.11748949460E+01  0.37246105706E+01  0.00000000000E+00 0.  1.
</event>
<event>
 7    1  0.4141894E-008  0.4614232E+02  0.7816164E-02  0.1320468E+00
        -11   -1    0    0    0    0  0.00000000000E+00  0.00000000000E+00  0.45593999997E+02  0.45594000000E+02  0.51100000000E-03 0.  1.
         11   -1    0    0    0    0 -0.00000000000E+00 -0.00000000000E+00 -0.45593999997E+02  0.45594000000E+02  0.51100000000E-03 0. -1.
    9900012    2    1    2    0    0  0.27481269576E+02 -0.27331175171E+01 -0.35586842870E+02  0.46142317695E+02  0.99999993978E+01 0.  0.
        -12    1    1    2    0    0 -0.27481269576E+02  0.27331175171E+01  0.35586842870E+02  0.45045682305E+02  0.00000000000E+00 0.  1.
         11    1    3    3    0    0  0.10712449196E+02  0.90421982430E+00 -0.18083398283E+02  0.21037668003E+02  0.51100000000E-03 0. -1.
        -11    1    3    3    0    0  0.14605886051E+02 -0.41226312390E+01 -0.12606932303E+02  0.19729742472E+02  0.51100000000E-03 0.  1.
        -12    1    3    3    0    0  0.21629343293E+01  0.48529389756E+00 -0.48965122843E+01  0.53749072206E+01  0.00000000000E+00 0.  1.
</event>
<event>
 7    1  0.4141894E-008  0.4614232E+02  0.7816164E-02  0.1320468E+00
        -11   -1    0    0    0    0  0.00000000000E+00  0.00000000000E+00  0.45593999997E+02  0.45594000000E+02  0.51100000000E-03 0.  1.
         11   -1    0    0    0    0 -0.00000000000E+00 -0.00000000000E+00 -0.45593999997E+02  0.45594000000E+02  0.51100000000E-03 0. -1.
    9900012    2    1    2    0    0  0.28986986633E+02 -0.89942976261E+01  0.33286193328E+02  0.46142318185E+02  0.10000003868E+02 0.  0.
        -12    1    1    2    0    0 -0.28986986633E+02  0.89942976261E+01 -0.33286193328E+02  0.45045681815E+02  0.00000000000E+00 0.  1.
         11    1    3    3    0    0  0.18176280027E+02 -0.34168479525E+01  0.17249426901E+02  0.25290210245E+02  0.51100000000E-03 0. -1.
        -11    1    3    3    0    0 -0.20341689605E+00  0.26824146037E+00  0.22008046577E+01  0.22264036735E+01  0.51100000000E-03 0.  1.
         12    1    3    3    0    0  0.11014123502E+02 -0.58456911340E+01  0.13835961769E+02  0.18625704267E+02  0.00000000000E+00 0. -1.
</event>
<event>
 7    1  0.4141894E-008  0.4614232E+02  0.7816164E-02  0.1320468E+00
        -11   -1    0    0    0    0  0.00000000000E+00  0.00000000000E+00  0.45593999997E+02  0.45594000000E+02  0.51100000000E-03 0.  1.
         11   -1    0    0    0    0 -0.00000000000E+00 -0.00000000000E+00 -0.45593999997E+02  0.45594000000E+02  0.51100000000E-03 0. -1.
    9900012    2    1    2    0    0  0.94494616405E+01  0.42749192284E+02 -0.10598474530E+02  0.46142318425E+02  0.10000006054E+02 0.  0.
        -12    1    1    2    0    0 -0.94494616405E+01 -0.42749192284E+02  0.10598474530E+02  0.45045681575E+02  0.00000000000E+00 0.  1.
         11    1    3    3    0    0  0.40230650900E+01  0.20126637105E+02 -0.28318910273E+00  0.20526733062E+02  0.51100000000E-03 0. -1.
        -11    1    3    3    0    0  0.48122826668E+01  0.14077778497E+02 -0.67234102146E+01  0.16326241363E+02  0.51100000000E-03 0.  1.
         12    1    3    3    0    0  0.61411388374E+00  0.85447766815E+01 -0.35918752126E+01  0.92893439996E+01  0.00000000000E+00 0. -1.
</event>
<event>
 7    1  0.4141894E-008  0.4614232E+02  0.7816164E-02  0.1320468E+00
        -11   -1    0    0    0    0  0.00000000000E+00  0.00000000000E+00  0.45593999997E+02  0.45594000000E+02  0.51100000000E-03 0.  1.
         11   -1    0    0    0    0 -0.00000000000E+00 -0.00000000000E+00 -0.45593999997E+02  0.45594000000E+02  0.51100000000E-03 0. -1.
    9900012    2    1    2    0    0 -0.43888640264E+02  0.96176622014E+01  0.32251102304E+01  0.46142317560E+02  0.99999981680E+01 0.  0.
        -12    1    1    2    0    0  0.43888640264E+02 -0.96176622014E+01 -0.32251102304E+01  0.45045682440E+02  0.00000000000E+00 0.  1.
         11    1    3    3    0    0 -0.11712517599E+02  0.41175889127E+01  0.22581918160E+00  0.12417270293E+02  0.51100000000E-03 0. -1.
        -11    1    3    3    0    0 -0.28520163431E+02  0.25758615548E+01  0.40660631689E+01  0.28923479300E+02  0.51100000000E-03 0.  1.
         12    1    3    3    0    0 -0.36559592348E+01  0.29242117339E+01 -0.10667721201E+01  0.48015679676E+01  0.00000000000E+00 0. -1.
</event>
<event>
 7    1  0.4141894E-008  0.4614232E+02  0.7816164E-02  0.1320468E+00
        -11   -1    0    0    0    0  0.00000000000E+00  0.00000000000E+00  0.45593999997E+02  0.45594000000E+02  0.51100000000E-03 0. -1.
         11   -1    0    0    0    0 -0.00000000000E+00 -0.00000000000E+00 -0.45593999997E+02  0.45594000000E+02  0.51100000000E-03 0.  1.
    9900012    2    1    2    0    0 -0.86400111685E+01 -0.43381163002E+02  0.85169427597E+01  0.46142318627E+02  0.10000007896E+02 0.  0.
        -12    1    1    2    0    0  0.86400111685E+01  0.43381163002E+02 -0.85169427597E+01  0.45045681373E+02  0.00000000000E+00 0.  1.
         11    1    3    3    0    0 -0.31228883622E+01 -0.14367732829E+02  0.15287777996E+01  0.14782467324E+02  0.51100000000E-03 0. -1.
        -11    1    3    3    0    0  0.89880302345E+00 -0.17983702536E+00 -0.24411834388E+00  0.94856853078E+00  0.51100000000E-03 0.  1.
         12    1    3    3    0    0 -0.64159258298E+01 -0.28833593148E+02  0.72322833040E+01  0.30411282772E+02  0.00000000000E+00 0. -1.
</event>
<event>
 7    1  0.4141894E-008  0.4614232E+02  0.7816164E-02  0.1320468E+00
        -11   -1    0    0    0    0  0.00000000000E+00  0.00000000000E+00  0.45593999997E+02  0.45594000000E+02  0.51100000000E-03 0.  1.
         11   -1    0    0    0    0 -0.00000000000E+00 -0.00000000000E+00 -0.45593999997E+02  0.45594000000E+02  0.51100000000E-03 0. -1.
    9900012    2    1    2    0    0  0.36944744208E+02 -0.18950492568E+02 -0.17466484177E+02  0.46142319157E+02  0.10000012724E+02 0.  0.
        -12    1    1    2    0    0 -0.36944744208E+02  0.18950492568E+02  0.17466484177E+02  0.45045680843E+02  0.00000000000E+00 0.  1.
         11    1    3    3    0    0  0.42444085762E+01 -0.26606711088E+01 -0.16165885301E+01  0.52637946054E+01  0.51100000000E-03 0. -1.
        -11    1    3    3    0    0  0.11712904880E+02 -0.48256421357E+01 -0.10303989021E+02  0.16329456597E+02  0.51100000000E-03 0.  1.
         12    1    3    3    0    0  0.20987430752E+02 -0.11464179324E+02 -0.55459066264E+01  0.24549067955E+02  0.00000000000E+00 0. -1.
</event>
<event>
 7    1  0.4141894E-008  0.4614232E+02  0.7816164E-02  0.1320468E+00
        -11   -1    0    0    0    0  0.00000000000E+00  0.00000000000E+00  0.45593999997E+02  0.45594000000E+02  0.51100000000E-03 0.  1.
         11   -1    0    0    0    0 -0.00000000000E+00 -0.00000000000E+00 -0.45593999997E+02  0.45594000000E+02  0.51100000000E-03 0. -1.
    9900012    2    1    2    0    0 -0.30450448584E+02 -0.51957293785E+01 -0.32785488961E+02  0.46142315310E+02  0.99999776533E+01 0.  0.
        -12    1    1    2    0    0  0.30450448584E+02  0.51957293785E+01  0.32785488961E+02  0.45045684690E+02  0.00000000000E+00 0.  1.
         11    1    3    3    0    0 -0.14034356787E+02  0.19040320316E-01 -0.12908407425E+02  0.19068049598E+02  0.51100000000E-03 0. -1.
        -11    1    3    3    0    0 -0.51563168243E+01 -0.17896758847E+01 -0.11177101277E+02  0.12438574523E+02  0.51100000000E-03 0.  1.
        -12    1    3    3    0    0 -0.11259774973E+02 -0.34250938141E+01 -0.86999802592E+01  0.14635691190E+02  0.00000000000E+00 0.  1.
</event>
<event>
 7    1  0.4141894E-008  0.4614232E+02  0.7816164E-02  0.1320468E+00
        -11   -1    0    0    0    0  0.00000000000E+00  0.00000000000E+00  0.45593999997E+02  0.45594000000E+02  0.51100000000E-03 0.  1.
         11   -1    0    0    0    0 -0.00000000000E+00 -0.00000000000E+00 -0.45593999997E+02  0.45594000000E+02  0.51100000000E-03 0. -1.
    9900012    2    1    2    0    0  0.14485754379E+01  0.30829763299E+02 -0.32810680999E+02  0.46142318037E+02  0.10000002517E+02 0.  0.
        -12    1    1    2    0    0 -0.14485754379E+01 -0.30829763299E+02  0.32810680999E+02  0.45045681963E+02  0.00000000000E+00 0.  1.
         11    1    3    3    0    0  0.16600884705E+01  0.12745262351E+02 -0.81001030834E+01  0.15192408510E+02  0.51100000000E-03 0. -1.
        -11    1    3    3    0    0  0.54963306865E+00  0.17703246404E+02 -0.22909377426E+02  0.28957669175E+02  0.51100000000E-03 0.  1.
         12    1    3    3    0    0 -0.76114610126E+00  0.38125454423E+00 -0.18012004893E+01  0.19922403514E+01  0.00000000000E+00 0. -1.
</event>
<event>
 7    1  0.4141894E-008  0.4614232E+02  0.7816164E-02  0.1320468E+00
        -11   -1    0    0    0    0  0.00000000000E+00  0.00000000000E+00  0.45593999997E+02  0.45594000000E+02  0.51100000000E-03 0.  1.
         11   -1    0    0    0    0 -0.00000000000E+00 -0.00000000000E+00 -0.45593999997E+02  0.45594000000E+02  0.51100000000E-03 0. -1.
    9900012    2    1    2    0    0  0.15729891157E+02  0.41823186804E+02  0.57013190853E+01  0.46142317970E+02  0.10000001906E+02 0.  0.
        -12    1    1    2    0    0 -0.15729891157E+02 -0.41823186804E+02 -0.57013190853E+01  0.45045682030E+02  0.00000000000E+00 0.  1.
         11    1    3    3    0    0  0.15952529108E+01  0.97485899348E+01  0.16736786780E+01  0.10019033793E+02  0.51100000000E-03 0. -1.
        -11    1    3    3    0    0  0.34027791895E+01  0.31875310689E+01 -0.13217710881E+01  0.48462706897E+01  0.51100000000E-03 0.  1.
        -12    1    3    3    0    0  0.10731859057E+02  0.28887065800E+02  0.53494114954E+01  0.31277013487E+02  0.00000000000E+00 0.  1.
</event>
<event>
 7    1  0.4141894E-008  0.4614232E+02  0.7816164E-02  0.1320468E+00
        -11   -1    0    0    0    0  0.00000000000E+00  0.00000000000E+00  0.45593999997E+02  0.45594000000E+02  0.51100000000E-03 0. -1.
         11   -1    0    0    0    0 -0.00000000000E+00 -0.00000000000E+00 -0.45593999997E+02  0.45594000000E+02  0.51100000000E-03 0.  1.
    9900012    2    1    2    0    0 -0.28156206472E+02  0.18510308001E+02  0.29894983811E+02  0.46142317385E+02  0.99999965711E+01 0.  0.
        -12    1    1    2    0    0  0.28156206472E+02 -0.18510308001E+02 -0.29894983811E+02  0.45045682615E+02  0.00000000000E+00 0.  1.
         11    1    3    3    0    0  0.44130673392E+00  0.25892331647E+00  0.85918802043E-01  0.51882098924E+00  0.51100000000E-03 0. -1.
        -11    1    3    3    0    0 -0.13247723160E+02  0.12282851821E+02  0.15924144543E+02  0.24082130252E+02  0.51100000000E-03 0.  1.
         12    1    3    3    0    0 -0.15349790047E+02  0.59685328631E+01  0.13884920466E+02  0.21541366144E+02  0.00000000000E+00 0. -1.
</event>
<event>
 7    1  0.4141894E-008  0.4614232E+02  0.7816164E-02  0.1320468E+00
        -11   -1    0    0    0    0  0.00000000000E+00  0.00000000000E+00  0.45593999997E+02  0.45594000000E+02  0.51100000000E-03 0.  1.
         11   -1    0    0    0    0 -0.00000000000E+00 -0.00000000000E+00 -0.45593999997E+02  0.45594000000E+02  0.51100000000E-03 0. -1.
    9900012    2    1    2    0    0 -0.58770884018E+01 -0.11200258561E+02 -0.43233407468E+02  0.46142317840E+02  0.10000000722E+02 0.  0.
        -12    1    1    2    0    0  0.58770884018E+01  0.11200258561E+02  0.43233407468E+02  0.45045682160E+02  0.00000000000E+00 0.  1.
         11    1    3    3    0    0 -0.46097772970E+00 -0.26575347045E+01 -0.12959152562E+02  0.13236866191E+02  0.51100000000E-03 0. -1.
        -11    1    3    3    0    0 -0.22956496068E+01  0.12452795736E+01 -0.66228963314E+01  0.71192334146E+01  0.51100000000E-03 0.  1.
        -12    1    3    3    0    0 -0.31204610654E+01 -0.97880034300E+01 -0.23651358575E+02  0.25786218234E+02  0.00000000000E+00 0.  1.
</event>
<event>
 7    1  0.4141894E-008  0.4614232E+02  0.7816164E-02  0.1320468E+00
        -11   -1    0    0    0    0  0.00000000000E+00  0.00000000000E+00  0.45593999997E+02  0.45594000000E+02  0.51100000000E-03 0.  1.
         11   -1    0    0    0    0 -0.00000000000E+00 -0.00000000000E+00 -0.45593999997E+02  0.45594000000E+02  0.51100000000E-03 0. -1.
    9900012    2    1    2    0    0 -0.43816491597E+02 -0.10423610952E+02 -0.75952236941E+00  0.46142317905E+02  0.10000001315E+02 0.  0.
        -12    1    1    2    0    0  0.43816491597E+02  0.10423610952E+02  0.75952236941E+00  0.45045682095E+02  0.00000000000E+00 0.  1.
         11    1    3    3    0    0 -0.19350092615E+02 -0.34975634748E+01  0.96290575416E+00  0.19687209610E+02  0.51100000000E-03 0. -1.
        -11    1    3    3    0    0 -0.28735056952E+01 -0.34171232359E+01  0.36489155001E+00  0.44796107302E+01  0.51100000000E-03 0.  1.
         12    1    3    3    0    0 -0.21592893287E+02 -0.35089242413E+01 -0.20873196736E+01  0.21975497565E+02  0.00000000000E+00 0. -1.
</event>
<event>
 7    1  0.4141894E-008  0.4614232E+02  0.7816164E-02  0.1320468E+00
        -11   -1    0    0    0    0  0.00000000000E+00  0.00000000000E+00  0.45593999997E+02  0.45594000000E+02  0.51100000000E-03 0.  1.
         11   -1    0    0    0    0 -0.00000000000E+00 -0.00000000000E+00 -0.45593999997E+02  0.45594000000E+02  0.51100000000E-03 0. -1.
    9900012    2    1    2    0    0 -0.29818220105E+02 -0.33745873341E+02 -0.10969183107E+01  0.46142318214E+02  0.10000004134E+02 0.  0.
        -12    1    1    2    0    0  0.29818220105E+02  0.33745873341E+02  0.10969183107E+01  0.45045681786E+02  0.00000000000E+00 0.  1.
         11    1    3    3    0    0 -0.16589937373E+02 -0.20725988009E+02 -0.10425800911E+01  0.26568394277E+02  0.51100000000E-03 0. -1.
        -11    1    3    3    0    0 -0.73370202748E+01 -0.11162979823E+02 -0.60843860657E+00  0.13372142044E+02  0.51100000000E-03 0.  1.
        -12    1    3    3    0    0 -0.58912624575E+01 -0.18569055087E+01  0.55410038697E+00  0.62017818931E+01  0.00000000000E+00 0.  1.
</event>
<event>
 7    1  0.4141894E-008  0.4614232E+02  0.7816164E-02  0.1320468E+00
        -11   -1    0    0    0    0  0.00000000000E+00  0.00000000000E+00  0.45593999997E+02  0.45594000000E+02  0.51100000000E-03 0. -1.
         11   -1    0    0    0    0 -0.00000000000E+00 -0.00000000000E+00 -0.45593999997E+02  0.45594000000E+02  0.51100000000E-03 0.  1.
    9900012    2    1    2    0    0  0.10608364682E+02 -0.43327063296E+02  0.62722966552E+01  0.46142317406E+02  0.99999967604E+01 0.  0.
        -12    1    1    2    0    0 -0.10608364682E+02  0.43327063296E+02 -0.62722966552E+01  0.45045682594E+02  0.00000000000E+00 0.  1.
         11    1    3    3    0    0  0.86099285204E+01 -0.39606976408E+02  0.57903989359E+01  0.40943524145E+02  0.51100000000E-03 0. -1.
        -11    1    3    3    0    0  0.39842547641E+00 -0.20146935056E+01 -0.11438122233E+01  0.23507529528E+01  0.51100000000E-03 0.  1.
         12    1    3    3    0    0  0.16000106848E+01 -0.17053933821E+01  0.16257099426E+01  0.28480403082E+01  0.00000000000E+00 0. -1.
</event>
<event>
 7    1  0.4141894E-008  0.4614231E+02  0.7816164E-02  0.1320468E+00
        -11   -1    0    0    0    0  0.00000000000E+00  0.00000000000E+00  0.45593999997E+02  0.45594000000E+02  0.51100000000E-03 0.  1.
         11   -1    0    0    0    0 -0.00000000000E+00 -0.00000000000E+00 -0.45593999997E+02  0.45594000000E+02  0.51100000000E-03 0. -1.
    9900012    2    1    2    0    0  0.14201533417E+02 -0.25803718582E+02 -0.34082240102E+02  0.46142306150E+02  0.99998941214E+01 0.  0.
        -12    1    1    2    0    0 -0.14201533417E+02  0.25803718582E+02  0.34082240102E+02  0.45045693850E+02  0.00000000000E+00 0.  1.
         11    1    3    3    0    0  0.44558317768E+01 -0.21830302688E+01 -0.48987812240E+01  0.69726691962E+01  0.51100000000E-03 0.  1.
        -11    1    3    3    0    0  0.82012525274E+01 -0.16055530074E+02 -0.17222498605E+02  0.24933011199E+02  0.51100000000E-03 0. -1.
         12    1    3    3    0    0  0.15444491131E+01 -0.75651582389E+01 -0.11960960273E+02  0.14236625755E+02  0.00000000000E+00 0. -1.
</event>
<event>
 7    1  0.4141894E-008  0.4614232E+02  0.7816164E-02  0.1320468E+00
        -11   -1    0    0    0    0  0.00000000000E+00  0.00000000000E+00  0.45593999997E+02  0.45594000000E+02  0.51100000000E-03 0.  1.
         11   -1    0    0    0    0 -0.00000000000E+00 -0.00000000000E+00 -0.45593999997E+02  0.45594000000E+02  0.51100000000E-03 0. -1.
    9900012    2    1    2    0    0  0.38757157559E+02  0.14026324571E+02 -0.18173013597E+02  0.46142318007E+02  0.10000002242E+02 0.  0.
        -12    1    1    2    0    0 -0.38757157559E+02 -0.14026324571E+02  0.18173013597E+02  0.45045681993E+02  0.00000000000E+00 0.  1.
         11    1    3    3    0    0  0.97701705601E+01  0.13346485314E+01 -0.14841906036E+01  0.99719778121E+01  0.51100000000E-03 0. -1.
        -11    1    3    3    0    0  0.24930254610E+02  0.11022629340E+02 -0.12103597671E+02  0.29824705017E+02  0.51100000000E-03 0.  1.
         12    1    3    3    0    0  0.40567323885E+01  0.16690466998E+01 -0.45852253220E+01  0.63456351780E+01  0.00000000000E+00 0. -1.
</event>
<event>
 7    1  0.4141894E-008  0.4614232E+02  0.7816164E-02  0.1320468E+00
        -11   -1    0    0    0    0  0.00000000000E+00  0.00000000000E+00  0.45593999997E+02  0.45594000000E+02  0.51100000000E-03 0.  1.
         11   -1    0    0    0    0 -0.00000000000E+00 -0.00000000000E+00 -0.45593999997E+02  0.45594000000E+02  0.51100000000E-03 0. -1.
    9900012    2    1    2    0    0  0.29884746975E+02  0.69885463032E+01 -0.32972345630E+02  0.46142318103E+02  0.10000003118E+02 0.  0.
        -12    1    1    2    0    0 -0.29884746975E+02 -0.69885463032E+01  0.32972345630E+02  0.45045681897E+02  0.00000000000E+00 0.  1.
         11    1    3    3    0    0  0.13187194713E+02  0.70295080781E+01 -0.17516993527E+02  0.23025228570E+02  0.51100000000E-03 0. -1.
        -11    1    3    3    0    0  0.10497187483E+02  0.49487326084E+00 -0.12171206261E+02  0.16080239634E+02  0.51100000000E-03 0.  1.
         12    1    3    3    0    0  0.62003647791E+01 -0.53583503576E+00 -0.32841458427E+01  0.70368498986E+01  0.00000000000E+00 0. -1.
</event>
<event>
 7    1  0.4141894E-008  0.4614232E+02  0.7816164E-02  0.1320468E+00
        -11   -1    0    0    0    0  0.00000000000E+00  0.00000000000E+00  0.45593999997E+02  0.45594000000E+02  0.51100000000E-03 0. -1.
         11   -1    0    0    0    0 -0.00000000000E+00 -0.00000000000E+00 -0.45593999997E+02  0.45594000000E+02  0.51100000000E-03 0.  1.
    9900012    2    1    2    0    0 -0.21325881740E+02  0.16592334387E+02  0.36041846163E+02  0.46142317996E+02  0.10000002140E+02 0.  0.
        -12    1    1    2    0    0  0.21325881740E+02 -0.16592334387E+02 -0.36041846163E+02  0.45045682004E+02  0.00000000000E+00 0.  1.
         11    1    3    3    0    0 -0.21625643193E+01  0.28275114865E+01  0.44763230523E+01  0.57191759870E+01  0.51100000000E-03 0. -1.
        -11    1    3    3    0    0 -0.37647431622E+01  0.79045052832E+01  0.11734703518E+02  0.14640961777E+02  0.51100000000E-03 0.  1.
         12    1    3    3    0    0 -0.15398574258E+02  0.58603176170E+01  0.19830819593E+02  0.25782180232E+02  0.00000000000E+00 0. -1.
</event>
<event>
 7    1  0.4141894E-008  0.4614232E+02  0.7816164E-02  0.1320468E+00
        -11   -1    0    0    0    0  0.00000000000E+00  0.00000000000E+00  0.45593999997E+02  0.45594000000E+02  0.51100000000E-03 0.  1.
         11   -1    0    0    0    0 -0.00000000000E+00 -0.00000000000E+00 -0.45593999997E+02  0.45594000000E+02  0.51100000000E-03 0. -1.
    9900012    2    1    2    0    0  0.29008372569E+02 -0.33384565892E+02  0.85497725284E+01  0.46142317308E+02  0.99999958640E+01 0.  0.
        -12    1    1    2    0    0 -0.29008372569E+02  0.33384565892E+02 -0.85497725284E+01  0.45045682692E+02  0.00000000000E+00 0.  1.
         11    1    3    3    0    0  0.12118025141E+02 -0.17341885535E+02  0.48050720206E+01  0.21695074202E+02  0.51100000000E-03 0. -1.
        -11    1    3    3    0    0  0.12765578411E+02 -0.12772602031E+02  0.12434159901E+00  0.18058649338E+02  0.51100000000E-03 0.  1.
        -12    1    3    3    0    0  0.41247690168E+01 -0.32700783263E+01  0.36203589088E+01  0.63885937678E+01  0.00000000000E+00 0.  1.
</event>
<event>
 7    1  0.4141894E-008  0.4614232E+02  0.7816164E-02  0.1320468E+00
        -11   -1    0    0    0    0  0.00000000000E+00  0.00000000000E+00  0.45593999997E+02  0.45594000000E+02  0.51100000000E-03 0.  1.
         11   -1    0    0    0    0 -0.00000000000E+00 -0.00000000000E+00 -0.45593999997E+02  0.45594000000E+02  0.51100000000E-03 0. -1.
    9900012    2    1    2    0    0  0.27747867046E+02  0.22483138185E+02 -0.27453193481E+02  0.46142318070E+02  0.10000002819E+02 0.  0.
        -12    1    1    2    0    0 -0.27747867046E+02 -0.22483138185E+02  0.27453193481E+02  0.45045681930E+02  0.00000000000E+00 0.  1.
         11    1    3    3    0    0  0.23857720769E+02  0.21070815653E+02 -0.25329783798E+02  0.40678840446E+02  0.51100000000E-03 0. -1.
        -11    1    3    3    0    0  0.24183522720E+00  0.10676539087E+01  0.21606784366E+00  0.11158202006E+01  0.51100000000E-03 0.  1.
         12    1    3    3    0    0  0.36483110492E+01  0.34466862366E+00 -0.23394775268E+01  0.43476574233E+01  0.00000000000E+00 0. -1.
</event>
<event>
 7    1  0.4141894E-008  0.4614232E+02  0.7816164E-02  0.1320468E+00
        -11   -1    0    0    0    0  0.00000000000E+00  0.00000000000E+00  0.45593999997E+02  0.45594000000E+02  0.51100000000E-03 0. -1.
         11   -1    0    0    0    0 -0.00000000000E+00 -0.00000000000E+00 -0.45593999997E+02  0.45594000000E+02  0.51100000000E-03 0.  1.
    9900012    2    1    2    0    0  0.34969702774E+02  0.28182329872E+02  0.34626059789E+01  0.46142317973E+02  0.10000001929E+02 0.  0.
        -12    1    1    2    0    0 -0.34969702774E+02 -0.28182329872E+02 -0.34626059789E+01  0.45045682027E+02  0.00000000000E+00 0.  1.
         11    1    3    3    0    0  0.88009578324E+01  0.79499657611E+01 -0.10131796704E+01  0.11903165448E+02  0.51100000000E-03 0. -1.
        -11    1    3    3    0    0  0.16501957981E+02  0.16697127438E+02  0.47100558564E+01  0.23943544188E+02  0.51100000000E-03 0.  1.
         12    1    3    3    0    0  0.96667869613E+01  0.35352366730E+01 -0.23427020703E+00  0.10295608336E+02  0.00000000000E+00 0. -1.
</event>
<event>
 7    1  0.4141894E-008  0.4614232E+02  0.7816164E-02  0.1320468E+00
        -11   -1    0    0    0    0  0.00000000000E+00  0.00000000000E+00  0.45593999997E+02  0.45594000000E+02  0.51100000000E-03 0. -1.
         11   -1    0    0    0    0 -0.00000000000E+00 -0.00000000000E+00 -0.45593999997E+02  0.45594000000E+02  0.51100000000E-03 0.  1.
    9900012    2    1    2    0    0  0.35117725166E+02  0.32645494552E+01  0.28021449318E+02  0.46142317345E+02  0.99999962035E+01 0.  0.
        -12    1    1    2    0    0 -0.35117725166E+02 -0.32645494552E+01 -0.28021449318E+02  0.45045682655E+02  0.00000000000E+00 0.  1.
         11    1    3    3    0    0  0.11607220612E+02 -0.68690428601E+00  0.94887103683E+01  0.15007832373E+02  0.51100000000E-03 0. -1.
        -11    1    3    3    0    0  0.69444481668E+01 -0.22854337444E+01  0.51138264197E+01  0.89218713650E+01  0.51100000000E-03 0.  1.
         12    1    3    3    0    0  0.16566056387E+02  0.62368874856E+01  0.13418912530E+02  0.22212613607E+02  0.00000000000E+00 0. -1.
</event>
<event>
 7    1  0.4141894E-008  0.4614232E+02  0.7816164E-02  0.1320468E+00
        -11   -1    0    0    0    0  0.00000000000E+00  0.00000000000E+00  0.45593999997E+02  0.45594000000E+02  0.51100000000E-03 0. -1.
         11   -1    0    0    0    0 -0.00000000000E+00 -0.00000000000E+00 -0.45593999997E+02  0.45594000000E+02  0.51100000000E-03 0.  1.
    9900012    2    1    2    0    0  0.51692110948E+01  0.44663209407E+02  0.27550910286E+01  0.46142317139E+02  0.99999943270E+01 0.  0.
        -12    1    1    2    0    0 -0.51692110948E+01 -0.44663209407E+02 -0.27550910286E+01  0.45045682861E+02  0.00000000000E+00 0.  1.
         11    1    3    3    0    0  0.39360882996E+01  0.23708572502E+02  0.23985512380E+01  0.24152479158E+02  0.51100000000E-03 0. -1.
        -11    1    3    3    0    0  0.18784503982E+00  0.20697997145E+02 -0.35092762554E+00  0.20701824123E+02  0.51100000000E-03 0.  1.
         12    1    3    3    0    0  0.10452777554E+01  0.25663975967E+00  0.70746741622E+00  0.12880138576E+01  0.00000000000E+00 0. -1.
</event>
<event>
 7    1  0.4141894E-008  0.4614232E+02  0.7816164E-02  0.1320468E+00
        -11   -1    0    0    0    0  0.00000000000E+00  0.00000000000E+00  0.45593999997E+02  0.45594000000E+02  0.51100000000E-03 0. -1.
         11   -1    0    0    0    0 -0.00000000000E+00 -0.00000000000E+00 -0.45593999997E+02  0.45594000000E+02  0.51100000000E-03 0.  1.
    9900012    2    1    2    0    0  0.14918698067E+02  0.25814045697E+02  0.33766567496E+02  0.46142316659E+02  0.99999899473E+01 0.  0.
        -12    1    1    2    0    0 -0.14918698067E+02 -0.25814045697E+02 -0.33766567496E+02  0.45045683341E+02  0.00000000000E+00 0.  1.
         11    1    3    3    0    0  0.14732739000E+02  0.23076910086E+02  0.31924771874E+02  0.42056966570E+02  0.51100000000E-03 0. -1.
        -11    1    3    3    0    0  0.30150448523E+00  0.64327848647E-01  0.13252486803E+01  0.13606349079E+01  0.51100000000E-03 0.  1.
        -12    1    3    3    0    0 -0.11554541806E+00  0.26728077621E+01  0.51654694119E+00  0.27247151813E+01  0.00000000000E+00 0.  1.
</event>
<event>
 7    1  0.4141894E-008  0.4614232E+02  0.7816164E-02  0.1320468E+00
        -11   -1    0    0    0    0  0.00000000000E+00  0.00000000000E+00  0.45593999997E+02  0.45594000000E+02  0.51100000000E-03 0.  1.
         11   -1    0    0    0    0 -0.00000000000E+00 -0.00000000000E+00 -0.45593999997E+02  0.45594000000E+02  0.51100000000E-03 0. -1.
    9900012    2    1    2    0    0 -0.21308638045E+02 -0.94806142236E+01 -0.38537946082E+02  0.46142318857E+02  0.10000009996E+02 0.  0.
        -12    1    1    2    0    0  0.21308638045E+02  0.94806142236E+01  0.38537946082E+02  0.45045681143E+02  0.00000000000E+00 0.  1.
         11    1    3    3    0    0 -0.14641434093E+02 -0.73942085118E+01 -0.27335652416E+02  0.31879206469E+02  0.51100000000E-03 0. -1.
        -11    1    3    3    0    0 -0.65102015563E+01 -0.83540546514E+00 -0.59415676812E+01  0.88534091381E+01  0.51100000000E-03 0.  1.
         12    1    3    3    0    0 -0.15700239552E+00 -0.12510002467E+01 -0.52607259848E+01  0.54097032503E+01  0.00000000000E+00 0. -1.
</event>
<event>
 7    1  0.4141894E-008  0.4614232E+02  0.7816164E-02  0.1320468E+00
        -11   -1    0    0    0    0  0.00000000000E+00  0.00000000000E+00  0.45593999997E+02  0.45594000000E+02  0.51100000000E-03 0. -1.
         11   -1    0    0    0    0 -0.00000000000E+00 -0.00000000000E+00 -0.45593999997E+02  0.45594000000E+02  0.51100000000E-03 0.  1.
    9900012    2    1    2    0    0 -0.36913931620E+02  0.19735508240E+02 -0.16642860243E+02  0.46142318407E+02  0.10000005887E+02 0.  0.
        -12    1    1    2    0    0  0.36913931620E+02 -0.19735508240E+02  0.16642860243E+02  0.45045681593E+02  0.00000000000E+00 0.  1.
         11    1    3    3    0    0 -0.20690800086E+02  0.15330630448E+02 -0.12344079590E+02  0.28557201181E+02  0.51100000000E-03 0. -1.
        -11    1    3    3    0    0 -0.31354183379E+00  0.51536976729E+00  0.13348598676E+00  0.61784565092E+00  0.51100000000E-03 0.  1.
         12    1    3    3    0    0 -0.15909589701E+02  0.38895080246E+01 -0.44322666394E+01  0.16967271574E+02  0.00000000000E+00 0. -1.
</event>
<event>
 7    1  0.4141894E-008  0.4614232E+02  0.7816164E-02  0.1320468E+00
        -11   -1    0    0    0    0  0.00000000000E+00  0.00000000000E+00  0.45593999997E+02  0.45594000000E+02  0.51100000000E-03 0.  1.
         11   -1    0    0    0    0 -0.00000000000E+00 -0.00000000000E+00 -0.45593999997E+02  0.45594000000E+02  0.51100000000E-03 0. -1.
    9900012    2    1    2    0    0  0.14526060228E+02 -0.34762717444E+02 -0.24691305371E+02  0.46142317513E+02  0.99999977340E+01 0.  0.
        -12    1    1    2    0    0 -0.14526060228E+02  0.34762717444E+02  0.24691305371E+02  0.45045682487E+02  0.00000000000E+00 0.  1.
         11    1    3    3    0    0  0.10918149189E+02 -0.27248768282E+02 -0.20598090887E+02  0.35860600986E+02  0.51100000000E-03 0. -1.
        -11    1    3    3    0    0 -0.86021354364E-01 -0.22768896440E+01  0.57868851527E+00  0.23508523525E+01  0.51100000000E-03 0.  1.
         12    1    3    3    0    0  0.36939323930E+01 -0.52370595177E+01 -0.46719029988E+01  0.79308641740E+01  0.00000000000E+00 0. -1.
</event>
<event>
 7    1  0.4141894E-008  0.4614232E+02  0.7816164E-02  0.1320468E+00
        -11   -1    0    0    0    0  0.00000000000E+00  0.00000000000E+00  0.45593999997E+02  0.45594000000E+02  0.51100000000E-03 0.  1.
         11   -1    0    0    0    0 -0.00000000000E+00 -0.00000000000E+00 -0.45593999997E+02  0.45594000000E+02  0.51100000000E-03 0. -1.
    9900012    2    1    2    0    0  0.42588898095E+01 -0.87745554387E+01 -0.43977067598E+02  0.46142318297E+02  0.10000004888E+02 0.  0.
        -12    1    1    2    0    0 -0.42588898095E+01  0.87745554387E+01  0.43977067598E+02  0.45045681703E+02  0.00000000000E+00 0.  1.
         11    1    3    3    0    0  0.94801799089E+00 -0.28474733420E+01 -0.17079995148E+02  0.17341657276E+02  0.51100000000E-03 0. -1.
        -11    1    3    3    0    0  0.40541398609E+01 -0.98654063096E+00 -0.19023649733E+02  0.19475845601E+02  0.51100000000E-03 0.  1.
         12    1    3    3    0    0 -0.74326804230E+00 -0.49405414657E+01 -0.78734227162E+01  0.93248154205E+01  0.00000000000E+00 0. -1.
</event>
<event>
 7    1  0.4141894E-008  0.4614232E+02  0.7816164E-02  0.1320468E+00
        -11   -1    0    0    0    0  0.00000000000E+00  0.00000000000E+00  0.45593999997E+02  0.45594000000E+02  0.51100000000E-03 0. -1.
         11   -1    0    0    0    0 -0.00000000000E+00 -0.00000000000E+00 -0.45593999997E+02  0.45594000000E+02  0.51100000000E-03 0.  1.
    9900012    2    1    2    0    0  0.39417879557E+02 -0.49430667245E+01 -0.21234649338E+02  0.46142317965E+02  0.10000001864E+02 0.  0.
        -12    1    1    2    0    0 -0.39417879557E+02  0.49430667245E+01  0.21234649338E+02  0.45045682035E+02  0.00000000000E+00 0.  1.
         11    1    3    3    0    0  0.12592014421E+02  0.10621271742E+01 -0.30614090528E+01  0.13002275453E+02  0.51100000000E-03 0. -1.
        -11    1    3    3    0    0  0.90088817824E+01 -0.21436711025E+01 -0.81479970516E+01  0.12334712521E+02  0.51100000000E-03 0.  1.
         12    1    3    3    0    0  0.17816983354E+02 -0.38615227963E+01 -0.10025243234E+02  0.20805329991E+02  0.00000000000E+00 0. -1.
</event>
<event>
 7    1  0.4141894E-008  0.4614232E+02  0.7816164E-02  0.1320468E+00
        -11   -1    0    0    0    0  0.00000000000E+00  0.00000000000E+00  0.45593999997E+02  0.45594000000E+02  0.51100000000E-03 0. -1.
         11   -1    0    0    0    0 -0.00000000000E+00 -0.00000000000E+00 -0.45593999997E+02  0.45594000000E+02  0.51100000000E-03 0.  1.
    9900012    2    1    2    0    0 -0.21907281322E+02 -0.39300842364E+02 -0.21513510763E+01  0.46142317667E+02  0.99999991384E+01 0.  0.
        -12    1    1    2    0    0  0.21907281322E+02  0.39300842364E+02  0.21513510763E+01  0.45045682333E+02  0.00000000000E+00 0.  1.
         11    1    3    3    0    0 -0.11323310540E+02 -0.20820013683E+02 -0.41389057910E+01  0.24058696406E+02  0.51100000000E-03 0. -1.
        -11    1    3    3    0    0 -0.30080827277E+01 -0.95882471193E+01 -0.77638303616E+00  0.10078978887E+02  0.51100000000E-03 0.  1.
        -12    1    3    3    0    0 -0.75758880538E+01 -0.88925815614E+01  0.27639377509E+01  0.12004642374E+02  0.00000000000E+00 0.  1.
</event>
<event>
 7    1  0.4141894E-008  0.4614232E+02  0.7816164E-02  0.1320468E+00
        -11   -1    0    0    0    0  0.00000000000E+00  0.00000000000E+00  0.45593999997E+02  0.45594000000E+02  0.51100000000E-03 0. -1.
         11   -1    0    0    0    0 -0.00000000000E+00 -0.00000000000E+00 -0.45593999997E+02  0.45594000000E+02  0.51100000000E-03 0.  1.
    9900012    2    1    2    0    0 -0.88071254573E+01 -0.44090346599E+02  0.27548860159E+01  0.46142317421E+02  0.99999969024E+01 0.  0.
        -12    1    1    2    0    0  0.88071254573E+01  0.44090346599E+02 -0.27548860159E+01  0.45045682579E+02  0.00000000000E+00 0.  1.
         11    1    3    3    0    0 -0.58769316865E+01 -0.17104558427E+02  0.13146336934E+01  0.18133739466E+02  0.51100000000E-03 0. -1.
        -11    1    3    3    0    0 -0.41940684213E+01 -0.14379458085E+02 -0.13371758915E+01  0.15038186871E+02  0.51100000000E-03 0.  1.
        -12    1    3    3    0    0  0.12638746505E+01 -0.12606330087E+02  0.27774282140E+01  0.12970391084E+02  0.00000000000E+00 0.  1.
</event>
<event>
 7    1  0.4141894E-008  0.4614232E+02  0.7816164E-02  0.1320468E+00
        -11   -1    0    0    0    0  0.00000000000E+00  0.00000000000E+00  0.45593999997E+02  0.45594000000E+02  0.51100000000E-03 0.  1.
         11   -1    0    0    0    0 -0.00000000000E+00 -0.00000000000E+00 -0.45593999997E+02  0.45594000000E+02  0.51100000000E-03 0. -1.
    9900012    2    1    2    0    0 -0.30030479091E+02  0.33386559326E+02  0.35526651306E+01  0.46142318214E+02  0.10000004128E+02 0.  0.
        -12    1    1    2    0    0  0.30030479091E+02 -0.33386559326E+02 -0.35526651306E+01  0.45045681786E+02  0.00000000000E+00 0.  1.
         11    1    3    3    0    0 -0.22422876810E+02  0.29464510564E+02  0.51222685945E+01  0.37378876696E+02  0.51100000000E-03 0. -1.
        -11    1    3    3    0    0 -0.35645662419E+01  0.23634833799E+01 -0.55101132037E+00  0.43122847675E+01  0.51100000000E-03 0.  1.
         12    1    3    3    0    0 -0.40430360394E+01  0.15585653819E+01 -0.10185921435E+01  0.44511567508E+01  0.00000000000E+00 0. -1.
</event>
<event>
 7    1  0.4141894E-008  0.4614232E+02  0.7816164E-02  0.1320468E+00
        -11   -1    0    0    0    0  0.00000000000E+00  0.00000000000E+00  0.45593999997E+02  0.45594000000E+02  0.51100000000E-03 0.  1.
         11   -1    0    0    0    0 -0.00000000000E+00 -0.00000000000E+00 -0.45593999997E+02  0.45594000000E+02  0.51100000000E-03 0. -1.
    9900012    2    1    2    0    0 -0.42478276069E+01  0.59386052532E+00 -0.44841016371E+02  0.46142318089E+02  0.10000002987E+02 0.  0.
        -12    1    1    2    0    0  0.42478276069E+01 -0.59386052532E+00  0.44841016371E+02  0.45045681911E+02  0.00000000000E+00 0.  1.
         11    1    3    3    0    0 -0.33355531323E+01 -0.32990464025E+01 -0.36177144008E+02  0.36480068129E+02  0.51100000000E-03 0. -1.
        -11    1    3    3    0    0 -0.34017258243E+00  0.47337449203E+00 -0.27142496363E+01  0.27761397920E+01  0.51100000000E-03 0.  1.
         12    1    3    3    0    0 -0.57210189218E+00  0.34195324358E+01 -0.59496227267E+01  0.68861101679E+01  0.00000000000E+00 0. -1.
</event>
<event>
 7    1  0.4141894E-008  0.4614232E+02  0.7816164E-02  0.1320468E+00
        -11   -1    0    0    0    0  0.00000000000E+00  0.00000000000E+00  0.45593999997E+02  0.45594000000E+02  0.51100000000E-03 0.  1.
         11   -1    0    0    0    0 -0.00000000000E+00 -0.00000000000E+00 -0.45593999997E+02  0.45594000000E+02  0.51100000000E-03 0. -1.
    9900012    2    1    2    0    0 -0.15117581524E+02  0.42401893092E+02 -0.16284051907E+01  0.46142317495E+02  0.99999975730E+01 0.  0.
        -12    1    1    2    0    0  0.15117581524E+02 -0.42401893092E+02  0.16284051907E+01  0.45045682505E+02  0.00000000000E+00 0.  1.
         11    1    3    3    0    0 -0.93195087641E+01  0.27191848316E+02  0.11895466444E+01  0.28769165437E+02  0.51100000000E-03 0. -1.
        -11    1    3    3    0    0 -0.67977127094E+01  0.13934019785E+02 -0.27847749024E+01  0.15751849953E+02  0.51100000000E-03 0.  1.
         12    1    3    3    0    0  0.99963994952E+00  0.12760249908E+01 -0.33176932597E-01  0.16213021047E+01  0.00000000000E+00 0. -1.
</event>
<event>
 7    1  0.4141894E-008  0.4614232E+02  0.7816164E-02  0.1320468E+00
        -11   -1    0    0    0    0  0.00000000000E+00  0.00000000000E+00  0.45593999997E+02  0.45594000000E+02  0.51100000000E-03 0.  1.
         11   -1    0    0    0    0 -0.00000000000E+00 -0.00000000000E+00 -0.45593999997E+02  0.45594000000E+02  0.51100000000E-03 0. -1.
    9900012    2    1    2    0    0 -0.41778496866E+02  0.37361454256E+01 -0.16422905201E+02  0.46142318761E+02  0.10000009117E+02 0.  0.
        -12    1    1    2    0    0  0.41778496866E+02 -0.37361454256E+01  0.16422905201E+02  0.45045681239E+02  0.00000000000E+00 0.  1.
         11    1    3    3    0    0 -0.10109811617E+02  0.17153622643E+01 -0.74746293680E+01  0.12689398846E+02  0.51100000000E-03 0.  1.
        -11    1    3    3    0    0 -0.61038350792E+01  0.23463110633E+01 -0.30443294799E+01  0.72131768676E+01  0.51100000000E-03 0. -1.
        -12    1    3    3    0    0 -0.25564850170E+02 -0.32552790199E+00 -0.59039463534E+01  0.26239743047E+02  0.00000000000E+00 0.  1.
</event>
<event>
 7    1  0.4141894E-008  0.4614232E+02  0.7816164E-02  0.1320468E+00
        -11   -1    0    0    0    0  0.00000000000E+00  0.00000000000E+00  0.45593999997E+02  0.45594000000E+02  0.51100000000E-03 0.  1.
         11   -1    0    0    0    0 -0.00000000000E+00 -0.00000000000E+00 -0.45593999997E+02  0.45594000000E+02  0.51100000000E-03 0. -1.
    9900012    2    1    2    0    0 -0.28612842252E+02 -0.34463696168E+02  0.47615575423E+01  0.46142317349E+02  0.99999962405E+01 0.  0.
        -12    1    1    2    0    0  0.28612842252E+02  0.34463696168E+02 -0.47615575423E+01  0.45045682651E+02  0.00000000000E+00 0.  1.
         11    1    3    3    0    0 -0.22976868039E+01 -0.37187583252E+01 -0.21244778731E+01  0.48602401818E+01  0.51100000000E-03 0.  1.
        -11    1    3    3    0    0 -0.10118496439E+02 -0.15119149872E+02  0.34178680460E+01  0.18510928807E+02  0.51100000000E-03 0. -1.
         12    1    3    3    0    0 -0.16196659009E+02 -0.15625787971E+02  0.34681673694E+01  0.22771148360E+02  0.00000000000E+00 0. -1.
</event>
<event>
 7    1  0.4141894E-008  0.4614232E+02  0.7816164E-02  0.1320468E+00
        -11   -1    0    0    0    0  0.00000000000E+00  0.00000000000E+00  0.45593999997E+02  0.45594000000E+02  0.51100000000E-03 0.  1.
         11   -1    0    0    0    0 -0.00000000000E+00 -0.00000000000E+00 -0.45593999997E+02  0.45594000000E+02  0.51100000000E-03 0. -1.
    9900012    2    1    2    0    0 -0.42049899358E+02  0.12846445573E+01 -0.16101837786E+02  0.46142317324E+02  0.99999960168E+01 0.  0.
        -12    1    1    2    0    0  0.42049899358E+02 -0.12846445573E+01  0.16101837786E+02  0.45045682676E+02  0.00000000000E+00 0.  1.
         11    1    3    3    0    0 -0.22801375253E+02  0.17884466738E+01 -0.81331555634E+01  0.24274461366E+02  0.51100000000E-03 0. -1.
        -11    1    3    3    0    0 -0.10715068725E+02 -0.26920977081E+01 -0.20024131929E+01  0.11228078496E+02  0.51100000000E-03 0.  1.
         12    1    3    3    0    0 -0.85334553794E+01  0.21882955916E+01 -0.59662690296E+01  0.10639777462E+02  0.00000000000E+00 0. -1.
</event>
<event>
 7    1  0.4141894E-008  0.4614232E+02  0.7816164E-02  0.1320468E+00
        -11   -1    0    0    0    0  0.00000000000E+00  0.00000000000E+00  0.45593999997E+02  0.45594000000E+02  0.51100000000E-03 0.  1.
         11   -1    0    0    0    0 -0.00000000000E+00 -0.00000000000E+00 -0.45593999997E+02  0.45594000000E+02  0.51100000000E-03 0. -1.
    9900012    2    1    2    0    0  0.48556720530E+01 -0.96983119852E+01 -0.43720460511E+02  0.46142317923E+02  0.10000001477E+02 0.  0.
        -12    1    1    2    0    0 -0.48556720530E+01  0.96983119852E+01  0.43720460511E+02  0.45045682077E+02  0.00000000000E+00 0.  1.
         11    1    3    3    0    0  0.14328407595E+01 -0.61292689083E+01 -0.17362076195E+02  0.18467881851E+02  0.51100000000E-03 0. -1.
        -11    1    3    3    0    0 -0.19925606462E+01 -0.99879475692E-01 -0.67064724559E+01  0.69969312489E+01  0.51100000000E-03 0.  1.
        -12    1    3    3    0    0  0.54153919397E+01 -0.34691636012E+01 -0.19651911860E+02  0.20677504823E+02  0.00000000000E+00 0.  1.
</event>
<event>
 7    1  0.4141894E-008  0.4614232E+02  0.7816164E-02  0.1320468E+00
        -11   -1    0    0    0    0  0.00000000000E+00  0.00000000000E+00  0.45593999997E+02  0.45594000000E+02  0.51100000000E-03 0. -1.
         11   -1    0    0    0    0 -0.00000000000E+00 -0.00000000000E+00 -0.45593999997E+02  0.45594000000E+02  0.51100000000E-03 0.  1.
    9900012    2    1    2    0    0 -0.16883109498E+02 -0.41762104570E+02  0.26652455638E-01  0.46142317912E+02  0.10000001377E+02 0.  0.
        -12    1    1    2    0    0  0.16883109498E+02  0.41762104570E+02 -0.26652455638E-01  0.45045682088E+02  0.00000000000E+00 0.  1.
         11    1    3    3    0    0 -0.11175342400E+02 -0.20282489420E+02 -0.15083554259E+01  0.23206524755E+02  0.51100000000E-03 0. -1.
        -11    1    3    3    0    0 -0.25127868560E+01 -0.25408315520E+01  0.10449591633E+01  0.37231522496E+01  0.51100000000E-03 0.  1.
        -12    1    3    3    0    0 -0.31949802413E+01 -0.18938783598E+02  0.49004871829E+00  0.19212640908E+02  0.00000000000E+00 0.  1.
</event>
<event>
 7    1  0.4141894E-008  0.4614232E+02  0.7816164E-02  0.1320468E+00
        -11   -1    0    0    0    0  0.00000000000E+00  0.00000000000E+00  0.45593999997E+02  0.45594000000E+02  0.51100000000E-03 0.  1.
         11   -1    0    0    0    0 -0.00000000000E+00 -0.00000000000E+00 -0.45593999997E+02  0.45594000000E+02  0.51100000000E-03 0. -1.
    9900012    2    1    2    0    0 -0.17511965561E+01  0.25212470977E+02 -0.37287774980E+02  0.46142317132E+02  0.99999942609E+01 0.  0.
        -12    1    1    2    0    0  0.17511965561E+01 -0.25212470977E+02  0.37287774980E+02  0.45045682868E+02  0.00000000000E+00 0.  1.
         11    1    3    3    0    0 -0.33142887909E+01  0.16255255489E+02 -0.22962180632E+02  0.28328070546E+02  0.51100000000E-03 0. -1.
        -11    1    3    3    0    0 -0.17933337258E+01  0.18821295439E+01 -0.23429176654E+01  0.34996744020E+01  0.51100000000E-03 0.  1.
         12    1    3    3    0    0  0.33564259605E+01  0.70750859440E+01 -0.11982676682E+02  0.14314572184E+02  0.00000000000E+00 0. -1.
</event>
<event>
 7    1  0.4141894E-008  0.4614232E+02  0.7816164E-02  0.1320468E+00
        -11   -1    0    0    0    0  0.00000000000E+00  0.00000000000E+00  0.45593999997E+02  0.45594000000E+02  0.51100000000E-03 0.  1.
         11   -1    0    0    0    0 -0.00000000000E+00 -0.00000000000E+00 -0.45593999997E+02  0.45594000000E+02  0.51100000000E-03 0. -1.
    9900012    2    1    2    0    0  0.39354523499E+02 -0.68514512172E+00 -0.21905834811E+02  0.46142317161E+02  0.99999945292E+01 0.  0.
        -12    1    1    2    0    0 -0.39354523499E+02  0.68514512172E+00  0.21905834811E+02  0.45045682839E+02  0.00000000000E+00 0.  1.
         11    1    3    3    0    0  0.15616722645E+02  0.35446279861E+01 -0.98931485331E+01  0.18823411006E+02  0.51100000000E-03 0. -1.
        -11    1    3    3    0    0  0.19460652937E+01 -0.13301523719E+01 -0.22715341798E+01  0.32735826323E+01  0.51100000000E-03 0.  1.
         12    1    3    3    0    0  0.21791735560E+02 -0.28996207359E+01 -0.97411520978E+01  0.24045323523E+02  0.00000000000E+00 0. -1.
</event>
<event>
 7    1  0.4141894E-008  0.4614232E+02  0.7816164E-02  0.1320468E+00
        -11   -1    0    0    0    0  0.00000000000E+00  0.00000000000E+00  0.45593999997E+02  0.45594000000E+02  0.51100000000E-03 0.  1.
         11   -1    0    0    0    0 -0.00000000000E+00 -0.00000000000E+00 -0.45593999997E+02  0.45594000000E+02  0.51100000000E-03 0. -1.
    9900012    2    1    2    0    0  0.89063233135E+00  0.72155578104E+00 -0.45031095022E+02  0.46142318880E+02  0.10000010206E+02 0.  0.
        -12    1    1    2    0    0 -0.89063233135E+00 -0.72155578104E+00  0.45031095022E+02  0.45045681120E+02  0.00000000000E+00 0.  1.
         11    1    3    3    0    0 -0.33147431900E+00  0.18322146487E+01 -0.16416660903E+02  0.16521913969E+02  0.51100000000E-03 0. -1.
        -11    1    3    3    0    0  0.43601490092E+01 -0.37098182890E+00 -0.14709318931E+02  0.15346419471E+02  0.51100000000E-03 0.  1.
         12    1    3    3    0    0 -0.31380423589E+01 -0.73967703880E+00 -0.13905115188E+02  0.14273985441E+02  0.00000000000E+00 0. -1.
</event>
<event>
 7    1  0.4141894E-008  0.4614232E+02  0.7816164E-02  0.1320468E+00
        -11   -1    0    0    0    0  0.00000000000E+00  0.00000000000E+00  0.45593999997E+02  0.45594000000E+02  0.51100000000E-03 0.  1.
         11   -1    0    0    0    0 -0.00000000000E+00 -0.00000000000E+00 -0.45593999997E+02  0.45594000000E+02  0.51100000000E-03 0. -1.
    9900012    2    1    2    0    0 -0.38021832165E+02  0.58863142178E+01 -0.23426587866E+02  0.46142318350E+02  0.10000005373E+02 0.  0.
        -12    1    1    2    0    0  0.38021832165E+02 -0.58863142178E+01  0.23426587866E+02  0.45045681650E+02  0.00000000000E+00 0.  1.
         11    1    3    3    0    0 -0.18422669601E+02  0.47352156900E+00 -0.10718366046E+02  0.21319060694E+02  0.51100000000E-03 0. -1.
        -11    1    3    3    0    0 -0.10611702544E+01  0.14755084682E+01 -0.30553158719E+01  0.35550193933E+01  0.51100000000E-03 0.  1.
        -12    1    3    3    0    0 -0.18537992310E+02  0.39372841806E+01 -0.96529059481E+01  0.21268238263E+02  0.00000000000E+00 0.  1.
</event>
<event>
 7    1  0.4141894E-008  0.4614232E+02  0.7816164E-02  0.1320468E+00
        -11   -1    0    0    0    0  0.00000000000E+00  0.00000000000E+00  0.45593999997E+02  0.45594000000E+02  0.51100000000E-03 0. -1.
         11   -1    0    0    0    0 -0.00000000000E+00 -0.00000000000E+00 -0.45593999997E+02  0.45594000000E+02  0.51100000000E-03 0.  1.
    9900012    2    1    2    0    0 -0.34970400986E+02 -0.27435824276E+02  0.73116440072E+01  0.46142317222E+02  0.99999950857E+01 0.  0.
        -12    1    1    2    0    0  0.34970400986E+02  0.27435824276E+02 -0.73116440072E+01  0.45045682778E+02  0.00000000000E+00 0.  1.
         11    1    3    3    0    0 -0.84401956381E+01 -0.90371326974E+01  0.52531090587E+01  0.13435096756E+02  0.51100000000E-03 0. -1.
        -11    1    3    3    0    0 -0.15691869134E+02 -0.12492136252E+02  0.32018728645E+01  0.20311086016E+02  0.51100000000E-03 0.  1.
        -12    1    3    3    0    0 -0.10838336214E+02 -0.59065553271E+01 -0.11433379159E+01  0.12396134450E+02  0.00000000000E+00 0.  1.
</event>
<event>
 7    1  0.4141894E-008  0.4614232E+02  0.7816164E-02  0.1320468E+00
        -11   -1    0    0    0    0  0.00000000000E+00  0.00000000000E+00  0.45593999997E+02  0.45594000000E+02  0.51100000000E-03 0.  1.
         11   -1    0    0    0    0 -0.00000000000E+00 -0.00000000000E+00 -0.45593999997E+02  0.45594000000E+02  0.51100000000E-03 0. -1.
    9900012    2    1    2    0    0  0.14714343385E+02 -0.50681949405E+01 -0.42271917090E+02  0.46142317902E+02  0.10000001287E+02 0.  0.
        -12    1    1    2    0    0 -0.14714343385E+02  0.50681949405E+01  0.42271917090E+02  0.45045682098E+02  0.00000000000E+00 0.  1.
         11    1    3    3    0    0  0.10336054881E+02 -0.40502902645E+01 -0.23206481482E+02  0.25725078518E+02  0.51100000000E-03 0. -1.
        -11    1    3    3    0    0  0.71604012092E+00  0.18640311461E+01 -0.24501669761E+01  0.31607980069E+01  0.51100000000E-03 0.  1.
        -12    1    3    3    0    0  0.36622483830E+01 -0.28819358221E+01 -0.16615268632E+02  0.17256441377E+02  0.00000000000E+00 0.  1.
</event>
<event>
 7    1  0.4141894E-008  0.4614232E+02  0.7816164E-02  0.1320468E+00
        -11   -1    0    0    0    0  0.00000000000E+00  0.00000000000E+00  0.45593999997E+02  0.45594000000E+02  0.51100000000E-03 0.  1.
         11   -1    0    0    0    0 -0.00000000000E+00 -0.00000000000E+00 -0.45593999997E+02  0.45594000000E+02  0.51100000000E-03 0. -1.
    9900012    2    1    2    0    0  0.44793468641E+02  0.47393852066E+01  0.44387066414E+00  0.46142316231E+02  0.99999860472E+01 0.  0.
        -12    1    1    2    0    0 -0.44793468641E+02 -0.47393852066E+01 -0.44387066414E+00  0.45045683769E+02  0.00000000000E+00 0.  1.
         11    1    3    3    0    0  0.13204778581E+02  0.55367906027E+01 -0.74222255405E+00  0.14337821388E+02  0.51100000000E-03 0. -1.
        -11    1    3    3    0    0  0.96297199032E+01 -0.16859920734E+00  0.19354708789E+01  0.98237456650E+01  0.51100000000E-03 0.  1.
        -12    1    3    3    0    0  0.21958970157E+02 -0.62880618878E+00 -0.74937766076E+00  0.21980749178E+02  0.00000000000E+00 0.  1.
</event>
<event>
 7    1  0.4141894E-008  0.4614232E+02  0.7816164E-02  0.1320468E+00
        -11   -1    0    0    0    0  0.00000000000E+00  0.00000000000E+00  0.45593999997E+02  0.45594000000E+02  0.51100000000E-03 0.  1.
         11   -1    0    0    0    0 -0.00000000000E+00 -0.00000000000E+00 -0.45593999997E+02  0.45594000000E+02  0.51100000000E-03 0. -1.
    9900012    2    1    2    0    0 -0.22283355813E+02  0.23525254671E+02 -0.31291019594E+02  0.46142318066E+02  0.10000002783E+02 0.  0.
        -12    1    1    2    0    0  0.22283355813E+02 -0.23525254671E+02  0.31291019594E+02  0.45045681934E+02  0.00000000000E+00 0.  1.
         11    1    3    3    0    0 -0.68064674863E+00  0.57884322134E+00  0.16039632231E-01  0.89364254724E+00  0.51100000000E-03 0. -1.
        -11    1    3    3    0    0 -0.93342837470E+01  0.80512046548E+01 -0.68730604534E+01  0.14113458461E+02  0.51100000000E-03 0.  1.
         12    1    3    3    0    0 -0.12268425317E+02  0.14895206795E+02 -0.24433998773E+02  0.31135217058E+02  0.00000000000E+00 0. -1.
</event>
<event>
 7    1  0.4141894E-008  0.4614232E+02  0.7816164E-02  0.1320468E+00
        -11   -1    0    0    0    0  0.00000000000E+00  0.00000000000E+00  0.45593999997E+02  0.45594000000E+02  0.51100000000E-03 0. -1.
         11   -1    0    0    0    0 -0.00000000000E+00 -0.00000000000E+00 -0.45593999997E+02  0.45594000000E+02  0.51100000000E-03 0.  1.
    9900012    2    1    2    0    0  0.11328876815E+02 -0.19585977014E+01  0.43553804831E+02  0.46142317964E+02  0.10000001852E+02 0.  0.
        -12    1    1    2    0    0 -0.11328876815E+02  0.19585977014E+01 -0.43553804831E+02  0.45045682036E+02  0.00000000000E+00 0.  1.
         11    1    3    3    0    0  0.66036938343E+01 -0.39948058515E+01  0.27204186850E+02  0.28277818666E+02  0.51100000000E-03 0. -1.
        -11    1    3    3    0    0  0.40488080398E+01  0.30665948864E+01  0.15636075305E+02  0.16440307234E+02  0.51100000000E-03 0.  1.
        -12    1    3    3    0    0  0.67637494060E+00 -0.10303867363E+01  0.71354267518E+00  0.14241920642E+01  0.00000000000E+00 0.  1.
</event>
<event>
 7    1  0.4141894E-008  0.4614232E+02  0.7816164E-02  0.1320468E+00
        -11   -1    0    0    0    0  0.00000000000E+00  0.00000000000E+00  0.45593999997E+02  0.45594000000E+02  0.51100000000E-03 0. -1.
         11   -1    0    0    0    0 -0.00000000000E+00 -0.00000000000E+00 -0.45593999997E+02  0.45594000000E+02  0.51100000000E-03 0.  1.
    9900012    2    1    2    0    0 -0.17843786952E+02  0.37882033104E+02  0.16603141758E+02  0.46142317841E+02  0.10000000732E+02 0.  0.
        -12    1    1    2    0    0  0.17843786952E+02 -0.37882033104E+02 -0.16603141758E+02  0.45045682159E+02  0.00000000000E+00 0.  1.
         11    1    3    3    0    0 -0.57076320511E+01  0.12566556999E+02  0.80743848238E+01  0.15990344242E+02  0.51100000000E-03 0. -1.
        -11    1    3    3    0    0 -0.44495570794E+01  0.10237757623E+02  0.69611822309E+01  0.13155542470E+02  0.51100000000E-03 0.  1.
        -12    1    3    3    0    0 -0.76865978212E+01  0.15077718482E+02  0.15675747034E+01  0.16996431130E+02  0.00000000000E+00 0.  1.
</event>
<event>
 7    1  0.4141894E-008  0.4614232E+02  0.7816164E-02  0.1320468E+00
        -11   -1    0    0    0    0  0.00000000000E+00  0.00000000000E+00  0.45593999997E+02  0.45594000000E+02  0.51100000000E-03 0.  1.
         11   -1    0    0    0    0 -0.00000000000E+00 -0.00000000000E+00 -0.45593999997E+02  0.45594000000E+02  0.51100000000E-03 0. -1.
    9900012    2    1    2    0    0 -0.68588754031E+01 -0.32132360271E+02 -0.30815263555E+02  0.46142320781E+02  0.10000027534E+02 0.  0.
        -12    1    1    2    0    0  0.68588754031E+01  0.32132360271E+02  0.30815263555E+02  0.45045679219E+02  0.00000000000E+00 0.  1.
         11    1    3    3    0    0  0.17961945766E+01 -0.48306523750E+01 -0.37710362125E+01  0.63860967502E+01  0.51100000000E-03 0. -1.
        -11    1    3    3    0    0 -0.16528485774E+01 -0.24299450929E+01 -0.10938528662E+01  0.31357703883E+01  0.51100000000E-03 0.  1.
         12    1    3    3    0    0 -0.70022214023E+01 -0.24871762803E+02 -0.25950374476E+02  0.36620453642E+02  0.00000000000E+00 0. -1.
</event>
<event>
 7    1  0.4141894E-008  0.4614232E+02  0.7816164E-02  0.1320468E+00
        -11   -1    0    0    0    0  0.00000000000E+00  0.00000000000E+00  0.45593999997E+02  0.45594000000E+02  0.51100000000E-03 0.  1.
         11   -1    0    0    0    0 -0.00000000000E+00 -0.00000000000E+00 -0.45593999997E+02  0.45594000000E+02  0.51100000000E-03 0. -1.
    9900012    2    1    2    0    0  0.41023821428E+02  0.86755466995E+01 -0.16458874627E+02  0.46142316643E+02  0.99999898033E+01 0.  0.
        -12    1    1    2    0    0 -0.41023821428E+02 -0.86755466995E+01  0.16458874627E+02  0.45045683357E+02  0.00000000000E+00 0.  1.
         11    1    3    3    0    0  0.16220841922E+02  0.15780940845E+01 -0.24860289316E+01  0.16485946551E+02  0.51100000000E-03 0. -1.
        -11    1    3    3    0    0  0.15215165941E+02  0.21970594272E+01 -0.87546345638E+01  0.17691013858E+02  0.51100000000E-03 0.  1.
        -12    1    3    3    0    0  0.95878135658E+01  0.49003931878E+01 -0.52182111316E+01  0.11965356233E+02  0.00000000000E+00 0.  1.
</event>
<event>
 7    1  0.4141894E-008  0.4614232E+02  0.7816164E-02  0.1320468E+00
        -11   -1    0    0    0    0  0.00000000000E+00  0.00000000000E+00  0.45593999997E+02  0.45594000000E+02  0.51100000000E-03 0.  1.
         11   -1    0    0    0    0 -0.00000000000E+00 -0.00000000000E+00 -0.45593999997E+02  0.45594000000E+02  0.51100000000E-03 0. -1.
    9900012    2    1    2    0    0  0.29776464135E+02 -0.33269437687E+02 -0.59682541713E+01  0.46142319205E+02  0.10000013167E+02 0.  0.
        -12    1    1    2    0    0 -0.29776464135E+02  0.33269437687E+02  0.59682541713E+01  0.45045680795E+02  0.00000000000E+00 0.  1.
         11    1    3    3    0    0  0.15582573987E+02 -0.19973147023E+02  0.64808144696E+00  0.25340939680E+02  0.51100000000E-03 0. -1.
        -11    1    3    3    0    0  0.21647992385E+01 -0.66119235292E+00 -0.53056954736E+00  0.23248731958E+01  0.51100000000E-03 0.  1.
        -12    1    3    3    0    0  0.12029090910E+02 -0.12635098312E+02 -0.60857660709E+01  0.18476506329E+02  0.00000000000E+00 0.  1.
</event>
<event>
 7    1  0.4141894E-008  0.4614232E+02  0.7816164E-02  0.1320468E+00
        -11   -1    0    0    0    0  0.00000000000E+00  0.00000000000E+00  0.45593999997E+02  0.45594000000E+02  0.51100000000E-03 0.  1.
         11   -1    0    0    0    0 -0.00000000000E+00 -0.00000000000E+00 -0.45593999997E+02  0.45594000000E+02  0.51100000000E-03 0. -1.
    9900012    2    1    2    0    0 -0.20167549343E+02  0.11374420066E+02 -0.38639436604E+02  0.46142317194E+02  0.99999948296E+01 0.  0.
        -12    1    1    2    0    0  0.20167549343E+02 -0.11374420066E+02  0.38639436604E+02  0.45045682806E+02  0.00000000000E+00 0.  1.
         11    1    3    3    0    0 -0.92889770511E+01  0.88359068019E+01 -0.17684198903E+02  0.21842372462E+02  0.51100000000E-03 0. -1.
        -11    1    3    3    0    0 -0.98881760999E+01  0.26652127534E+01 -0.14406883681E+02  0.17675906859E+02  0.51100000000E-03 0.  1.
         12    1    3    3    0    0 -0.99039619218E+00 -0.12669948939E+00 -0.65483540201E+01  0.66240378736E+01  0.00000000000E+00 0. -1.
</event>
<event>
 7    1  0.4141894E-008  0.4614232E+02  0.7816164E-02  0.1320468E+00
        -11   -1    0    0    0    0  0.00000000000E+00  0.00000000000E+00  0.45593999997E+02  0.45594000000E+02  0.51100000000E-03 0.  1.
         11   -1    0    0    0    0 -0.00000000000E+00 -0.00000000000E+00 -0.45593999997E+02  0.45594000000E+02  0.51100000000E-03 0. -1.
    9900012    2    1    2    0    0  0.70643280633E+01 -0.34709890017E+02 -0.27828622858E+02  0.46142318230E+02  0.10000004278E+02 0.  0.
        -12    1    1    2    0    0 -0.70643280633E+01  0.34709890017E+02  0.27828622858E+02  0.45045681770E+02  0.00000000000E+00 0.  1.
         11    1    3    3    0    0  0.35006389722E+01 -0.24810550127E+02 -0.23848980604E+02  0.34591787276E+02  0.51100000000E-03 0. -1.
        -11    1    3    3    0    0  0.37853645410E+01 -0.88386358574E+01 -0.41146586251E+01  0.10458531656E+02  0.51100000000E-03 0.  1.
         12    1    3    3    0    0 -0.22167544986E+00 -0.10607040321E+01  0.13501637110E+00  0.10919992991E+01  0.00000000000E+00 0. -1.
</event>
<event>
 7    1  0.4141894E-008  0.4614231E+02  0.7816164E-02  0.1320468E+00
        -11   -1    0    0    0    0  0.00000000000E+00  0.00000000000E+00  0.45593999997E+02  0.45594000000E+02  0.51100000000E-03 0.  1.
         11   -1    0    0    0    0 -0.00000000000E+00 -0.00000000000E+00 -0.45593999997E+02  0.45594000000E+02  0.51100000000E-03 0. -1.
    9900012    2    1    2    0    0  0.15414196470E+02 -0.13059323050E+02 -0.40261280028E+02  0.46142311629E+02  0.99999440798E+01 0.  0.
        -12    1    1    2    0    0 -0.15414196470E+02  0.13059323050E+02  0.40261280028E+02  0.45045688371E+02  0.00000000000E+00 0.  1.
         11    1    3    3    0    0  0.97150518090E+01 -0.42699372882E+01 -0.14581645416E+02  0.18034383255E+02  0.51100000000E-03 0. -1.
        -11    1    3    3    0    0  0.60009522404E+01 -0.60592785123E+01 -0.21230039409E+02  0.22878829897E+02  0.51100000000E-03 0.  1.
        -12    1    3    3    0    0 -0.30180757904E+00 -0.27301072492E+01 -0.44495952032E+01  0.52290984767E+01  0.00000000000E+00 0.  1.
</event>
<event>
 7    1  0.4141894E-008  0.4614232E+02  0.7816164E-02  0.1320468E+00
        -11   -1    0    0    0    0  0.00000000000E+00  0.00000000000E+00  0.45593999997E+02  0.45594000000E+02  0.51100000000E-03 0. -1.
         11   -1    0    0    0    0 -0.00000000000E+00 -0.00000000000E+00 -0.45593999997E+02  0.45594000000E+02  0.51100000000E-03 0.  1.
    9900012    2    1    2    0    0 -0.32782568431E+02  0.30023953774E+02 -0.72786643934E+01  0.46142317093E+02  0.99999939096E+01 0.  0.
        -12    1    1    2    0    0  0.32782568431E+02 -0.30023953774E+02  0.72786643934E+01  0.45045682907E+02  0.00000000000E+00 0.  1.
         11    1    3    3    0    0 -0.22261132445E+00  0.80082006705E-01 -0.53593171411E+00  0.58582590663E+00  0.51100000000E-03 0. -1.
        -11    1    3    3    0    0 -0.16477736715E+00  0.14522312756E+01 -0.15048981554E+01  0.20978193387E+01  0.51100000000E-03 0.  1.
         12    1    3    3    0    0 -0.32395179739E+02  0.28491640492E+02 -0.52378345239E+01  0.43458671848E+02  0.00000000000E+00 0. -1.
</event>
<event>
 7    1  0.4141894E-008  0.4614232E+02  0.7816164E-02  0.1320468E+00
        -11   -1    0    0    0    0  0.00000000000E+00  0.00000000000E+00  0.45593999997E+02  0.45594000000E+02  0.51100000000E-03 0.  1.
         11   -1    0    0    0    0 -0.00000000000E+00 -0.00000000000E+00 -0.45593999997E+02  0.45594000000E+02  0.51100000000E-03 0. -1.
    9900012    2    1    2    0    0  0.15457699331E+02 -0.10598481727E+02 -0.40961509743E+02  0.46142316922E+02  0.99999923458E+01 0.  0.
        -12    1    1    2    0    0 -0.15457699331E+02  0.10598481727E+02  0.40961509743E+02  0.45045683078E+02  0.00000000000E+00 0.  1.
         11    1    3    3    0    0  0.73875515760E+01 -0.33299772946E+01 -0.13681999740E+02  0.15901628351E+02  0.51100000000E-03 0. -1.
        -11    1    3    3    0    0  0.33990335757E+01 -0.67003935292E+01 -0.21575504033E+02  0.22846248646E+02  0.51100000000E-03 0.  1.
        -12    1    3    3    0    0  0.46711141797E+01 -0.56811090344E+00 -0.57040059707E+01  0.73944399242E+01  0.00000000000E+00 0.  1.
</event>
<event>
 7    1  0.4141894E-008  0.4614232E+02  0.7816164E-02  0.1320468E+00
        -11   -1    0    0    0    0  0.00000000000E+00  0.00000000000E+00  0.45593999997E+02  0.45594000000E+02  0.51100000000E-03 0. -1.
         11   -1    0    0    0    0 -0.00000000000E+00 -0.00000000000E+00 -0.45593999997E+02  0.45594000000E+02  0.51100000000E-03 0.  1.
    9900012    2    1    2    0    0 -0.33667039553E+02  0.42145034560E+01  0.29629072986E+02  0.46142316992E+02  0.99999929838E+01 0.  0.
        -12    1    1    2    0    0  0.33667039553E+02 -0.42145034560E+01 -0.29629072986E+02  0.45045683008E+02  0.00000000000E+00 0.  1.
         11    1    3    3    0    0 -0.22632528249E+02  0.35276196235E+01  0.20145932097E+02  0.30504655636E+02  0.51100000000E-03 0. -1.
        -11    1    3    3    0    0 -0.21566770705E+01  0.19109731000E+01  0.46103345014E+01  0.54367507439E+01  0.51100000000E-03 0.  1.
        -12    1    3    3    0    0 -0.88778342335E+01 -0.12240892675E+01  0.48728063875E+01  0.10200910611E+02  0.00000000000E+00 0.  1.
</event>
<event>
 7    1  0.4141894E-008  0.4614232E+02  0.7816164E-02  0.1320468E+00
        -11   -1    0    0    0    0  0.00000000000E+00  0.00000000000E+00  0.45593999997E+02  0.45594000000E+02  0.51100000000E-03 0.  1.
         11   -1    0    0    0    0 -0.00000000000E+00 -0.00000000000E+00 -0.45593999997E+02  0.45594000000E+02  0.51100000000E-03 0. -1.
    9900012    2    1    2    0    0  0.75519940732E+01  0.39889148141E+02 -0.19517605196E+02  0.46142315784E+02  0.99999819690E+01 0.  0.
        -12    1    1    2    0    0 -0.75519940732E+01 -0.39889148141E+02  0.19517605196E+02  0.45045684216E+02  0.00000000000E+00 0.  1.
         11    1    3    3    0    0  0.58081039465E+01  0.27107654102E+02 -0.85118383696E+01  0.29000178880E+02  0.51100000000E-03 0. -1.
        -11    1    3    3    0    0  0.19966899692E+01  0.60321122332E+01 -0.59554417759E+01  0.87086414460E+01  0.51100000000E-03 0.  1.
         12    1    3    3    0    0 -0.25279984253E+00  0.67493818062E+01 -0.50503250504E+01  0.84334954580E+01  0.00000000000E+00 0. -1.
</event>
<event>
 7    1  0.4141894E-008  0.4614232E+02  0.7816164E-02  0.1320468E+00
        -11   -1    0    0    0    0  0.00000000000E+00  0.00000000000E+00  0.45593999997E+02  0.45594000000E+02  0.51100000000E-03 0.  1.
         11   -1    0    0    0    0 -0.00000000000E+00 -0.00000000000E+00 -0.45593999997E+02  0.45594000000E+02  0.51100000000E-03 0. -1.
    9900012    2    1    2    0    0 -0.17189811554E+02 -0.22290862935E+02 -0.35167332752E+02  0.46142317804E+02  0.10000000393E+02 0.  0.
        -12    1    1    2    0    0  0.17189811554E+02  0.22290862935E+02  0.35167332752E+02  0.45045682196E+02  0.00000000000E+00 0.  1.
         11    1    3    3    0    0 -0.15803497671E+01 -0.54046612663E+01 -0.84407612125E+01  0.10146640769E+02  0.51100000000E-03 0. -1.
        -11    1    3    3    0    0 -0.72081631157E+01 -0.44718168088E+01 -0.58884137120E+01  0.10326092067E+02  0.51100000000E-03 0.  1.
         12    1    3    3    0    0 -0.84012986709E+01 -0.12414384860E+02 -0.20838157827E+02  0.25669584968E+02  0.00000000000E+00 0. -1.
</event>
<event>
 7    1  0.4141894E-008  0.4614232E+02  0.7816164E-02  0.1320468E+00
        -11   -1    0    0    0    0  0.00000000000E+00  0.00000000000E+00  0.45593999997E+02  0.45594000000E+02  0.51100000000E-03 0.  1.
         11   -1    0    0    0    0 -0.00000000000E+00 -0.00000000000E+00 -0.45593999997E+02  0.45594000000E+02  0.51100000000E-03 0. -1.
    9900012    2    1    2    0    0  0.67927376213E+01  0.37070774564E+02 -0.24672453640E+02  0.46142316746E+02  0.99999907450E+01 0.  0.
        -12    1    1    2    0    0 -0.67927376213E+01 -0.37070774564E+02  0.24672453640E+02  0.45045683254E+02  0.00000000000E+00 0.  1.
         11    1    3    3    0    0  0.43334304372E+01  0.10740620349E+02 -0.50124507091E+01  0.12619992361E+02  0.51100000000E-03 0. -1.
        -11    1    3    3    0    0  0.31022165826E+01  0.55304510208E+01 -0.47279579881E+01  0.79096917270E+01  0.51100000000E-03 0.  1.
        -12    1    3    3    0    0 -0.64290939853E+00  0.20799703194E+02 -0.14932044943E+02  0.25612632658E+02  0.00000000000E+00 0.  1.
</event>
<event>
 7    1  0.4141894E-008  0.4614232E+02  0.7816164E-02  0.1320468E+00
        -11   -1    0    0    0    0  0.00000000000E+00  0.00000000000E+00  0.45593999997E+02  0.45594000000E+02  0.51100000000E-03 0.  1.
         11   -1    0    0    0    0 -0.00000000000E+00 -0.00000000000E+00 -0.45593999997E+02  0.45594000000E+02  0.51100000000E-03 0. -1.
    9900012    2    1    2    0    0 -0.38265883260E+02  0.11474118964E+02  0.20812982798E+02  0.46142317847E+02  0.10000000786E+02 0.  0.
        -12    1    1    2    0    0  0.38265883260E+02 -0.11474118964E+02 -0.20812982798E+02  0.45045682153E+02  0.00000000000E+00 0.  1.
         11    1    3    3    0    0 -0.89536860221E+01  0.38156507943E+01  0.34200757529E+01  0.10316230066E+02  0.51100000000E-03 0. -1.
        -11    1    3    3    0    0 -0.27623923178E+02  0.81902339539E+01  0.17978659694E+02  0.33961644080E+02  0.51100000000E-03 0.  1.
        -12    1    3    3    0    0 -0.16882740595E+01 -0.53176578473E+00 -0.58575264798E+00  0.18644437011E+01  0.00000000000E+00 0.  1.
</event>
<event>
 7    1  0.4141894E-008  0.4614232E+02  0.7816164E-02  0.1320468E+00
        -11   -1    0    0    0    0  0.00000000000E+00  0.00000000000E+00  0.45593999997E+02  0.45594000000E+02  0.51100000000E-03 0.  1.
         11   -1    0    0    0    0 -0.00000000000E+00 -0.00000000000E+00 -0.45593999997E+02  0.45594000000E+02  0.51100000000E-03 0. -1.
    9900012    2    1    2    0    0 -0.63491264012E+01  0.11279608454E+02 -0.43145941889E+02  0.46142320136E+02  0.10000021657E+02 0.  0.
        -12    1    1    2    0    0  0.63491264012E+01 -0.11279608454E+02  0.43145941889E+02  0.45045679864E+02  0.00000000000E+00 0.  1.
         11    1    3    3    0    0 -0.51424393201E+01  0.47593798518E+01 -0.14052436243E+02  0.15702462971E+02  0.51100000000E-03 0. -1.
        -11    1    3    3    0    0 -0.28407150216E+01  0.73835139333E+00 -0.10212325679E+02  0.10625743299E+02  0.51100000000E-03 0.  1.
        -12    1    3    3    0    0  0.16340279404E+01  0.57818772087E+01 -0.18881179967E+02  0.19814113866E+02  0.00000000000E+00 0.  1.
</event>
<event>
 7    1  0.4141894E-008  0.4614232E+02  0.7816164E-02  0.1320468E+00
        -11   -1    0    0    0    0  0.00000000000E+00  0.00000000000E+00  0.45593999997E+02  0.45594000000E+02  0.51100000000E-03 0.  1.
         11   -1    0    0    0    0 -0.00000000000E+00 -0.00000000000E+00 -0.45593999997E+02  0.45594000000E+02  0.51100000000E-03 0. -1.
    9900012    2    1    2    0    0 -0.11796003941E+02  0.20284915041E+02 -0.38451137866E+02  0.46142317739E+02  0.99999997958E+01 0.  0.
        -12    1    1    2    0    0  0.11796003941E+02 -0.20284915041E+02  0.38451137866E+02  0.45045682261E+02  0.00000000000E+00 0.  1.
         11    1    3    3    0    0 -0.79607093086E+01  0.72087725918E+01 -0.16185293977E+02  0.19424289854E+02  0.51100000000E-03 0. -1.
        -11    1    3    3    0    0 -0.10448872329E+01 -0.27169033041E-01 -0.35548095829E+01  0.37052933646E+01  0.51100000000E-03 0.  1.
        -12    1    3    3    0    0 -0.27904073995E+01  0.13103311483E+02 -0.18711034306E+02  0.23012734520E+02  0.00000000000E+00 0.  1.
</event>
<event>
 7    1  0.4141894E-008  0.4614232E+02  0.7816164E-02  0.1320468E+00
        -11   -1    0    0    0    0  0.00000000000E+00  0.00000000000E+00  0.45593999997E+02  0.45594000000E+02  0.51100000000E-03 0.  1.
         11   -1    0    0    0    0 -0.00000000000E+00 -0.00000000000E+00 -0.45593999997E+02  0.45594000000E+02  0.51100000000E-03 0. -1.
    9900012    2    1    2    0    0 -0.21216506975E+02  0.24384423973E+02 -0.31374722872E+02  0.46142317232E+02  0.99999951774E+01 0.  0.
        -12    1    1    2    0    0  0.21216506975E+02 -0.24384423973E+02  0.31374722872E+02  0.45045682768E+02  0.00000000000E+00 0.  1.
         11    1    3    3    0    0 -0.73118394365E+01  0.48984042894E+01 -0.56368830943E+01  0.10451402385E+02  0.51100000000E-03 0. -1.
        -11    1    3    3    0    0 -0.26709090900E+01  0.72072074657E+01 -0.11255543071E+02  0.13629557766E+02  0.51100000000E-03 0.  1.
        -12    1    3    3    0    0 -0.11233758449E+02  0.12278812218E+02 -0.14482296706E+02  0.22061357081E+02  0.00000000000E+00 0.  1.
</event>
<event>
 7    1  0.4141894E-008  0.4614232E+02  0.7816164E-02  0.1320468E+00
        -11   -1    0    0    0    0  0.00000000000E+00  0.00000000000E+00  0.45593999997E+02  0.45594000000E+02  0.51100000000E-03 0.  1.
         11   -1    0    0    0    0 -0.00000000000E+00 -0.00000000000E+00 -0.45593999997E+02  0.45594000000E+02  0.51100000000E-03 0. -1.
    9900012    2    1    2    0    0  0.18516989116E+02 -0.16783648538E+02 -0.37477243362E+02  0.46142317475E+02  0.99999973908E+01 0.  0.
        -12    1    1    2    0    0 -0.18516989116E+02  0.16783648538E+02  0.37477243362E+02  0.45045682525E+02  0.00000000000E+00 0.  1.
         11    1    3    3    0    0  0.62924316458E+01 -0.70144658080E+01 -0.19621575075E+02  0.21767030925E+02  0.51100000000E-03 0. -1.
        -11    1    3    3    0    0  0.16762085627E+01 -0.31527253292E+00 -0.16661642130E+00  0.17137191161E+01  0.51100000000E-03 0.  1.
        -12    1    3    3    0    0  0.10548348907E+02 -0.94539101973E+01 -0.17689051865E+02  0.22661567434E+02  0.00000000000E+00 0.  1.
</event>
<event>
 7    1  0.4141894E-008  0.4614232E+02  0.7816164E-02  0.1320468E+00
        -11   -1    0    0    0    0  0.00000000000E+00  0.00000000000E+00  0.45593999997E+02  0.45594000000E+02  0.51100000000E-03 0. -1.
         11   -1    0    0    0    0 -0.00000000000E+00 -0.00000000000E+00 -0.45593999997E+02  0.45594000000E+02  0.51100000000E-03 0.  1.
    9900012    2    1    2    0    0  0.29146296731E+02 -0.32458982960E+02 -0.11225925459E+02  0.46142316629E+02  0.99999896807E+01 0.  0.
        -12    1    1    2    0    0 -0.29146296731E+02  0.32458982960E+02  0.11225925459E+02  0.45045683371E+02  0.00000000000E+00 0.  1.
         11    1    3    3    0    0  0.12011331123E+02 -0.15220815470E+02 -0.99452576360E+00  0.19414797982E+02  0.51100000000E-03 0. -1.
        -11    1    3    3    0    0  0.73313782225E+01 -0.44473736446E+01 -0.34309089782E+01  0.92357661108E+01  0.51100000000E-03 0.  1.
         12    1    3    3    0    0  0.98035873853E+01 -0.12790793845E+02 -0.68004907176E+01  0.17491752536E+02  0.00000000000E+00 0. -1.
</event>
<event>
 7    1  0.4141894E-008  0.4614232E+02  0.7816164E-02  0.1320468E+00
        -11   -1    0    0    0    0  0.00000000000E+00  0.00000000000E+00  0.45593999997E+02  0.45594000000E+02  0.51100000000E-03 0. -1.
         11   -1    0    0    0    0 -0.00000000000E+00 -0.00000000000E+00 -0.45593999997E+02  0.45594000000E+02  0.51100000000E-03 0.  1.
    9900012    2    1    2    0    0 -0.37602013061E+02 -0.24025095969E+02  0.61641460376E+01  0.46142319642E+02  0.10000017151E+02 0.  0.
        -12    1    1    2    0    0  0.37602013061E+02  0.24025095969E+02 -0.61641460376E+01  0.45045680358E+02  0.00000000000E+00 0.  1.
         11    1    3    3    0    0 -0.59069416940E+01 -0.95832308311E+00 -0.39710305157E+00  0.59973356086E+01  0.51100000000E-03 0. -1.
        -11    1    3    3    0    0 -0.95542515075E+01 -0.78799833935E+01 -0.46083552284E+00  0.12393152536E+02  0.51100000000E-03 0.  1.
         12    1    3    3    0    0 -0.22140819859E+02 -0.15186789493E+02  0.70220846120E+01  0.27751831497E+02  0.00000000000E+00 0. -1.
</event>
<event>
 7    1  0.4141894E-008  0.4614232E+02  0.7816164E-02  0.1320468E+00
        -11   -1    0    0    0    0  0.00000000000E+00  0.00000000000E+00  0.45593999997E+02  0.45594000000E+02  0.51100000000E-03 0.  1.
         11   -1    0    0    0    0 -0.00000000000E+00 -0.00000000000E+00 -0.45593999997E+02  0.45594000000E+02  0.51100000000E-03 0. -1.
    9900012    2    1    2    0    0  0.41867836232E+02 -0.15085834814E+02 -0.69724744033E+01  0.46142317387E+02  0.99999965877E+01 0.  0.
        -12    1    1    2    0    0 -0.41867836232E+02  0.15085834814E+02  0.69724744033E+01  0.45045682613E+02  0.00000000000E+00 0.  1.
         11    1    3    3    0    0  0.12604461277E+02 -0.51500335737E+01 -0.43352683630E+01  0.14289501108E+02  0.51100000000E-03 0. -1.
        -11    1    3    3    0    0  0.68382134893E+00  0.79288669466E+00 -0.71003200041E+00  0.12650797013E+01  0.51100000000E-03 0.  1.
         12    1    3    3    0    0  0.28579553606E+02 -0.10728687935E+02 -0.19271740399E+01  0.30587736577E+02  0.00000000000E+00 0. -1.
</event>
<event>
 7    1  0.4141894E-008  0.4614232E+02  0.7816164E-02  0.1320468E+00
        -11   -1    0    0    0    0  0.00000000000E+00  0.00000000000E+00  0.45593999997E+02  0.45594000000E+02  0.51100000000E-03 0.  1.
         11   -1    0    0    0    0 -0.00000000000E+00 -0.00000000000E+00 -0.45593999997E+02  0.45594000000E+02  0.51100000000E-03 0. -1.
    9900012    2    1    2    0    0  0.22610733743E+02  0.25379027738E+02 -0.29559654085E+02  0.46142317866E+02  0.10000000956E+02 0.  0.
        -12    1    1    2    0    0 -0.22610733743E+02 -0.25379027738E+02  0.29559654085E+02  0.45045682134E+02  0.00000000000E+00 0.  1.
         11    1    3    3    0    0  0.77977335159E+01  0.78938219397E+01 -0.13638850096E+02  0.17582244026E+02  0.51100000000E-03 0. -1.
        -11    1    3    3    0    0  0.11299627804E+02  0.13542407778E+02 -0.15094649842E+02  0.23214798105E+02  0.51100000000E-03 0.  1.
        -12    1    3    3    0    0  0.35133724228E+01  0.39427980199E+01 -0.82615414748E+00  0.53452757350E+01  0.00000000000E+00 0.  1.
</event>
<event>
 7    1  0.4141894E-008  0.4614232E+02  0.7816164E-02  0.1320468E+00
        -11   -1    0    0    0    0  0.00000000000E+00  0.00000000000E+00  0.45593999997E+02  0.45594000000E+02  0.51100000000E-03 0. -1.
         11   -1    0    0    0    0 -0.00000000000E+00 -0.00000000000E+00 -0.45593999997E+02  0.45594000000E+02  0.51100000000E-03 0.  1.
    9900012    2    1    2    0    0  0.15491440046E+02 -0.12192941566E+02  0.40502602228E+02  0.46142319564E+02  0.10000016437E+02 0.  0.
        -12    1    1    2    0    0 -0.15491440046E+02  0.12192941566E+02 -0.40502602228E+02  0.45045680436E+02  0.00000000000E+00 0.  1.
         11    1    3    3    0    0  0.40688774333E+01 -0.11662693375E+01  0.16389114021E+02  0.16926872316E+02  0.51100000000E-03 0. -1.
        -11    1    3    3    0    0  0.15130919704E+01 -0.10331623796E+01  0.60217068990E+01  0.62942693025E+01  0.51100000000E-03 0.  1.
        -12    1    3    3    0    0  0.99094706425E+01 -0.99935098490E+01  0.18091781308E+02  0.22921177945E+02  0.00000000000E+00 0.  1.
</event>
<event>
 7    1  0.4141894E-008  0.4614232E+02  0.7816164E-02  0.1320468E+00
        -11   -1    0    0    0    0  0.00000000000E+00  0.00000000000E+00  0.45593999997E+02  0.45594000000E+02  0.51100000000E-03 0.  1.
         11   -1    0    0    0    0 -0.00000000000E+00 -0.00000000000E+00 -0.45593999997E+02  0.45594000000E+02  0.51100000000E-03 0. -1.
    9900012    2    1    2    0    0  0.28807225174E+02 -0.30616841163E+02 -0.16182284644E+02  0.46142317395E+02  0.99999966617E+01 0.  0.
        -12    1    1    2    0    0 -0.28807225174E+02  0.30616841163E+02  0.16182284644E+02  0.45045682605E+02  0.00000000000E+00 0.  1.
         11    1    3    3    0    0  0.79898088507E+00 -0.50712873732E+00  0.52513646493E+00  0.10822747243E+01  0.51100000000E-03 0. -1.
        -11    1    3    3    0    0  0.38002592136E+01 -0.10682051313E+01 -0.72848976879E+00  0.40141910639E+01  0.51100000000E-03 0.  1.
         12    1    3    3    0    0  0.24207985076E+02 -0.29041507294E+02 -0.15978931341E+02  0.41045851607E+02  0.00000000000E+00 0. -1.
</event>
<event>
 7    1  0.4141894E-008  0.4614232E+02  0.7816164E-02  0.1320468E+00
        -11   -1    0    0    0    0  0.00000000000E+00  0.00000000000E+00  0.45593999997E+02  0.45594000000E+02  0.51100000000E-03 0. -1.
         11   -1    0    0    0    0 -0.00000000000E+00 -0.00000000000E+00 -0.45593999997E+02  0.45594000000E+02  0.51100000000E-03 0.  1.
    9900012    2    1    2    0    0 -0.12032254915E+02  0.42977615011E+02  0.61043437571E+01  0.46142316932E+02  0.99999924422E+01 0.  0.
        -12    1    1    2    0    0  0.12032254915E+02 -0.42977615011E+02 -0.61043437571E+01  0.45045683068E+02  0.00000000000E+00 0.  1.
         11    1    3    3    0    0 -0.54496630415E+01  0.97790976261E+01 -0.90820252335E+00  0.11231848010E+02  0.51100000000E-03 0. -1.
        -11    1    3    3    0    0 -0.20633226902E+01  0.31782904908E+01  0.18568307752E+00  0.37938515304E+01  0.51100000000E-03 0.  1.
         12    1    3    3    0    0 -0.45192691834E+01  0.30020226894E+02  0.68268632030E+01  0.31116617391E+02  0.00000000000E+00 0. -1.
</event>
<event>
 7    1  0.4141894E-008  0.4614232E+02  0.7816164E-02  0.1320468E+00
        -11   -1    0    0    0    0  0.00000000000E+00  0.00000000000E+00  0.45593999997E+02  0.45594000000E+02  0.51100000000E-03 0. -1.
         11   -1    0    0    0    0 -0.00000000000E+00 -0.00000000000E+00 -0.45593999997E+02  0.45594000000E+02  0.51100000000E-03 0.  1.
    9900012    2    1    2    0    0  0.68149809406E+01 -0.37542534004E+02 -0.23942172279E+02  0.46142318319E+02  0.10000005083E+02 0.  0.
        -12    1    1    2    0    0 -0.68149809406E+01  0.37542534004E+02  0.23942172279E+02  0.45045681681E+02  0.00000000000E+00 0.  1.
         11    1    3    3    0    0  0.76303290234E+00 -0.14243459612E+02 -0.10116203721E+02  0.17487022013E+02  0.51100000000E-03 0. -1.
        -11    1    3    3    0    0  0.78052636298E+00 -0.10575665272E+02 -0.94514303220E+01  0.14205050255E+02  0.51100000000E-03 0.  1.
         12    1    3    3    0    0  0.52714216753E+01 -0.12723409120E+02 -0.43745382368E+01  0.14450246050E+02  0.00000000000E+00 0. -1.
</event>
<event>
 7    1  0.4141894E-008  0.4614232E+02  0.7816164E-02  0.1320468E+00
        -11   -1    0    0    0    0  0.00000000000E+00  0.00000000000E+00  0.45593999997E+02  0.45594000000E+02  0.51100000000E-03 0.  1.
         11   -1    0    0    0    0 -0.00000000000E+00 -0.00000000000E+00 -0.45593999997E+02  0.45594000000E+02  0.51100000000E-03 0. -1.
    9900012    2    1    2    0    0 -0.42412978867E+02 -0.14788702945E+02 -0.33980589808E+01  0.46142319674E+02  0.10000017445E+02 0.  0.
        -12    1    1    2    0    0  0.42412978867E+02  0.14788702945E+02  0.33980589808E+01  0.45045680326E+02  0.00000000000E+00 0.  1.
         11    1    3    3    0    0 -0.12201320697E+02 -0.30076712019E+01 -0.27265379654E+01  0.12858939394E+02  0.51100000000E-03 0. -1.
        -11    1    3    3    0    0 -0.49107541537E+01  0.77995262917E-01  0.18026728636E+01  0.52317510772E+01  0.51100000000E-03 0.  1.
         12    1    3    3    0    0 -0.25300904017E+02 -0.11859027006E+02 -0.24741938789E+01  0.28051629203E+02  0.00000000000E+00 0. -1.
</event>
<event>
 7    1  0.4141894E-008  0.4614232E+02  0.7816164E-02  0.1320468E+00
        -11   -1    0    0    0    0  0.00000000000E+00  0.00000000000E+00  0.45593999997E+02  0.45594000000E+02  0.51100000000E-03 0.  1.
         11   -1    0    0    0    0 -0.00000000000E+00 -0.00000000000E+00 -0.45593999997E+02  0.45594000000E+02  0.51100000000E-03 0. -1.
    9900012    2    1    2    0    0  0.28470236466E+02 -0.14692216490E+02 -0.31665407149E+02  0.46142316525E+02  0.99999887254E+01 0.  0.
        -12    1    1    2    0    0 -0.28470236466E+02  0.14692216490E+02  0.31665407149E+02  0.45045683475E+02  0.00000000000E+00 0.  1.
         11    1    3    3    0    0  0.13041944341E+01 -0.67497231366E+00 -0.27492850183E+00  0.14940203106E+01  0.51100000000E-03 0. -1.
        -11    1    3    3    0    0  0.84652346639E+01 -0.17516225004E+01 -0.47452842381E+01  0.98613438263E+01  0.51100000000E-03 0.  1.
         12    1    3    3    0    0  0.18700807368E+02 -0.12265621676E+02 -0.26645194410E+02  0.34786952388E+02  0.00000000000E+00 0. -1.
</event>
<event>
 7    1  0.4141894E-008  0.4614232E+02  0.7816164E-02  0.1320468E+00
        -11   -1    0    0    0    0  0.00000000000E+00  0.00000000000E+00  0.45593999997E+02  0.45594000000E+02  0.51100000000E-03 0. -1.
         11   -1    0    0    0    0 -0.00000000000E+00 -0.00000000000E+00 -0.45593999997E+02  0.45594000000E+02  0.51100000000E-03 0.  1.
    9900012    2    1    2    0    0 -0.31308359782E+02  0.13610921171E+02  0.29387803046E+02  0.46142317240E+02  0.99999952519E+01 0.  0.
        -12    1    1    2    0    0  0.31308359782E+02 -0.13610921171E+02 -0.29387803046E+02  0.45045682760E+02  0.00000000000E+00 0.  1.
         11    1    3    3    0    0 -0.27035429785E+02  0.12854617600E+02  0.25082831849E+02  0.39055141929E+02  0.51100000000E-03 0. -1.
        -11    1    3    3    0    0 -0.78583905640E+00  0.13239882596E+01  0.29033129306E+01  0.32862918569E+01  0.51100000000E-03 0.  1.
         12    1    3    3    0    0 -0.34870909412E+01 -0.56768468801E+00  0.14016582665E+01  0.38008834543E+01  0.00000000000E+00 0. -1.
</event>
<event>
 7    1  0.4141894E-008  0.4614232E+02  0.7816164E-02  0.1320468E+00
        -11   -1    0    0    0    0  0.00000000000E+00  0.00000000000E+00  0.45593999997E+02  0.45594000000E+02  0.51100000000E-03 0. -1.
         11   -1    0    0    0    0 -0.00000000000E+00 -0.00000000000E+00 -0.45593999997E+02  0.45594000000E+02  0.51100000000E-03 0.  1.
    9900012    2    1    2    0    0 -0.31556381092E+02  0.15917961495E+01  0.32105674703E+02  0.46142319289E+02  0.10000013936E+02 0.  0.
        -12    1    1    2    0    0  0.31556381092E+02 -0.15917961495E+01 -0.32105674703E+02  0.45045680711E+02  0.00000000000E+00 0.  1.
         11    1    3    3    0    0 -0.32298478046E+00  0.22090638254E+00  0.16713685323E+01  0.17165639604E+01  0.51100000000E-03 0. -1.
        -11    1    3    3    0    0 -0.64567434744E+01  0.83540022480E+00  0.11586622254E+02  0.13290494549E+02  0.51100000000E-03 0.  1.
         12    1    3    3    0    0 -0.24776652837E+02  0.53548954215E+00  0.18847683916E+02  0.31135260780E+02  0.00000000000E+00 0. -1.
</event>
<event>
 7    1  0.4141894E-008  0.4614232E+02  0.7816164E-02  0.1320468E+00
        -11   -1    0    0    0    0  0.00000000000E+00  0.00000000000E+00  0.45593999997E+02  0.45594000000E+02  0.51100000000E-03 0. -1.
         11   -1    0    0    0    0 -0.00000000000E+00 -0.00000000000E+00 -0.45593999997E+02  0.45594000000E+02  0.51100000000E-03 0.  1.
    9900012    2    1    2    0    0  0.30456835662E+02  0.17135799748E+02  0.28422861064E+02  0.46142317603E+02  0.99999985625E+01 0.  0.
        -12    1    1    2    0    0 -0.30456835662E+02 -0.17135799748E+02 -0.28422861064E+02  0.45045682397E+02  0.00000000000E+00 0.  1.
         11    1    3    3    0    0  0.15995002807E+02  0.10436112399E+02  0.16679542348E+02  0.25356649818E+02  0.51100000000E-03 0. -1.
        -11    1    3    3    0    0  0.74260352034E+01  0.62526049526E+01  0.45762178919E+01  0.10732326774E+02  0.51100000000E-03 0.  1.
         12    1    3    3    0    0  0.70357976510E+01  0.44708239559E+00  0.71671008247E+01  0.10053341011E+02  0.00000000000E+00 0. -1.
</event>
<event>
 7    1  0.4141894E-008  0.4614232E+02  0.7816164E-02  0.1320468E+00
        -11   -1    0    0    0    0  0.00000000000E+00  0.00000000000E+00  0.45593999997E+02  0.45594000000E+02  0.51100000000E-03 0. -1.
         11   -1    0    0    0    0 -0.00000000000E+00 -0.00000000000E+00 -0.45593999997E+02  0.45594000000E+02  0.51100000000E-03 0.  1.
    9900012    2    1    2    0    0 -0.39484248503E+01 -0.33035053855E+01  0.44750534524E+02  0.46142317113E+02  0.99999940868E+01 0.  0.
        -12    1    1    2    0    0  0.39484248503E+01  0.33035053855E+01 -0.44750534524E+02  0.45045682887E+02  0.00000000000E+00 0.  1.
         11    1    3    3    0    0  0.21822318396E+01  0.50077711464E+00  0.11600079251E+02  0.11814175909E+02  0.51100000000E-03 0. -1.
        -11    1    3    3    0    0 -0.30060895306E+01  0.99367518416E+00  0.10653556521E+02  0.11114055580E+02  0.51100000000E-03 0.  1.
         12    1    3    3    0    0 -0.31245671592E+01 -0.47979576843E+01  0.22496898752E+02  0.23214085623E+02  0.00000000000E+00 0. -1.
</event>
<event>
 7    1  0.4141894E-008  0.4614232E+02  0.7816164E-02  0.1320468E+00
        -11   -1    0    0    0    0  0.00000000000E+00  0.00000000000E+00  0.45593999997E+02  0.45594000000E+02  0.51100000000E-03 0.  1.
         11   -1    0    0    0    0 -0.00000000000E+00 -0.00000000000E+00 -0.45593999997E+02  0.45594000000E+02  0.51100000000E-03 0. -1.
    9900012    2    1    2    0    0 -0.85745052126E+01 -0.52910480327E+01 -0.43904397352E+02  0.46142318345E+02  0.10000005323E+02 0.  0.
        -12    1    1    2    0    0  0.85745052126E+01  0.52910480327E+01  0.43904397352E+02  0.45045681655E+02  0.00000000000E+00 0.  1.
         11    1    3    3    0    0 -0.61524170409E+01 -0.59521650391E+01 -0.21967217470E+02  0.23576241171E+02  0.51100000000E-03 0. -1.
        -11    1    3    3    0    0 -0.18490328043E+01 -0.16597353878E+01 -0.67678639708E+01  0.72095510857E+01  0.51100000000E-03 0.  1.
        -12    1    3    3    0    0 -0.57305536743E+00  0.23208523942E+01 -0.15169315911E+02  0.15356526088E+02  0.00000000000E+00 0.  1.
</event>
<event>
 7    1  0.4141894E-008  0.4614232E+02  0.7816164E-02  0.1320468E+00
        -11   -1    0    0    0    0  0.00000000000E+00  0.00000000000E+00  0.45593999997E+02  0.45594000000E+02  0.51100000000E-03 0. -1.
         11   -1    0    0    0    0 -0.00000000000E+00 -0.00000000000E+00 -0.45593999997E+02  0.45594000000E+02  0.51100000000E-03 0.  1.
    9900012    2    1    2    0    0 -0.76033630187E+00  0.40560557058E+02  0.19580004357E+02  0.46142317956E+02  0.10000001780E+02 0.  0.
        -12    1    1    2    0    0  0.76033630187E+00 -0.40560557058E+02 -0.19580004357E+02  0.45045682044E+02  0.00000000000E+00 0.  1.
         11    1    3    3    0    0 -0.15456538070E+01  0.78795003778E+01  0.68782990030E+01  0.10572916784E+02  0.51100000000E-03 0. -1.
        -11    1    3    3    0    0  0.17181416591E+00  0.37610293444E+00  0.12053811190E+01  0.12743301881E+01  0.51100000000E-03 0.  1.
        -12    1    3    3    0    0  0.61350333921E+00  0.32304953746E+02  0.11496324235E+02  0.34295070984E+02  0.00000000000E+00 0.  1.
</event>
<event>
 7    1  0.4141894E-008  0.4614232E+02  0.7816164E-02  0.1320468E+00
        -11   -1    0    0    0    0  0.00000000000E+00  0.00000000000E+00  0.45593999997E+02  0.45594000000E+02  0.51100000000E-03 0.  1.
         11   -1    0    0    0    0 -0.00000000000E+00 -0.00000000000E+00 -0.45593999997E+02  0.45594000000E+02  0.51100000000E-03 0. -1.
    9900012    2    1    2    0    0  0.10912407252E+02  0.14163994098E+02 -0.41345062096E+02  0.46142317404E+02  0.99999967394E+01 0.  0.
        -12    1    1    2    0    0 -0.10912407252E+02 -0.14163994098E+02  0.41345062096E+02  0.45045682596E+02  0.00000000000E+00 0.  1.
         11    1    3    3    0    0  0.47345903059E+01  0.52280639399E+01 -0.18029620252E+02  0.19360170573E+02  0.51100000000E-03 0. -1.
        -11    1    3    3    0    0  0.35009098127E+01  0.93753091908E+01 -0.14971373385E+02  0.18008187395E+02  0.51100000000E-03 0.  1.
         12    1    3    3    0    0  0.26769071336E+01 -0.43937903253E+00 -0.83440684583E+01  0.87739594354E+01  0.00000000000E+00 0. -1.
</event>
<event>
 7    1  0.4141894E-008  0.4614232E+02  0.7816164E-02  0.1320468E+00
        -11   -1    0    0    0    0  0.00000000000E+00  0.00000000000E+00  0.45593999997E+02  0.45594000000E+02  0.51100000000E-03 0.  1.
         11   -1    0    0    0    0 -0.00000000000E+00 -0.00000000000E+00 -0.45593999997E+02  0.45594000000E+02  0.51100000000E-03 0. -1.
    9900012    2    1    2    0    0 -0.12109480395E+02  0.25118038801E+02 -0.35377366953E+02  0.46142317841E+02  0.10000000728E+02 0.  0.
        -12    1    1    2    0    0  0.12109480395E+02 -0.25118038801E+02  0.35377366953E+02  0.45045682159E+02  0.00000000000E+00 0.  1.
         11    1    3    3    0    0 -0.16485736203E+01  0.90529408159E+01 -0.15588264417E+02  0.18101588885E+02  0.51100000000E-03 0. -1.
        -11    1    3    3    0    0 -0.25499200643E+01  0.68100576646E+01 -0.47273602754E+01  0.86733449813E+01  0.51100000000E-03 0.  1.
         12    1    3    3    0    0 -0.79109867100E+01  0.92550403205E+01 -0.15061742261E+02  0.19367383974E+02  0.00000000000E+00 0. -1.
</event>
<event>
 7    1  0.4141894E-008  0.4614232E+02  0.7816164E-02  0.1320468E+00
        -11   -1    0    0    0    0  0.00000000000E+00  0.00000000000E+00  0.45593999997E+02  0.45594000000E+02  0.51100000000E-03 0.  1.
         11   -1    0    0    0    0 -0.00000000000E+00 -0.00000000000E+00 -0.45593999997E+02  0.45594000000E+02  0.51100000000E-03 0. -1.
    9900012    2    1    2    0    0 -0.26767459860E+02  0.45763137253E+00 -0.36227159997E+02  0.46142318129E+02  0.10000003352E+02 0.  0.
        -12    1    1    2    0    0  0.26767459860E+02 -0.45763137253E+00  0.36227159997E+02  0.45045681871E+02  0.00000000000E+00 0.  1.
         11    1    3    3    0    0 -0.13382964949E+02  0.31927092828E+01 -0.13727883028E+02  0.19435841017E+02  0.51100000000E-03 0. -1.
        -11    1    3    3    0    0 -0.11917129039E+02 -0.77984564783E+00 -0.18562405904E+02  0.22072359117E+02  0.51100000000E-03 0.  1.
        -12    1    3    3    0    0 -0.14673658722E+01 -0.19552322624E+01 -0.39368710654E+01  0.46341179947E+01  0.00000000000E+00 0.  1.
</event>
<event>
 7    1  0.4141894E-008  0.4614232E+02  0.7816164E-02  0.1320468E+00
        -11   -1    0    0    0    0  0.00000000000E+00  0.00000000000E+00  0.45593999997E+02  0.45594000000E+02  0.51100000000E-03 0.  1.
         11   -1    0    0    0    0 -0.00000000000E+00 -0.00000000000E+00 -0.45593999997E+02  0.45594000000E+02  0.51100000000E-03 0. -1.
    9900012    2    1    2    0    0 -0.21864881025E+02 -0.32145937992E+02 -0.22752562982E+02  0.46142317922E+02  0.10000001469E+02 0.  0.
        -12    1    1    2    0    0  0.21864881025E+02  0.32145937992E+02  0.22752562982E+02  0.45045682078E+02  0.00000000000E+00 0.  1.
         11    1    3    3    0    0 -0.50891925936E+01 -0.40390989502E+01 -0.48349485351E+01  0.80988227035E+01  0.51100000000E-03 0. -1.
        -11    1    3    3    0    0 -0.14573701474E+02 -0.17734395029E+02 -0.12446772078E+02  0.26111753620E+02  0.51100000000E-03 0.  1.
         12    1    3    3    0    0 -0.22019869577E+01 -0.10372444012E+02 -0.54708423688E+01  0.11931741599E+02  0.00000000000E+00 0. -1.
</event>
<event>
 7    1  0.4141894E-008  0.4614232E+02  0.7816164E-02  0.1320468E+00
        -11   -1    0    0    0    0  0.00000000000E+00  0.00000000000E+00  0.45593999997E+02  0.45594000000E+02  0.51100000000E-03 0.  1.
         11   -1    0    0    0    0 -0.00000000000E+00 -0.00000000000E+00 -0.45593999997E+02  0.45594000000E+02  0.51100000000E-03 0. -1.
    9900012    2    1    2    0    0 -0.51301482369E+01  0.32549070568E+02 -0.30714051613E+02  0.46142318939E+02  0.10000010742E+02 0.  0.
        -12    1    1    2    0    0  0.51301482369E+01 -0.32549070568E+02  0.30714051613E+02  0.45045681061E+02  0.00000000000E+00 0.  1.
         11    1    3    3    0    0 -0.14312869257E+01  0.67629019523E+01 -0.84626845271E+01  0.10927143028E+02  0.51100000000E-03 0. -1.
        -11    1    3    3    0    0 -0.26783005323E+01  0.18698663621E+01 -0.36597561350E+01  0.49054570819E+01  0.51100000000E-03 0.  1.
         12    1    3    3    0    0 -0.10205607789E+01  0.23916302253E+02 -0.18591610951E+02  0.30309718830E+02  0.00000000000E+00 0. -1.
</event>
<event>
 7    1  0.4141894E-008  0.4614232E+02  0.7816164E-02  0.1320468E+00
        -11   -1    0    0    0    0  0.00000000000E+00  0.00000000000E+00  0.45593999997E+02  0.45594000000E+02  0.51100000000E-03 0.  1.
         11   -1    0    0    0    0 -0.00000000000E+00 -0.00000000000E+00 -0.45593999997E+02  0.45594000000E+02  0.51100000000E-03 0. -1.
    9900012    2    1    2    0    0  0.15575418666E+02 -0.30182917278E+02 -0.29589041536E+02  0.46142317176E+02  0.99999946652E+01 0.  0.
        -12    1    1    2    0    0 -0.15575418666E+02  0.30182917278E+02  0.29589041536E+02  0.45045682824E+02  0.00000000000E+00 0.  1.
         11    1    3    3    0    0 -0.49484112202E+00 -0.44908143698E+01 -0.21195130833E+01  0.49904526259E+01  0.51100000000E-03 0. -1.
        -11    1    3    3    0    0  0.33225145573E+01 -0.45849105157E+01 -0.29775816614E+01  0.63973822953E+01  0.51100000000E-03 0.  1.
         12    1    3    3    0    0  0.12747745231E+02 -0.21107192393E+02 -0.24491946791E+02  0.34754482255E+02  0.00000000000E+00 0. -1.
</event>
<event>
 7    1  0.4141894E-008  0.4614232E+02  0.7816164E-02  0.1320468E+00
        -11   -1    0    0    0    0  0.00000000000E+00  0.00000000000E+00  0.45593999997E+02  0.45594000000E+02  0.51100000000E-03 0. -1.
         11   -1    0    0    0    0 -0.00000000000E+00 -0.00000000000E+00 -0.45593999997E+02  0.45594000000E+02  0.51100000000E-03 0.  1.
    9900012    2    1    2    0    0 -0.35575102086E+02 -0.19728851369E+00  0.27631261272E+02  0.46142318624E+02  0.10000007867E+02 0.  0.
        -12    1    1    2    0    0  0.35575102086E+02  0.19728851369E+00 -0.27631261272E+02  0.45045681376E+02  0.00000000000E+00 0.  1.
         11    1    3    3    0    0 -0.31868012239E+02 -0.10072155053E+00  0.22120543126E+02  0.38793024854E+02  0.51100000000E-03 0. -1.
        -11    1    3    3    0    0 -0.27233983674E+01 -0.46968553133E-01  0.57262376065E+01  0.63410489748E+01  0.51100000000E-03 0.  1.
         12    1    3    3    0    0 -0.98369147920E+00 -0.49598410034E-01 -0.21551946052E+00  0.10082447949E+01  0.00000000000E+00 0. -1.
</event>
<event>
 7    1  0.4141894E-008  0.4614232E+02  0.7816164E-02  0.1320468E+00
        -11   -1    0    0    0    0  0.00000000000E+00  0.00000000000E+00  0.45593999997E+02  0.45594000000E+02  0.51100000000E-03 0.  1.
         11   -1    0    0    0    0 -0.00000000000E+00 -0.00000000000E+00 -0.45593999997E+02  0.45594000000E+02  0.51100000000E-03 0. -1.
    9900012    2    1    2    0    0 -0.38511253675E+02 -0.18689868892E+02 -0.14024467195E+02  0.46142317200E+02  0.99999948818E+01 0.  0.
        -12    1    1    2    0    0  0.38511253675E+02  0.18689868892E+02  0.14024467195E+02  0.45045682800E+02  0.00000000000E+00 0.  1.
         11    1    3    3    0    0 -0.20681750286E+02 -0.13301431409E+02 -0.77508028176E+01  0.25782509905E+02  0.51100000000E-03 0. -1.
        -11    1    3    3    0    0 -0.87763787194E+01 -0.52116927854E+01 -0.22553150241E+01  0.10453373199E+02  0.51100000000E-03 0.  1.
        -12    1    3    3    0    0 -0.90531246698E+01 -0.17674469759E+00 -0.40183493535E+01  0.99064340962E+01  0.00000000000E+00 0.  1.
</event>
<event>
 7    1  0.4141894E-008  0.4614232E+02  0.7816164E-02  0.1320468E+00
        -11   -1    0    0    0    0  0.00000000000E+00  0.00000000000E+00  0.45593999997E+02  0.45594000000E+02  0.51100000000E-03 0.  1.
         11   -1    0    0    0    0 -0.00000000000E+00 -0.00000000000E+00 -0.45593999997E+02  0.45594000000E+02  0.51100000000E-03 0. -1.
    9900012    2    1    2    0    0 -0.37620934782E+02 -0.24514595954E+02 -0.35795769743E+01  0.46142317410E+02  0.99999967960E+01 0.  0.
        -12    1    1    2    0    0  0.37620934782E+02  0.24514595954E+02  0.35795769743E+01  0.45045682590E+02  0.00000000000E+00 0.  1.
         11    1    3    3    0    0 -0.63198539071E+01 -0.62822907203E+01 -0.31510412181E+01  0.94518141709E+01  0.51100000000E-03 0. -1.
        -11    1    3    3    0    0 -0.18721752050E+02 -0.10926351406E+02 -0.31084504003E+01  0.21898667061E+02  0.51100000000E-03 0.  1.
        -12    1    3    3    0    0 -0.12579328825E+02 -0.73059538281E+01  0.26799146441E+01  0.14791836178E+02  0.00000000000E+00 0.  1.
</event>
<event>
 7    1  0.4141894E-008  0.4614232E+02  0.7816164E-02  0.1320468E+00
        -11   -1    0    0    0    0  0.00000000000E+00  0.00000000000E+00  0.45593999997E+02  0.45594000000E+02  0.51100000000E-03 0.  1.
         11   -1    0    0    0    0 -0.00000000000E+00 -0.00000000000E+00 -0.45593999997E+02  0.45594000000E+02  0.51100000000E-03 0. -1.
    9900012    2    1    2    0    0 -0.36225424526E+02 -0.19300329598E+01 -0.26704064983E+02  0.46142317677E+02  0.99999992341E+01 0.  0.
        -12    1    1    2    0    0  0.36225424526E+02  0.19300329598E+01  0.26704064983E+02  0.45045682323E+02  0.00000000000E+00 0.  1.
         11    1    3    3    0    0 -0.67425791741E+01  0.36844842415E+00 -0.48093920915E+01  0.82902581812E+01  0.51100000000E-03 0. -1.
        -11    1    3    3    0    0 -0.26144784703E+02 -0.30245394924E+00 -0.15582113440E+02  0.30437534478E+02  0.51100000000E-03 0.  1.
        -12    1    3    3    0    0 -0.33380606487E+01 -0.19960274348E+01 -0.63125594518E+01  0.74145250183E+01  0.00000000000E+00 0.  1.
</event>
<event>
 7    1  0.4141894E-008  0.4614232E+02  0.7816164E-02  0.1320468E+00
        -11   -1    0    0    0    0  0.00000000000E+00  0.00000000000E+00  0.45593999997E+02  0.45594000000E+02  0.51100000000E-03 0.  1.
         11   -1    0    0    0    0 -0.00000000000E+00 -0.00000000000E+00 -0.45593999997E+02  0.45594000000E+02  0.51100000000E-03 0. -1.
    9900012    2    1    2    0    0 -0.33000179011E+02 -0.22828556623E+02 -0.20468480562E+02  0.46142317535E+02  0.99999979349E+01 0.  0.
        -12    1    1    2    0    0  0.33000179011E+02  0.22828556623E+02  0.20468480562E+02  0.45045682465E+02  0.00000000000E+00 0.  1.
         11    1    3    3    0    0 -0.89652087868E+01 -0.88492112357E+01 -0.68340194476E+01  0.14331340836E+02  0.51100000000E-03 0. -1.
        -11    1    3    3    0    0 -0.16607085284E+02 -0.13279866486E+02 -0.10559735293E+02  0.23741485742E+02  0.51100000000E-03 0.  1.
        -12    1    3    3    0    0 -0.74278849408E+01 -0.69947890086E+00 -0.30747258215E+01  0.80694909569E+01  0.00000000000E+00 0.  1.
</event>
<event>
 7    1  0.4141894E-008  0.4614232E+02  0.7816164E-02  0.1320468E+00
        -11   -1    0    0    0    0  0.00000000000E+00  0.00000000000E+00  0.45593999997E+02  0.45594000000E+02  0.51100000000E-03 0.  1.
         11   -1    0    0    0    0 -0.00000000000E+00 -0.00000000000E+00 -0.45593999997E+02  0.45594000000E+02  0.51100000000E-03 0. -1.
    9900012    2    1    2    0    0 -0.15009743295E+02 -0.23168058153E+02 -0.35595818014E+02  0.46142316828E+02  0.99999914888E+01 0.  0.
        -12    1    1    2    0    0  0.15009743295E+02  0.23168058153E+02  0.35595818014E+02  0.45045683172E+02  0.00000000000E+00 0.  1.
         11    1    3    3    0    0 -0.10576184643E+02 -0.15047178277E+02 -0.25567494610E+02  0.31495555824E+02  0.51100000000E-03 0. -1.
        -11    1    3    3    0    0 -0.55826046145E+01 -0.56365152632E+01 -0.76453126904E+01  0.11017558032E+02  0.51100000000E-03 0.  1.
        -12    1    3    3    0    0  0.11490459630E+01 -0.24843646126E+01 -0.23830107133E+01  0.36292029722E+01  0.00000000000E+00 0.  1.
</event>
<event>
 7    1  0.4141894E-008  0.4614232E+02  0.7816164E-02  0.1320468E+00
        -11   -1    0    0    0    0  0.00000000000E+00  0.00000000000E+00  0.45593999997E+02  0.45594000000E+02  0.51100000000E-03 0.  1.
         11   -1    0    0    0    0 -0.00000000000E+00 -0.00000000000E+00 -0.45593999997E+02  0.45594000000E+02  0.51100000000E-03 0. -1.
    9900012    2    1    2    0    0  0.27686120639E+02 -0.10650176005E+02 -0.33899350227E+02  0.46142317956E+02  0.10000001778E+02 0.  0.
        -12    1    1    2    0    0 -0.27686120639E+02  0.10650176005E+02  0.33899350227E+02  0.45045682044E+02  0.00000000000E+00 0.  1.
         11    1    3    3    0    0  0.60732514477E+01 -0.39873094237E+01 -0.64771479865E+01  0.97332659415E+01  0.51100000000E-03 0. -1.
        -11    1    3    3    0    0  0.41017277187E+01  0.36780024636E-01 -0.10025952136E+02  0.10832600775E+02  0.51100000000E-03 0.  1.
        -12    1    3    3    0    0  0.17511141473E+02 -0.66996466063E+01 -0.17396250104E+02  0.25576451240E+02  0.00000000000E+00 0.  1.
</event>
<event>
 7    1  0.4141894E-008  0.4614232E+02  0.7816164E-02  0.1320468E+00
        -11   -1    0    0    0    0  0.00000000000E+00  0.00000000000E+00  0.45593999997E+02  0.45594000000E+02  0.51100000000E-03 0.  1.
         11   -1    0    0    0    0 -0.00000000000E+00 -0.00000000000E+00 -0.45593999997E+02  0.45594000000E+02  0.51100000000E-03 0. -1.
    9900012    2    1    2    0    0 -0.41395141804E+02  0.48909952745E+01  0.17077290849E+02  0.46142318048E+02  0.10000002619E+02 0.  0.
        -12    1    1    2    0    0  0.41395141804E+02 -0.48909952745E+01 -0.17077290849E+02  0.45045681952E+02  0.00000000000E+00 0.  1.
         11    1    3    3    0    0 -0.14368984727E+02  0.91934053085E+00  0.85652802341E+01  0.16753415618E+02  0.51100000000E-03 0. -1.
        -11    1    3    3    0    0 -0.12438966617E+02  0.92848706656E+00  0.72662860671E+01  0.14435681217E+02  0.51100000000E-03 0.  1.
        -12    1    3    3    0    0 -0.14587190459E+02  0.30431676771E+01  0.12457245479E+01  0.14953221213E+02  0.00000000000E+00 0.  1.
</event>
<event>
 7    1  0.4141894E-008  0.4614232E+02  0.7816164E-02  0.1320468E+00
        -11   -1    0    0    0    0  0.00000000000E+00  0.00000000000E+00  0.45593999997E+02  0.45594000000E+02  0.51100000000E-03 0. -1.
         11   -1    0    0    0    0 -0.00000000000E+00 -0.00000000000E+00 -0.45593999997E+02  0.45594000000E+02  0.51100000000E-03 0.  1.
    9900012    2    1    2    0    0  0.99473947399E+01 -0.41590127174E+02  0.14157122849E+02  0.46142317989E+02  0.10000002081E+02 0.  0.
        -12    1    1    2    0    0 -0.99473947399E+01  0.41590127174E+02 -0.14157122849E+02  0.45045682011E+02  0.00000000000E+00 0.  1.
         11    1    3    3    0    0  0.16369919832E+01 -0.10770209624E+02  0.77094501967E+01  0.13345890030E+02  0.51100000000E-03 0. -1.
        -11    1    3    3    0    0  0.15020619219E+01 -0.18102127448E+01  0.64077215988E+00  0.24379600941E+01  0.51100000000E-03 0.  1.
         12    1    3    3    0    0  0.68083408349E+01 -0.29009704805E+02  0.58069004929E+01  0.30358467865E+02  0.00000000000E+00 0. -1.
</event>
<event>
 7    1  0.4141894E-008  0.4614232E+02  0.7816164E-02  0.1320468E+00
        -11   -1    0    0    0    0  0.00000000000E+00  0.00000000000E+00  0.45593999997E+02  0.45594000000E+02  0.51100000000E-03 0.  1.
         11   -1    0    0    0    0 -0.00000000000E+00 -0.00000000000E+00 -0.45593999997E+02  0.45594000000E+02  0.51100000000E-03 0. -1.
    9900012    2    1    2    0    0  0.11356857002E+02 -0.31272300467E+02 -0.30367391847E+02  0.46142318020E+02  0.10000002358E+02 0.  0.
        -12    1    1    2    0    0 -0.11356857002E+02  0.31272300467E+02  0.30367391847E+02  0.45045681980E+02  0.00000000000E+00 0.  1.
         11    1    3    3    0    0  0.90620538619E+01 -0.12359454519E+02 -0.12142413361E+02  0.19552880572E+02  0.51100000000E-03 0. -1.
        -11    1    3    3    0    0  0.22646723039E+01 -0.17171607225E+02 -0.14949136674E+02  0.22879456350E+02  0.51100000000E-03 0.  1.
         12    1    3    3    0    0  0.30130836408E-01 -0.17412387233E+01 -0.32758418126E+01  0.37099810970E+01  0.00000000000E+00 0. -1.
</event>
<event>
 7    1  0.4141894E-008  0.4614232E+02  0.7816164E-02  0.1320468E+00
        -11   -1    0    0    0    0  0.00000000000E+00  0.00000000000E+00  0.45593999997E+02  0.45594000000E+02  0.51100000000E-03 0. -1.
         11   -1    0    0    0    0 -0.00000000000E+00 -0.00000000000E+00 -0.45593999997E+02  0.45594000000E+02  0.51100000000E-03 0.  1.
    9900012    2    1    2    0    0 -0.12325908745E+02 -0.43252394171E+02 -0.25329576186E+01  0.46142317607E+02  0.99999985972E+01 0.  0.
        -12    1    1    2    0    0  0.12325908745E+02  0.43252394171E+02  0.25329576186E+01  0.45045682393E+02  0.00000000000E+00 0.  1.
         11    1    3    3    0    0 -0.21994322529E+01 -0.59026607725E+01 -0.57847186554E+00  0.63256253754E+01  0.51100000000E-03 0. -1.
        -11    1    3    3    0    0 -0.49988902196E+01 -0.67473866780E+01 -0.25692940442E+01  0.87816514710E+01  0.51100000000E-03 0.  1.
        -12    1    3    3    0    0 -0.51275862724E+01 -0.30602346721E+02  0.61480829116E+00  0.31035040761E+02  0.00000000000E+00 0.  1.
</event>
<event>
 7    1  0.4141894E-008  0.4614232E+02  0.7816164E-02  0.1320468E+00
        -11   -1    0    0    0    0  0.00000000000E+00  0.00000000000E+00  0.45593999997E+02  0.45594000000E+02  0.51100000000E-03 0. -1.
         11   -1    0    0    0    0 -0.00000000000E+00 -0.00000000000E+00 -0.45593999997E+02  0.45594000000E+02  0.51100000000E-03 0.  1.
    9900012    2    1    2    0    0 -0.44421760338E+02 -0.44631226868E+01 -0.59917690993E+01  0.46142317048E+02  0.99999935007E+01 0.  0.
        -12    1    1    2    0    0  0.44421760338E+02  0.44631226868E+01  0.59917690993E+01  0.45045682952E+02  0.00000000000E+00 0.  1.
         11    1    3    3    0    0 -0.24290264401E+02 -0.29065643607E+01  0.28398889118E+00  0.24465193868E+02  0.51100000000E-03 0. -1.
        -11    1    3    3    0    0 -0.12793209935E+02 -0.30177539137E+01 -0.28594173114E+01  0.13451740658E+02  0.51100000000E-03 0.  1.
        -12    1    3    3    0    0 -0.73382860019E+01  0.14611955876E+01 -0.34163406791E+01  0.82253825216E+01  0.00000000000E+00 0.  1.
</event>
<event>
 7    1  0.4141894E-008  0.4614232E+02  0.7816164E-02  0.1320468E+00
        -11   -1    0    0    0    0  0.00000000000E+00  0.00000000000E+00  0.45593999997E+02  0.45594000000E+02  0.51100000000E-03 0.  1.
         11   -1    0    0    0    0 -0.00000000000E+00 -0.00000000000E+00 -0.45593999997E+02  0.45594000000E+02  0.51100000000E-03 0. -1.
    9900012    2    1    2    0    0  0.38247687626E+02 -0.88288475513E+00 -0.23779156201E+02  0.46142319143E+02  0.10000012602E+02 0.  0.
        -12    1    1    2    0    0 -0.38247687626E+02  0.88288475513E+00  0.23779156201E+02  0.45045680857E+02  0.00000000000E+00 0.  1.
         11    1    3    3    0    0  0.16696696448E+02  0.77445699848E+00 -0.10494930799E+02  0.19736337772E+02  0.51100000000E-03 0. -1.
        -11    1    3    3    0    0  0.13329383939E+02 -0.84836488494E+00 -0.12170977356E+02  0.18069999702E+02  0.51100000000E-03 0.  1.
         12    1    3    3    0    0  0.82216072394E+01 -0.80897686868E+00 -0.11132480456E+01  0.83359816689E+01  0.00000000000E+00 0. -1.
</event>
<event>
 7    1  0.4141894E-008  0.4614232E+02  0.7816164E-02  0.1320468E+00
        -11   -1    0    0    0    0  0.00000000000E+00  0.00000000000E+00  0.45593999997E+02  0.45594000000E+02  0.51100000000E-03 0.  1.
         11   -1    0    0    0    0 -0.00000000000E+00 -0.00000000000E+00 -0.45593999997E+02  0.45594000000E+02  0.51100000000E-03 0. -1.
    9900012    2    1    2    0    0  0.28563478438E+01  0.42034331371E+02 -0.15939566071E+02  0.46142317595E+02  0.99999984818E+01 0.  0.
        -12    1    1    2    0    0 -0.28563478438E+01 -0.42034331371E+02  0.15939566071E+02  0.45045682405E+02  0.00000000000E+00 0.  1.
         11    1    3    3    0    0  0.16943277142E+01  0.14340208001E+02 -0.63134435382E+01  0.15759818574E+02  0.51100000000E-03 0. -1.
        -11    1    3    3    0    0 -0.23340988854E+01  0.65171549229E+01 -0.46808848239E+01  0.83565548458E+01  0.51100000000E-03 0.  1.
         12    1    3    3    0    0  0.34961190149E+01  0.21176968448E+02 -0.49452377084E+01  0.22025944175E+02  0.00000000000E+00 0. -1.
</event>
<event>
 7    1  0.4141894E-008  0.4614232E+02  0.7816164E-02  0.1320468E+00
        -11   -1    0    0    0    0  0.00000000000E+00  0.00000000000E+00  0.45593999997E+02  0.45594000000E+02  0.51100000000E-03 0. -1.
         11   -1    0    0    0    0 -0.00000000000E+00 -0.00000000000E+00 -0.45593999997E+02  0.45594000000E+02  0.51100000000E-03 0.  1.
    9900012    2    1    2    0    0  0.38724697710E+02 -0.82682305729E-01  0.23010962661E+02  0.46142318168E+02  0.10000003714E+02 0.  0.
        -12    1    1    2    0    0 -0.38724697710E+02  0.82682305729E-01 -0.23010962661E+02  0.45045681832E+02  0.00000000000E+00 0.  1.
         11    1    3    3    0    0  0.11961058504E+02  0.36871790908E+01  0.49608740485E+01  0.13463746944E+02  0.51100000000E-03 0. -1.
        -11    1    3    3    0    0  0.68962914405E+01 -0.15001466407E+01  0.64499019524E+01  0.95608844273E+01  0.51100000000E-03 0.  1.
        -12    1    3    3    0    0  0.19867347765E+02 -0.22697147558E+01  0.11600186661E+02  0.23117686798E+02  0.00000000000E+00 0.  1.
</event>
<event>
 7    1  0.4141894E-008  0.4614232E+02  0.7816164E-02  0.1320468E+00
        -11   -1    0    0    0    0  0.00000000000E+00  0.00000000000E+00  0.45593999997E+02  0.45594000000E+02  0.51100000000E-03 0.  1.
         11   -1    0    0    0    0 -0.00000000000E+00 -0.00000000000E+00 -0.45593999997E+02  0.45594000000E+02  0.51100000000E-03 0. -1.
    9900012    2    1    2    0    0  0.18960571418E+02  0.60441479710E+01 -0.40411366565E+02  0.46142317179E+02  0.99999946895E+01 0.  0.
        -12    1    1    2    0    0 -0.18960571418E+02 -0.60441479710E+01  0.40411366565E+02  0.45045682821E+02  0.00000000000E+00 0.  1.
         11    1    3    3    0    0  0.62245920259E+01  0.26956794912E+00 -0.90963337492E+01  0.11025493218E+02  0.51100000000E-03 0. -1.
        -11    1    3    3    0    0  0.97215351896E+01  0.37044358813E+01 -0.14128317363E+02  0.17545382396E+02  0.51100000000E-03 0.  1.
        -12    1    3    3    0    0  0.30144442023E+01  0.20701441406E+01 -0.17186715452E+02  0.17571441564E+02  0.00000000000E+00 0.  1.
</event>
<event>
 7    1  0.4141894E-008  0.4614232E+02  0.7816164E-02  0.1320468E+00
        -11   -1    0    0    0    0  0.00000000000E+00  0.00000000000E+00  0.45593999997E+02  0.45594000000E+02  0.51100000000E-03 0.  1.
         11   -1    0    0    0    0 -0.00000000000E+00 -0.00000000000E+00 -0.45593999997E+02  0.45594000000E+02  0.51100000000E-03 0. -1.
    9900012    2    1    2    0    0  0.42120789930E+02  0.57950780730E+01  0.14878495632E+02  0.46142317560E+02  0.99999981683E+01 0.  0.
        -12    1    1    2    0    0 -0.42120789930E+02 -0.57950780730E+01 -0.14878495632E+02  0.45045682440E+02  0.00000000000E+00 0.  1.
         11    1    3    3    0    0  0.75756138800E+01  0.41119098691E+01  0.37470461498E+01  0.93988341586E+01  0.51100000000E-03 0. -1.
        -11    1    3    3    0    0  0.15911693599E+02 -0.97033253981E+00  0.73127781350E+01  0.17538536505E+02  0.51100000000E-03 0.  1.
         12    1    3    3    0    0  0.18633482451E+02  0.26535007437E+01  0.38186713475E+01  0.19204946897E+02  0.00000000000E+00 0. -1.
</event>
<event>
 7    1  0.4141894E-008  0.4614232E+02  0.7816164E-02  0.1320468E+00
        -11   -1    0    0    0    0  0.00000000000E+00  0.00000000000E+00  0.45593999997E+02  0.45594000000E+02  0.51100000000E-03 0.  1.
         11   -1    0    0    0    0 -0.00000000000E+00 -0.00000000000E+00 -0.45593999997E+02  0.45594000000E+02  0.51100000000E-03 0. -1.
    9900012    2    1    2    0    0  0.39413375817E+02  0.69653908786E+01 -0.20668397154E+02  0.46142317584E+02  0.99999983834E+01 0.  0.
        -12    1    1    2    0    0 -0.39413375817E+02 -0.69653908786E+01  0.20668397154E+02  0.45045682416E+02  0.00000000000E+00 0.  1.
         11    1    3    3    0    0  0.69753356037E+01  0.35537720554E+01 -0.16572418000E+01  0.80019405928E+01  0.51100000000E-03 0. -1.
        -11    1    3    3    0    0  0.31997500629E+02  0.32137335775E+01 -0.17623131419E+02  0.36670736171E+02  0.51100000000E-03 0.  1.
        -12    1    3    3    0    0  0.44053958412E+00  0.19788524570E+00 -0.13880239350E+01  0.14696408200E+01  0.00000000000E+00 0.  1.
</event>
<event>
 7    1  0.4141894E-008  0.4614232E+02  0.7816164E-02  0.1320468E+00
        -11   -1    0    0    0    0  0.00000000000E+00  0.00000000000E+00  0.45593999997E+02  0.45594000000E+02  0.51100000000E-03 0.  1.
         11   -1    0    0    0    0 -0.00000000000E+00 -0.00000000000E+00 -0.45593999997E+02  0.45594000000E+02  0.51100000000E-03 0. -1.
    9900012    2    1    2    0    0  0.37848666919E+02 -0.23839544958E+02  0.53167667804E+01  0.46142317628E+02  0.99999987844E+01 0.  0.
        -12    1    1    2    0    0 -0.37848666919E+02  0.23839544958E+02 -0.53167667804E+01  0.45045682372E+02  0.00000000000E+00 0.  1.
         11    1    3    3    0    0  0.86735178777E+01 -0.52794190646E+01  0.20078981070E+01  0.10350547478E+02  0.51100000000E-03 0. -1.
        -11    1    3    3    0    0  0.94757288229E+01 -0.33244173879E+01 -0.22137332686E+01  0.10283083338E+02  0.51100000000E-03 0.  1.
        -12    1    3    3    0    0  0.19699420219E+02 -0.15235708506E+02  0.55226019420E+01  0.25508686811E+02  0.00000000000E+00 0.  1.
</event>
<event>
 7    1  0.4141894E-008  0.4614232E+02  0.7816164E-02  0.1320468E+00
        -11   -1    0    0    0    0  0.00000000000E+00  0.00000000000E+00  0.45593999997E+02  0.45594000000E+02  0.51100000000E-03 0. -1.
         11   -1    0    0    0    0 -0.00000000000E+00 -0.00000000000E+00 -0.45593999997E+02  0.45594000000E+02  0.51100000000E-03 0.  1.
    9900012    2    1    2    0    0  0.24494277239E+02  0.37326454699E+02  0.59899594897E+01  0.46142318158E+02  0.10000003622E+02 0.  0.
        -12    1    1    2    0    0 -0.24494277239E+02 -0.37326454699E+02 -0.59899594897E+01  0.45045681842E+02  0.00000000000E+00 0.  1.
         11    1    3    3    0    0  0.13903608880E+02  0.17411158524E+02  0.15389054375E+01  0.22334435547E+02  0.51100000000E-03 0. -1.
        -11    1    3    3    0    0  0.97315567391E+01  0.14456691129E+02  0.53049002489E+01  0.18216505754E+02  0.51100000000E-03 0.  1.
        -12    1    3    3    0    0  0.85911162069E+00  0.54586050464E+01 -0.85384619661E+00  0.55913768570E+01  0.00000000000E+00 0.  1.
</event>
<event>
 7    1  0.4141894E-008  0.4614232E+02  0.7816164E-02  0.1320468E+00
        -11   -1    0    0    0    0  0.00000000000E+00  0.00000000000E+00  0.45593999997E+02  0.45594000000E+02  0.51100000000E-03 0.  1.
         11   -1    0    0    0    0 -0.00000000000E+00 -0.00000000000E+00 -0.45593999997E+02  0.45594000000E+02  0.51100000000E-03 0. -1.
    9900012    2    1    2    0    0  0.56807324730E+01 -0.35124423799E+01 -0.44547788988E+02  0.46142317891E+02  0.10000001186E+02 0.  0.
        -12    1    1    2    0    0 -0.56807324730E+01  0.35124423799E+01  0.44547788988E+02  0.45045682109E+02  0.00000000000E+00 0.  1.
         11    1    3    3    0    0  0.65440758679E+01  0.14229831859E+00 -0.28527174339E+02  0.29268495926E+02  0.51100000000E-03 0. -1.
        -11    1    3    3    0    0  0.57730765713E+00  0.57613254332E+00 -0.29213151320E+01  0.30330339925E+01  0.51100000000E-03 0.  1.
         12    1    3    3    0    0 -0.14406510521E+01 -0.42308732418E+01 -0.13099299518E+02  0.13840787972E+02  0.00000000000E+00 0. -1.
</event>
<event>
 7    1  0.4141894E-008  0.4614232E+02  0.7816164E-02  0.1320468E+00
        -11   -1    0    0    0    0  0.00000000000E+00  0.00000000000E+00  0.45593999997E+02  0.45594000000E+02  0.51100000000E-03 0. -1.
         11   -1    0    0    0    0 -0.00000000000E+00 -0.00000000000E+00 -0.45593999997E+02  0.45594000000E+02  0.51100000000E-03 0.  1.
    9900012    2    1    2    0    0  0.41494691016E+02 -0.37195869085E+01  0.17130930676E+02  0.46142317687E+02  0.99999993201E+01 0.  0.
        -12    1    1    2    0    0 -0.41494691016E+02  0.37195869085E+01 -0.17130930676E+02  0.45045682313E+02  0.00000000000E+00 0.  1.
         11    1    3    3    0    0  0.30638626132E+01  0.17693460960E+00  0.32049224664E+01  0.44373514899E+01  0.51100000000E-03 0. -1.
        -11    1    3    3    0    0  0.11260531292E+02 -0.26485231371E+01  0.74059876022E+01  0.13735461128E+02  0.51100000000E-03 0.  1.
        -12    1    3    3    0    0  0.27170297111E+02 -0.12479983810E+01  0.65200206071E+01  0.27969505068E+02  0.00000000000E+00 0.  1.
</event>
<event>
 7    1  0.4141894E-008  0.4614232E+02  0.7816164E-02  0.1320468E+00
        -11   -1    0    0    0    0  0.00000000000E+00  0.00000000000E+00  0.45593999997E+02  0.45594000000E+02  0.51100000000E-03 0. -1.
         11   -1    0    0    0    0 -0.00000000000E+00 -0.00000000000E+00 -0.45593999997E+02  0.45594000000E+02  0.51100000000E-03 0.  1.
    9900012    2    1    2    0    0  0.24953798613E+02 -0.20426415080E+02  0.31451279030E+02  0.46142318177E+02  0.10000003797E+02 0.  0.
        -12    1    1    2    0    0 -0.24953798613E+02  0.20426415080E+02 -0.31451279030E+02  0.45045681823E+02  0.00000000000E+00 0.  1.
         11    1    3    3    0    0  0.16087880704E+02 -0.12346701687E+02  0.21445827191E+02  0.29515833925E+02  0.51100000000E-03 0. -1.
        -11    1    3    3    0    0  0.50066363357E+01 -0.69741657328E+01  0.91010238904E+01  0.12511356089E+02  0.51100000000E-03 0.  1.
         12    1    3    3    0    0  0.38592815732E+01 -0.11055476608E+01  0.90442794779E+00  0.41151281638E+01  0.00000000000E+00 0. -1.
</event>
<event>
 7    1  0.4141894E-008  0.4614232E+02  0.7816164E-02  0.1320468E+00
        -11   -1    0    0    0    0  0.00000000000E+00  0.00000000000E+00  0.45593999997E+02  0.45594000000E+02  0.51100000000E-03 0.  1.
         11   -1    0    0    0    0 -0.00000000000E+00 -0.00000000000E+00 -0.45593999997E+02  0.45594000000E+02  0.51100000000E-03 0. -1.
    9900012    2    1    2    0    0  0.42647426287E+02  0.14297993840E+01  0.14431430413E+02  0.46142317866E+02  0.10000000957E+02 0.  0.
        -12    1    1    2    0    0 -0.42647426287E+02 -0.14297993840E+01 -0.14431430413E+02  0.45045682134E+02  0.00000000000E+00 0.  1.
         11    1    3    3    0    0  0.17926071381E+02  0.20029464771E+01  0.46154424387E+01  0.18618757717E+02  0.51100000000E-03 0. -1.
        -11    1    3    3    0    0  0.93391685272E+01  0.83560668941E+00  0.30043292052E+00  0.93812881589E+01  0.51100000000E-03 0.  1.
        -12    1    3    3    0    0  0.15382186379E+02 -0.14087537826E+01  0.95155550537E+01  0.18142271991E+02  0.00000000000E+00 0.  1.
</event>
<event>
 7    1  0.4141894E-008  0.4614232E+02  0.7816164E-02  0.1320468E+00
        -11   -1    0    0    0    0  0.00000000000E+00  0.00000000000E+00  0.45593999997E+02  0.45594000000E+02  0.51100000000E-03 0.  1.
         11   -1    0    0    0    0 -0.00000000000E+00 -0.00000000000E+00 -0.45593999997E+02  0.45594000000E+02  0.51100000000E-03 0. -1.
    9900012    2    1    2    0    0  0.40857194227E+01 -0.40081939939E+02 -0.20145928989E+02  0.46142317995E+02  0.10000002132E+02 0.  0.
        -12    1    1    2    0    0 -0.40857194227E+01  0.40081939939E+02  0.20145928989E+02  0.45045682005E+02  0.00000000000E+00 0.  1.
         11    1    3    3    0    0  0.14311104809E+01 -0.34033854414E+01 -0.29778546160E+01  0.47432824127E+01  0.51100000000E-03 0. -1.
        -11    1    3    3    0    0  0.19138778887E+01 -0.83588344805E+01 -0.77126161481E+01  0.11533320881E+02  0.51100000000E-03 0.  1.
         12    1    3    3    0    0  0.74073105307E+00 -0.28319720017E+02 -0.94554582249E+01  0.29865714701E+02  0.00000000000E+00 0. -1.
</event>
<event>
 7    1  0.4141894E-008  0.4614232E+02  0.7816164E-02  0.1320468E+00
        -11   -1    0    0    0    0  0.00000000000E+00  0.00000000000E+00  0.45593999997E+02  0.45594000000E+02  0.51100000000E-03 0.  1.
         11   -1    0    0    0    0 -0.00000000000E+00 -0.00000000000E+00 -0.45593999997E+02  0.45594000000E+02  0.51100000000E-03 0. -1.
    9900012    2    1    2    0    0 -0.41711347132E+02 -0.16943176670E+02  0.14849884008E+01  0.46142324227E+02  0.10000058966E+02 0.  0.
        -12    1    1    2    0    0  0.41711347132E+02  0.16943176670E+02 -0.14849884008E+01  0.45045675773E+02  0.00000000000E+00 0.  1.
         11    1    3    3    0    0 -0.19423499609E+02 -0.91822447667E+01 -0.37469614735E+01  0.21808843999E+02  0.51100000000E-03 0. -1.
        -11    1    3    3    0    0 -0.24777893661E+01 -0.57298786233E+00  0.14358253157E+01  0.29205050645E+01  0.51100000000E-03 0.  1.
         12    1    3    3    0    0 -0.19810058157E+02 -0.71879440410E+01  0.37961245585E+01  0.21412975164E+02  0.00000000000E+00 0. -1.
</event>
<event>
 7    1  0.4141894E-008  0.4614232E+02  0.7816164E-02  0.1320468E+00
        -11   -1    0    0    0    0  0.00000000000E+00  0.00000000000E+00  0.45593999997E+02  0.45594000000E+02  0.51100000000E-03 0.  1.
         11   -1    0    0    0    0 -0.00000000000E+00 -0.00000000000E+00 -0.45593999997E+02  0.45594000000E+02  0.51100000000E-03 0. -1.
    9900012    2    1    2    0    0  0.23353714416E+02 -0.19966741467E+02 -0.32940051427E+02  0.46142315081E+02  0.99999755569E+01 0.  0.
        -12    1    1    2    0    0 -0.23353714416E+02  0.19966741467E+02  0.32940051427E+02  0.45045684919E+02  0.00000000000E+00 0.  1.
         11    1    3    3    0    0  0.81014125721E+01 -0.11657447669E+02 -0.15945231854E+02  0.21348990397E+02  0.51100000000E-03 0. -1.
        -11    1    3    3    0    0  0.11715408446E+02 -0.49860789544E+01 -0.14630291126E+02  0.19394772416E+02  0.51100000000E-03 0.  1.
        -12    1    3    3    0    0  0.35368933979E+01 -0.33232148440E+01 -0.23645284468E+01  0.53985522673E+01  0.00000000000E+00 0.  1.
</event>
<event>
 7    1  0.4141894E-008  0.4614232E+02  0.7816164E-02  0.1320468E+00
        -11   -1    0    0    0    0  0.00000000000E+00  0.00000000000E+00  0.45593999997E+02  0.45594000000E+02  0.51100000000E-03 0.  1.
         11   -1    0    0    0    0 -0.00000000000E+00 -0.00000000000E+00 -0.45593999997E+02  0.45594000000E+02  0.51100000000E-03 0. -1.
    9900012    2    1    2    0    0 -0.18754407832E+02 -0.19249525405E+02 -0.36150262513E+02  0.46142317397E+02  0.99999966773E+01 0.  0.
        -12    1    1    2    0    0  0.18754407832E+02  0.19249525405E+02  0.36150262513E+02  0.45045682603E+02  0.00000000000E+00 0.  1.
         11    1    3    3    0    0 -0.59071896283E+01 -0.66313707184E+01 -0.15383012923E+02  0.17762518227E+02  0.51100000000E-03 0. -1.
        -11    1    3    3    0    0 -0.51705812616E+01 -0.22503500123E+01 -0.10397578069E+02  0.11828297245E+02  0.51100000000E-03 0.  1.
         12    1    3    3    0    0 -0.76766369418E+01 -0.10367804674E+02 -0.10369671521E+02  0.16551501924E+02  0.00000000000E+00 0. -1.
</event>
<event>
 7    1  0.4141894E-008  0.4614232E+02  0.7816164E-02  0.1320468E+00
        -11   -1    0    0    0    0  0.00000000000E+00  0.00000000000E+00  0.45593999997E+02  0.45594000000E+02  0.51100000000E-03 0. -1.
         11   -1    0    0    0    0 -0.00000000000E+00 -0.00000000000E+00 -0.45593999997E+02  0.45594000000E+02  0.51100000000E-03 0.  1.
    9900012    2    1    2    0    0  0.39765868814E+02 -0.68396662327E+01  0.20025186340E+02  0.46142318246E+02  0.10000004425E+02 0.  0.
        -12    1    1    2    0    0 -0.39765868814E+02  0.68396662327E+01 -0.20025186340E+02  0.45045681754E+02  0.00000000000E+00 0.  1.
         11    1    3    3    0    0  0.16490412960E+02 -0.28681736089E+01  0.60572053801E+01  0.17800277434E+02  0.51100000000E-03 0. -1.
        -11    1    3    3    0    0  0.42673657530E+01  0.98737332071E+00  0.26006625885E+00  0.43878185087E+01  0.51100000000E-03 0.  1.
         12    1    3    3    0    0  0.19008090101E+02 -0.49588659446E+01  0.13707914701E+02  0.23954222304E+02  0.00000000000E+00 0. -1.
</event>
<event>
 7    1  0.4141894E-008  0.4614232E+02  0.7816164E-02  0.1320468E+00
        -11   -1    0    0    0    0  0.00000000000E+00  0.00000000000E+00  0.45593999997E+02  0.45594000000E+02  0.51100000000E-03 0.  1.
         11   -1    0    0    0    0 -0.00000000000E+00 -0.00000000000E+00 -0.45593999997E+02  0.45594000000E+02  0.51100000000E-03 0. -1.
    9900012    2    1    2    0    0  0.21451978473E+02  0.35799289245E+01 -0.39447562354E+02  0.46142318218E+02  0.10000004168E+02 0.  0.
        -12    1    1    2    0    0 -0.21451978473E+02 -0.35799289245E+01  0.39447562354E+02  0.45045681782E+02  0.00000000000E+00 0.  1.
         11    1    3    3    0    0  0.10565473839E+02  0.26396983084E+01 -0.17729324128E+02  0.20806878163E+02  0.51100000000E-03 0. -1.
        -11    1    3    3    0    0  0.88929235645E+01 -0.50660509800E+00 -0.20934177995E+02  0.22750396630E+02  0.51100000000E-03 0.  1.
        -12    1    3    3    0    0  0.19935810694E+01  0.14468357141E+01 -0.78406023191E+00  0.25850434254E+01  0.00000000000E+00 0.  1.
</event>
<event>
 7    1  0.4141894E-008  0.4614232E+02  0.7816164E-02  0.1320468E+00
        -11   -1    0    0    0    0  0.00000000000E+00  0.00000000000E+00  0.45593999997E+02  0.45594000000E+02  0.51100000000E-03 0.  1.
         11   -1    0    0    0    0 -0.00000000000E+00 -0.00000000000E+00 -0.45593999997E+02  0.45594000000E+02  0.51100000000E-03 0. -1.
    9900012    2    1    2    0    0 -0.30212156738E+02  0.19338763957E+01 -0.33355646995E+02  0.46142317864E+02  0.10000000940E+02 0.  0.
        -12    1    1    2    0    0  0.30212156738E+02 -0.19338763957E+01  0.33355646995E+02  0.45045682136E+02  0.00000000000E+00 0.  1.
         11    1    3    3    0    0 -0.49840993472E+01  0.24907947603E+00 -0.11028481357E+02  0.12104986088E+02  0.51100000000E-03 0. -1.
        -11    1    3    3    0    0 -0.61731194870E+01  0.19164383100E-02 -0.30714427906E+01  0.68950104388E+01  0.51100000000E-03 0.  1.
         12    1    3    3    0    0 -0.19054937903E+02  0.16828804814E+01 -0.19255722847E+02  0.27142321337E+02  0.00000000000E+00 0. -1.
</event>
<event>
 7    1  0.4141894E-008  0.4614232E+02  0.7816164E-02  0.1320468E+00
        -11   -1    0    0    0    0  0.00000000000E+00  0.00000000000E+00  0.45593999997E+02  0.45594000000E+02  0.51100000000E-03 0.  1.
         11   -1    0    0    0    0 -0.00000000000E+00 -0.00000000000E+00 -0.45593999997E+02  0.45594000000E+02  0.51100000000E-03 0. -1.
    9900012    2    1    2    0    0  0.14436835238E+02 -0.19597329590E+02 -0.37902980629E+02  0.46142317861E+02  0.10000000915E+02 0.  0.
        -12    1    1    2    0    0 -0.14436835238E+02  0.19597329590E+02  0.37902980629E+02  0.45045682139E+02  0.00000000000E+00 0.  1.
         11    1    3    3    0    0  0.25814163674E+01 -0.31208131004E+01 -0.88375234494E+01  0.97213685173E+01  0.51100000000E-03 0. -1.
        -11    1    3    3    0    0  0.89752803478E+01 -0.16415451679E+02 -0.27110845247E+02  0.32939651507E+02  0.51100000000E-03 0.  1.
        -12    1    3    3    0    0  0.28801385232E+01 -0.61064811463E-01 -0.19546119323E+01  0.34812978370E+01  0.00000000000E+00 0.  1.
</event>
<event>
 7    1  0.4141894E-008  0.4614232E+02  0.7816164E-02  0.1320468E+00
        -11   -1    0    0    0    0  0.00000000000E+00  0.00000000000E+00  0.45593999997E+02  0.45594000000E+02  0.51100000000E-03 0. -1.
         11   -1    0    0    0    0 -0.00000000000E+00 -0.00000000000E+00 -0.45593999997E+02  0.45594000000E+02  0.51100000000E-03 0.  1.
    9900012    2    1    2    0    0  0.41845256135E+02 -0.55554253992E+01  0.15723398347E+02  0.46142317988E+02  0.10000002068E+02 0.  0.
        -12    1    1    2    0    0 -0.41845256135E+02  0.55554253992E+01 -0.15723398347E+02  0.45045682012E+02  0.00000000000E+00 0.  1.
         11    1    3    3    0    0  0.13280711473E+02 -0.28508869755E+01  0.60823562580E+01  0.14882873099E+02  0.51100000000E-03 0. -1.
        -11    1    3    3    0    0  0.26322527405E+02 -0.13353227327E+00  0.86321675597E+01  0.27702122606E+02  0.51100000000E-03 0.  1.
        -12    1    3    3    0    0  0.22420172569E+01 -0.25710061504E+01  0.10088745297E+01  0.35573222826E+01  0.00000000000E+00 0.  1.
</event>
<event>
 7    1  0.4141894E-008  0.4614232E+02  0.7816164E-02  0.1320468E+00
        -11   -1    0    0    0    0  0.00000000000E+00  0.00000000000E+00  0.45593999997E+02  0.45594000000E+02  0.51100000000E-03 0.  1.
         11   -1    0    0    0    0 -0.00000000000E+00 -0.00000000000E+00 -0.45593999997E+02  0.45594000000E+02  0.51100000000E-03 0. -1.
    9900012    2    1    2    0    0 -0.24218070642E+02  0.21462574587E+02 -0.31336185951E+02  0.46142316484E+02  0.99999883524E+01 0.  0.
        -12    1    1    2    0    0  0.24218070642E+02 -0.21462574587E+02  0.31336185951E+02  0.45045683516E+02  0.00000000000E+00 0.  1.
         11    1    3    3    0    0 -0.80460043027E+01  0.83076507974E+01 -0.16038757056E+02  0.19773643447E+02  0.51100000000E-03 0. -1.
        -11    1    3    3    0    0 -0.15402021483E+02  0.10431244856E+02 -0.13834940437E+02  0.23182724434E+02  0.51100000000E-03 0.  1.
        -12    1    3    3    0    0 -0.77004485573E+00  0.27236789331E+01 -0.14624884576E+01  0.31859486027E+01  0.00000000000E+00 0.  1.
</event>
<event>
 7    1  0.4141894E-008  0.4614232E+02  0.7816164E-02  0.1320468E+00
        -11   -1    0    0    0    0  0.00000000000E+00  0.00000000000E+00  0.45593999997E+02  0.45594000000E+02  0.51100000000E-03 0.  1.
         11   -1    0    0    0    0 -0.00000000000E+00 -0.00000000000E+00 -0.45593999997E+02  0.45594000000E+02  0.51100000000E-03 0. -1.
    9900012    2    1    2    0    0  0.25710374128E+02 -0.12392284730E+02 -0.34849985653E+02  0.46142316981E+02  0.99999928853E+01 0.  0.
        -12    1    1    2    0    0 -0.25710374128E+02  0.12392284730E+02  0.34849985653E+02  0.45045683019E+02  0.00000000000E+00 0.  1.
         11    1    3    3    0    0  0.14495165029E+02 -0.90579599652E+01 -0.16138553486E+02  0.23507644647E+02  0.51100000000E-03 0. -1.
        -11    1    3    3    0    0  0.11036303225E+02 -0.18184388865E+01 -0.15978018785E+02  0.19503943022E+02  0.51100000000E-03 0.  1.
         12    1    3    3    0    0  0.17890587425E+00 -0.15158858788E+01 -0.27334133823E+01  0.31307293124E+01  0.00000000000E+00 0. -1.
</event>
<event>
 7    1  0.4141894E-008  0.4614232E+02  0.7816164E-02  0.1320468E+00
        -11   -1    0    0    0    0  0.00000000000E+00  0.00000000000E+00  0.45593999997E+02  0.45594000000E+02  0.51100000000E-03 0.  1.
         11   -1    0    0    0    0 -0.00000000000E+00 -0.00000000000E+00 -0.45593999997E+02  0.45594000000E+02  0.51100000000E-03 0. -1.
    9900012    2    1    2    0    0 -0.18520344142E+02  0.17876229384E+02 -0.36966886600E+02  0.46142318419E+02  0.10000006002E+02 0.  0.
        -12    1    1    2    0    0  0.18520344142E+02 -0.17876229384E+02  0.36966886600E+02  0.45045681581E+02  0.00000000000E+00 0.  1.
         11    1    3    3    0    0 -0.13860432430E+02  0.11783214043E+02 -0.23910776168E+02  0.30044649067E+02  0.51100000000E-03 0. -1.
        -11    1    3    3    0    0 -0.20522550960E+01  0.64042875393E+01 -0.84974277604E+01  0.10836647483E+02  0.51100000000E-03 0.  1.
        -12    1    3    3    0    0 -0.26076566168E+01 -0.31127219767E+00 -0.45586826718E+01  0.52610218697E+01  0.00000000000E+00 0.  1.
</event>
<event>
 7    1  0.4141894E-008  0.4614232E+02  0.7816164E-02  0.1320468E+00
        -11   -1    0    0    0    0  0.00000000000E+00  0.00000000000E+00  0.45593999997E+02  0.45594000000E+02  0.51100000000E-03 0. -1.
         11   -1    0    0    0    0 -0.00000000000E+00 -0.00000000000E+00 -0.45593999997E+02  0.45594000000E+02  0.51100000000E-03 0.  1.
    9900012    2    1    2    0    0  0.17379834119E+02 -0.38150620075E+02  0.16479837308E+02  0.46142317812E+02  0.10000000464E+02 0.  0.
        -12    1    1    2    0    0 -0.17379834119E+02  0.38150620075E+02 -0.16479837308E+02  0.45045682188E+02  0.00000000000E+00 0.  1.
         11    1    3    3    0    0  0.19710841808E+01 -0.21094704467E+01  0.19409120746E+01  0.34788185287E+01  0.51100000000E-03 0. -1.
        -11    1    3    3    0    0  0.55915490463E+01 -0.10358073780E+02  0.84826854770E+01  0.14508999495E+02  0.51100000000E-03 0.  1.
        -12    1    3    3    0    0  0.98172008918E+01 -0.25683075848E+02  0.60562397560E+01  0.28154499789E+02  0.00000000000E+00 0.  1.
</event>
<event>
 7    1  0.4141894E-008  0.4614232E+02  0.7816164E-02  0.1320468E+00
        -11   -1    0    0    0    0  0.00000000000E+00  0.00000000000E+00  0.45593999997E+02  0.45594000000E+02  0.51100000000E-03 0.  1.
         11   -1    0    0    0    0 -0.00000000000E+00 -0.00000000000E+00 -0.45593999997E+02  0.45594000000E+02  0.51100000000E-03 0. -1.
    9900012    2    1    2    0    0  0.24913587110E+02  0.79625662003E+01 -0.36674570758E+02  0.46142318481E+02  0.10000006568E+02 0.  0.
        -12    1    1    2    0    0 -0.24913587110E+02 -0.79625662003E+01  0.36674570758E+02  0.45045681519E+02  0.00000000000E+00 0.  1.
         11    1    3    3    0    0  0.14089447812E+02  0.68543433018E+01 -0.24016255924E+02  0.28675339764E+02  0.51100000000E-03 0. -1.
        -11    1    3    3    0    0  0.83202015523E+01  0.26593762213E+01 -0.74363466062E+01  0.11471586066E+02  0.51100000000E-03 0.  1.
        -12    1    3    3    0    0  0.25039377462E+01 -0.15511533228E+01 -0.52219682283E+01  0.59953926514E+01  0.00000000000E+00 0.  1.
</event>
<event>
 7    1  0.4141894E-008  0.4614232E+02  0.7816164E-02  0.1320468E+00
        -11   -1    0    0    0    0  0.00000000000E+00  0.00000000000E+00  0.45593999997E+02  0.45594000000E+02  0.51100000000E-03 0.  1.
         11   -1    0    0    0    0 -0.00000000000E+00 -0.00000000000E+00 -0.45593999997E+02  0.45594000000E+02  0.51100000000E-03 0. -1.
    9900012    2    1    2    0    0  0.44691250657E+02 -0.60158215599E-01 -0.56393291758E+01  0.46142317212E+02  0.99999949913E+01 0.  0.
        -12    1    1    2    0    0 -0.44691250657E+02  0.60158215599E-01  0.56393291758E+01  0.45045682788E+02  0.00000000000E+00 0.  1.
         11    1    3    3    0    0  0.88594471578E+01 -0.17217051683E+01 -0.19932709975E+01  0.92426837098E+01  0.51100000000E-03 0. -1.
        -11    1    3    3    0    0  0.35929112854E+02  0.11284959218E+01 -0.30227100961E+01  0.36073694434E+02  0.51100000000E-03 0.  1.
        -12    1    3    3    0    0 -0.97309355176E-01  0.53305103093E+00 -0.62334808220E+00  0.82593906783E+00  0.00000000000E+00 0.  1.
</event>
<event>
 7    1  0.4141894E-008  0.4614232E+02  0.7816164E-02  0.1320468E+00
        -11   -1    0    0    0    0  0.00000000000E+00  0.00000000000E+00  0.45593999997E+02  0.45594000000E+02  0.51100000000E-03 0.  1.
         11   -1    0    0    0    0 -0.00000000000E+00 -0.00000000000E+00 -0.45593999997E+02  0.45594000000E+02  0.51100000000E-03 0. -1.
    9900012    2    1    2    0    0  0.18995339147E+02  0.12097881956E+01 -0.40826793121E+02  0.46142317262E+02  0.99999954470E+01 0.  0.
        -12    1    1    2    0    0 -0.18995339147E+02 -0.12097881956E+01  0.40826793121E+02  0.45045682738E+02  0.00000000000E+00 0.  1.
         11    1    3    3    0    0  0.63019800937E+01 -0.21761999175E+01 -0.92868217833E+01  0.11432228929E+02  0.51100000000E-03 0. -1.
        -11    1    3    3    0    0  0.71572477333E+01  0.43526188904E+01 -0.14250864955E+02  0.16530536548E+02  0.51100000000E-03 0.  1.
         12    1    3    3    0    0  0.55361113196E+01 -0.96663077730E+00 -0.17289106383E+02  0.18179551785E+02  0.00000000000E+00 0. -1.
</event>
<event>
 7    1  0.4141894E-008  0.4614232E+02  0.7816164E-02  0.1320468E+00
        -11   -1    0    0    0    0  0.00000000000E+00  0.00000000000E+00  0.45593999997E+02  0.45594000000E+02  0.51100000000E-03 0.  1.
         11   -1    0    0    0    0 -0.00000000000E+00 -0.00000000000E+00 -0.45593999997E+02  0.45594000000E+02  0.51100000000E-03 0. -1.
    9900012    2    1    2    0    0 -0.99885871050E+01 -0.23258003305E+02 -0.37261333096E+02  0.46142317252E+02  0.99999953595E+01 0.  0.
        -12    1    1    2    0    0  0.99885871050E+01  0.23258003305E+02  0.37261333096E+02  0.45045682748E+02  0.00000000000E+00 0.  1.
         11    1    3    3    0    0 -0.90610821845E+01 -0.13920063705E+02 -0.26268457270E+02  0.31078983759E+02  0.51100000000E-03 0.  1.
        -11    1    3    3    0    0 -0.24387631645E+01 -0.76659955403E+01 -0.86329660667E+01  0.11800133761E+02  0.51100000000E-03 0. -1.
        -12    1    3    3    0    0  0.15112582440E+01 -0.16719440602E+01 -0.23599097597E+01  0.32631997326E+01  0.00000000000E+00 0.  1.
</event>
<event>
 7    1  0.4141894E-008  0.4614232E+02  0.7816164E-02  0.1320468E+00
        -11   -1    0    0    0    0  0.00000000000E+00  0.00000000000E+00  0.45593999997E+02  0.45594000000E+02  0.51100000000E-03 0.  1.
         11   -1    0    0    0    0 -0.00000000000E+00 -0.00000000000E+00 -0.45593999997E+02  0.45594000000E+02  0.51100000000E-03 0. -1.
    9900012    2    1    2    0    0  0.42561666974E+02 -0.12901207606E+02  0.71538025487E+01  0.46142317141E+02  0.99999943490E+01 0.  0.
        -12    1    1    2    0    0 -0.42561666974E+02  0.12901207606E+02 -0.71538025487E+01  0.45045682859E+02  0.00000000000E+00 0.  1.
         11    1    3    3    0    0  0.62962604157E+01 -0.34489709806E+01 -0.46026913779E+00  0.71937572928E+01  0.51100000000E-03 0. -1.
        -11    1    3    3    0    0  0.12840260167E+02 -0.70371823585E+01  0.25964545830E+01  0.14870635271E+02  0.51100000000E-03 0.  1.
         12    1    3    3    0    0  0.23425146391E+02 -0.24150542666E+01  0.50176171035E+01  0.24077924577E+02  0.00000000000E+00 0. -1.
</event>
<event>
 7    1  0.4141894E-008  0.4614232E+02  0.7816164E-02  0.1320468E+00
        -11   -1    0    0    0    0  0.00000000000E+00  0.00000000000E+00  0.45593999997E+02  0.45594000000E+02  0.51100000000E-03 0.  1.
         11   -1    0    0    0    0 -0.00000000000E+00 -0.00000000000E+00 -0.45593999997E+02  0.45594000000E+02  0.51100000000E-03 0. -1.
    9900012    2    1    2    0    0  0.74046685074E+01 -0.28895757635E+02 -0.33753807524E+02  0.46142318217E+02  0.10000004155E+02 0.  0.
        -12    1    1    2    0    0 -0.74046685074E+01  0.28895757635E+02  0.33753807524E+02  0.45045681783E+02  0.00000000000E+00 0.  1.
         11    1    3    3    0    0  0.53828894403E+01 -0.73525305170E+01 -0.73008430699E+01  0.11676365596E+02  0.51100000000E-03 0. -1.
        -11    1    3    3    0    0 -0.14743125342E+00 -0.33428860819E-01 -0.12582545429E+01  0.12673035229E+01  0.51100000000E-03 0.  1.
         12    1    3    3    0    0  0.21692103205E+01 -0.21509798257E+02 -0.25194709911E+02  0.33198649098E+02  0.00000000000E+00 0. -1.
</event>
<event>
 7    1  0.4141894E-008  0.4614232E+02  0.7816164E-02  0.1320468E+00
        -11   -1    0    0    0    0  0.00000000000E+00  0.00000000000E+00  0.45593999997E+02  0.45594000000E+02  0.51100000000E-03 0.  1.
         11   -1    0    0    0    0 -0.00000000000E+00 -0.00000000000E+00 -0.45593999997E+02  0.45594000000E+02  0.51100000000E-03 0. -1.
    9900012    2    1    2    0    0 -0.44764081014E+02 -0.15397966253E+01 -0.47874331347E+01  0.46142318313E+02  0.10000005031E+02 0.  0.
        -12    1    1    2    0    0  0.44764081014E+02  0.15397966253E+01  0.47874331347E+01  0.45045681687E+02  0.00000000000E+00 0.  1.
         11    1    3    3    0    0 -0.17332030547E+02 -0.35586152725E+01 -0.45855679105E+01  0.18278141560E+02  0.51100000000E-03 0. -1.
        -11    1    3    3    0    0 -0.18930144684E+00  0.51338370529E+00  0.18356151881E+00  0.57714206132E+00  0.51100000000E-03 0.  1.
         12    1    3    3    0    0 -0.27242749019E+02  0.15054349419E+01 -0.38542674304E+00  0.27287034692E+02  0.00000000000E+00 0. -1.
</event>
<event>
 7    1  0.4141894E-008  0.4614232E+02  0.7816164E-02  0.1320468E+00
        -11   -1    0    0    0    0  0.00000000000E+00  0.00000000000E+00  0.45593999997E+02  0.45594000000E+02  0.51100000000E-03 0.  1.
         11   -1    0    0    0    0 -0.00000000000E+00 -0.00000000000E+00 -0.45593999997E+02  0.45594000000E+02  0.51100000000E-03 0. -1.
    9900012    2    1    2    0    0 -0.35752222452E+02 -0.35476835610E+01 -0.27171787472E+02  0.46142317595E+02  0.99999984857E+01 0.  0.
        -12    1    1    2    0    0  0.35752222452E+02  0.35476835610E+01  0.27171787472E+02  0.45045682405E+02  0.00000000000E+00 0.  1.
         11    1    3    3    0    0 -0.42765810306E+01  0.10884600696E+01 -0.40361580292E+01  0.59803396670E+01  0.51100000000E-03 0. -1.
        -11    1    3    3    0    0 -0.77428980596E+01  0.90778317901E+00 -0.23835120205E+01  0.81521574122E+01  0.51100000000E-03 0.  1.
         12    1    3    3    0    0 -0.23732743362E+02 -0.55439268096E+01 -0.20752117422E+02  0.32009820516E+02  0.00000000000E+00 0. -1.
</event>
<event>
 7    1  0.4141894E-008  0.4614232E+02  0.7816164E-02  0.1320468E+00
        -11   -1    0    0    0    0  0.00000000000E+00  0.00000000000E+00  0.45593999997E+02  0.45594000000E+02  0.51100000000E-03 0.  1.
         11   -1    0    0    0    0 -0.00000000000E+00 -0.00000000000E+00 -0.45593999997E+02  0.45594000000E+02  0.51100000000E-03 0. -1.
    9900012    2    1    2    0    0 -0.32076798500E+02 -0.21190432436E+02 -0.23476752707E+02  0.46142319336E+02  0.10000014361E+02 0.  0.
        -12    1    1    2    0    0  0.32076798500E+02  0.21190432436E+02  0.23476752707E+02  0.45045680664E+02  0.00000000000E+00 0.  1.
         11    1    3    3    0    0 -0.31167659462E+01 -0.40436292917E+01 -0.15421450897E+01  0.53332334986E+01  0.51100000000E-03 0. -1.
        -11    1    3    3    0    0 -0.12570570828E+02 -0.64374916291E+01 -0.51883452446E+01  0.15045912271E+02  0.51100000000E-03 0.  1.
         12    1    3    3    0    0 -0.16389461726E+02 -0.10709311515E+02 -0.16746262372E+02  0.25763173567E+02  0.00000000000E+00 0. -1.
</event>
<event>
 7    1  0.4141894E-008  0.4614232E+02  0.7816164E-02  0.1320468E+00
        -11   -1    0    0    0    0  0.00000000000E+00  0.00000000000E+00  0.45593999997E+02  0.45594000000E+02  0.51100000000E-03 0.  1.
         11   -1    0    0    0    0 -0.00000000000E+00 -0.00000000000E+00 -0.45593999997E+02  0.45594000000E+02  0.51100000000E-03 0. -1.
    9900012    2    1    2    0    0  0.28424495681E+02 -0.34866900848E+02  0.23368187364E+01  0.46142318172E+02  0.10000003750E+02 0.  0.
        -12    1    1    2    0    0 -0.28424495681E+02  0.34866900848E+02 -0.23368187364E+01  0.45045681828E+02  0.00000000000E+00 0.  1.
         11    1    3    3    0    0  0.16656132657E+02 -0.18109211342E+02  0.15771343358E+01  0.24654769184E+02  0.51100000000E-03 0. -1.
        -11    1    3    3    0    0  0.52756124157E+00 -0.28579305621E+01  0.20628393720E+01  0.35639015835E+01  0.51100000000E-03 0.  1.
         12    1    3    3    0    0  0.11240801782E+02 -0.13899758944E+02 -0.13031549714E+01  0.17923647405E+02  0.00000000000E+00 0. -1.
</event>
<event>
 7    1  0.4141894E-008  0.4614232E+02  0.7816164E-02  0.1320468E+00
        -11   -1    0    0    0    0  0.00000000000E+00  0.00000000000E+00  0.45593999997E+02  0.45594000000E+02  0.51100000000E-03 0. -1.
         11   -1    0    0    0    0 -0.00000000000E+00 -0.00000000000E+00 -0.45593999997E+02  0.45594000000E+02  0.51100000000E-03 0.  1.
    9900012    2    1    2    0    0 -0.22858792862E+02 -0.34364833202E+02  0.18045698336E+02  0.46142318736E+02  0.10000008889E+02 0.  0.
        -12    1    1    2    0    0  0.22858792862E+02  0.34364833202E+02 -0.18045698336E+02  0.45045681264E+02  0.00000000000E+00 0.  1.
         11    1    3    3    0    0 -0.16697727624E+02 -0.23130864664E+02  0.96767622003E+01  0.30124586883E+02  0.51100000000E-03 0. -1.
        -11    1    3    3    0    0 -0.51230074002E+00 -0.15640725924E+01 -0.51332249905E+00  0.17240288199E+01  0.51100000000E-03 0.  1.
        -12    1    3    3    0    0 -0.56487644982E+01 -0.96698959455E+01  0.88822586343E+01  0.14293703033E+02  0.00000000000E+00 0.  1.
</event>
<event>
 7    1  0.4141894E-008  0.4614232E+02  0.7816164E-02  0.1320468E+00
        -11   -1    0    0    0    0  0.00000000000E+00  0.00000000000E+00  0.45593999997E+02  0.45594000000E+02  0.51100000000E-03 0.  1.
         11   -1    0    0    0    0 -0.00000000000E+00 -0.00000000000E+00 -0.45593999997E+02  0.45594000000E+02  0.51100000000E-03 0. -1.
    9900012    2    1    2    0    0 -0.41494299138E+01 -0.18470737792E+01 -0.44816114084E+02  0.46142317279E+02  0.99999956069E+01 0.  0.
        -12    1    1    2    0    0  0.41494299138E+01  0.18470737792E+01  0.44816114084E+02  0.45045682721E+02  0.00000000000E+00 0.  1.
         11    1    3    3    0    0  0.10343854183E+01 -0.15997690777E+01 -0.27282947040E+02  0.27349376844E+02  0.51100000000E-03 0. -1.
        -11    1    3    3    0    0 -0.53625506035E+01  0.60704929748E+00 -0.11576457203E+02  0.12772619914E+02  0.51100000000E-03 0.  1.
        -12    1    3    3    0    0  0.17873527145E+00 -0.85435399902E+00 -0.59567098416E+01  0.60203205222E+01  0.00000000000E+00 0.  1.
</event>
<event>
 7    1  0.4141894E-008  0.4614232E+02  0.7816164E-02  0.1320468E+00
        -11   -1    0    0    0    0  0.00000000000E+00  0.00000000000E+00  0.45593999997E+02  0.45594000000E+02  0.51100000000E-03 0.  1.
         11   -1    0    0    0    0 -0.00000000000E+00 -0.00000000000E+00 -0.45593999997E+02  0.45594000000E+02  0.51100000000E-03 0. -1.
    9900012    2    1    2    0    0  0.20791923191E+02  0.12570501462E+02 -0.37931408205E+02  0.46142319792E+02  0.10000018519E+02 0.  0.
        -12    1    1    2    0    0 -0.20791923191E+02 -0.12570501462E+02  0.37931408205E+02  0.45045680208E+02  0.00000000000E+00 0.  1.
         11    1    3    3    0    0  0.14370301885E+02  0.45338339584E+01 -0.18255592562E+02  0.23671245989E+02  0.51100000000E-03 0. -1.
        -11    1    3    3    0    0 -0.24661464804E+00 -0.15020470411E+00 -0.66010314581E+00  0.72049751005E+00  0.51100000000E-03 0.  1.
         12    1    3    3    0    0  0.66682359535E+01  0.81868722079E+01 -0.19015712498E+02  0.21750576293E+02  0.00000000000E+00 0. -1.
</event>
<event>
 7    1  0.4141894E-008  0.4614232E+02  0.7816164E-02  0.1320468E+00
        -11   -1    0    0    0    0  0.00000000000E+00  0.00000000000E+00  0.45593999997E+02  0.45594000000E+02  0.51100000000E-03 0.  1.
         11   -1    0    0    0    0 -0.00000000000E+00 -0.00000000000E+00 -0.45593999997E+02  0.45594000000E+02  0.51100000000E-03 0. -1.
    9900012    2    1    2    0    0  0.81399380474E+01  0.27019647724E+02 -0.35111160018E+02  0.46142317495E+02  0.99999975713E+01 0.  0.
        -12    1    1    2    0    0 -0.81399380474E+01 -0.27019647724E+02  0.35111160018E+02  0.45045682505E+02  0.00000000000E+00 0.  1.
         11    1    3    3    0    0  0.21409903796E+01  0.45620996576E+01 -0.23032712378E+01  0.55409071232E+01  0.51100000000E-03 0. -1.
        -11    1    3    3    0    0  0.76997277189E+00  0.36096968451E-01 -0.19830847631E+01  0.21276246143E+01  0.51100000000E-03 0.  1.
        -12    1    3    3    0    0  0.52289748958E+01  0.22421451098E+02 -0.30824804017E+02  0.38473785757E+02  0.00000000000E+00 0.  1.
</event>
<event>
 7    1  0.4141894E-008  0.4614232E+02  0.7816164E-02  0.1320468E+00
        -11   -1    0    0    0    0  0.00000000000E+00  0.00000000000E+00  0.45593999997E+02  0.45594000000E+02  0.51100000000E-03 0. -1.
         11   -1    0    0    0    0 -0.00000000000E+00 -0.00000000000E+00 -0.45593999997E+02  0.45594000000E+02  0.51100000000E-03 0.  1.
    9900012    2    1    2    0    0 -0.34815062112E+02 -0.20965177350E+02  0.19429005926E+02  0.46142317827E+02  0.10000000597E+02 0.  0.
        -12    1    1    2    0    0  0.34815062112E+02  0.20965177350E+02 -0.19429005926E+02  0.45045682173E+02  0.00000000000E+00 0.  1.
         11    1    3    3    0    0 -0.59518219062E+01 -0.47628696541E+01  0.53367067175E+01  0.93053506218E+01  0.51100000000E-03 0. -1.
        -11    1    3    3    0    0 -0.77824480164E+01 -0.34031039140E+01  0.12617359427E+00  0.84949122075E+01  0.51100000000E-03 0.  1.
        -12    1    3    3    0    0 -0.21080792190E+02 -0.12799203782E+02  0.13966125614E+02  0.28342054997E+02  0.00000000000E+00 0.  1.
</event>
<event>
 7    1  0.4141894E-008  0.4614232E+02  0.7816164E-02  0.1320468E+00
        -11   -1    0    0    0    0  0.00000000000E+00  0.00000000000E+00  0.45593999997E+02  0.45594000000E+02  0.51100000000E-03 0.  1.
         11   -1    0    0    0    0 -0.00000000000E+00 -0.00000000000E+00 -0.45593999997E+02  0.45594000000E+02  0.51100000000E-03 0. -1.
    9900012    2    1    2    0    0 -0.22265377420E+01 -0.34930170538E+02 -0.28355585774E+02  0.46142317313E+02  0.99999959124E+01 0.  0.
        -12    1    1    2    0    0  0.22265377420E+01  0.34930170538E+02  0.28355585774E+02  0.45045682687E+02  0.00000000000E+00 0.  1.
         11    1    3    3    0    0 -0.17467563719E+01 -0.24153391772E+01 -0.12855503338E+01  0.32461763794E+01  0.51100000000E-03 0. -1.
        -11    1    3    3    0    0 -0.12761565286E+01 -0.72844938886E+00 -0.98460237084E+00  0.17688007484E+01  0.51100000000E-03 0.  1.
         12    1    3    3    0    0  0.79637515853E+00 -0.31786381972E+02 -0.26085433070E+02  0.41127340185E+02  0.00000000000E+00 0. -1.
</event>
<event>
 7    1  0.4141894E-008  0.4614232E+02  0.7816164E-02  0.1320468E+00
        -11   -1    0    0    0    0  0.00000000000E+00  0.00000000000E+00  0.45593999997E+02  0.45594000000E+02  0.51100000000E-03 0. -1.
         11   -1    0    0    0    0 -0.00000000000E+00 -0.00000000000E+00 -0.45593999997E+02  0.45594000000E+02  0.51100000000E-03 0.  1.
    9900012    2    1    2    0    0 -0.18010273076E+02  0.38442804569E+02 -0.15063011357E+02  0.46142317959E+02  0.10000001808E+02 0.  0.
        -12    1    1    2    0    0  0.18010273076E+02 -0.38442804569E+02  0.15063011357E+02  0.45045682041E+02  0.00000000000E+00 0.  1.
         11    1    3    3    0    0 -0.55305358055E+01  0.11451524804E+02 -0.18176427376E+01  0.12846325234E+02  0.51100000000E-03 0. -1.
        -11    1    3    3    0    0 -0.41568542207E+01  0.38810524682E+01 -0.43935309001E+01  0.71864538755E+01  0.51100000000E-03 0.  1.
        -12    1    3    3    0    0 -0.83228830502E+01  0.23110227296E+02 -0.88518377188E+01  0.26109538850E+02  0.00000000000E+00 0.  1.
</event>
<event>
 7    1  0.4141894E-008  0.4614232E+02  0.7816164E-02  0.1320468E+00
        -11   -1    0    0    0    0  0.00000000000E+00  0.00000000000E+00  0.45593999997E+02  0.45594000000E+02  0.51100000000E-03 0.  1.
         11   -1    0    0    0    0 -0.00000000000E+00 -0.00000000000E+00 -0.45593999997E+02  0.45594000000E+02  0.51100000000E-03 0. -1.
    9900012    2    1    2    0    0  0.42561837291E+02  0.75802127074E+01 -0.12654782568E+02  0.46142321626E+02  0.10000035246E+02 0.  0.
        -12    1    1    2    0    0 -0.42561837291E+02 -0.75802127074E+01  0.12654782568E+02  0.45045678374E+02  0.00000000000E+00 0.  1.
         11    1    3    3    0    0  0.17131357334E+00  0.81504976813E+00 -0.37474091642E+00  0.91328280423E+00  0.51100000000E-03 0. -1.
        -11    1    3    3    0    0  0.62458169769E+01 -0.91980046855E+00 -0.36117390741E+01  0.72733020019E+01  0.51100000000E-03 0.  1.
         12    1    3    3    0    0  0.36144706741E+02  0.76849634078E+01 -0.86683025775E+01  0.37955736820E+02  0.00000000000E+00 0. -1.
</event>
<event>
 7    1  0.4141894E-008  0.4614233E+02  0.7816164E-02  0.1320468E+00
        -11   -1    0    0    0    0  0.00000000000E+00  0.00000000000E+00  0.45593999997E+02  0.45594000000E+02  0.51100000000E-03 0. -1.
         11   -1    0    0    0    0 -0.00000000000E+00 -0.00000000000E+00 -0.45593999997E+02  0.45594000000E+02  0.51100000000E-03 0.  1.
    9900012    2    1    2    0    0  0.35262738175E+02 -0.24919032347E+02  0.12833312427E+02  0.46142325574E+02  0.10000071241E+02 0.  0.
        -12    1    1    2    0    0 -0.35262738175E+02  0.24919032347E+02 -0.12833312427E+02  0.45045674426E+02  0.00000000000E+00 0.  1.
         11    1    3    3    0    0  0.68919836844E+01 -0.13976485326E+01  0.28239192848E+01  0.75780855706E+01  0.51100000000E-03 0. -1.
        -11    1    3    3    0    0  0.81137287790E+01 -0.74834378606E+01  0.55152433710E+01  0.12339057769E+02  0.51100000000E-03 0.  1.
        -12    1    3    3    0    0  0.20257025711E+02 -0.16037945953E+02  0.44941497712E+01  0.26225182235E+02  0.00000000000E+00 0.  1.
</event>
<event>
 7    1  0.4141894E-008  0.4614232E+02  0.7816164E-02  0.1320468E+00
        -11   -1    0    0    0    0  0.00000000000E+00  0.00000000000E+00  0.45593999997E+02  0.45594000000E+02  0.51100000000E-03 0.  1.
         11   -1    0    0    0    0 -0.00000000000E+00 -0.00000000000E+00 -0.45593999997E+02  0.45594000000E+02  0.51100000000E-03 0. -1.
    9900012    2    1    2    0    0 -0.30917367176E+02  0.25335948112E+02 -0.20768227991E+02  0.46142321476E+02  0.10000033872E+02 0.  0.
        -12    1    1    2    0    0  0.30917367176E+02 -0.25335948112E+02  0.20768227991E+02  0.45045678524E+02  0.00000000000E+00 0.  1.
         11    1    3    3    0    0 -0.88243318181E+01  0.39794221824E+01 -0.82751186587E+01  0.12735078406E+02  0.51100000000E-03 0. -1.
        -11    1    3    3    0    0 -0.59148439533E+00 -0.87266796222E-01 -0.40819840843E+00  0.72394439386E+00  0.51100000000E-03 0.  1.
        -12    1    3    3    0    0 -0.21501550963E+02  0.21443792726E+02 -0.12084910924E+02  0.32683298675E+02  0.00000000000E+00 0.  1.
</event>
<event>
 7    1  0.4141894E-008  0.4614232E+02  0.7816164E-02  0.1320468E+00
        -11   -1    0    0    0    0  0.00000000000E+00  0.00000000000E+00  0.45593999997E+02  0.45594000000E+02  0.51100000000E-03 0.  1.
         11   -1    0    0    0    0 -0.00000000000E+00 -0.00000000000E+00 -0.45593999997E+02  0.45594000000E+02  0.51100000000E-03 0. -1.
    9900012    2    1    2    0    0 -0.31843207455E+02 -0.43101379063E+00 -0.31858089684E+02  0.46142317497E+02  0.99999975889E+01 0.  0.
        -12    1    1    2    0    0  0.31843207455E+02  0.43101379063E+00  0.31858089684E+02  0.45045682503E+02  0.00000000000E+00 0.  1.
         11    1    3    3    0    0 -0.19814625280E+02 -0.15562625197E+01 -0.16495375070E+02  0.25829028765E+02  0.51100000000E-03 0. -1.
        -11    1    3    3    0    0 -0.92743117588E+01 -0.16423504625E+00 -0.76525878425E+01  0.12025054374E+02  0.51100000000E-03 0.  1.
         12    1    3    3    0    0 -0.27542704162E+01  0.12894837753E+01 -0.77101267711E+01  0.82882343572E+01  0.00000000000E+00 0. -1.
</event>
<event>
 7    1  0.4141894E-008  0.4614232E+02  0.7816164E-02  0.1320468E+00
        -11   -1    0    0    0    0  0.00000000000E+00  0.00000000000E+00  0.45593999997E+02  0.45594000000E+02  0.51100000000E-03 0. -1.
         11   -1    0    0    0    0 -0.00000000000E+00 -0.00000000000E+00 -0.45593999997E+02  0.45594000000E+02  0.51100000000E-03 0.  1.
    9900012    2    1    2    0    0  0.38195954618E+02  0.12271586628E+02  0.20483911413E+02  0.46142318583E+02  0.10000007496E+02 0.  0.
        -12    1    1    2    0    0 -0.38195954618E+02 -0.12271586628E+02 -0.20483911413E+02  0.45045681417E+02  0.00000000000E+00 0.  1.
         11    1    3    3    0    0  0.20838360889E+02  0.25661079938E+01  0.90997458046E+01  0.22882909971E+02  0.51100000000E-03 0. -1.
        -11    1    3    3    0    0  0.31767882716E+01  0.17507346683E+01  0.40059057663E+01  0.54041037065E+01  0.51100000000E-03 0.  1.
        -12    1    3    3    0    0  0.14180805458E+02  0.79547439655E+01  0.73782598417E+01  0.17855304906E+02  0.00000000000E+00 0.  1.
</event>
<event>
 7    1  0.4141894E-008  0.4614232E+02  0.7816164E-02  0.1320468E+00
        -11   -1    0    0    0    0  0.00000000000E+00  0.00000000000E+00  0.45593999997E+02  0.45594000000E+02  0.51100000000E-03 0.  1.
         11   -1    0    0    0    0 -0.00000000000E+00 -0.00000000000E+00 -0.45593999997E+02  0.45594000000E+02  0.51100000000E-03 0. -1.
    9900012    2    1    2    0    0 -0.21853588270E+02  0.12741799357E+02 -0.37271711622E+02  0.46142320314E+02  0.10000023283E+02 0.  0.
        -12    1    1    2    0    0  0.21853588270E+02 -0.12741799357E+02  0.37271711622E+02  0.45045679686E+02  0.00000000000E+00 0.  1.
         11    1    3    3    0    0 -0.36009018964E+01  0.47113431194E+01 -0.95095970526E+01  0.11206948060E+02  0.51100000000E-03 0. -1.
        -11    1    3    3    0    0 -0.58893905022E+01 -0.48136979207E+00 -0.54131711118E+01  0.80136794988E+01  0.51100000000E-03 0.  1.
        -12    1    3    3    0    0 -0.12363295871E+02  0.85118260298E+01 -0.22348943457E+02  0.26921692756E+02  0.00000000000E+00 0.  1.
</event>
<event>
 7    1  0.4141894E-008  0.4614232E+02  0.7816164E-02  0.1320468E+00
        -11   -1    0    0    0    0  0.00000000000E+00  0.00000000000E+00  0.45593999997E+02  0.45594000000E+02  0.51100000000E-03 0.  1.
         11   -1    0    0    0    0 -0.00000000000E+00 -0.00000000000E+00 -0.45593999997E+02  0.45594000000E+02  0.51100000000E-03 0. -1.
    9900012    2    1    2    0    0 -0.38077762811E+02  0.23832816385E+02 -0.33457984410E+01  0.46142317357E+02  0.99999963189E+01 0.  0.
        -12    1    1    2    0    0  0.38077762811E+02 -0.23832816385E+02  0.33457984410E+01  0.45045682643E+02  0.00000000000E+00 0.  1.
         11    1    3    3    0    0 -0.40311123454E+01  0.50709470694E+01 -0.28630904508E+00  0.64843152339E+01  0.51100000000E-03 0. -1.
        -11    1    3    3    0    0 -0.21721432344E+02  0.12850021126E+02  0.14074448161E+01  0.25276957237E+02  0.51100000000E-03 0.  1.
        -12    1    3    3    0    0 -0.12325218122E+02  0.59118481895E+01 -0.44669342120E+01  0.14381044886E+02  0.00000000000E+00 0.  1.
</event>
<event>
 7    1  0.4141894E-008  0.4614232E+02  0.7816164E-02  0.1320468E+00
        -11   -1    0    0    0    0  0.00000000000E+00  0.00000000000E+00  0.45593999997E+02  0.45594000000E+02  0.51100000000E-03 0. -1.
         11   -1    0    0    0    0 -0.00000000000E+00 -0.00000000000E+00 -0.45593999997E+02  0.45594000000E+02  0.51100000000E-03 0.  1.
    9900012    2    1    2    0    0 -0.23909920924E+02 -0.22990470128E+02  0.30477325714E+02  0.46142318542E+02  0.10000007120E+02 0.  0.
        -12    1    1    2    0    0  0.23909920924E+02  0.22990470128E+02 -0.30477325714E+02  0.45045681458E+02  0.00000000000E+00 0.  1.
         11    1    3    3    0    0 -0.97979086844E+00 -0.25659432097E+01  0.58378443707E+01  0.64517037951E+01  0.51100000000E-03 0. -1.
        -11    1    3    3    0    0 -0.31382545606E+01 -0.21797081267E+01  0.12211693144E+01  0.40113618586E+01  0.51100000000E-03 0.  1.
         12    1    3    3    0    0 -0.19791875495E+02 -0.18244818792E+02  0.23418312029E+02  0.35679252888E+02  0.00000000000E+00 0. -1.
</event>
<event>
 7    1  0.4141894E-008  0.4614232E+02  0.7816164E-02  0.1320468E+00
        -11   -1    0    0    0    0  0.00000000000E+00  0.00000000000E+00  0.45593999997E+02  0.45594000000E+02  0.51100000000E-03 0. -1.
         11   -1    0    0    0    0 -0.00000000000E+00 -0.00000000000E+00 -0.45593999997E+02  0.45594000000E+02  0.51100000000E-03 0.  1.
    9900012    2    1    2    0    0  0.39641208653E+00 -0.30223631113E+02  0.33398927919E+02  0.46142318671E+02  0.10000008300E+02 0.  0.
        -12    1    1    2    0    0 -0.39641208653E+00  0.30223631113E+02 -0.33398927919E+02  0.45045681329E+02  0.00000000000E+00 0.  1.
         11    1    3    3    0    0  0.13638656149E+01 -0.35989288862E+01  0.13993708201E+01  0.40951993232E+01  0.51100000000E-03 0.  1.
        -11    1    3    3    0    0  0.17021061958E+01 -0.20522298625E+02  0.24901218987E+02  0.32313040922E+02  0.51100000000E-03 0. -1.
        -12    1    3    3    0    0 -0.26695597241E+01 -0.61024036021E+01  0.70983381122E+01  0.97340784257E+01  0.00000000000E+00 0.  1.
</event>
<event>
 7    1  0.4141894E-008  0.4614232E+02  0.7816164E-02  0.1320468E+00
        -11   -1    0    0    0    0  0.00000000000E+00  0.00000000000E+00  0.45593999997E+02  0.45594000000E+02  0.51100000000E-03 0.  1.
         11   -1    0    0    0    0 -0.00000000000E+00 -0.00000000000E+00 -0.45593999997E+02  0.45594000000E+02  0.51100000000E-03 0. -1.
    9900012    2    1    2    0    0  0.14458751329E+02  0.42640051202E+02  0.13725755624E+01  0.46142318518E+02  0.10000006901E+02 0.  0.
        -12    1    1    2    0    0 -0.14458751329E+02 -0.42640051202E+02 -0.13725755624E+01  0.45045681482E+02  0.00000000000E+00 0.  1.
         11    1    3    3    0    0  0.38780053672E+01  0.20874077739E+02  0.14434097406E+01  0.21280260314E+02  0.51100000000E-03 0. -1.
        -11    1    3    3    0    0  0.16700417653E+01  0.96131057496E+01 -0.67444675744E+00  0.97803742433E+01  0.51100000000E-03 0.  1.
        -12    1    3    3    0    0  0.89107041969E+01  0.12152867713E+02  0.60361257929E+00  0.15081683961E+02  0.00000000000E+00 0.  1.
</event>
<event>
 7    1  0.4141894E-008  0.4614232E+02  0.7816164E-02  0.1320468E+00
        -11   -1    0    0    0    0  0.00000000000E+00  0.00000000000E+00  0.45593999997E+02  0.45594000000E+02  0.51100000000E-03 0. -1.
         11   -1    0    0    0    0 -0.00000000000E+00 -0.00000000000E+00 -0.45593999997E+02  0.45594000000E+02  0.51100000000E-03 0.  1.
    9900012    2    1    2    0    0 -0.31473418861E+02 -0.13417523903E+01  0.32198401487E+02  0.46142318158E+02  0.10000003618E+02 0.  0.
        -12    1    1    2    0    0  0.31473418861E+02  0.13417523903E+01 -0.32198401487E+02  0.45045681842E+02  0.00000000000E+00 0.  1.
         11    1    3    3    0    0 -0.91169697961E+01  0.46876087545E+00  0.13041180116E+02  0.15918896133E+02  0.51100000000E-03 0. -1.
        -11    1    3    3    0    0 -0.77933169087E+01  0.24964394707E+01  0.63739372140E+01  0.10372804555E+02  0.51100000000E-03 0.  1.
         12    1    3    3    0    0 -0.14563132157E+02 -0.43069527364E+01  0.12783284158E+02  0.19850617470E+02  0.00000000000E+00 0. -1.
</event>
<event>
 7    1  0.4141894E-008  0.4614232E+02  0.7816164E-02  0.1320468E+00
        -11   -1    0    0    0    0  0.00000000000E+00  0.00000000000E+00  0.45593999997E+02  0.45594000000E+02  0.51100000000E-03 0. -1.
         11   -1    0    0    0    0 -0.00000000000E+00 -0.00000000000E+00 -0.45593999997E+02  0.45594000000E+02  0.51100000000E-03 0.  1.
    9900012    2    1    2    0    0  0.26389530712E+01  0.38705720848E+02  0.22891407113E+02  0.46142318527E+02  0.10000006988E+02 0.  0.
        -12    1    1    2    0    0 -0.26389530712E+01 -0.38705720848E+02 -0.22891407113E+02  0.45045681473E+02  0.00000000000E+00 0.  1.
         11    1    3    3    0    0  0.47029741119E+00  0.85581542124E+01  0.90108936990E+01  0.12436212795E+02  0.51100000000E-03 0. -1.
        -11    1    3    3    0    0  0.32152054546E+01  0.92735172292E+01  0.44490761053E+01  0.10776360534E+02  0.51100000000E-03 0.  1.
        -12    1    3    3    0    0 -0.10465497945E+01  0.20874049407E+02  0.94314373088E+01  0.22929745198E+02  0.00000000000E+00 0.  1.
</event>
<event>
 7    1  0.4141894E-008  0.4614232E+02  0.7816164E-02  0.1320468E+00
        -11   -1    0    0    0    0  0.00000000000E+00  0.00000000000E+00  0.45593999997E+02  0.45594000000E+02  0.51100000000E-03 0.  1.
         11   -1    0    0    0    0 -0.00000000000E+00 -0.00000000000E+00 -0.45593999997E+02  0.45594000000E+02  0.51100000000E-03 0. -1.
    9900012    2    1    2    0    0  0.41376301542E+02  0.15067526356E+02 -0.94913038112E+01  0.46142317323E+02  0.99999960050E+01 0.  0.
        -12    1    1    2    0    0 -0.41376301542E+02 -0.15067526356E+02  0.94913038112E+01  0.45045682677E+02  0.00000000000E+00 0.  1.
         11    1    3    3    0    0  0.32216456743E+01 -0.67141398457E+00 -0.20240141173E+01  0.38634739546E+01  0.51100000000E-03 0. -1.
        -11    1    3    3    0    0  0.25777951816E+02  0.87886815037E+01 -0.30100262615E+01  0.27400802557E+02  0.51100000000E-03 0.  1.
         12    1    3    3    0    0  0.12376704052E+02  0.69502588365E+01 -0.44572634323E+01  0.14878040812E+02  0.00000000000E+00 0. -1.
</event>
<event>
 7    1  0.4141894E-008  0.4614232E+02  0.7816164E-02  0.1320468E+00
        -11   -1    0    0    0    0  0.00000000000E+00  0.00000000000E+00  0.45593999997E+02  0.45594000000E+02  0.51100000000E-03 0.  1.
         11   -1    0    0    0    0 -0.00000000000E+00 -0.00000000000E+00 -0.45593999997E+02  0.45594000000E+02  0.51100000000E-03 0. -1.
    9900012    2    1    2    0    0  0.23581741335E+02  0.29991457319E+02 -0.23948431333E+02  0.46142318744E+02  0.10000008964E+02 0.  0.
        -12    1    1    2    0    0 -0.23581741335E+02 -0.29991457319E+02  0.23948431333E+02  0.45045681256E+02  0.00000000000E+00 0.  1.
         11    1    3    3    0    0  0.77294634075E+01  0.80749887239E+01 -0.56255585783E+01  0.12513870586E+02  0.51100000000E-03 0. -1.
        -11    1    3    3    0    0  0.79844460791E+01  0.82631401850E+01 -0.12098985473E+02  0.16685811777E+02  0.51100000000E-03 0.  1.
         12    1    3    3    0    0  0.78678318479E+01  0.13653328410E+02 -0.62238872812E+01  0.16942636382E+02  0.00000000000E+00 0. -1.
</event>
<event>
 7    1  0.4141894E-008  0.4614232E+02  0.7816164E-02  0.1320468E+00
        -11   -1    0    0    0    0  0.00000000000E+00  0.00000000000E+00  0.45593999997E+02  0.45594000000E+02  0.51100000000E-03 0. -1.
         11   -1    0    0    0    0 -0.00000000000E+00 -0.00000000000E+00 -0.45593999997E+02  0.45594000000E+02  0.51100000000E-03 0.  1.
    9900012    2    1    2    0    0  0.23817171815E+02  0.35887832068E+02  0.13187846490E+02  0.46142318088E+02  0.10000002985E+02 0.  0.
        -12    1    1    2    0    0 -0.23817171815E+02 -0.35887832068E+02 -0.13187846490E+02  0.45045681912E+02  0.00000000000E+00 0.  1.
         11    1    3    3    0    0  0.42309021820E+00  0.30438708465E+01  0.16420073341E+01  0.34842995579E+01  0.51100000000E-03 0. -1.
        -11    1    3    3    0    0  0.13898936691E+02  0.23055659487E+02  0.44535105766E+01  0.27286949852E+02  0.51100000000E-03 0.  1.
         12    1    3    3    0    0  0.94951449064E+01  0.97883017349E+01  0.70923285795E+01  0.15371068679E+02  0.00000000000E+00 0. -1.
</event>
<event>
 7    1  0.4141894E-008  0.4614232E+02  0.7816164E-02  0.1320468E+00
        -11   -1    0    0    0    0  0.00000000000E+00  0.00000000000E+00  0.45593999997E+02  0.45594000000E+02  0.51100000000E-03 0.  1.
         11   -1    0    0    0    0 -0.00000000000E+00 -0.00000000000E+00 -0.45593999997E+02  0.45594000000E+02  0.51100000000E-03 0. -1.
    9900012    2    1    2    0    0 -0.27783653109E+02 -0.35184665638E+01 -0.35281759253E+02  0.46142317377E+02  0.99999964929E+01 0.  0.
        -12    1    1    2    0    0  0.27783653109E+02  0.35184665638E+01  0.35281759253E+02  0.45045682623E+02  0.00000000000E+00 0.  1.
         11    1    3    3    0    0 -0.16833767918E+00 -0.17142852093E+01 -0.19010843737E+01  0.25653914731E+01  0.51100000000E-03 0. -1.
        -11    1    3    3    0    0 -0.32198571446E+01  0.66359465194E+00 -0.24171662812E+01  0.40805062169E+01  0.51100000000E-03 0.  1.
         12    1    3    3    0    0 -0.24395458285E+02 -0.24677760064E+01 -0.30963508598E+02  0.39496419687E+02  0.00000000000E+00 0. -1.
</event>
<event>
 7    1  0.4141894E-008  0.4614232E+02  0.7816164E-02  0.1320468E+00
        -11   -1    0    0    0    0  0.00000000000E+00  0.00000000000E+00  0.45593999997E+02  0.45594000000E+02  0.51100000000E-03 0.  1.
         11   -1    0    0    0    0 -0.00000000000E+00 -0.00000000000E+00 -0.45593999997E+02  0.45594000000E+02  0.51100000000E-03 0. -1.
    9900012    2    1    2    0    0 -0.43302644122E+02  0.11708798985E+02 -0.41107771434E+01  0.46142318183E+02  0.10000003845E+02 0.  0.
        -12    1    1    2    0    0  0.43302644122E+02 -0.11708798985E+02  0.41107771434E+01  0.45045681817E+02  0.00000000000E+00 0.  1.
         11    1    3    3    0    0 -0.18543834690E+02  0.60625892176E+01  0.15697607746E+01  0.19572760209E+02  0.51100000000E-03 0. -1.
        -11    1    3    3    0    0 -0.36570508688E+01 -0.27007570294E+00 -0.24673402135E+01  0.44198110743E+01  0.51100000000E-03 0.  1.
         12    1    3    3    0    0 -0.21101758563E+02  0.59162854702E+01 -0.32131977045E+01  0.22149746900E+02  0.00000000000E+00 0. -1.
</event>
<event>
 7    1  0.4141894E-008  0.4614232E+02  0.7816164E-02  0.1320468E+00
        -11   -1    0    0    0    0  0.00000000000E+00  0.00000000000E+00  0.45593999997E+02  0.45594000000E+02  0.51100000000E-03 0. -1.
         11   -1    0    0    0    0 -0.00000000000E+00 -0.00000000000E+00 -0.45593999997E+02  0.45594000000E+02  0.51100000000E-03 0.  1.
    9900012    2    1    2    0    0  0.57211115757E+01  0.42728860786E+02 -0.13062403887E+02  0.46142322549E+02  0.10000043658E+02 0.  0.
        -12    1    1    2    0    0 -0.57211115757E+01 -0.42728860786E+02  0.13062403887E+02  0.45045677451E+02  0.00000000000E+00 0.  1.
         11    1    3    3    0    0  0.24314690874E+00  0.84621746285E+01 -0.24532058477E+01  0.88139513871E+01  0.51100000000E-03 0. -1.
        -11    1    3    3    0    0  0.39476106325E+01  0.68548183108E+01 -0.41964919522E-01  0.79103682022E+01  0.51100000000E-03 0.  1.
        -12    1    3    3    0    0  0.15303540344E+01  0.27411867847E+02 -0.10567233120E+02  0.29418002959E+02  0.00000000000E+00 0.  1.
</event>
<event>
 7    1  0.4141894E-008  0.4614232E+02  0.7816164E-02  0.1320468E+00
        -11   -1    0    0    0    0  0.00000000000E+00  0.00000000000E+00  0.45593999997E+02  0.45594000000E+02  0.51100000000E-03 0. -1.
         11   -1    0    0    0    0 -0.00000000000E+00 -0.00000000000E+00 -0.45593999997E+02  0.45594000000E+02  0.51100000000E-03 0.  1.
    9900012    2    1    2    0    0  0.43569775411E+02 -0.11426711628E+02 -0.46733607070E+00  0.46142317954E+02  0.10000001755E+02 0.  0.
        -12    1    1    2    0    0 -0.43569775411E+02  0.11426711628E+02  0.46733607070E+00  0.45045682046E+02  0.00000000000E+00 0.  1.
         11    1    3    3    0    0  0.26399969656E+02 -0.44692644747E+01  0.17666786685E+01  0.26833819641E+02  0.51100000000E-03 0. -1.
        -11    1    3    3    0    0  0.43902600149E+01 -0.61988423559E+00 -0.24023538951E+01  0.50428111170E+01  0.51100000000E-03 0.  1.
        -12    1    3    3    0    0  0.12779545741E+02 -0.63375629181E+01  0.16833915582E+00  0.14265687195E+02  0.00000000000E+00 0.  1.
</event>
<event>
 7    1  0.4141894E-008  0.4614232E+02  0.7816164E-02  0.1320468E+00
        -11   -1    0    0    0    0  0.00000000000E+00  0.00000000000E+00  0.45593999997E+02  0.45594000000E+02  0.51100000000E-03 0.  1.
         11   -1    0    0    0    0 -0.00000000000E+00 -0.00000000000E+00 -0.45593999997E+02  0.45594000000E+02  0.51100000000E-03 0. -1.
    9900012    2    1    2    0    0 -0.41839284438E+02 -0.16473252209E+02 -0.26869548273E+01  0.46142317777E+02  0.10000000147E+02 0.  0.
        -12    1    1    2    0    0  0.41839284438E+02  0.16473252209E+02  0.26869548273E+01  0.45045682223E+02  0.00000000000E+00 0.  1.
         11    1    3    3    0    0 -0.63275798596E+01 -0.47650632081E+01  0.74420514419E+00  0.79559999883E+01  0.51100000000E-03 0. -1.
        -11    1    3    3    0    0 -0.35211772577E+01  0.26706043019E+00  0.11684196708E+01  0.37195719299E+01  0.51100000000E-03 0.  1.
         12    1    3    3    0    0 -0.31990527321E+02 -0.11975249431E+02 -0.45995796423E+01  0.34466745859E+02  0.00000000000E+00 0. -1.
</event>
<event>
 7    1  0.4141894E-008  0.4614232E+02  0.7816164E-02  0.1320468E+00
        -11   -1    0    0    0    0  0.00000000000E+00  0.00000000000E+00  0.45593999997E+02  0.45594000000E+02  0.51100000000E-03 0.  1.
         11   -1    0    0    0    0 -0.00000000000E+00 -0.00000000000E+00 -0.45593999997E+02  0.45594000000E+02  0.51100000000E-03 0. -1.
    9900012    2    1    2    0    0  0.75077082265E+01 -0.25985304036E+02 -0.36020990755E+02  0.46142317814E+02  0.10000000484E+02 0.  0.
        -12    1    1    2    0    0 -0.75077082265E+01  0.25985304036E+02  0.36020990755E+02  0.45045682186E+02  0.00000000000E+00 0.  1.
         11    1    3    3    0    0  0.31165845368E+01 -0.33580271317E+01 -0.80843925931E+01  0.92923005360E+01  0.51100000000E-03 0. -1.
        -11    1    3    3    0    0  0.93920612261E+00 -0.45884740787E+01 -0.10623046443E+02  0.11609707942E+02  0.51100000000E-03 0.  1.
         12    1    3    3    0    0  0.34519175671E+01 -0.18038802825E+02 -0.17313551718E+02  0.25240309336E+02  0.00000000000E+00 0. -1.
</event>
<event>
 7    1  0.4141894E-008  0.4614232E+02  0.7816164E-02  0.1320468E+00
        -11   -1    0    0    0    0  0.00000000000E+00  0.00000000000E+00  0.45593999997E+02  0.45594000000E+02  0.51100000000E-03 0.  1.
         11   -1    0    0    0    0 -0.00000000000E+00 -0.00000000000E+00 -0.45593999997E+02  0.45594000000E+02  0.51100000000E-03 0. -1.
    9900012    2    1    2    0    0  0.44365673413E+02 -0.76505951969E+00 -0.77598421662E+01  0.46142318255E+02  0.10000004501E+02 0.  0.
        -12    1    1    2    0    0 -0.44365673413E+02  0.76505951969E+00  0.77598421662E+01  0.45045681745E+02  0.00000000000E+00 0.  1.
         11    1    3    3    0    0  0.10043983312E+02 -0.10744259388E+01 -0.76919706217E+00  0.10130530897E+02  0.51100000000E-03 0. -1.
        -11    1    3    3    0    0  0.20923658341E+02 -0.34325243705E+01 -0.61427739192E+01  0.22075220805E+02  0.51100000000E-03 0.  1.
        -12    1    3    3    0    0  0.13398031760E+02  0.37418907896E+01 -0.84787118482E+00  0.13936566552E+02  0.00000000000E+00 0.  1.
</event>
<event>
 7    1  0.4141894E-008  0.4614232E+02  0.7816164E-02  0.1320468E+00
        -11   -1    0    0    0    0  0.00000000000E+00  0.00000000000E+00  0.45593999997E+02  0.45594000000E+02  0.51100000000E-03 0. -1.
         11   -1    0    0    0    0 -0.00000000000E+00 -0.00000000000E+00 -0.45593999997E+02  0.45594000000E+02  0.51100000000E-03 0.  1.
    9900012    2    1    2    0    0  0.37020491478E+02  0.17100147161E+02 -0.19135877604E+02  0.46142316146E+02  0.99999852721E+01 0.  0.
        -12    1    1    2    0    0 -0.37020491478E+02 -0.17100147161E+02  0.19135877604E+02  0.45045683854E+02  0.00000000000E+00 0.  1.
         11    1    3    3    0    0  0.91813486676E+01  0.15885644360E+01 -0.45634714683E+01  0.10375257704E+02  0.51100000000E-03 0. -1.
        -11    1    3    3    0    0  0.92013281610E+01  0.26304636978E+01 -0.70806041641E+01  0.11904567812E+02  0.51100000000E-03 0.  1.
        -12    1    3    3    0    0  0.18637814650E+02  0.12881119027E+02 -0.74918019712E+01  0.23862490630E+02  0.00000000000E+00 0.  1.
</event>
<event>
 7    1  0.4141894E-008  0.4614232E+02  0.7816164E-02  0.1320468E+00
        -11   -1    0    0    0    0  0.00000000000E+00  0.00000000000E+00  0.45593999997E+02  0.45594000000E+02  0.51100000000E-03 0.  1.
         11   -1    0    0    0    0 -0.00000000000E+00 -0.00000000000E+00 -0.45593999997E+02  0.45594000000E+02  0.51100000000E-03 0. -1.
    9900012    2    1    2    0    0 -0.55043871152E+01 -0.21811078538E+02 -0.39026811006E+02  0.46142318722E+02  0.10000008765E+02 0.  0.
        -12    1    1    2    0    0  0.55043871152E+01  0.21811078538E+02  0.39026811006E+02  0.45045681278E+02  0.00000000000E+00 0.  1.
         11    1    3    3    0    0 -0.18888549169E+01 -0.63385961167E+01 -0.56235882317E+01  0.86816080589E+01  0.51100000000E-03 0. -1.
        -11    1    3    3    0    0  0.12767870148E+01 -0.74546789592E+01 -0.15093867022E+02  0.16882749936E+02  0.51100000000E-03 0.  1.
         12    1    3    3    0    0 -0.48923192131E+01 -0.80178034617E+01 -0.18309355752E+02  0.20577960727E+02  0.00000000000E+00 0. -1.
</event>
<event>
 7    1  0.4141894E-008  0.4614232E+02  0.7816164E-02  0.1320468E+00
        -11   -1    0    0    0    0  0.00000000000E+00  0.00000000000E+00  0.45593999997E+02  0.45594000000E+02  0.51100000000E-03 0.  1.
         11   -1    0    0    0    0 -0.00000000000E+00 -0.00000000000E+00 -0.45593999997E+02  0.45594000000E+02  0.51100000000E-03 0. -1.
    9900012    2    1    2    0    0 -0.34832103103E+02 -0.14968236631E+01 -0.28523632548E+02  0.46142317616E+02  0.99999986799E+01 0.  0.
        -12    1    1    2    0    0  0.34832103103E+02  0.14968236631E+01  0.28523632548E+02  0.45045682384E+02  0.00000000000E+00 0.  1.
         11    1    3    3    0    0 -0.25290905154E+02 -0.14477820233E+01 -0.18266605604E+02  0.31231311802E+02  0.51100000000E-03 0. -1.
        -11    1    3    3    0    0 -0.36726203842E+01 -0.18927412094E+01 -0.65032786017E+01  0.77047545454E+01  0.51100000000E-03 0.  1.
         12    1    3    3    0    0 -0.58685775644E+01  0.18436995696E+01 -0.37537483426E+01  0.72062512690E+01  0.00000000000E+00 0. -1.
</event>
<event>
 7    1  0.4141894E-008  0.4614232E+02  0.7816164E-02  0.1320468E+00
        -11   -1    0    0    0    0  0.00000000000E+00  0.00000000000E+00  0.45593999997E+02  0.45594000000E+02  0.51100000000E-03 0.  1.
         11   -1    0    0    0    0 -0.00000000000E+00 -0.00000000000E+00 -0.45593999997E+02  0.45594000000E+02  0.51100000000E-03 0. -1.
    9900012    2    1    2    0    0  0.54111428675E+01 -0.34729100636E+01 -0.44584436204E+02  0.46142317376E+02  0.99999964877E+01 0.  0.
        -12    1    1    2    0    0 -0.54111428675E+01  0.34729100636E+01  0.44584436204E+02  0.45045682624E+02  0.00000000000E+00 0.  1.
         11    1    3    3    0    0  0.23572985525E+01  0.22108454174E+01 -0.27344671390E+02  0.27534991331E+02  0.51100000000E-03 0. -1.
        -11    1    3    3    0    0  0.71677661588E+00 -0.37342392275E+00 -0.66558869012E+00  0.10470065466E+01  0.51100000000E-03 0.  1.
         12    1    3    3    0    0  0.23370676991E+01 -0.53103315583E+01 -0.16574176124E+02  0.17560319498E+02  0.00000000000E+00 0. -1.
</event>
<event>
 7    1  0.4141894E-008  0.4614232E+02  0.7816164E-02  0.1320468E+00
        -11   -1    0    0    0    0  0.00000000000E+00  0.00000000000E+00  0.45593999997E+02  0.45594000000E+02  0.51100000000E-03 0. -1.
         11   -1    0    0    0    0 -0.00000000000E+00 -0.00000000000E+00 -0.45593999997E+02  0.45594000000E+02  0.51100000000E-03 0.  1.
    9900012    2    1    2    0    0 -0.92732122574E+00 -0.45938183208E+01  0.44801231654E+02  0.46142318197E+02  0.10000003972E+02 0.  0.
        -12    1    1    2    0    0  0.92732122574E+00  0.45938183208E+01 -0.44801231654E+02  0.45045681803E+02  0.00000000000E+00 0.  1.
         11    1    3    3    0    0 -0.16346603042E+01 -0.29369481902E+01  0.11923894401E+02  0.12388584945E+02  0.51100000000E-03 0. -1.
        -11    1    3    3    0    0  0.20506318252E+01 -0.35046944906E+01  0.10463263378E+02  0.11223540223E+02  0.51100000000E-03 0.  1.
        -12    1    3    3    0    0 -0.13432927468E+01  0.18478243600E+01  0.22414073875E+02  0.22530193029E+02  0.00000000000E+00 0.  1.
</event>
<event>
 7    1  0.4141894E-008  0.4614232E+02  0.7816164E-02  0.1320468E+00
        -11   -1    0    0    0    0  0.00000000000E+00  0.00000000000E+00  0.45593999997E+02  0.45594000000E+02  0.51100000000E-03 0.  1.
         11   -1    0    0    0    0 -0.00000000000E+00 -0.00000000000E+00 -0.45593999997E+02  0.45594000000E+02  0.51100000000E-03 0. -1.
    9900012    2    1    2    0    0  0.12836818958E+02 -0.49793809478E+01 -0.42889805263E+02  0.46142317065E+02  0.99999936518E+01 0.  0.
        -12    1    1    2    0    0 -0.12836818958E+02  0.49793809478E+01  0.42889805263E+02  0.45045682935E+02  0.00000000000E+00 0.  1.
         11    1    3    3    0    0  0.72070457602E+01 -0.61805842115E+01 -0.28864584361E+02  0.30385940176E+02  0.51100000000E-03 0. -1.
        -11    1    3    3    0    0  0.57636471979E+01  0.81223286126E+00 -0.90244641009E+01  0.10738729153E+02  0.51100000000E-03 0.  1.
         12    1    3    3    0    0 -0.13387400006E+00  0.38897040251E+00 -0.50007568014E+01  0.50176477366E+01  0.00000000000E+00 0. -1.
</event>
<event>
 7    1  0.4141894E-008  0.4614232E+02  0.7816164E-02  0.1320468E+00
        -11   -1    0    0    0    0  0.00000000000E+00  0.00000000000E+00  0.45593999997E+02  0.45594000000E+02  0.51100000000E-03 0. -1.
         11   -1    0    0    0    0 -0.00000000000E+00 -0.00000000000E+00 -0.45593999997E+02  0.45594000000E+02  0.51100000000E-03 0.  1.
    9900012    2    1    2    0    0  0.11399640094E+02  0.79567154615E+01  0.42846848009E+02  0.46142317637E+02  0.99999988706E+01 0.  0.
        -12    1    1    2    0    0 -0.11399640094E+02 -0.79567154615E+01 -0.42846848009E+02  0.45045682363E+02  0.00000000000E+00 0.  1.
         11    1    3    3    0    0  0.35546862758E+01  0.36698255894E+01  0.11207103102E+02  0.12316759906E+02  0.51100000000E-03 0. -1.
        -11    1    3    3    0    0  0.18112928082E+01 -0.21649726806E+01  0.47880897941E+01  0.55582094673E+01  0.51100000000E-03 0.  1.
        -12    1    3    3    0    0  0.60336610098E+01  0.64518625526E+01  0.26851655113E+02  0.28267348264E+02  0.00000000000E+00 0.  1.
</event>
<event>
 7    1  0.4141894E-008  0.4614232E+02  0.7816164E-02  0.1320468E+00
        -11   -1    0    0    0    0  0.00000000000E+00  0.00000000000E+00  0.45593999997E+02  0.45594000000E+02  0.51100000000E-03 0.  1.
         11   -1    0    0    0    0 -0.00000000000E+00 -0.00000000000E+00 -0.45593999997E+02  0.45594000000E+02  0.51100000000E-03 0. -1.
    9900012    2    1    2    0    0 -0.42897134084E+02 -0.78108608214E+00 -0.13723669823E+02  0.46142319613E+02  0.10000016886E+02 0.  0.
        -12    1    1    2    0    0  0.42897134084E+02  0.78108608214E+00  0.13723669823E+02  0.45045680387E+02  0.00000000000E+00 0.  1.
         11    1    3    3    0    0 -0.74010366576E+01  0.31654936624E+01 -0.26029784587E+01  0.84599758186E+01  0.51100000000E-03 0. -1.
        -11    1    3    3    0    0 -0.75860727168E+01 -0.19843200664E+01 -0.40423555801E+01  0.88219422060E+01  0.51100000000E-03 0.  1.
         12    1    3    3    0    0 -0.27910024710E+02 -0.19622596782E+01 -0.70783357842E+01  0.28860401588E+02  0.00000000000E+00 0. -1.
</event>
<event>
 7    1  0.4141894E-008  0.4614232E+02  0.7816164E-02  0.1320468E+00
        -11   -1    0    0    0    0  0.00000000000E+00  0.00000000000E+00  0.45593999997E+02  0.45594000000E+02  0.51100000000E-03 0. -1.
         11   -1    0    0    0    0 -0.00000000000E+00 -0.00000000000E+00 -0.45593999997E+02  0.45594000000E+02  0.51100000000E-03 0.  1.
    9900012    2    1    2    0    0  0.37446085971E+02  0.24895020317E+02  0.26724509771E+01  0.46142318904E+02  0.10000010426E+02 0.  0.
        -12    1    1    2    0    0 -0.37446085971E+02 -0.24895020317E+02 -0.26724509771E+01  0.45045681096E+02  0.00000000000E+00 0.  1.
         11    1    3    3    0    0  0.70141015220E+01  0.53322836624E+01 -0.18190207102E+01  0.89966496999E+01  0.51100000000E-03 0. -1.
        -11    1    3    3    0    0  0.21293520438E+02  0.13272351350E+02 -0.22083608865E+00  0.25092191850E+02  0.51100000000E-03 0.  1.
        -12    1    3    3    0    0  0.91384640115E+01  0.62903853043E+01  0.47123077759E+01  0.12053477355E+02  0.00000000000E+00 0.  1.
</event>
<event>
 7    1  0.4141894E-008  0.4614232E+02  0.7816164E-02  0.1320468E+00
        -11   -1    0    0    0    0  0.00000000000E+00  0.00000000000E+00  0.45593999997E+02  0.45594000000E+02  0.51100000000E-03 0.  1.
         11   -1    0    0    0    0 -0.00000000000E+00 -0.00000000000E+00 -0.45593999997E+02  0.45594000000E+02  0.51100000000E-03 0. -1.
    9900012    2    1    2    0    0 -0.31718852182E+02 -0.31978923341E+02  0.61353148953E+00  0.46142317158E+02  0.99999945042E+01 0.  0.
        -12    1    1    2    0    0  0.31718852182E+02  0.31978923341E+02 -0.61353148953E+00  0.45045682842E+02  0.00000000000E+00 0.  1.
         11    1    3    3    0    0 -0.13493463677E+02 -0.16389971377E+02  0.26842835985E+01  0.21398834138E+02  0.51100000000E-03 0. -1.
        -11    1    3    3    0    0 -0.47842604601E+01 -0.51496700215E+01  0.18714827471E+01  0.72739739767E+01  0.51100000000E-03 0.  1.
         12    1    3    3    0    0 -0.13441128045E+02 -0.10439281942E+02 -0.39422348561E+01  0.17469509044E+02  0.00000000000E+00 0. -1.
</event>
<event>
 7    1  0.4141894E-008  0.4614232E+02  0.7816164E-02  0.1320468E+00
        -11   -1    0    0    0    0  0.00000000000E+00  0.00000000000E+00  0.45593999997E+02  0.45594000000E+02  0.51100000000E-03 0.  1.
         11   -1    0    0    0    0 -0.00000000000E+00 -0.00000000000E+00 -0.45593999997E+02  0.45594000000E+02  0.51100000000E-03 0. -1.
    9900012    2    1    2    0    0 -0.34084990065E+02 -0.25450828437E+02 -0.14818309725E+02  0.46142317421E+02  0.99999969017E+01 0.  0.
        -12    1    1    2    0    0  0.34084990065E+02  0.25450828437E+02  0.14818309725E+02  0.45045682579E+02  0.00000000000E+00 0.  1.
         11    1    3    3    0    0 -0.18593277671E+02 -0.14582523930E+02 -0.10804135145E+02  0.25982480929E+02  0.51100000000E-03 0.  1.
        -11    1    3    3    0    0 -0.95685397489E+01 -0.49134766470E+01 -0.46885023593E+01  0.11733765820E+02  0.51100000000E-03 0. -1.
         12    1    3    3    0    0 -0.59231726454E+01 -0.59548278600E+01  0.67432777880E+00  0.84260706727E+01  0.00000000000E+00 0. -1.
</event>
<event>
 7    1  0.4141894E-008  0.4614232E+02  0.7816164E-02  0.1320468E+00
        -11   -1    0    0    0    0  0.00000000000E+00  0.00000000000E+00  0.45593999997E+02  0.45594000000E+02  0.51100000000E-03 0. -1.
         11   -1    0    0    0    0 -0.00000000000E+00 -0.00000000000E+00 -0.45593999997E+02  0.45594000000E+02  0.51100000000E-03 0.  1.
    9900012    2    1    2    0    0 -0.43449957955E+02 -0.57465716688E+01 -0.10401511661E+02  0.46142318996E+02  0.10000011264E+02 0.  0.
        -12    1    1    2    0    0  0.43449957955E+02  0.57465716688E+01  0.10401511661E+02  0.45045681004E+02  0.00000000000E+00 0.  1.
         11    1    3    3    0    0 -0.15086143929E+02 -0.28226014555E+01 -0.40521621138E+01  0.15873841239E+02  0.51100000000E-03 0. -1.
        -11    1    3    3    0    0 -0.84629578488E+00 -0.11546599998E+01 -0.18344723428E+01  0.23269605301E+01  0.51100000000E-03 0.  1.
        -12    1    3    3    0    0 -0.27517518241E+02 -0.17693102135E+01 -0.45148772045E+01  0.27941517227E+02  0.00000000000E+00 0.  1.
</event>
<event>
 7    1  0.4141894E-008  0.4614232E+02  0.7816164E-02  0.1320468E+00
        -11   -1    0    0    0    0  0.00000000000E+00  0.00000000000E+00  0.45593999997E+02  0.45594000000E+02  0.51100000000E-03 0.  1.
         11   -1    0    0    0    0 -0.00000000000E+00 -0.00000000000E+00 -0.45593999997E+02  0.45594000000E+02  0.51100000000E-03 0. -1.
    9900012    2    1    2    0    0 -0.12668605689E+02  0.15992346068E+01 -0.43197946289E+02  0.46142315578E+02  0.99999800966E+01 0.  0.
        -12    1    1    2    0    0  0.12668605689E+02 -0.15992346068E+01  0.43197946289E+02  0.45045684422E+02  0.00000000000E+00 0.  1.
         11    1    3    3    0    0 -0.12120642475E+01  0.16094073798E+01 -0.89277464834E+01  0.91522647136E+01  0.51100000000E-03 0. -1.
        -11    1    3    3    0    0 -0.64802960715E+00  0.22355367856E+01 -0.10872379627E+02  0.11118732217E+02  0.51100000000E-03 0.  1.
        -12    1    3    3    0    0 -0.10808511834E+02 -0.22457095585E+01 -0.23397820179E+02  0.25871318648E+02  0.00000000000E+00 0.  1.
</event>
<event>
 7    1  0.4141894E-008  0.4614232E+02  0.7816164E-02  0.1320468E+00
        -11   -1    0    0    0    0  0.00000000000E+00  0.00000000000E+00  0.45593999997E+02  0.45594000000E+02  0.51100000000E-03 0.  1.
         11   -1    0    0    0    0 -0.00000000000E+00 -0.00000000000E+00 -0.45593999997E+02  0.45594000000E+02  0.51100000000E-03 0. -1.
    9900012    2    1    2    0    0 -0.40202661683E+02 -0.16388064905E+02 -0.12012112156E+02  0.46142317452E+02  0.99999971826E+01 0.  0.
        -12    1    1    2    0    0  0.40202661683E+02  0.16388064905E+02  0.12012112156E+02  0.45045682548E+02  0.00000000000E+00 0.  1.
         11    1    3    3    0    0 -0.31039650500E+02 -0.16624713838E+02 -0.10070346290E+02  0.36623119584E+02  0.51100000000E-03 0. -1.
        -11    1    3    3    0    0 -0.16966867865E+01 -0.14037453794E+00  0.26836425143E+00  0.17235053510E+01  0.51100000000E-03 0.  1.
        -12    1    3    3    0    0 -0.74663243961E+01  0.37702347086E+00 -0.22101301176E+01  0.77956925171E+01  0.00000000000E+00 0.  1.
</event>
<event>
 7    1  0.4141894E-008  0.4614232E+02  0.7816164E-02  0.1320468E+00
        -11   -1    0    0    0    0  0.00000000000E+00  0.00000000000E+00  0.45593999997E+02  0.45594000000E+02  0.51100000000E-03 0.  1.
         11   -1    0    0    0    0 -0.00000000000E+00 -0.00000000000E+00 -0.45593999997E+02  0.45594000000E+02  0.51100000000E-03 0. -1.
    9900012    2    1    2    0    0 -0.29782380152E+02 -0.24574164674E+02 -0.23199866141E+02  0.46142317345E+02  0.99999962017E+01 0.  0.
        -12    1    1    2    0    0  0.29782380152E+02  0.24574164674E+02  0.23199866141E+02  0.45045682655E+02  0.00000000000E+00 0.  1.
         11    1    3    3    0    0 -0.74042250587E+01 -0.68616188905E+01 -0.69478009645E+01  0.12254644059E+02  0.51100000000E-03 0. -1.
        -11    1    3    3    0    0 -0.61239070633E+01 -0.99553671604E+01 -0.55664180835E+01  0.12945909916E+02  0.51100000000E-03 0.  1.
         12    1    3    3    0    0 -0.16254248030E+02 -0.77571786231E+01 -0.10685647093E+02  0.20941763369E+02  0.00000000000E+00 0. -1.
</event>
<event>
 7    1  0.4141894E-008  0.4614232E+02  0.7816164E-02  0.1320468E+00
        -11   -1    0    0    0    0  0.00000000000E+00  0.00000000000E+00  0.45593999997E+02  0.45594000000E+02  0.51100000000E-03 0. -1.
         11   -1    0    0    0    0 -0.00000000000E+00 -0.00000000000E+00 -0.45593999997E+02  0.45594000000E+02  0.51100000000E-03 0.  1.
    9900012    2    1    2    0    0 -0.29304073354E+02  0.10045994946E+02  0.32702641633E+02  0.46142317639E+02  0.99999988869E+01 0.  0.
        -12    1    1    2    0    0  0.29304073354E+02 -0.10045994946E+02 -0.32702641633E+02  0.45045682361E+02  0.00000000000E+00 0.  1.
         11    1    3    3    0    0 -0.22974085585E+02  0.36070758913E+01  0.25661469382E+02  0.34631353078E+02  0.51100000000E-03 0. -1.
        -11    1    3    3    0    0 -0.33541994729E+01  0.40050339988E+01  0.45698550528E+01  0.69407871959E+01  0.51100000000E-03 0.  1.
         12    1    3    3    0    0 -0.29757882970E+01  0.24338850558E+01  0.24713171981E+01  0.45701773649E+01  0.00000000000E+00 0. -1.
</event>
<event>
 7    1  0.4141894E-008  0.4614232E+02  0.7816164E-02  0.1320468E+00
        -11   -1    0    0    0    0  0.00000000000E+00  0.00000000000E+00  0.45593999997E+02  0.45594000000E+02  0.51100000000E-03 0. -1.
         11   -1    0    0    0    0 -0.00000000000E+00 -0.00000000000E+00 -0.45593999997E+02  0.45594000000E+02  0.51100000000E-03 0.  1.
    9900012    2    1    2    0    0 -0.11382898954E+01 -0.32501545304E+02  0.31168370321E+02  0.46142318082E+02  0.10000002924E+02 0.  0.
        -12    1    1    2    0    0  0.11382898954E+01  0.32501545304E+02 -0.31168370321E+02  0.45045681918E+02  0.00000000000E+00 0.  1.
         11    1    3    3    0    0  0.17042761478E+01 -0.82816123878E+01  0.39402119278E+01  0.93281794165E+01  0.51100000000E-03 0. -1.
        -11    1    3    3    0    0 -0.29251401647E+00 -0.68489926825E+00  0.14370250952E-01  0.74488806053E+00  0.51100000000E-03 0.  1.
         12    1    3    3    0    0 -0.25500520268E+01 -0.23535033648E+02  0.27213788142E+02  0.36069250605E+02  0.00000000000E+00 0. -1.
</event>
<event>
 7    1  0.4141894E-008  0.4614231E+02  0.7816164E-02  0.1320468E+00
        -11   -1    0    0    0    0  0.00000000000E+00  0.00000000000E+00  0.45593999997E+02  0.45594000000E+02  0.51100000000E-03 0.  1.
         11   -1    0    0    0    0 -0.00000000000E+00 -0.00000000000E+00 -0.45593999997E+02  0.45594000000E+02  0.51100000000E-03 0. -1.
    9900012    2    1    2    0    0 -0.22615311340E+02 -0.27032502104E+01 -0.38863272955E+02  0.46142313709E+02  0.99999630455E+01 0.  0.
        -12    1    1    2    0    0  0.22615311340E+02  0.27032502104E+01  0.38863272955E+02  0.45045686291E+02  0.00000000000E+00 0.  1.
         11    1    3    3    0    0 -0.72811651981E+01 -0.66200781658E-01 -0.11110237515E+02  0.13283716615E+02  0.51100000000E-03 0.  1.
        -11    1    3    3    0    0 -0.14549024332E+02 -0.47738342214E+01 -0.23964213179E+02  0.28438479490E+02  0.51100000000E-03 0. -1.
        -12    1    3    3    0    0 -0.78512180976E+00  0.21367847927E+01 -0.37888222607E+01  0.44201176036E+01  0.00000000000E+00 0.  1.
</event>
<event>
 7    1  0.4141894E-008  0.4614232E+02  0.7816164E-02  0.1320468E+00
        -11   -1    0    0    0    0  0.00000000000E+00  0.00000000000E+00  0.45593999997E+02  0.45594000000E+02  0.51100000000E-03 0. -1.
         11   -1    0    0    0    0 -0.00000000000E+00 -0.00000000000E+00 -0.45593999997E+02  0.45594000000E+02  0.51100000000E-03 0.  1.
    9900012    2    1    2    0    0  0.11203769044E+02  0.43613919741E+02  0.11895567595E+01  0.46142317840E+02  0.10000000719E+02 0.  0.
        -12    1    1    2    0    0 -0.11203769044E+02 -0.43613919741E+02 -0.11895567595E+01  0.45045682160E+02  0.00000000000E+00 0.  1.
         11    1    3    3    0    0  0.61974192404E+01  0.18830598888E+02 -0.14918367993E+01  0.19880267529E+02  0.51100000000E-03 0.  1.
        -11    1    3    3    0    0  0.15101716537E+01  0.83200793330E+01 -0.22010440731E+01  0.87377876951E+01  0.51100000000E-03 0. -1.
         12    1    3    3    0    0  0.34961781498E+01  0.16463241520E+02  0.48824376318E+01  0.17524262616E+02  0.00000000000E+00 0. -1.
</event>
<event>
 7    1  0.4141894E-008  0.4614232E+02  0.7816164E-02  0.1320468E+00
        -11   -1    0    0    0    0  0.00000000000E+00  0.00000000000E+00  0.45593999997E+02  0.45594000000E+02  0.51100000000E-03 0. -1.
         11   -1    0    0    0    0 -0.00000000000E+00 -0.00000000000E+00 -0.45593999997E+02  0.45594000000E+02  0.51100000000E-03 0.  1.
    9900012    2    1    2    0    0  0.13118778248E+02 -0.24846171758E+02  0.35209069246E+02  0.46142321506E+02  0.10000034152E+02 0.  0.
        -12    1    1    2    0    0 -0.13118778248E+02  0.24846171758E+02 -0.35209069246E+02  0.45045678494E+02  0.00000000000E+00 0.  1.
         11    1    3    3    0    0  0.11477386064E+02 -0.21436206673E+02  0.28001442004E+02  0.37085335403E+02  0.51100000000E-03 0. -1.
        -11    1    3    3    0    0  0.11371155512E+00  0.16196623626E-01 -0.48500706774E+00  0.49842227606E+00  0.51100000000E-03 0.  1.
        -12    1    3    3    0    0  0.15276806288E+01 -0.34261617095E+01  0.76926343101E+01  0.85585638277E+01  0.00000000000E+00 0.  1.
</event>
<event>
 7    1  0.4141894E-008  0.4614232E+02  0.7816164E-02  0.1320468E+00
        -11   -1    0    0    0    0  0.00000000000E+00  0.00000000000E+00  0.45593999997E+02  0.45594000000E+02  0.51100000000E-03 0.  1.
         11   -1    0    0    0    0 -0.00000000000E+00 -0.00000000000E+00 -0.45593999997E+02  0.45594000000E+02  0.51100000000E-03 0. -1.
    9900012    2    1    2    0    0 -0.13294178039E+02 -0.28825734468E+02 -0.31960213019E+02  0.46142319257E+02  0.10000013644E+02 0.  0.
        -12    1    1    2    0    0  0.13294178039E+02  0.28825734468E+02  0.31960213019E+02  0.45045680743E+02  0.00000000000E+00 0.  1.
         11    1    3    3    0    0 -0.23257253277E+01 -0.41352681570E+01 -0.66046964466E+01  0.81321249648E+01  0.51100000000E-03 0. -1.
        -11    1    3    3    0    0 -0.54389744582E+01 -0.16818099928E+02 -0.21003413201E+02  0.27451307704E+02  0.51100000000E-03 0.  1.
         12    1    3    3    0    0 -0.55294782533E+01 -0.78723663834E+01 -0.43521033713E+01  0.10558886588E+02  0.00000000000E+00 0. -1.
</event>
<event>
 7    1  0.4141894E-008  0.4614232E+02  0.7816164E-02  0.1320468E+00
        -11   -1    0    0    0    0  0.00000000000E+00  0.00000000000E+00  0.45593999997E+02  0.45594000000E+02  0.51100000000E-03 0.  1.
         11   -1    0    0    0    0 -0.00000000000E+00 -0.00000000000E+00 -0.45593999997E+02  0.45594000000E+02  0.51100000000E-03 0. -1.
    9900012    2    1    2    0    0  0.29632427632E+02  0.33850052446E+02  0.22818151680E+01  0.46142317649E+02  0.99999989778E+01 0.  0.
        -12    1    1    2    0    0 -0.29632427632E+02 -0.33850052446E+02 -0.22818151680E+01  0.45045682351E+02  0.00000000000E+00 0.  1.
         11    1    3    3    0    0  0.45947094348E+01  0.58396093132E+01  0.22790314718E+01  0.77721539120E+01  0.51100000000E-03 0. -1.
        -11    1    3    3    0    0  0.41108901124E+01  0.40721139671E+01 -0.28433642557E+01  0.64471893278E+01  0.51100000000E-03 0.  1.
        -12    1    3    3    0    0  0.20926828085E+02  0.23938329166E+02  0.28461479519E+01  0.31922974409E+02  0.00000000000E+00 0.  1.
</event>
<event>
 7    1  0.4141894E-008  0.4614232E+02  0.7816164E-02  0.1320468E+00
        -11   -1    0    0    0    0  0.00000000000E+00  0.00000000000E+00  0.45593999997E+02  0.45594000000E+02  0.51100000000E-03 0.  1.
         11   -1    0    0    0    0 -0.00000000000E+00 -0.00000000000E+00 -0.45593999997E+02  0.45594000000E+02  0.51100000000E-03 0. -1.
    9900012    2    1    2    0    0  0.31523617664E+01 -0.73626982748E+01 -0.44327947110E+02  0.46142316460E+02  0.99999881330E+01 0.  0.
        -12    1    1    2    0    0 -0.31523617664E+01  0.73626982748E+01  0.44327947110E+02  0.45045683540E+02  0.00000000000E+00 0.  1.
         11    1    3    3    0    0 -0.13281959168E+01 -0.25955930530E+01 -0.10863606451E+02  0.11248073305E+02  0.51100000000E-03 0. -1.
        -11    1    3    3    0    0 -0.16911101180E+01 -0.23924712925E+01 -0.14950718443E+02  0.15235083017E+02  0.51100000000E-03 0.  1.
        -12    1    3    3    0    0  0.61716678012E+01 -0.23746339292E+01 -0.18513622216E+02  0.19659160138E+02  0.00000000000E+00 0.  1.
</event>
<event>
 7    1  0.4141894E-008  0.4614232E+02  0.7816164E-02  0.1320468E+00
        -11   -1    0    0    0    0  0.00000000000E+00  0.00000000000E+00  0.45593999997E+02  0.45594000000E+02  0.51100000000E-03 0.  1.
         11   -1    0    0    0    0 -0.00000000000E+00 -0.00000000000E+00 -0.45593999997E+02  0.45594000000E+02  0.51100000000E-03 0. -1.
    9900012    2    1    2    0    0 -0.42686588003E+02  0.98366859164E+01 -0.10498013069E+02  0.46142318036E+02  0.10000002511E+02 0.  0.
        -12    1    1    2    0    0  0.42686588003E+02 -0.98366859164E+01  0.10498013069E+02  0.45045681964E+02  0.00000000000E+00 0.  1.
         11    1    3    3    0    0 -0.21833376445E+02  0.11620491654E+01 -0.36464051319E+01  0.22166257147E+02  0.51100000000E-03 0. -1.
        -11    1    3    3    0    0  0.71858366057E-01  0.33494263085E+00  0.16849844565E+00  0.38176193896E+00  0.51100000000E-03 0.  1.
        -12    1    3    3    0    0 -0.20925069924E+02  0.83396941201E+01 -0.70201063832E+01  0.23594298951E+02  0.00000000000E+00 0.  1.
</event>
<event>
 7    1  0.4141894E-008  0.4614232E+02  0.7816164E-02  0.1320468E+00
        -11   -1    0    0    0    0  0.00000000000E+00  0.00000000000E+00  0.45593999997E+02  0.45594000000E+02  0.51100000000E-03 0.  1.
         11   -1    0    0    0    0 -0.00000000000E+00 -0.00000000000E+00 -0.45593999997E+02  0.45594000000E+02  0.51100000000E-03 0. -1.
    9900012    2    1    2    0    0 -0.27220166413E+02 -0.35878125080E+02  0.96758369159E+00  0.46142317221E+02  0.99999950761E+01 0.  0.
        -12    1    1    2    0    0  0.27220166413E+02  0.35878125080E+02 -0.96758369159E+00  0.45045682779E+02  0.00000000000E+00 0.  1.
         11    1    3    3    0    0 -0.17211734237E+02 -0.19142593108E+02  0.33209463315E+01  0.25955950206E+02  0.51100000000E-03 0. -1.
        -11    1    3    3    0    0 -0.60639949913E+01 -0.57494478863E+01 -0.14229673259E+01  0.84766162189E+01  0.51100000000E-03 0.  1.
        -12    1    3    3    0    0 -0.39444371844E+01 -0.10986084087E+02 -0.93039531399E+00  0.11709750796E+02  0.00000000000E+00 0.  1.
</event>
<event>
 7    1  0.4141894E-008  0.4614232E+02  0.7816164E-02  0.1320468E+00
        -11   -1    0    0    0    0  0.00000000000E+00  0.00000000000E+00  0.45593999997E+02  0.45594000000E+02  0.51100000000E-03 0.  1.
         11   -1    0    0    0    0 -0.00000000000E+00 -0.00000000000E+00 -0.45593999997E+02  0.45594000000E+02  0.51100000000E-03 0. -1.
    9900012    2    1    2    0    0 -0.17646120647E+02 -0.10418439075E+02 -0.40114636152E+02  0.46142317851E+02  0.10000000820E+02 0.  0.
        -12    1    1    2    0    0  0.17646120647E+02  0.10418439075E+02  0.40114636152E+02  0.45045682149E+02  0.00000000000E+00 0.  1.
         11    1    3    3    0    0 -0.47011862321E+00 -0.39608502247E+01 -0.41862962825E+01  0.57822506733E+01  0.51100000000E-03 0.  1.
        -11    1    3    3    0    0 -0.82038512950E+01 -0.34555310010E+01 -0.16383298182E+02  0.18645544512E+02  0.51100000000E-03 0. -1.
        -12    1    3    3    0    0 -0.89721507291E+01 -0.30020578497E+01 -0.19545041688E+02  0.21714522666E+02  0.00000000000E+00 0.  1.
</event>
<event>
 7    1  0.4141894E-008  0.4614232E+02  0.7816164E-02  0.1320468E+00
        -11   -1    0    0    0    0  0.00000000000E+00  0.00000000000E+00  0.45593999997E+02  0.45594000000E+02  0.51100000000E-03 0.  1.
         11   -1    0    0    0    0 -0.00000000000E+00 -0.00000000000E+00 -0.45593999997E+02  0.45594000000E+02  0.51100000000E-03 0. -1.
    9900012    2    1    2    0    0  0.60186131696E+01  0.15326070938E+02 -0.41928526991E+02  0.46142317294E+02  0.99999957390E+01 0.  0.
        -12    1    1    2    0    0 -0.60186131696E+01 -0.15326070938E+02  0.41928526991E+02  0.45045682706E+02  0.00000000000E+00 0.  1.
         11    1    3    3    0    0  0.61009725399E+01  0.83185107319E+01 -0.32077103792E+02  0.33695104610E+02  0.51100000000E-03 0. -1.
        -11    1    3    3    0    0 -0.58644993916E+00  0.70744079993E+01 -0.92392540579E+01  0.11651394246E+02  0.51100000000E-03 0.  1.
        -12    1    3    3    0    0  0.50409056883E+00 -0.66847793573E-01 -0.61216914036E+00  0.79581843752E+00  0.00000000000E+00 0.  1.
</event>
<event>
 7    1  0.4141894E-008  0.4614232E+02  0.7816164E-02  0.1320468E+00
        -11   -1    0    0    0    0  0.00000000000E+00  0.00000000000E+00  0.45593999997E+02  0.45594000000E+02  0.51100000000E-03 0.  1.
         11   -1    0    0    0    0 -0.00000000000E+00 -0.00000000000E+00 -0.45593999997E+02  0.45594000000E+02  0.51100000000E-03 0. -1.
    9900012    2    1    2    0    0 -0.32960903548E+02  0.12721177970E+02 -0.27943942750E+02  0.46142317986E+02  0.10000002052E+02 0.  0.
        -12    1    1    2    0    0  0.32960903548E+02 -0.12721177970E+02  0.27943942750E+02  0.45045682014E+02  0.00000000000E+00 0.  1.
         11    1    3    3    0    0 -0.77871488017E+01  0.20463510926E+01 -0.56434630290E+01  0.98323910863E+01  0.51100000000E-03 0. -1.
        -11    1    3    3    0    0 -0.12682209328E+02  0.33976103893E+01 -0.57464253199E+01  0.14331908247E+02  0.51100000000E-03 0.  1.
        -12    1    3    3    0    0 -0.12491545419E+02  0.72772164884E+01 -0.16554054401E+02  0.21978018652E+02  0.00000000000E+00 0.  1.
</event>
<event>
 7    1  0.4141894E-008  0.4614232E+02  0.7816164E-02  0.1320468E+00
        -11   -1    0    0    0    0  0.00000000000E+00  0.00000000000E+00  0.45593999997E+02  0.45594000000E+02  0.51100000000E-03 0. -1.
         11   -1    0    0    0    0 -0.00000000000E+00 -0.00000000000E+00 -0.45593999997E+02  0.45594000000E+02  0.51100000000E-03 0.  1.
    9900012    2    1    2    0    0 -0.19579103578E+02 -0.36548035519E+02  0.17607194629E+02  0.46142317633E+02  0.99999988291E+01 0.  0.
        -12    1    1    2    0    0  0.19579103578E+02  0.36548035519E+02 -0.17607194629E+02  0.45045682367E+02  0.00000000000E+00 0.  1.
         11    1    3    3    0    0  0.34344113355E+00 -0.50559449735E+01  0.22931905969E+01  0.55623066045E+01  0.51100000000E-03 0.  1.
        -11    1    3    3    0    0  0.59040190996E-01  0.11976146229E+00 -0.59138441089E-01  0.14603481892E+00  0.51100000000E-03 0. -1.
         12    1    3    3    0    0 -0.19981584903E+02 -0.31611852008E+02  0.15373142473E+02  0.40433976209E+02  0.00000000000E+00 0. -1.
</event>
<event>
 7    1  0.4141894E-008  0.4614231E+02  0.7816164E-02  0.1320468E+00
        -11   -1    0    0    0    0  0.00000000000E+00  0.00000000000E+00  0.45593999997E+02  0.45594000000E+02  0.51100000000E-03 0.  1.
         11   -1    0    0    0    0 -0.00000000000E+00 -0.00000000000E+00 -0.45593999997E+02  0.45594000000E+02  0.51100000000E-03 0. -1.
    9900012    2    1    2    0    0  0.39202224286E+02  0.14485148560E+02 -0.16807141479E+02  0.46142312943E+02  0.99999560610E+01 0.  0.
        -12    1    1    2    0    0 -0.39202224286E+02 -0.14485148560E+02  0.16807141479E+02  0.45045687057E+02  0.00000000000E+00 0.  1.
         11    1    3    3    0    0  0.18210270350E+02  0.43471810885E+01 -0.98889023754E+01  0.21173150925E+02  0.51100000000E-03 0. -1.
        -11    1    3    3    0    0  0.16252203256E+02  0.64126827320E+01 -0.28654834345E+01  0.17705016410E+02  0.51100000000E-03 0.  1.
        -12    1    3    3    0    0  0.47397506795E+01  0.37252847392E+01 -0.40527556693E+01  0.72641456075E+01  0.00000000000E+00 0.  1.
</event>
<event>
 7    1  0.4141894E-008  0.4614232E+02  0.7816164E-02  0.1320468E+00
        -11   -1    0    0    0    0  0.00000000000E+00  0.00000000000E+00  0.45593999997E+02  0.45594000000E+02  0.51100000000E-03 0.  1.
         11   -1    0    0    0    0 -0.00000000000E+00 -0.00000000000E+00 -0.45593999997E+02  0.45594000000E+02  0.51100000000E-03 0. -1.
    9900012    2    1    2    0    0 -0.27330928522E+02  0.23966002332E+02 -0.26603844470E+02  0.46142318051E+02  0.10000002643E+02 0.  0.
        -12    1    1    2    0    0  0.27330928522E+02 -0.23966002332E+02  0.26603844470E+02  0.45045681949E+02  0.00000000000E+00 0.  1.
         11    1    3    3    0    0 -0.87334555977E+01  0.60135017541E+01 -0.86749813785E+01  0.13700027453E+02  0.51100000000E-03 0. -1.
        -11    1    3    3    0    0 -0.18224110676E+02  0.15120856216E+02 -0.13756929933E+02  0.27386340100E+02  0.51100000000E-03 0.  1.
        -12    1    3    3    0    0 -0.37336224855E+00  0.28316443620E+01 -0.41719331584E+01  0.50559504981E+01  0.00000000000E+00 0.  1.
</event>
<event>
 7    1 -0.4141894E-008  0.4614231E+02  0.7816164E-02  0.1320468E+00
        -11   -1    0    0    0    0  0.00000000000E+00  0.00000000000E+00  0.45593999997E+02  0.45594000000E+02  0.51100000000E-03 0. -1.
         11   -1    0    0    0    0 -0.00000000000E+00 -0.00000000000E+00 -0.45593999997E+02  0.45594000000E+02  0.51100000000E-03 0.  1.
    9900012    2    1    2    0    0 -0.12568493778E+02 -0.33068295865E+02  0.27886099259E+02  0.46142314756E+02  0.99999725934E+01 0.  0.
        -12    1    1    2    0    0  0.12568493778E+02  0.33068295865E+02 -0.27886099259E+02  0.45045685244E+02  0.00000000000E+00 0.  1.
         11    1    3    3    0    0 -0.21159326309E+01 -0.35191584178E+01  0.24139219979E+01  0.47632621743E+01  0.51100000000E-03 0. -1.
        -11    1    3    3    0    0 -0.11021485561E+01 -0.49657661024E+01  0.50044781494E+00  0.51111654933E+01  0.51100000000E-03 0.  1.
         12    1    3    3    0    0 -0.93504125907E+01 -0.24583371345E+02  0.24971729446E+02  0.36267887088E+02  0.00000000000E+00 0. -1.
</event>
<event>
 7    1  0.4141894E-008  0.4614232E+02  0.7816164E-02  0.1320468E+00
        -11   -1    0    0    0    0  0.00000000000E+00  0.00000000000E+00  0.45593999997E+02  0.45594000000E+02  0.51100000000E-03 0.  1.
         11   -1    0    0    0    0 -0.00000000000E+00 -0.00000000000E+00 -0.45593999997E+02  0.45594000000E+02  0.51100000000E-03 0. -1.
    9900012    2    1    2    0    0  0.33332730650E+02 -0.29355799822E+02 -0.75019810688E+01  0.46142316125E+02  0.99999850836E+01 0.  0.
        -12    1    1    2    0    0 -0.33332730650E+02  0.29355799822E+02  0.75019810688E+01  0.45045683875E+02  0.00000000000E+00 0.  1.
         11    1    3    3    0    0  0.24090056955E+02 -0.25474233209E+02 -0.75578202928E+01  0.35866252237E+02  0.51100000000E-03 0. -1.
        -11    1    3    3    0    0  0.42461592907E+01 -0.21090435415E+01 -0.10603910137E+01  0.48582262962E+01  0.51100000000E-03 0.  1.
         12    1    3    3    0    0  0.49965144039E+01 -0.17725230713E+01  0.11162302377E+01  0.54178375917E+01  0.00000000000E+00 0. -1.
</event>
<event>
 7    1  0.4141894E-008  0.4614232E+02  0.7816164E-02  0.1320468E+00
        -11   -1    0    0    0    0  0.00000000000E+00  0.00000000000E+00  0.45593999997E+02  0.45594000000E+02  0.51100000000E-03 0.  1.
         11   -1    0    0    0    0 -0.00000000000E+00 -0.00000000000E+00 -0.45593999997E+02  0.45594000000E+02  0.51100000000E-03 0. -1.
    9900012    2    1    2    0    0  0.44587840709E+02 -0.57005838055E+01  0.29225484518E+01  0.46142317807E+02  0.10000000416E+02 0.  0.
        -12    1    1    2    0    0 -0.44587840709E+02  0.57005838055E+01 -0.29225484518E+01  0.45045682193E+02  0.00000000000E+00 0.  1.
         11    1    3    3    0    0  0.20372018879E+02 -0.24193077077E+01  0.45177139967E+01  0.21006711856E+02  0.51100000000E-03 0. -1.
        -11    1    3    3    0    0  0.60694430105E+01 -0.21645230393E+01  0.16869554777E+01  0.66610147492E+01  0.51100000000E-03 0.  1.
        -12    1    3    3    0    0  0.18146378819E+02 -0.11167530586E+01 -0.32821210225E+01  0.18474591201E+02  0.00000000000E+00 0.  1.
</event>
<event>
 7    1  0.4141894E-008  0.4614232E+02  0.7816164E-02  0.1320468E+00
        -11   -1    0    0    0    0  0.00000000000E+00  0.00000000000E+00  0.45593999997E+02  0.45594000000E+02  0.51100000000E-03 0.  1.
         11   -1    0    0    0    0 -0.00000000000E+00 -0.00000000000E+00 -0.45593999997E+02  0.45594000000E+02  0.51100000000E-03 0. -1.
    9900012    2    1    2    0    0 -0.24382943010E+02 -0.37859856956E+02  0.11031300205E+01  0.46142316806E+02  0.99999912873E+01 0.  0.
        -12    1    1    2    0    0  0.24382943010E+02  0.37859856956E+02 -0.11031300205E+01  0.45045683194E+02  0.00000000000E+00 0.  1.
         11    1    3    3    0    0 -0.45033017666E+01 -0.70656820830E+01  0.20093555479E+01  0.86163275285E+01  0.51100000000E-03 0. -1.
        -11    1    3    3    0    0 -0.59788072575E+01 -0.59130146817E+01  0.26201985972E+01  0.88076852690E+01  0.51100000000E-03 0.  1.
         12    1    3    3    0    0 -0.13900833986E+02 -0.24881160192E+02 -0.35264241246E+01  0.28718304008E+02  0.00000000000E+00 0. -1.
</event>
<event>
 7    1  0.4141894E-008  0.4614232E+02  0.7816164E-02  0.1320468E+00
        -11   -1    0    0    0    0  0.00000000000E+00  0.00000000000E+00  0.45593999997E+02  0.45594000000E+02  0.51100000000E-03 0.  1.
         11   -1    0    0    0    0 -0.00000000000E+00 -0.00000000000E+00 -0.45593999997E+02  0.45594000000E+02  0.51100000000E-03 0. -1.
    9900012    2    1    2    0    0 -0.43557433748E+02 -0.10776963635E+02  0.39649103221E+01  0.46142317702E+02  0.99999994574E+01 0.  0.
        -12    1    1    2    0    0  0.43557433748E+02  0.10776963635E+02 -0.39649103221E+01  0.45045682298E+02  0.00000000000E+00 0.  1.
         11    1    3    3    0    0 -0.14625405844E+02 -0.42411906911E+01  0.29594767862E+01  0.15512855884E+02  0.51100000000E-03 0.  1.
        -11    1    3    3    0    0 -0.11971208386E+02 -0.35665451120E+01  0.40753024017E+01  0.13139184305E+02  0.51100000000E-03 0. -1.
        -12    1    3    3    0    0 -0.16960819517E+02 -0.29692278323E+01 -0.30698688659E+01  0.17490277512E+02  0.00000000000E+00 0.  1.
</event>
<event>
 7    1  0.4141894E-008  0.4614231E+02  0.7816164E-02  0.1320468E+00
        -11   -1    0    0    0    0  0.00000000000E+00  0.00000000000E+00  0.45593999997E+02  0.45594000000E+02  0.51100000000E-03 0. -1.
         11   -1    0    0    0    0 -0.00000000000E+00 -0.00000000000E+00 -0.45593999997E+02  0.45594000000E+02  0.51100000000E-03 0.  1.
    9900012    2    1    2    0    0 -0.22109610197E+02  0.38904568660E+02  0.51685778819E+01  0.46142306277E+02  0.99998952815E+01 0.  0.
        -12    1    1    2    0    0  0.22109610197E+02 -0.38904568660E+02 -0.51685778819E+01  0.45045693723E+02  0.00000000000E+00 0.  1.
         11    1    3    3    0    0 -0.13588003237E+01  0.22025650427E+01  0.24323535846E+01  0.35516158729E+01  0.51100000000E-03 0. -1.
        -11    1    3    3    0    0 -0.33781231585E+01  0.60746990921E+01  0.24750941972E+01  0.73783315648E+01  0.51100000000E-03 0.  1.
         12    1    3    3    0    0 -0.17372686714E+02  0.30627304525E+02  0.26113010018E+00  0.35212358840E+02  0.00000000000E+00 0. -1.
</event>
<event>
 7    1  0.4141894E-008  0.4614232E+02  0.7816164E-02  0.1320468E+00
        -11   -1    0    0    0    0  0.00000000000E+00  0.00000000000E+00  0.45593999997E+02  0.45594000000E+02  0.51100000000E-03 0. -1.
         11   -1    0    0    0    0 -0.00000000000E+00 -0.00000000000E+00 -0.45593999997E+02  0.45594000000E+02  0.51100000000E-03 0.  1.
    9900012    2    1    2    0    0  0.27955192664E+02  0.35319943637E+02 -0.34957793601E+00  0.46142318519E+02  0.10000006907E+02 0.  0.
        -12    1    1    2    0    0 -0.27955192664E+02 -0.35319943637E+02  0.34957793601E+00  0.45045681481E+02  0.00000000000E+00 0.  1.
         11    1    3    3    0    0  0.93627474817E+01  0.65358381420E+01 -0.13645284410E+01  0.11499572112E+02  0.51100000000E-03 0. -1.
        -11    1    3    3    0    0  0.87135720510E+01  0.12445818080E+02 -0.19629290831E+01  0.15319197643E+02  0.51100000000E-03 0.  1.
        -12    1    3    3    0    0  0.98788731309E+01  0.16338287415E+02  0.29778795882E+01  0.19323548764E+02  0.00000000000E+00 0.  1.
</event>
<event>
 7    1  0.4141894E-008  0.4614232E+02  0.7816164E-02  0.1320468E+00
        -11   -1    0    0    0    0  0.00000000000E+00  0.00000000000E+00  0.45593999997E+02  0.45594000000E+02  0.51100000000E-03 0.  1.
         11   -1    0    0    0    0 -0.00000000000E+00 -0.00000000000E+00 -0.45593999997E+02  0.45594000000E+02  0.51100000000E-03 0. -1.
    9900012    2    1    2    0    0 -0.28868045825E+02 -0.24267232503E+02 -0.24634342580E+02  0.46142317882E+02  0.10000001101E+02 0.  0.
        -12    1    1    2    0    0  0.28868045825E+02  0.24267232503E+02  0.24634342580E+02  0.45045682118E+02  0.00000000000E+00 0.  1.
         11    1    3    3    0    0 -0.50872215790E+01 -0.17475845388E+01 -0.61447906608E+01  0.81665370654E+01  0.51100000000E-03 0.  1.
        -11    1    3    3    0    0 -0.48990270148E+01 -0.61528131460E+01 -0.22723846755E+01  0.81866542419E+01  0.51100000000E-03 0. -1.
        -12    1    3    3    0    0 -0.18881797231E+02 -0.16366834818E+02 -0.16217167244E+02  0.29789126575E+02  0.00000000000E+00 0.  1.
</event>
<event>
 7    1  0.4141894E-008  0.4614232E+02  0.7816164E-02  0.1320468E+00
        -11   -1    0    0    0    0  0.00000000000E+00  0.00000000000E+00  0.45593999997E+02  0.45594000000E+02  0.51100000000E-03 0. -1.
         11   -1    0    0    0    0 -0.00000000000E+00 -0.00000000000E+00 -0.45593999997E+02  0.45594000000E+02  0.51100000000E-03 0.  1.
    9900012    2    1    2    0    0  0.16130370786E+02 -0.17360285553E+02  0.38308554309E+02  0.46142315308E+02  0.99999776270E+01 0.  0.
        -12    1    1    2    0    0 -0.16130370786E+02  0.17360285553E+02 -0.38308554309E+02  0.45045684692E+02  0.00000000000E+00 0.  1.
         11    1    3    3    0    0  0.39778039183E+01 -0.50677499597E+01  0.94070900604E+01  0.11401682215E+02  0.51100000000E-03 0. -1.
        -11    1    3    3    0    0  0.59012132519E+01 -0.54690465494E+00  0.10031136678E+02  0.11651056856E+02  0.51100000000E-03 0.  1.
        -12    1    3    3    0    0  0.62513536152E+01 -0.11745630939E+02  0.18870327570E+02  0.23089576236E+02  0.00000000000E+00 0.  1.
</event>
<event>
 7    1  0.4141894E-008  0.4614231E+02  0.7816164E-02  0.1320468E+00
        -11   -1    0    0    0    0  0.00000000000E+00  0.00000000000E+00  0.45593999997E+02  0.45594000000E+02  0.51100000000E-03 0.  1.
         11   -1    0    0    0    0 -0.00000000000E+00 -0.00000000000E+00 -0.45593999997E+02  0.45594000000E+02  0.51100000000E-03 0. -1.
    9900012    2    1    2    0    0  0.42631232999E+02 -0.57037418885E+01 -0.13385031942E+02  0.46142314539E+02  0.99999706200E+01 0.  0.
        -12    1    1    2    0    0 -0.42631232999E+02  0.57037418885E+01  0.13385031942E+02  0.45045685461E+02  0.00000000000E+00 0.  1.
         11    1    3    3    0    0  0.92259751950E+01 -0.38379588813E+01 -0.56651766683E+01  0.11486634564E+02  0.51100000000E-03 0.  1.
        -11    1    3    3    0    0  0.30060333657E+02 -0.27919009805E+01 -0.78106627968E+01  0.31183726914E+02  0.51100000000E-03 0. -1.
        -12    1    3    3    0    0  0.33449241472E+01  0.92611797335E+00  0.90807523338E-01  0.34719530610E+01  0.00000000000E+00 0.  1.
</event>
<event>
 7    1  0.4141894E-008  0.4614232E+02  0.7816164E-02  0.1320468E+00
        -11   -1    0    0    0    0  0.00000000000E+00  0.00000000000E+00  0.45593999997E+02  0.45594000000E+02  0.51100000000E-03 0.  1.
         11   -1    0    0    0    0 -0.00000000000E+00 -0.00000000000E+00 -0.45593999997E+02  0.45594000000E+02  0.51100000000E-03 0. -1.
    9900012    2    1    2    0    0  0.42333774974E+00  0.49975422220E+01 -0.44765598542E+02  0.46142318121E+02  0.10000003284E+02 0.  0.
        -12    1    1    2    0    0 -0.42333774974E+00 -0.49975422220E+01  0.44765598542E+02  0.45045681879E+02  0.00000000000E+00 0.  1.
         11    1    3    3    0    0 -0.54213193451E+00  0.65463516325E+01 -0.23188981622E+02  0.24101400284E+02  0.51100000000E-03 0. -1.
        -11    1    3    3    0    0  0.42834812216E+00  0.13554056372E+01 -0.47902810002E+01  0.49967388242E+01  0.51100000000E-03 0.  1.
        -12    1    3    3    0    0  0.53712156209E+00 -0.29042150477E+01 -0.16786335920E+02  0.17044179013E+02  0.00000000000E+00 0.  1.
</event>
<event>
 7    1  0.4141894E-008  0.4614232E+02  0.7816164E-02  0.1320468E+00
        -11   -1    0    0    0    0  0.00000000000E+00  0.00000000000E+00  0.45593999997E+02  0.45594000000E+02  0.51100000000E-03 0.  1.
         11   -1    0    0    0    0 -0.00000000000E+00 -0.00000000000E+00 -0.45593999997E+02  0.45594000000E+02  0.51100000000E-03 0. -1.
    9900012    2    1    2    0    0 -0.28834666437E+02 -0.93504724349E+01 -0.33320326575E+02  0.46142317783E+02  0.10000000200E+02 0.  0.
        -12    1    1    2    0    0  0.28834666437E+02  0.93504724349E+01  0.33320326575E+02  0.45045682217E+02  0.00000000000E+00 0.  1.
         11    1    3    3    0    0 -0.21098612912E+02 -0.76038877608E+01 -0.22526776520E+02  0.31787202401E+02  0.51100000000E-03 0. -1.
        -11    1    3    3    0    0 -0.78001848287E+01 -0.38922168183E+00 -0.76589333865E+01  0.10938630525E+02  0.51100000000E-03 0.  1.
        -12    1    3    3    0    0  0.64131302836E-01 -0.13573629923E+01 -0.31346166687E+01  0.34164848568E+01  0.00000000000E+00 0.  1.
</event>
<event>
 7    1  0.4141894E-008  0.4614232E+02  0.7816164E-02  0.1320468E+00
        -11   -1    0    0    0    0  0.00000000000E+00  0.00000000000E+00  0.45593999997E+02  0.45594000000E+02  0.51100000000E-03 0.  1.
         11   -1    0    0    0    0 -0.00000000000E+00 -0.00000000000E+00 -0.45593999997E+02  0.45594000000E+02  0.51100000000E-03 0. -1.
    9900012    2    1    2    0    0  0.16587833768E+02  0.33256726480E+02 -0.25454813212E+02  0.46142316511E+02  0.99999886033E+01 0.  0.
        -12    1    1    2    0    0 -0.16587833768E+02 -0.33256726480E+02  0.25454813212E+02  0.45045683489E+02  0.00000000000E+00 0.  1.
         11    1    3    3    0    0  0.13247391922E+02  0.30549950597E+02 -0.23242521290E+02  0.40607975453E+02  0.51100000000E-03 0. -1.
        -11    1    3    3    0    0 -0.31050942891E+00  0.82757463476E+00 -0.79964715477E+00  0.11919445099E+01  0.51100000000E-03 0.  1.
         12    1    3    3    0    0  0.36509512749E+01  0.18792012483E+01 -0.14126447675E+01  0.43423965483E+01  0.00000000000E+00 0. -1.
</event>
<event>
 7    1  0.4141894E-008  0.4614232E+02  0.7816164E-02  0.1320468E+00
        -11   -1    0    0    0    0  0.00000000000E+00  0.00000000000E+00  0.45593999997E+02  0.45594000000E+02  0.51100000000E-03 0.  1.
         11   -1    0    0    0    0 -0.00000000000E+00 -0.00000000000E+00 -0.45593999997E+02  0.45594000000E+02  0.51100000000E-03 0. -1.
    9900012    2    1    2    0    0  0.14953575376E+02 -0.18812234974E+02 -0.38099920052E+02  0.46142317530E+02  0.99999978904E+01 0.  0.
        -12    1    1    2    0    0 -0.14953575376E+02  0.18812234974E+02  0.38099920052E+02  0.45045682470E+02  0.00000000000E+00 0.  1.
         11    1    3    3    0    0  0.10613602329E+02 -0.15506296753E+02 -0.23492879059E+02  0.30083370159E+02  0.51100000000E-03 0. -1.
        -11    1    3    3    0    0  0.38053153754E+01 -0.26661034880E+01 -0.69712135655E+01  0.83777295106E+01  0.51100000000E-03 0.  1.
        -12    1    3    3    0    0  0.53465767139E+00 -0.63983473290E+00 -0.76358274272E+01  0.76812178597E+01  0.00000000000E+00 0.  1.
</event>
<event>
 7    1  0.4141894E-008  0.4614232E+02  0.7816164E-02  0.1320468E+00
        -11   -1    0    0    0    0  0.00000000000E+00  0.00000000000E+00  0.45593999997E+02  0.45594000000E+02  0.51100000000E-03 0.  1.
         11   -1    0    0    0    0 -0.00000000000E+00 -0.00000000000E+00 -0.45593999997E+02  0.45594000000E+02  0.51100000000E-03 0. -1.
    9900012    2    1    2    0    0 -0.28955724120E+02  0.30572136508E+02 -0.16000748188E+02  0.46142318380E+02  0.10000005644E+02 0.  0.
        -12    1    1    2    0    0  0.28955724120E+02 -0.30572136508E+02  0.16000748188E+02  0.45045681620E+02  0.00000000000E+00 0.  1.
         11    1    3    3    0    0 -0.99240130411E+01  0.16224401747E+02 -0.67882564794E+01  0.20194000921E+02  0.51100000000E-03 0. -1.
        -11    1    3    3    0    0 -0.17460864731E+02  0.13856355819E+02 -0.73696717770E+01  0.23477488284E+02  0.51100000000E-03 0.  1.
        -12    1    3    3    0    0 -0.15708463480E+01  0.49137894213E+00 -0.18428199321E+01  0.24708291758E+01  0.00000000000E+00 0.  1.
</event>
<event>
 7    1  0.4141894E-008  0.4614232E+02  0.7816164E-02  0.1320468E+00
        -11   -1    0    0    0    0  0.00000000000E+00  0.00000000000E+00  0.45593999997E+02  0.45594000000E+02  0.51100000000E-03 0. -1.
         11   -1    0    0    0    0 -0.00000000000E+00 -0.00000000000E+00 -0.45593999997E+02  0.45594000000E+02  0.51100000000E-03 0.  1.
    9900012    2    1    2    0    0  0.65509002223E+01  0.26708433003E+02  0.35677148538E+02  0.46142316355E+02  0.99999871770E+01 0.  0.
        -12    1    1    2    0    0 -0.65509002223E+01 -0.26708433003E+02 -0.35677148538E+02  0.45045683645E+02  0.00000000000E+00 0.  1.
         11    1    3    3    0    0  0.12688564521E+01  0.94642990312E+01  0.15397572343E+02  0.18118172843E+02  0.51100000000E-03 0. -1.
        -11    1    3    3    0    0  0.52209418430E+01  0.57004894001E+01  0.92947249885E+01  0.12089074654E+02  0.51100000000E-03 0.  1.
        -12    1    3    3    0    0  0.61101927308E-01  0.11543644572E+02  0.10984851207E+02  0.15935068857E+02  0.00000000000E+00 0.  1.
</event>
<event>
 7    1  0.4141894E-008  0.4614232E+02  0.7816164E-02  0.1320468E+00
        -11   -1    0    0    0    0  0.00000000000E+00  0.00000000000E+00  0.45593999997E+02  0.45594000000E+02  0.51100000000E-03 0.  1.
         11   -1    0    0    0    0 -0.00000000000E+00 -0.00000000000E+00 -0.45593999997E+02  0.45594000000E+02  0.51100000000E-03 0. -1.
    9900012    2    1    2    0    0  0.94845170950E+01  0.11625498891E+02 -0.42473582999E+02  0.46142317168E+02  0.99999945936E+01 0.  0.
        -12    1    1    2    0    0 -0.94845170950E+01 -0.11625498891E+02  0.42473582999E+02  0.45045682832E+02  0.00000000000E+00 0.  1.
         11    1    3    3    0    0  0.83178668042E+01  0.61046792129E+01 -0.29996220664E+02  0.31721085588E+02  0.51100000000E-03 0. -1.
        -11    1    3    3    0    0 -0.11281189098E+01 -0.81479412425E-01 -0.26121797321E+01  0.28465372619E+01  0.51100000000E-03 0.  1.
         12    1    3    3    0    0  0.22947692007E+01  0.56022990900E+01 -0.98651826028E+01  0.11574694318E+02  0.00000000000E+00 0. -1.
</event>
<event>
 7    1  0.4141894E-008  0.4614232E+02  0.7816164E-02  0.1320468E+00
        -11   -1    0    0    0    0  0.00000000000E+00  0.00000000000E+00  0.45593999997E+02  0.45594000000E+02  0.51100000000E-03 0. -1.
         11   -1    0    0    0    0 -0.00000000000E+00 -0.00000000000E+00 -0.45593999997E+02  0.45594000000E+02  0.51100000000E-03 0.  1.
    9900012    2    1    2    0    0  0.51987084272E+01 -0.64342961459E+01  0.44279641962E+02  0.46142318426E+02  0.10000006063E+02 0.  0.
        -12    1    1    2    0    0 -0.51987084272E+01  0.64342961459E+01 -0.44279641962E+02  0.45045681574E+02  0.00000000000E+00 0.  1.
         11    1    3    3    0    0  0.13599114848E+01 -0.59519422846E+01  0.19082406344E+02  0.20035299058E+02  0.51100000000E-03 0.  1.
        -11    1    3    3    0    0  0.22042370966E+01  0.99284938459E+00  0.22480288577E+02  0.22609904596E+02  0.51100000000E-03 0. -1.
         12    1    3    3    0    0  0.16345598459E+01 -0.14752032458E+01  0.27169470415E+01  0.34971147726E+01  0.00000000000E+00 0. -1.
</event>
<event>
 7    1  0.4141894E-008  0.4614232E+02  0.7816164E-02  0.1320468E+00
        -11   -1    0    0    0    0  0.00000000000E+00  0.00000000000E+00  0.45593999997E+02  0.45594000000E+02  0.51100000000E-03 0.  1.
         11   -1    0    0    0    0 -0.00000000000E+00 -0.00000000000E+00 -0.45593999997E+02  0.45594000000E+02  0.51100000000E-03 0. -1.
    9900012    2    1    2    0    0 -0.23505426406E+02 -0.45489169561E+01 -0.38156463546E+02  0.46142318450E+02  0.10000006278E+02 0.  0.
        -12    1    1    2    0    0  0.23505426406E+02  0.45489169561E+01  0.38156463546E+02  0.45045681550E+02  0.00000000000E+00 0.  1.
         11    1    3    3    0    0 -0.93916066533E+01 -0.12446193141E+01 -0.14212696421E+02  0.17080752108E+02  0.51100000000E-03 0. -1.
        -11    1    3    3    0    0 -0.11232160818E+02 -0.37111737383E+01 -0.12322801335E+02  0.17081735279E+02  0.51100000000E-03 0.  1.
        -12    1    3    3    0    0 -0.28816589349E+01  0.40687609629E+00 -0.11620965790E+02  0.11979831062E+02  0.00000000000E+00 0.  1.
</event>
<event>
 7    1  0.4141894E-008  0.4614232E+02  0.7816164E-02  0.1320468E+00
        -11   -1    0    0    0    0  0.00000000000E+00  0.00000000000E+00  0.45593999997E+02  0.45594000000E+02  0.51100000000E-03 0.  1.
         11   -1    0    0    0    0 -0.00000000000E+00 -0.00000000000E+00 -0.45593999997E+02  0.45594000000E+02  0.51100000000E-03 0. -1.
    9900012    2    1    2    0    0  0.48484629739E+01 -0.31000655592E+02 -0.32319735133E+02  0.46142317417E+02  0.99999968588E+01 0.  0.
        -12    1    1    2    0    0 -0.48484629739E+01  0.31000655592E+02  0.32319735133E+02  0.45045682583E+02  0.00000000000E+00 0.  1.
         11    1    3    3    0    0  0.28230252834E+01 -0.82923971570E+01 -0.65931717163E+01  0.10963723633E+02  0.51100000000E-03 0. -1.
        -11    1    3    3    0    0  0.15243507086E+01 -0.30762638522E+01 -0.94848598598E+00  0.35618352430E+01  0.51100000000E-03 0.  1.
         12    1    3    3    0    0  0.50108698187E+00 -0.19631994583E+02 -0.24778077430E+02  0.31616758541E+02  0.00000000000E+00 0. -1.
</event>
<event>
 7    1  0.4141894E-008  0.4614232E+02  0.7816164E-02  0.1320468E+00
        -11   -1    0    0    0    0  0.00000000000E+00  0.00000000000E+00  0.45593999997E+02  0.45594000000E+02  0.51100000000E-03 0. -1.
         11   -1    0    0    0    0 -0.00000000000E+00 -0.00000000000E+00 -0.45593999997E+02  0.45594000000E+02  0.51100000000E-03 0.  1.
    9900012    2    1    2    0    0 -0.10939679999E+01  0.44769318438E+02  0.48605317485E+01  0.46142318651E+02  0.10000008112E+02 0.  0.
        -12    1    1    2    0    0  0.10939679999E+01 -0.44769318438E+02 -0.48605317485E+01  0.45045681349E+02  0.00000000000E+00 0.  1.
         11    1    3    3    0    0 -0.53525851270E+00  0.16573569529E+02  0.10257558104E+01  0.16613906340E+02  0.51100000000E-03 0. -1.
        -11    1    3    3    0    0 -0.36093105015E+01  0.13389169276E+02  0.39202541545E+01  0.14410599193E+02  0.51100000000E-03 0.  1.
         12    1    3    3    0    0  0.30506010144E+01  0.14806579632E+02 -0.85478216381E-01  0.15117813118E+02  0.00000000000E+00 0. -1.
</event>
<event>
 7    1  0.4141894E-008  0.4614232E+02  0.7816164E-02  0.1320468E+00
        -11   -1    0    0    0    0  0.00000000000E+00  0.00000000000E+00  0.45593999997E+02  0.45594000000E+02  0.51100000000E-03 0. -1.
         11   -1    0    0    0    0 -0.00000000000E+00 -0.00000000000E+00 -0.45593999997E+02  0.45594000000E+02  0.51100000000E-03 0.  1.
    9900012    2    1    2    0    0 -0.15749777099E+00 -0.44554393979E+02 -0.66328378360E+01  0.46142319118E+02  0.10000012374E+02 0.  0.
        -12    1    1    2    0    0  0.15749777099E+00  0.44554393979E+02  0.66328378360E+01  0.45045680882E+02  0.00000000000E+00 0.  1.
         11    1    3    3    0    0  0.12115103026E+01 -0.90978973235E+01  0.11083600452E+01  0.92448880562E+01  0.51100000000E-03 0. -1.
        -11    1    3    3    0    0 -0.20983015489E+01 -0.56453496836E+01  0.24099730952E+00  0.60275137830E+01  0.51100000000E-03 0.  1.
         12    1    3    3    0    0  0.72929347528E+00 -0.29811146972E+02 -0.79821951907E+01  0.30869917279E+02  0.00000000000E+00 0. -1.
</event>
<event>
 7    1  0.4141894E-008  0.4614232E+02  0.7816164E-02  0.1320468E+00
        -11   -1    0    0    0    0  0.00000000000E+00  0.00000000000E+00  0.45593999997E+02  0.45594000000E+02  0.51100000000E-03 0.  1.
         11   -1    0    0    0    0 -0.00000000000E+00 -0.00000000000E+00 -0.45593999997E+02  0.45594000000E+02  0.51100000000E-03 0. -1.
    9900012    2    1    2    0    0 -0.19623408363E+02 -0.66859692315E+01 -0.39991663467E+02  0.46142317774E+02  0.10000000115E+02 0.  0.
        -12    1    1    2    0    0  0.19623408363E+02  0.66859692315E+01  0.39991663467E+02  0.45045682226E+02  0.00000000000E+00 0.  1.
         11    1    3    3    0    0 -0.68019103252E+01 -0.19033216299E+01 -0.11266058381E+02  0.13297093254E+02  0.51100000000E-03 0. -1.
        -11    1    3    3    0    0 -0.10341412998E+02 -0.26827982400E+01 -0.13193278737E+02  0.16976596634E+02  0.51100000000E-03 0.  1.
         12    1    3    3    0    0 -0.24800850397E+01 -0.20998493616E+01 -0.15532326349E+02  0.15868627886E+02  0.00000000000E+00 0. -1.
</event>
<event>
 7    1  0.4141894E-008  0.4614232E+02  0.7816164E-02  0.1320468E+00
        -11   -1    0    0    0    0  0.00000000000E+00  0.00000000000E+00  0.45593999997E+02  0.45594000000E+02  0.51100000000E-03 0.  1.
         11   -1    0    0    0    0 -0.00000000000E+00 -0.00000000000E+00 -0.45593999997E+02  0.45594000000E+02  0.51100000000E-03 0. -1.
    9900012    2    1    2    0    0  0.29535913899E+02  0.10094034261E+02 -0.32478512866E+02  0.46142317239E+02  0.99999952354E+01 0.  0.
        -12    1    1    2    0    0 -0.29535913899E+02 -0.10094034261E+02  0.32478512866E+02  0.45045682761E+02  0.00000000000E+00 0.  1.
         11    1    3    3    0    0  0.23332061779E+01  0.52704892224E+00 -0.38433355780E+01  0.45269040481E+01  0.51100000000E-03 0. -1.
        -11    1    3    3    0    0  0.18109170301E+02  0.90391728732E+01 -0.24000015599E+02  0.31395054456E+02  0.51100000000E-03 0.  1.
        -12    1    3    3    0    0  0.90935374193E+01  0.52781246540E+00 -0.46351616882E+01  0.10220358735E+02  0.00000000000E+00 0.  1.
</event>
<event>
 7    1  0.4141894E-008  0.4614231E+02  0.7816164E-02  0.1320468E+00
        -11   -1    0    0    0    0  0.00000000000E+00  0.00000000000E+00  0.45593999997E+02  0.45594000000E+02  0.51100000000E-03 0.  1.
         11   -1    0    0    0    0 -0.00000000000E+00 -0.00000000000E+00 -0.45593999997E+02  0.45594000000E+02  0.51100000000E-03 0. -1.
    9900012    2    1    2    0    0  0.30934721139E+02 -0.25761990699E+02 -0.20210809551E+02  0.46142312532E+02  0.99999523194E+01 0.  0.
        -12    1    1    2    0    0 -0.30934721139E+02  0.25761990699E+02  0.20210809551E+02  0.45045687468E+02  0.00000000000E+00 0.  1.
         11    1    3    3    0    0  0.12736933013E+02 -0.11606533360E+02 -0.46268967808E+01  0.17842344389E+02  0.51100000000E-03 0. -1.
        -11    1    3    3    0    0  0.69618005508E+00 -0.18972161309E+01 -0.26142872322E+01  0.33043295401E+01  0.51100000000E-03 0.  1.
         12    1    3    3    0    0  0.17501608071E+02 -0.12258241209E+02 -0.12969625538E+02  0.24995638603E+02  0.00000000000E+00 0. -1.
</event>
<event>
 7    1  0.4141894E-008  0.4614232E+02  0.7816164E-02  0.1320468E+00
        -11   -1    0    0    0    0  0.00000000000E+00  0.00000000000E+00  0.45593999997E+02  0.45594000000E+02  0.51100000000E-03 0.  1.
         11   -1    0    0    0    0 -0.00000000000E+00 -0.00000000000E+00 -0.45593999997E+02  0.45594000000E+02  0.51100000000E-03 0. -1.
    9900012    2    1    2    0    0  0.29356239412E+02  0.14829165718E+02 -0.30780199089E+02  0.46142316474E+02  0.99999882674E+01 0.  0.
        -12    1    1    2    0    0 -0.29356239412E+02 -0.14829165718E+02  0.30780199089E+02  0.45045683526E+02  0.00000000000E+00 0.  1.
         11    1    3    3    0    0  0.10909557511E+02  0.43041201683E+01 -0.12851561712E+02  0.17398463559E+02  0.51100000000E-03 0. -1.
        -11    1    3    3    0    0  0.18458545153E+02  0.88264383462E+01 -0.17652604285E+02  0.27022922517E+02  0.51100000000E-03 0.  1.
        -12    1    3    3    0    0 -0.11863252016E-01  0.16986072038E+01 -0.27603309193E+00  0.17209303987E+01  0.00000000000E+00 0.  1.
</event>
<event>
 7    1  0.4141894E-008  0.4614232E+02  0.7816164E-02  0.1320468E+00
        -11   -1    0    0    0    0  0.00000000000E+00  0.00000000000E+00  0.45593999997E+02  0.45594000000E+02  0.51100000000E-03 0.  1.
         11   -1    0    0    0    0 -0.00000000000E+00 -0.00000000000E+00 -0.45593999997E+02  0.45594000000E+02  0.51100000000E-03 0. -1.
    9900012    2    1    2    0    0 -0.77358460594E+01  0.26601315170E+02 -0.35519575492E+02  0.46142317341E+02  0.99999961696E+01 0.  0.
        -12    1    1    2    0    0  0.77358460594E+01 -0.26601315170E+02  0.35519575492E+02  0.45045682659E+02  0.00000000000E+00 0.  1.
         11    1    3    3    0    0 -0.16797548308E+01  0.10695076767E+02 -0.13463665463E+02  0.17276473347E+02  0.51100000000E-03 0. -1.
        -11    1    3    3    0    0  0.25003318443E+00  0.98994158817E+01 -0.11258842589E+02  0.14994081769E+02  0.51100000000E-03 0.  1.
         12    1    3    3    0    0 -0.63061244130E+01  0.60068225219E+01 -0.10797067440E+02  0.13871762225E+02  0.00000000000E+00 0. -1.
</event>
<event>
 7    1  0.4141894E-008  0.4614232E+02  0.7816164E-02  0.1320468E+00
        -11   -1    0    0    0    0  0.00000000000E+00  0.00000000000E+00  0.45593999997E+02  0.45594000000E+02  0.51100000000E-03 0.  1.
         11   -1    0    0    0    0 -0.00000000000E+00 -0.00000000000E+00 -0.45593999997E+02  0.45594000000E+02  0.51100000000E-03 0. -1.
    9900012    2    1    2    0    0 -0.43724422135E+02  0.10628874661E+02 -0.20774014093E+01  0.46142315809E+02  0.99999821999E+01 0.  0.
        -12    1    1    2    0    0  0.43724422135E+02 -0.10628874661E+02  0.20774014093E+01  0.45045684191E+02  0.00000000000E+00 0.  1.
         11    1    3    3    0    0 -0.21621028389E+02  0.50660617391E+01  0.73013379217E+00  0.22218617098E+02  0.51100000000E-03 0. -1.
        -11    1    3    3    0    0 -0.67884700803E+01 -0.74762845958E+00  0.10673813965E+01  0.69124219816E+01  0.51100000000E-03 0.  1.
         12    1    3    3    0    0 -0.15314923666E+02  0.63104413813E+01 -0.38749165979E+01  0.17011276729E+02  0.00000000000E+00 0. -1.
</event>
<event>
 7    1  0.4141894E-008  0.4614232E+02  0.7816164E-02  0.1320468E+00
        -11   -1    0    0    0    0  0.00000000000E+00  0.00000000000E+00  0.45593999997E+02  0.45594000000E+02  0.51100000000E-03 0.  1.
         11   -1    0    0    0    0 -0.00000000000E+00 -0.00000000000E+00 -0.45593999997E+02  0.45594000000E+02  0.51100000000E-03 0. -1.
    9900012    2    1    2    0    0 -0.24558567002E+02 -0.37156197985E+02 -0.67384875079E+01  0.46142317901E+02  0.10000001274E+02 0.  0.
        -12    1    1    2    0    0  0.24558567002E+02  0.37156197985E+02  0.67384875079E+01  0.45045682099E+02  0.00000000000E+00 0.  1.
         11    1    3    3    0    0 -0.15816999753E+02 -0.16560779155E+02 -0.46842294988E+01  0.23374749061E+02  0.51100000000E-03 0. -1.
        -11    1    3    3    0    0 -0.14999889019E+01 -0.21132575626E+01  0.80238063304E+00  0.27128654912E+01  0.51100000000E-03 0.  1.
        -12    1    3    3    0    0 -0.72415783470E+01 -0.18482161267E+02 -0.28566386421E+01  0.20054703348E+02  0.00000000000E+00 0.  1.
</event>
<event>
 7    1  0.4141894E-008  0.4614232E+02  0.7816164E-02  0.1320468E+00
        -11   -1    0    0    0    0  0.00000000000E+00  0.00000000000E+00  0.45593999997E+02  0.45594000000E+02  0.51100000000E-03 0.  1.
         11   -1    0    0    0    0 -0.00000000000E+00 -0.00000000000E+00 -0.45593999997E+02  0.45594000000E+02  0.51100000000E-03 0. -1.
    9900012    2    1    2    0    0  0.13624515978E+02  0.63435086381E+01 -0.42464644049E+02  0.46142317281E+02  0.99999956206E+01 0.  0.
        -12    1    1    2    0    0 -0.13624515978E+02 -0.63435086381E+01  0.42464644049E+02  0.45045682719E+02  0.00000000000E+00 0.  1.
         11    1    3    3    0    0  0.92821915845E+01  0.13542305889E+01 -0.22698678238E+02  0.24560598835E+02  0.51100000000E-03 0. -1.
        -11    1    3    3    0    0  0.75926051598E+00 -0.71262652757E+00 -0.76455025676E+01  0.77160885733E+01  0.51100000000E-03 0.  1.
         12    1    3    3    0    0  0.35830638772E+01  0.57019045768E+01 -0.12120463243E+02  0.13865629873E+02  0.00000000000E+00 0. -1.
</event>
<event>
 7    1  0.4141894E-008  0.4614232E+02  0.7816164E-02  0.1320468E+00
        -11   -1    0    0    0    0  0.00000000000E+00  0.00000000000E+00  0.45593999997E+02  0.45594000000E+02  0.51100000000E-03 0.  1.
         11   -1    0    0    0    0 -0.00000000000E+00 -0.00000000000E+00 -0.45593999997E+02  0.45594000000E+02  0.51100000000E-03 0. -1.
    9900012    2    1    2    0    0  0.39882696790E+02  0.40386758169E+01 -0.20546853373E+02  0.46142316643E+02  0.99999898017E+01 0.  0.
        -12    1    1    2    0    0 -0.39882696790E+02 -0.40386758169E+01  0.20546853373E+02  0.45045683357E+02  0.00000000000E+00 0.  1.
         11    1    3    3    0    0  0.12240177172E+02  0.27816123938E-01 -0.40272098143E+01  0.12885694785E+02  0.51100000000E-03 0. -1.
        -11    1    3    3    0    0  0.25611375137E+01 -0.61874284398E+00  0.37809716244E+00  0.26618087453E+01  0.51100000000E-03 0.  1.
         12    1    3    3    0    0  0.25081382103E+02  0.46296025369E+01 -0.16897740722E+02  0.30594813112E+02  0.00000000000E+00 0. -1.
</event>
<event>
 7    1  0.4141894E-008  0.4614232E+02  0.7816164E-02  0.1320468E+00
        -11   -1    0    0    0    0  0.00000000000E+00  0.00000000000E+00  0.45593999997E+02  0.45594000000E+02  0.51100000000E-03 0.  1.
         11   -1    0    0    0    0 -0.00000000000E+00 -0.00000000000E+00 -0.45593999997E+02  0.45594000000E+02  0.51100000000E-03 0. -1.
    9900012    2    1    2    0    0 -0.30643329162E+02  0.23907895431E+02 -0.22770868736E+02  0.46142317087E+02  0.99999938574E+01 0.  0.
        -12    1    1    2    0    0  0.30643329162E+02 -0.23907895431E+02  0.22770868736E+02  0.45045682913E+02  0.00000000000E+00 0.  1.
         11    1    3    3    0    0 -0.88058918609E+00 -0.97267254711E+00 -0.64704356276E+00  0.14629404745E+01  0.51100000000E-03 0.  1.
        -11    1    3    3    0    0 -0.82084722035E+01  0.75746781974E+01 -0.60146689511E+01  0.12685858606E+02  0.51100000000E-03 0. -1.
        -12    1    3    3    0    0 -0.21554267772E+02  0.17305889781E+02 -0.16109156222E+02  0.31993518007E+02  0.00000000000E+00 0.  1.
</event>
<event>
 7    1  0.4141894E-008  0.4614232E+02  0.7816164E-02  0.1320468E+00
        -11   -1    0    0    0    0  0.00000000000E+00  0.00000000000E+00  0.45593999997E+02  0.45594000000E+02  0.51100000000E-03 0.  1.
         11   -1    0    0    0    0 -0.00000000000E+00 -0.00000000000E+00 -0.45593999997E+02  0.45594000000E+02  0.51100000000E-03 0. -1.
    9900012    2    1    2    0    0 -0.97486224162E+01 -0.33437610270E+02 -0.28565784829E+02  0.46142317826E+02  0.10000000596E+02 0.  0.
        -12    1    1    2    0    0  0.97486224162E+01  0.33437610270E+02  0.28565784829E+02  0.45045682174E+02  0.00000000000E+00 0.  1.
         11    1    3    3    0    0 -0.24701809011E+01 -0.50628710808E+01 -0.53594696096E+01  0.77754981848E+01  0.51100000000E-03 0. -1.
        -11    1    3    3    0    0 -0.44158846535E+01 -0.26953254106E+02 -0.20115135913E+02  0.33920445711E+02  0.51100000000E-03 0.  1.
        -12    1    3    3    0    0 -0.28625568615E+01 -0.14214850835E+01 -0.30911793063E+01  0.44463739307E+01  0.00000000000E+00 0.  1.
</event>
<event>
 7    1  0.4141894E-008  0.4614232E+02  0.7816164E-02  0.1320468E+00
        -11   -1    0    0    0    0  0.00000000000E+00  0.00000000000E+00  0.45593999997E+02  0.45594000000E+02  0.51100000000E-03 0.  1.
         11   -1    0    0    0    0 -0.00000000000E+00 -0.00000000000E+00 -0.45593999997E+02  0.45594000000E+02  0.51100000000E-03 0. -1.
    9900012    2    1    2    0    0  0.16012520293E+02 -0.49760185093E+01 -0.41808515584E+02  0.46142317169E+02  0.99999945987E+01 0.  0.
        -12    1    1    2    0    0 -0.16012520293E+02  0.49760185093E+01  0.41808515584E+02  0.45045682831E+02  0.00000000000E+00 0.  1.
         11    1    3    3    0    0  0.28468658280E+01  0.13223248317E+01 -0.87770765115E+01  0.93214945343E+01  0.51100000000E-03 0. -1.
        -11    1    3    3    0    0  0.59671392330E+01 -0.26877421481E+01 -0.23235191039E+02  0.24139279429E+02  0.51100000000E-03 0.  1.
         12    1    3    3    0    0  0.71985152325E+01 -0.36106011929E+01 -0.97962480344E+01  0.12681543206E+02  0.00000000000E+00 0. -1.
</event>
<event>
 7    1  0.4141894E-008  0.4614232E+02  0.7816164E-02  0.1320468E+00
        -11   -1    0    0    0    0  0.00000000000E+00  0.00000000000E+00  0.45593999997E+02  0.45594000000E+02  0.51100000000E-03 0.  1.
         11   -1    0    0    0    0 -0.00000000000E+00 -0.00000000000E+00 -0.45593999997E+02  0.45594000000E+02  0.51100000000E-03 0. -1.
    9900012    2    1    2    0    0 -0.27011565898E+02  0.28350720724E+02 -0.22264895792E+02  0.46142316051E+02  0.99999844059E+01 0.  0.
        -12    1    1    2    0    0  0.27011565898E+02 -0.28350720724E+02  0.22264895792E+02  0.45045683949E+02  0.00000000000E+00 0.  1.
         11    1    3    3    0    0 -0.78622598676E+01  0.51703124641E+01 -0.56312765584E+01  0.10966245353E+02  0.51100000000E-03 0. -1.
        -11    1    3    3    0    0 -0.15227275867E+02  0.20601216698E+02 -0.16516081428E+02  0.30480502059E+02  0.51100000000E-03 0.  1.
        -12    1    3    3    0    0 -0.39220301626E+01  0.25791915618E+01 -0.11753780587E+00  0.46955686391E+01  0.00000000000E+00 0.  1.
</event>
<event>
 7    1  0.4141894E-008  0.4614232E+02  0.7816164E-02  0.1320468E+00
        -11   -1    0    0    0    0  0.00000000000E+00  0.00000000000E+00  0.45593999997E+02  0.45594000000E+02  0.51100000000E-03 0.  1.
         11   -1    0    0    0    0 -0.00000000000E+00 -0.00000000000E+00 -0.45593999997E+02  0.45594000000E+02  0.51100000000E-03 0. -1.
    9900012    2    1    2    0    0  0.10677690991E+02  0.27550711909E+02 -0.34000861277E+02  0.46142318973E+02  0.10000011051E+02 0.  0.
        -12    1    1    2    0    0 -0.10677690991E+02 -0.27550711909E+02  0.34000861277E+02  0.45045681027E+02  0.00000000000E+00 0.  1.
         11    1    3    3    0    0  0.21722645767E+01  0.52555754412E+01 -0.68343006830E+01  0.88908645640E+01  0.51100000000E-03 0. -1.
        -11    1    3    3    0    0  0.35836341788E+01  0.11444375378E+01 -0.36402702294E+01  0.52348580506E+01  0.51100000000E-03 0.  1.
        -12    1    3    3    0    0  0.49217922354E+01  0.21150698930E+02 -0.23526290365E+02  0.32016596358E+02  0.00000000000E+00 0.  1.
</event>
<event>
 7    1  0.4141894E-008  0.4614232E+02  0.7816164E-02  0.1320468E+00
        -11   -1    0    0    0    0  0.00000000000E+00  0.00000000000E+00  0.45593999997E+02  0.45594000000E+02  0.51100000000E-03 0.  1.
         11   -1    0    0    0    0 -0.00000000000E+00 -0.00000000000E+00 -0.45593999997E+02  0.45594000000E+02  0.51100000000E-03 0. -1.
    9900012    2    1    2    0    0  0.79047018675E+01 -0.23791424789E+02 -0.37424554236E+02  0.46142318022E+02  0.10000002377E+02 0.  0.
        -12    1    1    2    0    0 -0.79047018675E+01  0.23791424789E+02  0.37424554236E+02  0.45045681978E+02  0.00000000000E+00 0.  1.
         11    1    3    3    0    0  0.26849530964E+01 -0.12015468740E+01 -0.44067186532E+01  0.52982881735E+01  0.51100000000E-03 0. -1.
        -11    1    3    3    0    0  0.53380917144E+01 -0.11761498672E+02 -0.14733167778E+02  0.19593220950E+02  0.51100000000E-03 0.  1.
        -12    1    3    3    0    0 -0.11834294324E+00 -0.10828379243E+02 -0.18284667806E+02  0.21250808898E+02  0.00000000000E+00 0.  1.
</event>
<event>
 7    1  0.4141894E-008  0.4614232E+02  0.7816164E-02  0.1320468E+00
        -11   -1    0    0    0    0  0.00000000000E+00  0.00000000000E+00  0.45593999997E+02  0.45594000000E+02  0.51100000000E-03 0.  1.
         11   -1    0    0    0    0 -0.00000000000E+00 -0.00000000000E+00 -0.45593999997E+02  0.45594000000E+02  0.51100000000E-03 0. -1.
    9900012    2    1    2    0    0 -0.44835593954E+02 -0.37814133198E+01  0.21410207284E+01  0.46142317169E+02  0.99999946024E+01 0.  0.
        -12    1    1    2    0    0  0.44835593954E+02  0.37814133198E+01 -0.21410207284E+01  0.45045682831E+02  0.00000000000E+00 0.  1.
         11    1    3    3    0    0 -0.35610958209E+01  0.14900695894E+01  0.51448915852E+00  0.38944075522E+01  0.51100000000E-03 0. -1.
        -11    1    3    3    0    0 -0.31473776890E+02 -0.49247625695E+01 -0.16736145874E+01  0.31900672472E+02  0.51100000000E-03 0.  1.
         12    1    3    3    0    0 -0.98007212430E+01 -0.34672033969E+00  0.33001461574E+01  0.10347237145E+02  0.00000000000E+00 0. -1.
</event>
<event>
 7    1  0.4141894E-008  0.4614231E+02  0.7816164E-02  0.1320468E+00
        -11   -1    0    0    0    0  0.00000000000E+00  0.00000000000E+00  0.45593999997E+02  0.45594000000E+02  0.51100000000E-03 0.  1.
         11   -1    0    0    0    0 -0.00000000000E+00 -0.00000000000E+00 -0.45593999997E+02  0.45594000000E+02  0.51100000000E-03 0. -1.
    9900012    2    1    2    0    0 -0.10639842974E+02 -0.25282933202E+02 -0.35730670050E+02  0.46142314834E+02  0.99999733110E+01 0.  0.
        -12    1    1    2    0    0  0.10639842974E+02  0.25282933202E+02  0.35730670050E+02  0.45045685166E+02  0.00000000000E+00 0.  1.
         11    1    3    3    0    0 -0.42386503713E+01 -0.13803697555E+02 -0.14734672289E+02  0.20630530553E+02  0.51100000000E-03 0. -1.
        -11    1    3    3    0    0 -0.31653248395E+01 -0.90678575169E+01 -0.10316399577E+02  0.14095155969E+02  0.51100000000E-03 0.  1.
        -12    1    3    3    0    0 -0.32358677630E+01 -0.24113781306E+01 -0.10679598184E+02  0.11416628313E+02  0.00000000000E+00 0.  1.
</event>
<event>
 7    1  0.4141894E-008  0.4614232E+02  0.7816164E-02  0.1320468E+00
        -11   -1    0    0    0    0  0.00000000000E+00  0.00000000000E+00  0.45593999997E+02  0.45594000000E+02  0.51100000000E-03 0. -1.
         11   -1    0    0    0    0 -0.00000000000E+00 -0.00000000000E+00 -0.45593999997E+02  0.45594000000E+02  0.51100000000E-03 0.  1.
    9900012    2    1    2    0    0 -0.35599060928E+02  0.12511387915E+02 -0.24602551113E+02  0.46142317768E+02  0.10000000060E+02 0.  0.
        -12    1    1    2    0    0  0.35599060928E+02 -0.12511387915E+02  0.24602551113E+02  0.45045682232E+02  0.00000000000E+00 0.  1.
         11    1    3    3    0    0 -0.13913626581E+02  0.99446223936E+01 -0.11660322691E+02  0.20698976900E+02  0.51100000000E-03 0. -1.
        -11    1    3    3    0    0 -0.39059932972E+01  0.29049936375E+00 -0.30948184866E+01  0.49919009650E+01  0.51100000000E-03 0.  1.
         12    1    3    3    0    0 -0.17779441050E+02  0.22762661577E+01 -0.98474099357E+01  0.20451439903E+02  0.00000000000E+00 0. -1.
</event>
<event>
 7    1  0.4141894E-008  0.4614232E+02  0.7816164E-02  0.1320468E+00
        -11   -1    0    0    0    0  0.00000000000E+00  0.00000000000E+00  0.45593999997E+02  0.45594000000E+02  0.51100000000E-03 0.  1.
         11   -1    0    0    0    0 -0.00000000000E+00 -0.00000000000E+00 -0.45593999997E+02  0.45594000000E+02  0.51100000000E-03 0. -1.
    9900012    2    1    2    0    0  0.13190130343E+02  0.18895280883E+02 -0.38705328035E+02  0.46142316562E+02  0.99999890669E+01 0.  0.
        -12    1    1    2    0    0 -0.13190130343E+02 -0.18895280883E+02  0.38705328035E+02  0.45045683438E+02  0.00000000000E+00 0.  1.
         11    1    3    3    0    0  0.10609351334E+02  0.15089183660E+02 -0.27347917904E+02  0.32987124961E+02  0.51100000000E-03 0.  1.
        -11    1    3    3    0    0  0.26257008510E+01  0.21965744947E+01 -0.10980155879E+02  0.11501437643E+02  0.51100000000E-03 0. -1.
        -12    1    3    3    0    0 -0.44921841595E-01  0.16095227281E+01 -0.37725425203E+00  0.16537539584E+01  0.00000000000E+00 0.  1.
</event>
<event>
 7    1  0.4141894E-008  0.4614232E+02  0.7816164E-02  0.1320468E+00
        -11   -1    0    0    0    0  0.00000000000E+00  0.00000000000E+00  0.45593999997E+02  0.45594000000E+02  0.51100000000E-03 0. -1.
         11   -1    0    0    0    0 -0.00000000000E+00 -0.00000000000E+00 -0.45593999997E+02  0.45594000000E+02  0.51100000000E-03 0.  1.
    9900012    2    1    2    0    0 -0.33015168746E+02  0.63726004744E+01  0.29975024139E+02  0.46142317895E+02  0.10000001225E+02 0.  0.
        -12    1    1    2    0    0  0.33015168746E+02 -0.63726004744E+01 -0.29975024139E+02  0.45045682105E+02  0.00000000000E+00 0.  1.
         11    1    3    3    0    0 -0.24409800672E+02  0.56728962942E+01  0.20135459456E+02  0.32147423676E+02  0.51100000000E-03 0. -1.
        -11    1    3    3    0    0 -0.50796224119E+01  0.28414123033E+01  0.55119642890E+01  0.80161049337E+01  0.51100000000E-03 0.  1.
        -12    1    3    3    0    0 -0.35257456622E+01 -0.21417081230E+01  0.43276003939E+01  0.59787892862E+01  0.00000000000E+00 0.  1.
</event>
<event>
 7    1  0.4141894E-008  0.4614232E+02  0.7816164E-02  0.1320468E+00
        -11   -1    0    0    0    0  0.00000000000E+00  0.00000000000E+00  0.45593999997E+02  0.45594000000E+02  0.51100000000E-03 0.  1.
         11   -1    0    0    0    0 -0.00000000000E+00 -0.00000000000E+00 -0.45593999997E+02  0.45594000000E+02  0.51100000000E-03 0. -1.
    9900012    2    1    2    0    0 -0.43192803067E+01  0.43941654529E+02 -0.89212194052E+01  0.46142319399E+02  0.10000014934E+02 0.  0.
        -12    1    1    2    0    0  0.43192803067E+01 -0.43941654529E+02  0.89212194052E+01  0.45045680601E+02  0.00000000000E+00 0.  1.
         11    1    3    3    0    0 -0.48813624046E+01  0.13628329290E+02 -0.41940483754E+00  0.14482229070E+02  0.51100000000E-03 0. -1.
        -11    1    3    3    0    0  0.12125431372E+01  0.15441851039E+02 -0.29196324111E+01  0.15762147000E+02  0.51100000000E-03 0.  1.
         12    1    3    3    0    0 -0.65046103935E+00  0.14871474200E+02 -0.55821821566E+01  0.15897943328E+02  0.00000000000E+00 0. -1.
</event>
<event>
 7    1  0.4141894E-008  0.4614232E+02  0.7816164E-02  0.1320468E+00
        -11   -1    0    0    0    0  0.00000000000E+00  0.00000000000E+00  0.45593999997E+02  0.45594000000E+02  0.51100000000E-03 0.  1.
         11   -1    0    0    0    0 -0.00000000000E+00 -0.00000000000E+00 -0.45593999997E+02  0.45594000000E+02  0.51100000000E-03 0. -1.
    9900012    2    1    2    0    0  0.34940316675E+02 -0.20349532507E+02 -0.19854073363E+02  0.46142318390E+02  0.10000005739E+02 0.  0.
        -12    1    1    2    0    0 -0.34940316675E+02  0.20349532507E+02  0.19854073363E+02  0.45045681610E+02  0.00000000000E+00 0.  1.
         11    1    3    3    0    0  0.24926632678E+02 -0.16469902680E+02 -0.14046039288E+02  0.33013420467E+02  0.51100000000E-03 0. -1.
        -11    1    3    3    0    0  0.92818061725E+01 -0.16644019503E+01 -0.44215203322E+01  0.10414989294E+02  0.51100000000E-03 0.  1.
        -12    1    3    3    0    0  0.73187782372E+00 -0.22152278765E+01 -0.13865137429E+01  0.27139086301E+01  0.00000000000E+00 0.  1.
</event>
<event>
 7    1  0.4141894E-008  0.4614232E+02  0.7816164E-02  0.1320468E+00
        -11   -1    0    0    0    0  0.00000000000E+00  0.00000000000E+00  0.45593999997E+02  0.45594000000E+02  0.51100000000E-03 0.  1.
         11   -1    0    0    0    0 -0.00000000000E+00 -0.00000000000E+00 -0.45593999997E+02  0.45594000000E+02  0.51100000000E-03 0. -1.
    9900012    2    1    2    0    0 -0.13133394070E+02  0.23107758389E+02 -0.36368379419E+02  0.46142316975E+02  0.99999928352E+01 0.  0.
        -12    1    1    2    0    0  0.13133394070E+02 -0.23107758389E+02  0.36368379419E+02  0.45045683025E+02  0.00000000000E+00 0.  1.
         11    1    3    3    0    0 -0.49346238140E+01  0.86627826295E+01 -0.18784372326E+02  0.21266098820E+02  0.51100000000E-03 0. -1.
        -11    1    3    3    0    0 -0.26300447748E+01  0.53797360763E+01 -0.10522053965E+02  0.12106705401E+02  0.51100000000E-03 0.  1.
        -12    1    3    3    0    0 -0.55687254814E+01  0.90652396832E+01 -0.70619531287E+01  0.12769512755E+02  0.00000000000E+00 0.  1.
</event>
<event>
 7    1  0.4141894E-008  0.4614232E+02  0.7816164E-02  0.1320468E+00
        -11   -1    0    0    0    0  0.00000000000E+00  0.00000000000E+00  0.45593999997E+02  0.45594000000E+02  0.51100000000E-03 0. -1.
         11   -1    0    0    0    0 -0.00000000000E+00 -0.00000000000E+00 -0.45593999997E+02  0.45594000000E+02  0.51100000000E-03 0.  1.
    9900012    2    1    2    0    0 -0.42617080392E+02 -0.31537401974E+01 -0.14246115944E+02  0.46142318322E+02  0.10000005113E+02 0.  0.
        -12    1    1    2    0    0  0.42617080392E+02  0.31537401974E+01  0.14246115944E+02  0.45045681678E+02  0.00000000000E+00 0.  1.
         11    1    3    3    0    0 -0.19676877517E+02  0.12713346690E+01 -0.68291109005E+01  0.20867020789E+02  0.51100000000E-03 0. -1.
        -11    1    3    3    0    0 -0.20642947636E+02 -0.34037171213E+01 -0.44559783748E+01  0.21390940159E+02  0.51100000000E-03 0.  1.
        -12    1    3    3    0    0 -0.22972552392E+01 -0.10213577450E+01 -0.29610266688E+01  0.38843573743E+01  0.00000000000E+00 0.  1.
</event>
<event>
 7    1  0.4141894E-008  0.4614232E+02  0.7816164E-02  0.1320468E+00
        -11   -1    0    0    0    0  0.00000000000E+00  0.00000000000E+00  0.45593999997E+02  0.45594000000E+02  0.51100000000E-03 0.  1.
         11   -1    0    0    0    0 -0.00000000000E+00 -0.00000000000E+00 -0.45593999997E+02  0.45594000000E+02  0.51100000000E-03 0. -1.
    9900012    2    1    2    0    0  0.82225921801E+01 -0.22876088601E+02 -0.37923436957E+02  0.46142317382E+02  0.99999965449E+01 0.  0.
        -12    1    1    2    0    0 -0.82225921801E+01  0.22876088601E+02  0.37923436957E+02  0.45045682618E+02  0.00000000000E+00 0.  1.
         11    1    3    3    0    0  0.11694501022E+01 -0.80319836112E+01 -0.80834082730E+01  0.11455211209E+02  0.51100000000E-03 0. -1.
        -11    1    3    3    0    0 -0.17160161603E+00 -0.22145616033E+01 -0.11106770219E+01  0.24834117495E+01  0.51100000000E-03 0.  1.
         12    1    3    3    0    0  0.72247436940E+01 -0.12629543387E+02 -0.28729351662E+02  0.32203694424E+02  0.00000000000E+00 0. -1.
</event>
<event>
 7    1  0.4141894E-008  0.4614232E+02  0.7816164E-02  0.1320468E+00
        -11   -1    0    0    0    0  0.00000000000E+00  0.00000000000E+00  0.45593999997E+02  0.45594000000E+02  0.51100000000E-03 0. -1.
         11   -1    0    0    0    0 -0.00000000000E+00 -0.00000000000E+00 -0.45593999997E+02  0.45594000000E+02  0.51100000000E-03 0.  1.
    9900012    2    1    2    0    0 -0.42552595300E+01  0.23346193815E+02  0.38287876191E+02  0.46142318048E+02  0.10000002616E+02 0.  0.
        -12    1    1    2    0    0  0.42552595300E+01 -0.23346193815E+02 -0.38287876191E+02  0.45045681952E+02  0.00000000000E+00 0.  1.
         11    1    3    3    0    0 -0.82568950697E+00  0.11849721292E+02  0.16606038537E+02  0.20417104937E+02  0.51100000000E-03 0. -1.
        -11    1    3    3    0    0 -0.30936112436E+01  0.76092384862E+01  0.78807546019E+01  0.11383199648E+02  0.51100000000E-03 0.  1.
        -12    1    3    3    0    0 -0.33595877944E+00  0.38872340363E+01  0.13801083052E+02  0.14342013463E+02  0.00000000000E+00 0.  1.
</event>
<event>
 7    1  0.4141894E-008  0.4614232E+02  0.7816164E-02  0.1320468E+00
        -11   -1    0    0    0    0  0.00000000000E+00  0.00000000000E+00  0.45593999997E+02  0.45594000000E+02  0.51100000000E-03 0. -1.
         11   -1    0    0    0    0 -0.00000000000E+00 -0.00000000000E+00 -0.45593999997E+02  0.45594000000E+02  0.51100000000E-03 0.  1.
    9900012    2    1    2    0    0 -0.36165322728E+01  0.16175198002E+02  0.41885523947E+02  0.46142318160E+02  0.10000003641E+02 0.  0.
        -12    1    1    2    0    0  0.36165322728E+01 -0.16175198002E+02 -0.41885523947E+02  0.45045681840E+02  0.00000000000E+00 0.  1.
         11    1    3    3    0    0 -0.17400484282E+01  0.28789479558E+01  0.18669716226E+02  0.18970356193E+02  0.51100000000E-03 0. -1.
        -11    1    3    3    0    0 -0.63349636764E-01 -0.25689711320E+00  0.46602067878E-01  0.26866580932E+00  0.51100000000E-03 0.  1.
        -12    1    3    3    0    0 -0.18131342078E+01  0.13553147159E+02  0.23169205653E+02  0.26903296158E+02  0.00000000000E+00 0.  1.
</event>
<event>
 7    1  0.4141894E-008  0.4614232E+02  0.7816164E-02  0.1320468E+00
        -11   -1    0    0    0    0  0.00000000000E+00  0.00000000000E+00  0.45593999997E+02  0.45594000000E+02  0.51100000000E-03 0.  1.
         11   -1    0    0    0    0 -0.00000000000E+00 -0.00000000000E+00 -0.45593999997E+02  0.45594000000E+02  0.51100000000E-03 0. -1.
    9900012    2    1    2    0    0 -0.82360159066E+01 -0.36161539342E+02 -0.25566080839E+02  0.46142319019E+02  0.10000011468E+02 0.  0.
        -12    1    1    2    0    0  0.82360159066E+01  0.36161539342E+02  0.25566080839E+02  0.45045680981E+02  0.00000000000E+00 0.  1.
         11    1    3    3    0    0 -0.15559443923E+01 -0.16898858011E+02 -0.84931474257E+01  0.18976983914E+02  0.51100000000E-03 0. -1.
        -11    1    3    3    0    0 -0.41978482910E+01 -0.44969582520E+01 -0.47013024747E+01  0.77425324677E+01  0.51100000000E-03 0.  1.
        -12    1    3    3    0    0 -0.24822232233E+01 -0.14765723079E+02 -0.12371630939E+02  0.19422802637E+02  0.00000000000E+00 0.  1.
</event>
<event>
 7    1  0.4141894E-008  0.4614232E+02  0.7816164E-02  0.1320468E+00
        -11   -1    0    0    0    0  0.00000000000E+00  0.00000000000E+00  0.45593999997E+02  0.45594000000E+02  0.51100000000E-03 0.  1.
         11   -1    0    0    0    0 -0.00000000000E+00 -0.00000000000E+00 -0.45593999997E+02  0.45594000000E+02  0.51100000000E-03 0. -1.
    9900012    2    1    2    0    0  0.44798212193E+02  0.36303755859E+01  0.30089838267E+01  0.46142318450E+02  0.10000006285E+02 0.  0.
        -12    1    1    2    0    0 -0.44798212193E+02 -0.36303755859E+01 -0.30089838267E+01  0.45045681550E+02  0.00000000000E+00 0.  1.
         11    1    3    3    0    0  0.31200197562E+02  0.13253068573E+01 -0.39421810951E+00  0.31230820904E+02  0.51100000000E-03 0. -1.
        -11    1    3    3    0    0  0.96054506878E+01 -0.39335980093E+00  0.14975087984E+01  0.97294371734E+01  0.51100000000E-03 0.  1.
         12    1    3    3    0    0  0.39925639436E+01  0.26984285295E+01  0.19056931378E+01  0.51820603729E+01  0.00000000000E+00 0. -1.
</event>
<event>
 7    1  0.4141894E-008  0.4614232E+02  0.7816164E-02  0.1320468E+00
        -11   -1    0    0    0    0  0.00000000000E+00  0.00000000000E+00  0.45593999997E+02  0.45594000000E+02  0.51100000000E-03 0.  1.
         11   -1    0    0    0    0 -0.00000000000E+00 -0.00000000000E+00 -0.45593999997E+02  0.45594000000E+02  0.51100000000E-03 0. -1.
    9900012    2    1    2    0    0 -0.33092552933E+02 -0.36016713962E+01 -0.30348383192E+02  0.46142318089E+02  0.10000002989E+02 0.  0.
        -12    1    1    2    0    0  0.33092552933E+02  0.36016713962E+01  0.30348383192E+02  0.45045681911E+02  0.00000000000E+00 0.  1.
         11    1    3    3    0    0 -0.86373914202E+01 -0.20096192134E+01 -0.54504799618E+01  0.10409170572E+02  0.51100000000E-03 0. -1.
        -11    1    3    3    0    0 -0.19703436122E+01  0.44005616069E+00  0.13508519008E+00  0.20234010093E+01  0.51100000000E-03 0.  1.
        -12    1    3    3    0    0 -0.22484817901E+02 -0.20321083434E+01 -0.25032988420E+02  0.33709746507E+02  0.00000000000E+00 0.  1.
</event>
<event>
 7    1  0.4141894E-008  0.4614232E+02  0.7816164E-02  0.1320468E+00
        -11   -1    0    0    0    0  0.00000000000E+00  0.00000000000E+00  0.45593999997E+02  0.45594000000E+02  0.51100000000E-03 0.  1.
         11   -1    0    0    0    0 -0.00000000000E+00 -0.00000000000E+00 -0.45593999997E+02  0.45594000000E+02  0.51100000000E-03 0. -1.
    9900012    2    1    2    0    0  0.23588297097E+02 -0.25904223512E+02 -0.28313898386E+02  0.46142318770E+02  0.10000009196E+02 0.  0.
        -12    1    1    2    0    0 -0.23588297097E+02  0.25904223512E+02  0.28313898386E+02  0.45045681230E+02  0.00000000000E+00 0.  1.
         11    1    3    3    0    0  0.34049286042E+01 -0.42391953192E+01 -0.97927331396E+00  0.55247888863E+01  0.51100000000E-03 0. -1.
        -11    1    3    3    0    0  0.44997686082E+01 -0.25690831255E+01 -0.32828750646E+01  0.61339526070E+01  0.51100000000E-03 0.  1.
         12    1    3    3    0    0  0.15683599884E+02 -0.19095945067E+02 -0.24051750008E+02  0.34483577276E+02  0.00000000000E+00 0. -1.
</event>
<event>
 7    1  0.4141894E-008  0.4614232E+02  0.7816164E-02  0.1320468E+00
        -11   -1    0    0    0    0  0.00000000000E+00  0.00000000000E+00  0.45593999997E+02  0.45594000000E+02  0.51100000000E-03 0.  1.
         11   -1    0    0    0    0 -0.00000000000E+00 -0.00000000000E+00 -0.45593999997E+02  0.45594000000E+02  0.51100000000E-03 0. -1.
    9900012    2    1    2    0    0 -0.26180251705E+02  0.29276846804E+02 -0.22058422043E+02  0.46142319617E+02  0.10000016924E+02 0.  0.
        -12    1    1    2    0    0  0.26180251705E+02 -0.29276846804E+02  0.22058422043E+02  0.45045680383E+02  0.00000000000E+00 0.  1.
         11    1    3    3    0    0 -0.82376045983E+01  0.75747532944E+01 -0.26537914170E+01  0.11501201074E+02  0.51100000000E-03 0. -1.
        -11    1    3    3    0    0 -0.17582864615E+02  0.19045608341E+02 -0.18357945365E+02  0.31763288297E+02  0.51100000000E-03 0.  1.
        -12    1    3    3    0    0 -0.35978249173E+00  0.26564851685E+01 -0.10466852615E+01  0.28778302466E+01  0.00000000000E+00 0.  1.
</event>
<event>
 7    1  0.4141894E-008  0.4614232E+02  0.7816164E-02  0.1320468E+00
        -11   -1    0    0    0    0  0.00000000000E+00  0.00000000000E+00  0.45593999997E+02  0.45594000000E+02  0.51100000000E-03 0.  1.
         11   -1    0    0    0    0 -0.00000000000E+00 -0.00000000000E+00 -0.45593999997E+02  0.45594000000E+02  0.51100000000E-03 0. -1.
    9900012    2    1    2    0    0  0.22248266383E+02 -0.10749078334E+02 -0.37664113529E+02  0.46142317743E+02  0.99999998338E+01 0.  0.
        -12    1    1    2    0    0 -0.22248266383E+02  0.10749078334E+02  0.37664113529E+02  0.45045682257E+02  0.00000000000E+00 0.  1.
         11    1    3    3    0    0  0.21660662717E+01 -0.79135724351E+00 -0.82855278055E+01  0.86004686301E+01  0.51100000000E-03 0. -1.
        -11    1    3    3    0    0  0.13840406846E+02 -0.38803366392E+01 -0.21049495187E+02  0.25489117716E+02  0.51100000000E-03 0.  1.
         12    1    3    3    0    0  0.62417932654E+01 -0.60773844517E+01 -0.83290905370E+01  0.12052731396E+02  0.00000000000E+00 0. -1.
</event>
<event>
 7    1  0.4141894E-008  0.4614232E+02  0.7816164E-02  0.1320468E+00
        -11   -1    0    0    0    0  0.00000000000E+00  0.00000000000E+00  0.45593999997E+02  0.45594000000E+02  0.51100000000E-03 0.  1.
         11   -1    0    0    0    0 -0.00000000000E+00 -0.00000000000E+00 -0.45593999997E+02  0.45594000000E+02  0.51100000000E-03 0. -1.
    9900012    2    1    2    0    0  0.22042747195E+02  0.16072752762E+02 -0.35845463377E+02  0.46142319519E+02  0.10000016031E+02 0.  0.
        -12    1    1    2    0    0 -0.22042747195E+02 -0.16072752762E+02  0.35845463377E+02  0.45045680481E+02  0.00000000000E+00 0.  1.
         11    1    3    3    0    0  0.10381892054E+02  0.54928368919E+01 -0.10286477838E+02  0.15613025534E+02  0.51100000000E-03 0.  1.
        -11    1    3    3    0    0  0.88767469145E+01  0.59413772176E+01 -0.12804400093E+02  0.16674809175E+02  0.51100000000E-03 0. -1.
        -12    1    3    3    0    0  0.27841082266E+01  0.46385386521E+01 -0.12754585447E+02  0.13854484810E+02  0.00000000000E+00 0.  1.
</event>
<event>
 7    1  0.4141894E-008  0.4614232E+02  0.7816164E-02  0.1320468E+00
        -11   -1    0    0    0    0  0.00000000000E+00  0.00000000000E+00  0.45593999997E+02  0.45594000000E+02  0.51100000000E-03 0. -1.
         11   -1    0    0    0    0 -0.00000000000E+00 -0.00000000000E+00 -0.45593999997E+02  0.45594000000E+02  0.51100000000E-03 0.  1.
    9900012    2    1    2    0    0 -0.39259448701E+02 -0.89328249886E+01  0.20199352627E+02  0.46142317397E+02  0.99999966826E+01 0.  0.
        -12    1    1    2    0    0  0.39259448701E+02  0.89328249886E+01 -0.20199352627E+02  0.45045682603E+02  0.00000000000E+00 0.  1.
         11    1    3    3    0    0 -0.16529692278E+02 -0.85618530889E+00  0.87967403517E+01  0.18744237012E+02  0.51100000000E-03 0. -1.
        -11    1    3    3    0    0 -0.59342585269E+01 -0.61254283597E+00  0.54455494972E+01  0.80774155878E+01  0.51100000000E-03 0.  1.
        -12    1    3    3    0    0 -0.16795497896E+02 -0.74640968438E+01  0.59570627784E+01  0.19320664797E+02  0.00000000000E+00 0.  1.
</event>
<event>
 7    1  0.4141894E-008  0.4614232E+02  0.7816164E-02  0.1320468E+00
        -11   -1    0    0    0    0  0.00000000000E+00  0.00000000000E+00  0.45593999997E+02  0.45594000000E+02  0.51100000000E-03 0.  1.
         11   -1    0    0    0    0 -0.00000000000E+00 -0.00000000000E+00 -0.45593999997E+02  0.45594000000E+02  0.51100000000E-03 0. -1.
    9900012    2    1    2    0    0 -0.29341158971E+02  0.42970067720E+01 -0.33907898434E+02  0.46142318152E+02  0.10000003564E+02 0.  0.
        -12    1    1    2    0    0  0.29341158971E+02 -0.42970067720E+01  0.33907898434E+02  0.45045681848E+02  0.00000000000E+00 0.  1.
         11    1    3    3    0    0 -0.10413860106E+02  0.43480404310E+01 -0.13508428163E+02  0.17602033109E+02  0.51100000000E-03 0. -1.
        -11    1    3    3    0    0 -0.25527921458E+01  0.13980213521E+01 -0.60751873631E+01  0.67364020959E+01  0.51100000000E-03 0.  1.
        -12    1    3    3    0    0 -0.16374506719E+02 -0.14490550111E+01 -0.14324282908E+02  0.21803882947E+02  0.00000000000E+00 0.  1.
</event>
<event>
 7    1  0.4141894E-008  0.4614232E+02  0.7816164E-02  0.1320468E+00
        -11   -1    0    0    0    0  0.00000000000E+00  0.00000000000E+00  0.45593999997E+02  0.45594000000E+02  0.51100000000E-03 0.  1.
         11   -1    0    0    0    0 -0.00000000000E+00 -0.00000000000E+00 -0.45593999997E+02  0.45594000000E+02  0.51100000000E-03 0. -1.
    9900012    2    1    2    0    0  0.34006772938E+01 -0.38253083240E+02 -0.23542524002E+02  0.46142318522E+02  0.10000006938E+02 0.  0.
        -12    1    1    2    0    0 -0.34006772938E+01  0.38253083240E+02  0.23542524002E+02  0.45045681478E+02  0.00000000000E+00 0.  1.
         11    1    3    3    0    0 -0.37305264804E+00 -0.59954526417E+01 -0.58308338258E+01  0.83715735690E+01  0.51100000000E-03 0.  1.
        -11    1    3    3    0    0  0.75539868665E+00 -0.20245877299E+02 -0.14681576078E+02  0.25020288791E+02  0.51100000000E-03 0. -1.
        -12    1    3    3    0    0  0.30183312551E+01 -0.12011753300E+02 -0.30301140985E+01  0.12750456162E+02  0.00000000000E+00 0.  1.
</event>
<event>
 7    1  0.4141894E-008  0.4614232E+02  0.7816164E-02  0.1320468E+00
        -11   -1    0    0    0    0  0.00000000000E+00  0.00000000000E+00  0.45593999997E+02  0.45594000000E+02  0.51100000000E-03 0.  1.
         11   -1    0    0    0    0 -0.00000000000E+00 -0.00000000000E+00 -0.45593999997E+02  0.45594000000E+02  0.51100000000E-03 0. -1.
    9900012    2    1    2    0    0  0.37189296142E+02 -0.13581566472E+02 -0.21485122066E+02  0.46142321345E+02  0.10000032677E+02 0.  0.
        -12    1    1    2    0    0 -0.37189296142E+02  0.13581566472E+02  0.21485122066E+02  0.45045678655E+02  0.00000000000E+00 0.  1.
         11    1    3    3    0    0  0.89184800104E+01 -0.10134275845E+01 -0.72886782296E+01  0.11562488995E+02  0.51100000000E-03 0. -1.
        -11    1    3    3    0    0  0.61408171176E+01 -0.15849179706E+00 -0.23281079276E+01  0.65692344535E+01  0.51100000000E-03 0.  1.
        -12    1    3    3    0    0  0.22129999014E+02 -0.12409647091E+02 -0.11868335909E+02  0.28010597896E+02  0.00000000000E+00 0.  1.
</event>
<event>
 7    1  0.4141894E-008  0.4614232E+02  0.7816164E-02  0.1320468E+00
        -11   -1    0    0    0    0  0.00000000000E+00  0.00000000000E+00  0.45593999997E+02  0.45594000000E+02  0.51100000000E-03 0. -1.
         11   -1    0    0    0    0 -0.00000000000E+00 -0.00000000000E+00 -0.45593999997E+02  0.45594000000E+02  0.51100000000E-03 0.  1.
    9900012    2    1    2    0    0  0.22380878487E+02  0.12323592124E+02  0.37099040303E+02  0.46142318342E+02  0.10000005293E+02 0.  0.
        -12    1    1    2    0    0 -0.22380878487E+02 -0.12323592124E+02 -0.37099040303E+02  0.45045681658E+02  0.00000000000E+00 0.  1.
         11    1    3    3    0    0  0.10777476164E+01  0.24631914979E+01  0.15719756288E+01  0.31144758658E+01  0.51100000000E-03 0. -1.
        -11    1    3    3    0    0  0.14914177973E+02  0.98250191127E+01  0.25283256293E+02  0.30954914864E+02  0.51100000000E-03 0.  1.
         12    1    3    3    0    0  0.63889528981E+01  0.35381513069E-01  0.10243808381E+02  0.12072927612E+02  0.00000000000E+00 0. -1.
</event>
<event>
 7    1  0.4141894E-008  0.4614231E+02  0.7816164E-02  0.1320468E+00
        -11   -1    0    0    0    0  0.00000000000E+00  0.00000000000E+00  0.45593999997E+02  0.45594000000E+02  0.51100000000E-03 0. -1.
         11   -1    0    0    0    0 -0.00000000000E+00 -0.00000000000E+00 -0.45593999997E+02  0.45594000000E+02  0.51100000000E-03 0.  1.
    9900012    2    1    2    0    0  0.82125094875E+00 -0.41688167934E+02  0.17045118945E+02  0.46142313429E+02  0.99999604990E+01 0.  0.
        -12    1    1    2    0    0 -0.82125094875E+00  0.41688167934E+02 -0.17045118945E+02  0.45045686571E+02  0.00000000000E+00 0.  1.
         11    1    3    3    0    0  0.28389948514E+01 -0.12826177162E+02  0.60075742564E+01  0.14445125858E+02  0.51100000000E-03 0. -1.
        -11    1    3    3    0    0  0.23895168945E+01 -0.74226065471E+01  0.35090791082E+01  0.85509365212E+01  0.51100000000E-03 0.  1.
         12    1    3    3    0    0 -0.44072607971E+01 -0.21439384225E+02  0.75284655804E+01  0.23146251050E+02  0.00000000000E+00 0. -1.
</event>
<event>
 7    1  0.4141894E-008  0.4614232E+02  0.7816164E-02  0.1320468E+00
        -11   -1    0    0    0    0  0.00000000000E+00  0.00000000000E+00  0.45593999997E+02  0.45594000000E+02  0.51100000000E-03 0.  1.
         11   -1    0    0    0    0 -0.00000000000E+00 -0.00000000000E+00 -0.45593999997E+02  0.45594000000E+02  0.51100000000E-03 0. -1.
    9900012    2    1    2    0    0  0.41252084915E+02  0.11827739796E+02 -0.13692459782E+02  0.46142318815E+02  0.10000009614E+02 0.  0.
        -12    1    1    2    0    0 -0.41252084915E+02 -0.11827739796E+02  0.13692459782E+02  0.45045681185E+02  0.00000000000E+00 0.  1.
         11    1    3    3    0    0  0.59361616746E+01  0.19401993723E+01 -0.50137640165E+01  0.80087588868E+01  0.51100000000E-03 0. -1.
        -11    1    3    3    0    0  0.83027612061E+01  0.37345909033E+01 -0.43590748836E+01  0.10093787543E+02  0.51100000000E-03 0.  1.
         12    1    3    3    0    0  0.27013162034E+02  0.61529495201E+01 -0.43196208819E+01  0.28039772386E+02  0.00000000000E+00 0. -1.
</event>
<event>
 7    1  0.4141894E-008  0.4614232E+02  0.7816164E-02  0.1320468E+00
        -11   -1    0    0    0    0  0.00000000000E+00  0.00000000000E+00  0.45593999997E+02  0.45594000000E+02  0.51100000000E-03 0.  1.
         11   -1    0    0    0    0 -0.00000000000E+00 -0.00000000000E+00 -0.45593999997E+02  0.45594000000E+02  0.51100000000E-03 0. -1.
    9900012    2    1    2    0    0  0.29177434127E+02 -0.34317459857E+02  0.32057911540E+00  0.46142317807E+02  0.10000000419E+02 0.  0.
        -12    1    1    2    0    0 -0.29177434127E+02  0.34317459857E+02 -0.32057911540E+00  0.45045682193E+02  0.00000000000E+00 0.  1.
         11    1    3    3    0    0  0.10207757984E+02 -0.12109778852E+02 -0.29091699354E+01  0.16103053650E+02  0.51100000000E-03 0. -1.
        -11    1    3    3    0    0  0.17354951218E+02 -0.21669330814E+02  0.18076212877E+01  0.27821245923E+02  0.51100000000E-03 0.  1.
        -12    1    3    3    0    0  0.16147249245E+01 -0.53835019121E+00  0.14221277631E+01  0.22180182336E+01  0.00000000000E+00 0.  1.
</event>
<event>
 7    1  0.4141894E-008  0.4614232E+02  0.7816164E-02  0.1320468E+00
        -11   -1    0    0    0    0  0.00000000000E+00  0.00000000000E+00  0.45593999997E+02  0.45594000000E+02  0.51100000000E-03 0. -1.
         11   -1    0    0    0    0 -0.00000000000E+00 -0.00000000000E+00 -0.45593999997E+02  0.45594000000E+02  0.51100000000E-03 0.  1.
    9900012    2    1    2    0    0 -0.40230150576E+02 -0.14393132835E+02  0.14264859568E+02  0.46142317558E+02  0.99999981494E+01 0.  0.
        -12    1    1    2    0    0  0.40230150576E+02  0.14393132835E+02 -0.14264859568E+02  0.45045682442E+02  0.00000000000E+00 0.  1.
         11    1    3    3    0    0 -0.10913351605E+02 -0.23493775151E+01  0.10614584068E+01  0.11213719819E+02  0.51100000000E-03 0. -1.
        -11    1    3    3    0    0 -0.29343813853E+01 -0.35047498334E+01  0.24544970991E+01  0.51882966164E+01  0.51100000000E-03 0.  1.
        -12    1    3    3    0    0 -0.26382417585E+02 -0.85390054864E+01  0.10748904062E+02  0.29740301123E+02  0.00000000000E+00 0.  1.
</event>
<event>
 7    1  0.4141894E-008  0.4614232E+02  0.7816164E-02  0.1320468E+00
        -11   -1    0    0    0    0  0.00000000000E+00  0.00000000000E+00  0.45593999997E+02  0.45594000000E+02  0.51100000000E-03 0. -1.
         11   -1    0    0    0    0 -0.00000000000E+00 -0.00000000000E+00 -0.45593999997E+02  0.45594000000E+02  0.51100000000E-03 0.  1.
    9900012    2    1    2    0    0  0.14755519957E-01  0.24894198863E+02  0.37541871827E+02  0.46142317687E+02  0.99999993221E+01 0.  0.
        -12    1    1    2    0    0 -0.14755519957E-01 -0.24894198863E+02 -0.37541871827E+02  0.45045682313E+02  0.00000000000E+00 0.  1.
         11    1    3    3    0    0  0.27246401607E+01  0.16927471003E+01  0.38979977925E+01  0.50481128951E+01  0.51100000000E-03 0. -1.
        -11    1    3    3    0    0  0.89936617036E-01  0.10711552179E+02  0.17077607517E+02  0.20159119957E+02  0.51100000000E-03 0.  1.
        -12    1    3    3    0    0 -0.27998212578E+01  0.12489899584E+02  0.16566266518E+02  0.20935084835E+02  0.00000000000E+00 0.  1.
</event>
<event>
 7    1  0.4141894E-008  0.4614232E+02  0.7816164E-02  0.1320468E+00
        -11   -1    0    0    0    0  0.00000000000E+00  0.00000000000E+00  0.45593999997E+02  0.45594000000E+02  0.51100000000E-03 0. -1.
         11   -1    0    0    0    0 -0.00000000000E+00 -0.00000000000E+00 -0.45593999997E+02  0.45594000000E+02  0.51100000000E-03 0.  1.
    9900012    2    1    2    0    0 -0.29649124195E+02 -0.25893750937E+02  0.21898781206E+02  0.46142317394E+02  0.99999966546E+01 0.  0.
        -12    1    1    2    0    0  0.29649124195E+02  0.25893750937E+02 -0.21898781206E+02  0.45045682606E+02  0.00000000000E+00 0.  1.
         11    1    3    3    0    0 -0.26830735203E+02 -0.20511852123E+02  0.18833590010E+02  0.38669478171E+02  0.51100000000E-03 0. -1.
        -11    1    3    3    0    0 -0.67237295508E+00 -0.14395915998E+01  0.24813649701E+01  0.29464693687E+01  0.51100000000E-03 0.  1.
         12    1    3    3    0    0 -0.21460160367E+01 -0.39423072143E+01  0.58382622574E+00  0.45263698549E+01  0.00000000000E+00 0. -1.
</event>
<event>
 7    1  0.4141894E-008  0.4614232E+02  0.7816164E-02  0.1320468E+00
        -11   -1    0    0    0    0  0.00000000000E+00  0.00000000000E+00  0.45593999997E+02  0.45594000000E+02  0.51100000000E-03 0. -1.
         11   -1    0    0    0    0 -0.00000000000E+00 -0.00000000000E+00 -0.45593999997E+02  0.45594000000E+02  0.51100000000E-03 0.  1.
    9900012    2    1    2    0    0  0.13937933242E+02 -0.25192772724E+02  0.34643494251E+02  0.46142317915E+02  0.10000001403E+02 0.  0.
        -12    1    1    2    0    0 -0.13937933242E+02  0.25192772724E+02 -0.34643494251E+02  0.45045682085E+02  0.00000000000E+00 0.  1.
         11    1    3    3    0    0  0.10360174634E+02 -0.12727920814E+02  0.14415071348E+02  0.21843247673E+02  0.51100000000E-03 0. -1.
        -11    1    3    3    0    0  0.30319075994E+01 -0.10220947661E+02  0.13604789663E+02  0.17284401546E+02  0.51100000000E-03 0.  1.
        -12    1    3    3    0    0  0.54585100828E+00 -0.22439042488E+01  0.66236332406E+01  0.70146686954E+01  0.00000000000E+00 0.  1.
</event>
<event>
 7    1  0.4141894E-008  0.4614232E+02  0.7816164E-02  0.1320468E+00
        -11   -1    0    0    0    0  0.00000000000E+00  0.00000000000E+00  0.45593999997E+02  0.45594000000E+02  0.51100000000E-03 0. -1.
         11   -1    0    0    0    0 -0.00000000000E+00 -0.00000000000E+00 -0.45593999997E+02  0.45594000000E+02  0.51100000000E-03 0.  1.
    9900012    2    1    2    0    0 -0.42054510309E+02 -0.15868910978E+02  0.29511366927E+01  0.46142318956E+02  0.10000010893E+02 0.  0.
        -12    1    1    2    0    0  0.42054510309E+02  0.15868910978E+02 -0.29511366927E+01  0.45045681044E+02  0.00000000000E+00 0.  1.
         11    1    3    3    0    0 -0.11184860787E+02 -0.18843680655E+01  0.29206355696E+01  0.11712474812E+02  0.51100000000E-03 0. -1.
        -11    1    3    3    0    0 -0.18302343880E+02 -0.11474169781E+02 -0.43065861910E+00  0.21605967481E+02  0.51100000000E-03 0.  1.
        -12    1    3    3    0    0 -0.12567305642E+02 -0.25103731315E+01  0.46115974222E+00  0.12823876663E+02  0.00000000000E+00 0.  1.
</event>
<event>
 7    1  0.4141894E-008  0.4614232E+02  0.7816164E-02  0.1320468E+00
        -11   -1    0    0    0    0  0.00000000000E+00  0.00000000000E+00  0.45593999997E+02  0.45594000000E+02  0.51100000000E-03 0.  1.
         11   -1    0    0    0    0 -0.00000000000E+00 -0.00000000000E+00 -0.45593999997E+02  0.45594000000E+02  0.51100000000E-03 0. -1.
    9900012    2    1    2    0    0  0.25055560049E+02  0.26126135451E+02 -0.26809654102E+02  0.46142316566E+02  0.99999890981E+01 0.  0.
        -12    1    1    2    0    0 -0.25055560049E+02 -0.26126135451E+02  0.26809654102E+02  0.45045683434E+02  0.00000000000E+00 0.  1.
         11    1    3    3    0    0  0.14318311344E+02  0.13696398293E+02 -0.12296383461E+02  0.23319657211E+02  0.51100000000E-03 0. -1.
        -11    1    3    3    0    0  0.83867790517E+01  0.83904488787E+01 -0.64509942239E+01  0.13503815090E+02  0.51100000000E-03 0.  1.
        -12    1    3    3    0    0  0.23504696528E+01  0.40392882800E+01 -0.80622764177E+01  0.93188442649E+01  0.00000000000E+00 0.  1.
</event>
<event>
 7    1  0.4141894E-008  0.4614232E+02  0.7816164E-02  0.1320468E+00
        -11   -1    0    0    0    0  0.00000000000E+00  0.00000000000E+00  0.45593999997E+02  0.45594000000E+02  0.51100000000E-03 0.  1.
         11   -1    0    0    0    0 -0.00000000000E+00 -0.00000000000E+00 -0.45593999997E+02  0.45594000000E+02  0.51100000000E-03 0. -1.
    9900012    2    1    2    0    0 -0.29915468747E+02 -0.30566020359E+02 -0.14138480586E+02  0.46142317586E+02  0.99999983999E+01 0.  0.
        -12    1    1    2    0    0  0.29915468747E+02  0.30566020359E+02  0.14138480586E+02  0.45045682414E+02  0.00000000000E+00 0.  1.
         11    1    3    3    0    0 -0.16742352953E+02 -0.12711475922E+02 -0.60975585187E+01  0.21887627159E+02  0.51100000000E-03 0. -1.
        -11    1    3    3    0    0 -0.86075306056E+01 -0.83764910164E+01 -0.21636788158E+01  0.12203962109E+02  0.51100000000E-03 0.  1.
         12    1    3    3    0    0 -0.45655851884E+01 -0.94780534207E+01 -0.58772432511E+01  0.12050728318E+02  0.00000000000E+00 0. -1.
</event>
<event>
 7    1  0.4141894E-008  0.4614232E+02  0.7816164E-02  0.1320468E+00
        -11   -1    0    0    0    0  0.00000000000E+00  0.00000000000E+00  0.45593999997E+02  0.45594000000E+02  0.51100000000E-03 0.  1.
         11   -1    0    0    0    0 -0.00000000000E+00 -0.00000000000E+00 -0.45593999997E+02  0.45594000000E+02  0.51100000000E-03 0. -1.
    9900012    2    1    2    0    0  0.83229187174E+01  0.22426560064E+02 -0.38169250348E+02  0.46142320469E+02  0.10000024692E+02 0.  0.
        -12    1    1    2    0    0 -0.83229187174E+01 -0.22426560064E+02  0.38169250348E+02  0.45045679531E+02  0.00000000000E+00 0.  1.
         11    1    3    3    0    0  0.17396723927E+01  0.57010591341E+01 -0.18038194561E+02  0.18997499798E+02  0.51100000000E-03 0. -1.
        -11    1    3    3    0    0  0.19418145311E+01  0.69785678934E+01 -0.99355710041E+01  0.12295797044E+02  0.51100000000E-03 0.  1.
        -12    1    3    3    0    0  0.46414317936E+01  0.97469330365E+01 -0.10195484783E+02  0.14849023627E+02  0.00000000000E+00 0.  1.
</event>
<event>
 7    1  0.4141894E-008  0.4614232E+02  0.7816164E-02  0.1320468E+00
        -11   -1    0    0    0    0  0.00000000000E+00  0.00000000000E+00  0.45593999997E+02  0.45594000000E+02  0.51100000000E-03 0.  1.
         11   -1    0    0    0    0 -0.00000000000E+00 -0.00000000000E+00 -0.45593999997E+02  0.45594000000E+02  0.51100000000E-03 0. -1.
    9900012    2    1    2    0    0 -0.29561620076E+02  0.18782972771E+02 -0.28327090621E+02  0.46142317514E+02  0.99999977425E+01 0.  0.
        -12    1    1    2    0    0  0.29561620076E+02 -0.18782972771E+02  0.28327090621E+02  0.45045682486E+02  0.00000000000E+00 0.  1.
         11    1    3    3    0    0 -0.82652851630E+01  0.10785583957E+02 -0.11284462106E+02  0.17663036132E+02  0.51100000000E-03 0. -1.
        -11    1    3    3    0    0 -0.67759875605E+00 -0.59206577211E-01 -0.50338550487E+00  0.84619307526E+00  0.51100000000E-03 0.  1.
         12    1    3    3    0    0 -0.20618736157E+02  0.80565953918E+01 -0.16539243010E+02  0.27633088307E+02  0.00000000000E+00 0. -1.
</event>
<event>
 7    1  0.4141894E-008  0.4614232E+02  0.7816164E-02  0.1320468E+00
        -11   -1    0    0    0    0  0.00000000000E+00  0.00000000000E+00  0.45593999997E+02  0.45594000000E+02  0.51100000000E-03 0.  1.
         11   -1    0    0    0    0 -0.00000000000E+00 -0.00000000000E+00 -0.45593999997E+02  0.45594000000E+02  0.51100000000E-03 0. -1.
    9900012    2    1    2    0    0  0.88688906149E+01 -0.43049618703E+02 -0.98583219412E+01  0.46142318712E+02  0.10000008667E+02 0.  0.
        -12    1    1    2    0    0 -0.88688906149E+01  0.43049618703E+02  0.98583219412E+01  0.45045681288E+02  0.00000000000E+00 0.  1.
         11    1    3    3    0    0  0.57285641300E+01 -0.22921814117E+02 -0.12177725502E+01  0.23658169406E+02  0.51100000000E-03 0. -1.
        -11    1    3    3    0    0 -0.26939033535E+00 -0.20277529578E+01  0.19739163243E+00  0.20550710275E+01  0.51100000000E-03 0.  1.
         12    1    3    3    0    0  0.34097168202E+01 -0.18100051628E+02 -0.88379410234E+01  0.20429078278E+02  0.00000000000E+00 0. -1.
</event>
<event>
 7    1  0.4141894E-008  0.4614232E+02  0.7816164E-02  0.1320468E+00
        -11   -1    0    0    0    0  0.00000000000E+00  0.00000000000E+00  0.45593999997E+02  0.45594000000E+02  0.51100000000E-03 0.  1.
         11   -1    0    0    0    0 -0.00000000000E+00 -0.00000000000E+00 -0.45593999997E+02  0.45594000000E+02  0.51100000000E-03 0. -1.
    9900012    2    1    2    0    0  0.90705663417E+01 -0.44091009291E+02  0.16796478515E+01  0.46142317732E+02  0.99999997385E+01 0.  0.
        -12    1    1    2    0    0 -0.90705663417E+01  0.44091009291E+02 -0.16796478515E+01  0.45045682268E+02  0.00000000000E+00 0.  1.
         11    1    3    3    0    0  0.38790082044E+01 -0.21686057221E+02  0.27913870104E+01  0.22206387012E+02  0.51100000000E-03 0. -1.
        -11    1    3    3    0    0  0.52410792997E+01 -0.21839603180E+02 -0.23416311717E+01  0.22581417496E+02  0.51100000000E-03 0.  1.
        -12    1    3    3    0    0 -0.49521162416E-01 -0.56534888976E+00  0.12298920129E+01  0.13545132248E+01  0.00000000000E+00 0.  1.
</event>
<event>
 7    1  0.4141894E-008  0.4614232E+02  0.7816164E-02  0.1320468E+00
        -11   -1    0    0    0    0  0.00000000000E+00  0.00000000000E+00  0.45593999997E+02  0.45594000000E+02  0.51100000000E-03 0. -1.
         11   -1    0    0    0    0 -0.00000000000E+00 -0.00000000000E+00 -0.45593999997E+02  0.45594000000E+02  0.51100000000E-03 0.  1.
    9900012    2    1    2    0    0 -0.44786651614E+02 -0.43474883246E+01 -0.20901502015E+01  0.46142317128E+02  0.99999942238E+01 0.  0.
        -12    1    1    2    0    0  0.44786651614E+02  0.43474883246E+01  0.20901502015E+01  0.45045682872E+02  0.00000000000E+00 0.  1.
         11    1    3    3    0    0 -0.81930834575E+01 -0.27809856416E+01 -0.94618179746E+00  0.87037783712E+01  0.51100000000E-03 0. -1.
        -11    1    3    3    0    0 -0.17368356148E+02 -0.19425153661E+01  0.30933936332E+01  0.17748302614E+02  0.51100000000E-03 0.  1.
         12    1    3    3    0    0 -0.19225212009E+02  0.37601268314E+00 -0.42373620372E+01  0.19690236143E+02  0.00000000000E+00 0. -1.
</event>
<event>
 7    1  0.4141894E-008  0.4614232E+02  0.7816164E-02  0.1320468E+00
        -11   -1    0    0    0    0  0.00000000000E+00  0.00000000000E+00  0.45593999997E+02  0.45594000000E+02  0.51100000000E-03 0. -1.
         11   -1    0    0    0    0 -0.00000000000E+00 -0.00000000000E+00 -0.45593999997E+02  0.45594000000E+02  0.51100000000E-03 0.  1.
    9900012    2    1    2    0    0  0.63969514125E+01 -0.51653347016E+00  0.44586160091E+02  0.46142318011E+02  0.10000002275E+02 0.  0.
        -12    1    1    2    0    0 -0.63969514125E+01  0.51653347016E+00 -0.44586160091E+02  0.45045681989E+02  0.00000000000E+00 0.  1.
         11    1    3    3    0    0  0.59471323316E+01  0.10857127685E+01  0.15097228081E+02  0.16262639736E+02  0.51100000000E-03 0. -1.
        -11    1    3    3    0    0 -0.14062057596E+01  0.26093723285E+00  0.38648162795E+01  0.41209595986E+01  0.51100000000E-03 0.  1.
        -12    1    3    3    0    0  0.18560248405E+01 -0.18631834715E+01  0.25624115730E+02  0.25758718676E+02  0.00000000000E+00 0.  1.
</event>
<event>
 7    1  0.4141894E-008  0.4614231E+02  0.7816164E-02  0.1320468E+00
        -11   -1    0    0    0    0  0.00000000000E+00  0.00000000000E+00  0.45593999997E+02  0.45594000000E+02  0.51100000000E-03 0.  1.
         11   -1    0    0    0    0 -0.00000000000E+00 -0.00000000000E+00 -0.45593999997E+02  0.45594000000E+02  0.51100000000E-03 0. -1.
    9900012    2    1    2    0    0  0.80009423375E+01 -0.18478086926E+02 -0.40294652497E+02  0.46142314363E+02  0.99999690088E+01 0.  0.
        -12    1    1    2    0    0 -0.80009423375E+01  0.18478086926E+02  0.40294652497E+02  0.45045685637E+02  0.00000000000E+00 0.  1.
         11    1    3    3    0    0  0.20384676301E+01 -0.16113467814E+01 -0.30598283804E+01  0.40142668954E+01  0.51100000000E-03 0.  1.
        -11    1    3    3    0    0  0.77607786627E+01 -0.10987220176E+02 -0.23451153467E+02  0.27035260159E+02  0.51100000000E-03 0. -1.
         12    1    3    3    0    0 -0.17983039553E+01 -0.58795199685E+01 -0.13783670649E+02  0.15092787309E+02  0.00000000000E+00 0. -1.
</event>
<event>
 7    1  0.4141894E-008  0.4614232E+02  0.7816164E-02  0.1320468E+00
        -11   -1    0    0    0    0  0.00000000000E+00  0.00000000000E+00  0.45593999997E+02  0.45594000000E+02  0.51100000000E-03 0.  1.
         11   -1    0    0    0    0 -0.00000000000E+00 -0.00000000000E+00 -0.45593999997E+02  0.45594000000E+02  0.51100000000E-03 0. -1.
    9900012    2    1    2    0    0  0.28623499319E+02 -0.32633998193E+02 -0.12034577360E+02  0.46142316483E+02  0.99999883458E+01 0.  0.
        -12    1    1    2    0    0 -0.28623499319E+02  0.32633998193E+02  0.12034577360E+02  0.45045683517E+02  0.00000000000E+00 0.  1.
         11    1    3    3    0    0  0.18682564766E+02 -0.21871422234E+02 -0.10370315350E+02  0.30576801296E+02  0.51100000000E-03 0. -1.
        -11    1    3    3    0    0  0.98192941052E+01 -0.82315522416E+01 -0.63003614216E+00  0.12828637294E+02  0.51100000000E-03 0.  1.
         12    1    3    3    0    0  0.12164044753E+00 -0.25310237166E+01 -0.10342258684E+01  0.27368778927E+01  0.00000000000E+00 0. -1.
</event>
<event>
 7    1  0.4141894E-008  0.4614232E+02  0.7816164E-02  0.1320468E+00
        -11   -1    0    0    0    0  0.00000000000E+00  0.00000000000E+00  0.45593999997E+02  0.45594000000E+02  0.51100000000E-03 0.  1.
         11   -1    0    0    0    0 -0.00000000000E+00 -0.00000000000E+00 -0.45593999997E+02  0.45594000000E+02  0.51100000000E-03 0. -1.
    9900012    2    1    2    0    0 -0.14350826027E+01 -0.54220525591E+01 -0.44695134770E+02  0.46142321094E+02  0.10000030391E+02 0.  0.
        -12    1    1    2    0    0  0.14350826027E+01  0.54220525591E+01  0.44695134770E+02  0.45045678906E+02  0.00000000000E+00 0.  1.
         11    1    3    3    0    0  0.18788724460E+00  0.35887140493E+00 -0.11161257479E+01  0.11873614649E+01  0.51100000000E-03 0. -1.
        -11    1    3    3    0    0 -0.41107167598E+01  0.60801432652E+00 -0.14989328601E+02  0.15554666370E+02  0.51100000000E-03 0.  1.
         12    1    3    3    0    0  0.24877469124E+01 -0.63889382905E+01 -0.28589680421E+02  0.29400293259E+02  0.00000000000E+00 0. -1.
</event>
<event>
 7    1  0.4141894E-008  0.4614232E+02  0.7816164E-02  0.1320468E+00
        -11   -1    0    0    0    0  0.00000000000E+00  0.00000000000E+00  0.45593999997E+02  0.45594000000E+02  0.51100000000E-03 0. -1.
         11   -1    0    0    0    0 -0.00000000000E+00 -0.00000000000E+00 -0.45593999997E+02  0.45594000000E+02  0.51100000000E-03 0.  1.
    9900012    2    1    2    0    0  0.38050469044E+02 -0.44506457128E+01  0.23695296806E+02  0.46142317271E+02  0.99999955331E+01 0.  0.
        -12    1    1    2    0    0 -0.38050469044E+02  0.44506457128E+01 -0.23695296806E+02  0.45045682729E+02  0.00000000000E+00 0.  1.
         11    1    3    3    0    0  0.25395285744E+02 -0.33747284409E+01  0.12615362290E+02  0.28556202409E+02  0.51100000000E-03 0.  1.
        -11    1    3    3    0    0  0.10340186751E+02  0.24909908393E+00  0.10717030026E+02  0.14894168162E+02  0.51100000000E-03 0. -1.
         12    1    3    3    0    0  0.23149965500E+01 -0.13250163559E+01  0.36290449063E+00  0.26919467006E+01  0.00000000000E+00 0. -1.
</event>
<event>
 7    1  0.4141894E-008  0.4614232E+02  0.7816164E-02  0.1320468E+00
        -11   -1    0    0    0    0  0.00000000000E+00  0.00000000000E+00  0.45593999997E+02  0.45594000000E+02  0.51100000000E-03 0.  1.
         11   -1    0    0    0    0 -0.00000000000E+00 -0.00000000000E+00 -0.45593999997E+02  0.45594000000E+02  0.51100000000E-03 0. -1.
    9900012    2    1    2    0    0 -0.40232125259E+02 -0.13977171509E+02 -0.14667252654E+02  0.46142317336E+02  0.99999961235E+01 0.  0.
        -12    1    1    2    0    0  0.40232125259E+02  0.13977171509E+02  0.14667252654E+02  0.45045682664E+02  0.00000000000E+00 0.  1.
         11    1    3    3    0    0 -0.25506139431E+02 -0.49979141895E+01 -0.97122163638E+01  0.27746521257E+02  0.51100000000E-03 0. -1.
        -11    1    3    3    0    0 -0.11573091894E+01  0.29462658113E+00  0.10634938183E+00  0.11989494711E+01  0.51100000000E-03 0.  1.
         12    1    3    3    0    0 -0.13568676638E+02 -0.92738839005E+01 -0.50613856725E+01  0.17196846607E+02  0.00000000000E+00 0. -1.
</event>
<event>
 7    1  0.4141894E-008  0.4614232E+02  0.7816164E-02  0.1320468E+00
        -11   -1    0    0    0    0  0.00000000000E+00  0.00000000000E+00  0.45593999997E+02  0.45594000000E+02  0.51100000000E-03 0.  1.
         11   -1    0    0    0    0 -0.00000000000E+00 -0.00000000000E+00 -0.45593999997E+02  0.45594000000E+02  0.51100000000E-03 0. -1.
    9900012    2    1    2    0    0 -0.20844689023E+02 -0.92344856681E+01 -0.38850182131E+02  0.46142318324E+02  0.10000005130E+02 0.  0.
        -12    1    1    2    0    0  0.20844689023E+02  0.92344856681E+01  0.38850182131E+02  0.45045681676E+02  0.00000000000E+00 0.  1.
         11    1    3    3    0    0 -0.11401880969E+02 -0.50254019578E+01 -0.18453238375E+02  0.22266107905E+02  0.51100000000E-03 0. -1.
        -11    1    3    3    0    0 -0.26775919503E+01 -0.37249258083E+01 -0.38350433760E+01  0.59793083954E+01  0.51100000000E-03 0.  1.
        -12    1    3    3    0    0 -0.67652161041E+01 -0.48415790207E+00 -0.16561900380E+02  0.17896902023E+02  0.00000000000E+00 0.  1.
</event>
<event>
 7    1  0.4141894E-008  0.4614232E+02  0.7816164E-02  0.1320468E+00
        -11   -1    0    0    0    0  0.00000000000E+00  0.00000000000E+00  0.45593999997E+02  0.45594000000E+02  0.51100000000E-03 0.  1.
         11   -1    0    0    0    0 -0.00000000000E+00 -0.00000000000E+00 -0.45593999997E+02  0.45594000000E+02  0.51100000000E-03 0. -1.
    9900012    2    1    2    0    0 -0.15329676528E+02  0.20044498596E+02 -0.37313973799E+02  0.46142317109E+02  0.99999940549E+01 0.  0.
        -12    1    1    2    0    0  0.15329676528E+02 -0.20044498596E+02  0.37313973799E+02  0.45045682891E+02  0.00000000000E+00 0.  1.
         11    1    3    3    0    0 -0.71453430078E+01  0.68559916677E+01 -0.15467099730E+02  0.18365503608E+02  0.51100000000E-03 0. -1.
        -11    1    3    3    0    0 -0.38406337727E+01  0.69873460934E+00 -0.43447814955E+01  0.58408753055E+01  0.51100000000E-03 0.  1.
        -12    1    3    3    0    0 -0.43436997477E+01  0.12489772319E+02 -0.17502092574E+02  0.21935938196E+02  0.00000000000E+00 0.  1.
</event>
<event>
 7    1  0.4141894E-008  0.4614232E+02  0.7816164E-02  0.1320468E+00
        -11   -1    0    0    0    0  0.00000000000E+00  0.00000000000E+00  0.45593999997E+02  0.45594000000E+02  0.51100000000E-03 0. -1.
         11   -1    0    0    0    0 -0.00000000000E+00 -0.00000000000E+00 -0.45593999997E+02  0.45594000000E+02  0.51100000000E-03 0.  1.
    9900012    2    1    2    0    0 -0.41025356369E+02  0.13750915075E+02  0.12527806337E+02  0.46142318051E+02  0.10000002642E+02 0.  0.
        -12    1    1    2    0    0  0.41025356369E+02 -0.13750915075E+02 -0.12527806337E+02  0.45045681949E+02  0.00000000000E+00 0.  1.
         11    1    3    3    0    0 -0.85083248383E+00 -0.76047794230E+00  0.61777964434E+00  0.12976496316E+01  0.51100000000E-03 0. -1.
        -11    1    3    3    0    0 -0.37533363726E+02  0.13085519634E+02  0.91978264629E+01  0.40799316521E+02  0.51100000000E-03 0.  1.
         12    1    3    3    0    0 -0.26411601599E+01  0.14258733836E+01  0.27122002298E+01  0.40453518985E+01  0.00000000000E+00 0. -1.
</event>
<event>
 7    1  0.4141894E-008  0.4614232E+02  0.7816164E-02  0.1320468E+00
        -11   -1    0    0    0    0  0.00000000000E+00  0.00000000000E+00  0.45593999997E+02  0.45594000000E+02  0.51100000000E-03 0. -1.
         11   -1    0    0    0    0 -0.00000000000E+00 -0.00000000000E+00 -0.45593999997E+02  0.45594000000E+02  0.51100000000E-03 0.  1.
    9900012    2    1    2    0    0  0.17586288713E+02 -0.10303623730E+02  0.40170527724E+02  0.46142317518E+02  0.99999977838E+01 0.  0.
        -12    1    1    2    0    0 -0.17586288713E+02  0.10303623730E+02 -0.40170527724E+02  0.45045682482E+02  0.00000000000E+00 0.  1.
         11    1    3    3    0    0  0.38731210855E+01 -0.84142386341E+00  0.24832098698E+01  0.46771137018E+01  0.51100000000E-03 0. -1.
        -11    1    3    3    0    0  0.79741533642E+01 -0.74096812586E+01  0.20201621442E+02  0.22947679782E+02  0.51100000000E-03 0.  1.
        -12    1    3    3    0    0  0.57390142631E+01 -0.20525186075E+01  0.17485696412E+02  0.18517524035E+02  0.00000000000E+00 0.  1.
</event>
<event>
 7    1  0.4141894E-008  0.4614232E+02  0.7816164E-02  0.1320468E+00
        -11   -1    0    0    0    0  0.00000000000E+00  0.00000000000E+00  0.45593999997E+02  0.45594000000E+02  0.51100000000E-03 0.  1.
         11   -1    0    0    0    0 -0.00000000000E+00 -0.00000000000E+00 -0.45593999997E+02  0.45594000000E+02  0.51100000000E-03 0. -1.
    9900012    2    1    2    0    0  0.66915849642E+01  0.52557498853E+01 -0.44234751905E+02  0.46142317718E+02  0.99999996028E+01 0.  0.
        -12    1    1    2    0    0 -0.66915849642E+01 -0.52557498853E+01  0.44234751905E+02  0.45045682282E+02  0.00000000000E+00 0.  1.
         11    1    3    3    0    0  0.51436778186E+01  0.26042150042E+01 -0.17978378294E+02  0.18880186536E+02  0.51100000000E-03 0. -1.
        -11    1    3    3    0    0  0.39072836342E+01  0.73204073929E+00 -0.10777675463E+02  0.11487429551E+02  0.51100000000E-03 0.  1.
        -12    1    3    3    0    0 -0.23593764886E+01  0.19194941418E+01 -0.15478698148E+02  0.15774701631E+02  0.00000000000E+00 0.  1.
</event>
<event>
 7    1  0.4141894E-008  0.4614232E+02  0.7816164E-02  0.1320468E+00
        -11   -1    0    0    0    0  0.00000000000E+00  0.00000000000E+00  0.45593999997E+02  0.45594000000E+02  0.51100000000E-03 0.  1.
         11   -1    0    0    0    0 -0.00000000000E+00 -0.00000000000E+00 -0.45593999997E+02  0.45594000000E+02  0.51100000000E-03 0. -1.
    9900012    2    1    2    0    0  0.79244442886E+01 -0.99250587547E+01 -0.43218166942E+02  0.46142316940E+02  0.99999925088E+01 0.  0.
        -12    1    1    2    0    0 -0.79244442886E+01  0.99250587547E+01  0.43218166942E+02  0.45045683060E+02  0.00000000000E+00 0.  1.
         11    1    3    3    0    0  0.48382114745E+01 -0.74672040922E+01 -0.38007352585E+02  0.39034936633E+02  0.51100000000E-03 0. -1.
        -11    1    3    3    0    0  0.20637801585E+01 -0.30965342148E+00 -0.38164840647E+01  0.43497844384E+01  0.51100000000E-03 0.  1.
         12    1    3    3    0    0  0.10224526556E+01 -0.21482012410E+01 -0.13943302926E+01  0.27575958677E+01  0.00000000000E+00 0. -1.
</event>
<event>
 7    1  0.4141894E-008  0.4614232E+02  0.7816164E-02  0.1320468E+00
        -11   -1    0    0    0    0  0.00000000000E+00  0.00000000000E+00  0.45593999997E+02  0.45594000000E+02  0.51100000000E-03 0.  1.
         11   -1    0    0    0    0 -0.00000000000E+00 -0.00000000000E+00 -0.45593999997E+02  0.45594000000E+02  0.51100000000E-03 0. -1.
    9900012    2    1    2    0    0 -0.40528885418E+02 -0.19571098497E+02  0.18695266353E+01  0.46142316750E+02  0.99999907795E+01 0.  0.
        -12    1    1    2    0    0  0.40528885418E+02  0.19571098497E+02 -0.18695266353E+01  0.45045683250E+02  0.00000000000E+00 0.  1.
         11    1    3    3    0    0 -0.22235148447E+02 -0.11222353114E+02 -0.20878972712E+01  0.24994046315E+02  0.51100000000E-03 0. -1.
        -11    1    3    3    0    0 -0.76033710876E+01 -0.63133629407E+01  0.15642962054E+01  0.10005839615E+02  0.51100000000E-03 0.  1.
        -12    1    3    3    0    0 -0.10690365883E+02 -0.20353824427E+01  0.23931277011E+01  0.11142430821E+02  0.00000000000E+00 0.  1.
</event>
<event>
 7    1  0.4141894E-008  0.4614232E+02  0.7816164E-02  0.1320468E+00
        -11   -1    0    0    0    0  0.00000000000E+00  0.00000000000E+00  0.45593999997E+02  0.45594000000E+02  0.51100000000E-03 0. -1.
         11   -1    0    0    0    0 -0.00000000000E+00 -0.00000000000E+00 -0.45593999997E+02  0.45594000000E+02  0.51100000000E-03 0.  1.
    9900012    2    1    2    0    0  0.12698094169E+02  0.10087042182E+02  0.42025271599E+02  0.46142317982E+02  0.10000002016E+02 0.  0.
        -12    1    1    2    0    0 -0.12698094169E+02 -0.10087042182E+02 -0.42025271599E+02  0.45045682018E+02  0.00000000000E+00 0.  1.
         11    1    3    3    0    0  0.12212190644E+01 -0.51775338283E+00  0.96474423790E+01  0.97382025695E+01  0.51100000000E-03 0. -1.
        -11    1    3    3    0    0  0.72483933229E+01  0.99012952997E+01  0.22315420904E+02  0.25466701097E+02  0.51100000000E-03 0.  1.
         12    1    3    3    0    0  0.42284817814E+01  0.70350026526E+00  0.10062408315E+02  0.10937414315E+02  0.00000000000E+00 0. -1.
</event>
<event>
 7    1  0.4141894E-008  0.4614232E+02  0.7816164E-02  0.1320468E+00
        -11   -1    0    0    0    0  0.00000000000E+00  0.00000000000E+00  0.45593999997E+02  0.45594000000E+02  0.51100000000E-03 0.  1.
         11   -1    0    0    0    0 -0.00000000000E+00 -0.00000000000E+00 -0.45593999997E+02  0.45594000000E+02  0.51100000000E-03 0. -1.
    9900012    2    1    2    0    0 -0.14033531671E+02 -0.11436578200E+02 -0.41247765538E+02  0.46142317699E+02  0.99999994358E+01 0.  0.
        -12    1    1    2    0    0  0.14033531671E+02  0.11436578200E+02  0.41247765538E+02  0.45045682301E+02  0.00000000000E+00 0.  1.
         11    1    3    3    0    0 -0.29288144729E+00 -0.94416370416E+00 -0.62531268811E+01  0.63307835767E+01  0.51100000000E-03 0. -1.
        -11    1    3    3    0    0 -0.92400290085E+01 -0.10799154231E+02 -0.23502782478E+02  0.27465990837E+02  0.51100000000E-03 0.  1.
         12    1    3    3    0    0 -0.45006212151E+01  0.30673973515E+00 -0.11491856178E+02  0.12345543285E+02  0.00000000000E+00 0. -1.
</event>
<event>
 7    1  0.4141894E-008  0.4614232E+02  0.7816164E-02  0.1320468E+00
        -11   -1    0    0    0    0  0.00000000000E+00  0.00000000000E+00  0.45593999997E+02  0.45594000000E+02  0.51100000000E-03 0. -1.
         11   -1    0    0    0    0 -0.00000000000E+00 -0.00000000000E+00 -0.45593999997E+02  0.45594000000E+02  0.51100000000E-03 0.  1.
    9900012    2    1    2    0    0  0.21635040299E+02 -0.34219426783E-01  0.39509962694E+02  0.46142319943E+02  0.10000019892E+02 0.  0.
        -12    1    1    2    0    0 -0.21635040299E+02  0.34219426783E-01 -0.39509962694E+02  0.45045680057E+02  0.00000000000E+00 0.  1.
         11    1    3    3    0    0  0.64219527451E+01  0.13756194396E+01  0.13342702574E+02  0.14871500198E+02  0.51100000000E-03 0. -1.
        -11    1    3    3    0    0  0.99776381254E+01  0.28274874543E+01  0.15210822369E+02  0.18409700303E+02  0.51100000000E-03 0.  1.
         12    1    3    3    0    0  0.52354494290E+01 -0.42373263207E+01  0.10956437752E+02  0.12861119441E+02  0.00000000000E+00 0. -1.
</event>
<event>
 7    1  0.4141894E-008  0.4614232E+02  0.7816164E-02  0.1320468E+00
        -11   -1    0    0    0    0  0.00000000000E+00  0.00000000000E+00  0.45593999997E+02  0.45594000000E+02  0.51100000000E-03 0. -1.
         11   -1    0    0    0    0 -0.00000000000E+00 -0.00000000000E+00 -0.45593999997E+02  0.45594000000E+02  0.51100000000E-03 0.  1.
    9900012    2    1    2    0    0  0.60219511479E+01  0.27779425119E+02  0.34945001438E+02  0.46142317842E+02  0.10000000739E+02 0.  0.
        -12    1    1    2    0    0 -0.60219511479E+01 -0.27779425119E+02 -0.34945001438E+02  0.45045682158E+02  0.00000000000E+00 0.  1.
         11    1    3    3    0    0  0.26471596506E+01  0.15293135619E+02  0.13271415672E+02  0.20421016759E+02  0.51100000000E-03 0. -1.
        -11    1    3    3    0    0  0.65951563661E+00  0.23105809484E+01  0.11734096978E+01  0.26740672718E+01  0.51100000000E-03 0.  1.
         12    1    3    3    0    0  0.27152758607E+01  0.10175708552E+02  0.20500176068E+02  0.23047233811E+02  0.00000000000E+00 0. -1.
</event>
<event>
 7    1  0.4141894E-008  0.4614232E+02  0.7816164E-02  0.1320468E+00
        -11   -1    0    0    0    0  0.00000000000E+00  0.00000000000E+00  0.45593999997E+02  0.45594000000E+02  0.51100000000E-03 0. -1.
         11   -1    0    0    0    0 -0.00000000000E+00 -0.00000000000E+00 -0.45593999997E+02  0.45594000000E+02  0.51100000000E-03 0.  1.
    9900012    2    1    2    0    0 -0.37975716595E+02  0.24227111722E+02  0.74377638090E-01  0.46142317351E+02  0.99999962625E+01 0.  0.
        -12    1    1    2    0    0  0.37975716595E+02 -0.24227111722E+02 -0.74377638090E-01  0.45045682649E+02  0.00000000000E+00 0.  1.
         11    1    3    3    0    0 -0.16280460154E+02  0.94755426169E+01 -0.18055564141E+01  0.18923512490E+02  0.51100000000E-03 0. -1.
        -11    1    3    3    0    0 -0.16855200362E+02  0.12658928642E+02 -0.11973175735E+01  0.21113498603E+02  0.51100000000E-03 0.  1.
        -12    1    3    3    0    0 -0.48400560782E+01  0.20926404628E+01  0.30772516257E+01  0.61053062589E+01  0.00000000000E+00 0.  1.
</event>
<event>
 7    1  0.4141894E-008  0.4614232E+02  0.7816164E-02  0.1320468E+00
        -11   -1    0    0    0    0  0.00000000000E+00  0.00000000000E+00  0.45593999997E+02  0.45594000000E+02  0.51100000000E-03 0. -1.
         11   -1    0    0    0    0 -0.00000000000E+00 -0.00000000000E+00 -0.45593999997E+02  0.45594000000E+02  0.51100000000E-03 0.  1.
    9900012    2    1    2    0    0  0.31690036406E+02 -0.31872375396E+02  0.30011130453E+01  0.46142318739E+02  0.10000008916E+02 0.  0.
        -12    1    1    2    0    0 -0.31690036406E+02  0.31872375396E+02 -0.30011130453E+01  0.45045681261E+02  0.00000000000E+00 0.  1.
         11    1    3    3    0    0  0.14106081880E+02 -0.92704634056E+01  0.52195840845E+00  0.16887731600E+02  0.51100000000E-03 0. -1.
        -11    1    3    3    0    0  0.17354233421E+02 -0.19873243814E+02  0.18758677030E+01  0.26450597672E+02  0.51100000000E-03 0.  1.
        -12    1    3    3    0    0  0.22972110454E+00 -0.27286681762E+01  0.60328693387E+00  0.28039894661E+01  0.00000000000E+00 0.  1.
</event>
<event>
 7    1  0.4141894E-008  0.4614232E+02  0.7816164E-02  0.1320468E+00
        -11   -1    0    0    0    0  0.00000000000E+00  0.00000000000E+00  0.45593999997E+02  0.45594000000E+02  0.51100000000E-03 0. -1.
         11   -1    0    0    0    0 -0.00000000000E+00 -0.00000000000E+00 -0.45593999997E+02  0.45594000000E+02  0.51100000000E-03 0.  1.
    9900012    2    1    2    0    0 -0.18055537237E+02  0.26895018011E+02  0.31301263115E+02  0.46142317728E+02  0.99999997021E+01 0.  0.
        -12    1    1    2    0    0  0.18055537237E+02 -0.26895018011E+02 -0.31301263115E+02  0.45045682272E+02  0.00000000000E+00 0.  1.
         11    1    3    3    0    0 -0.71904789251E+01  0.10876041804E+02  0.72224126491E+01  0.14904848783E+02  0.51100000000E-03 0. -1.
        -11    1    3    3    0    0 -0.81646389347E+00 -0.63925296466E-01  0.43291555963E+00  0.92634544084E+00  0.51100000000E-03 0.  1.
        -12    1    3    3    0    0 -0.10048594418E+02  0.16082901503E+02  0.23645934906E+02  0.30311123505E+02  0.00000000000E+00 0.  1.
</event>
<event>
 7    1  0.4141894E-008  0.4614231E+02  0.7816164E-02  0.1320468E+00
        -11   -1    0    0    0    0  0.00000000000E+00  0.00000000000E+00  0.45593999997E+02  0.45594000000E+02  0.51100000000E-03 0.  1.
         11   -1    0    0    0    0 -0.00000000000E+00 -0.00000000000E+00 -0.45593999997E+02  0.45594000000E+02  0.51100000000E-03 0. -1.
    9900012    2    1    2    0    0 -0.28152918168E+02  0.23269792702E+02 -0.26363682539E+02  0.46142314182E+02  0.99999673647E+01 0.  0.
        -12    1    1    2    0    0  0.28152918168E+02 -0.23269792702E+02  0.26363682539E+02  0.45045685818E+02  0.00000000000E+00 0.  1.
         11    1    3    3    0    0 -0.67725902864E+01  0.20625910492E+01 -0.68132683678E+01  0.98256240075E+01  0.51100000000E-03 0. -1.
        -11    1    3    3    0    0 -0.22959992167E+01  0.51714493932E+01 -0.41351123185E+01  0.70081848847E+01  0.51100000000E-03 0.  1.
        -12    1    3    3    0    0 -0.19084328665E+02  0.16035752260E+02 -0.15415301853E+02  0.29308505290E+02  0.00000000000E+00 0.  1.
</event>
<event>
 7    1  0.4141894E-008  0.4614232E+02  0.7816164E-02  0.1320468E+00
        -11   -1    0    0    0    0  0.00000000000E+00  0.00000000000E+00  0.45593999997E+02  0.45594000000E+02  0.51100000000E-03 0.  1.
         11   -1    0    0    0    0 -0.00000000000E+00 -0.00000000000E+00 -0.45593999997E+02  0.45594000000E+02  0.51100000000E-03 0. -1.
    9900012    2    1    2    0    0  0.34365922190E+02 -0.29028297260E+02 -0.23355827674E+01  0.46142316559E+02  0.99999890391E+01 0.  0.
        -12    1    1    2    0    0 -0.34365922190E+02  0.29028297260E+02  0.23355827674E+01  0.45045683441E+02  0.00000000000E+00 0.  1.
         11    1    3    3    0    0  0.26084729992E+02 -0.23483595065E+02 -0.55675446283E+01  0.35537162652E+02  0.51100000000E-03 0. -1.
        -11    1    3    3    0    0  0.54106191239E+01 -0.35197872191E+01  0.12598472326E+01  0.65765429127E+01  0.51100000000E-03 0.  1.
        -12    1    3    3    0    0  0.28705730738E+01 -0.20249149762E+01  0.19721146283E+01  0.40286109939E+01  0.00000000000E+00 0.  1.
</event>
<event>
 7    1  0.4141894E-008  0.4614232E+02  0.7816164E-02  0.1320468E+00
        -11   -1    0    0    0    0  0.00000000000E+00  0.00000000000E+00  0.45593999997E+02  0.45594000000E+02  0.51100000000E-03 0.  1.
         11   -1    0    0    0    0 -0.00000000000E+00 -0.00000000000E+00 -0.45593999997E+02  0.45594000000E+02  0.51100000000E-03 0. -1.
    9900012    2    1    2    0    0  0.38608216583E+02 -0.96970881773E+01 -0.21082828536E+02  0.46142316900E+02  0.99999921511E+01 0.  0.
        -12    1    1    2    0    0 -0.38608216583E+02  0.96970881773E+01  0.21082828536E+02  0.45045683100E+02  0.00000000000E+00 0.  1.
         11    1    3    3    0    0  0.75912283860E+01  0.13969707258E+01 -0.20139052777E+01  0.79770978648E+01  0.51100000000E-03 0. -1.
        -11    1    3    3    0    0  0.85209513685E+01 -0.43729297364E+01 -0.52632848079E+01  0.10928462560E+02  0.51100000000E-03 0.  1.
         12    1    3    3    0    0  0.22496036829E+02 -0.67211291667E+01 -0.13805638450E+02  0.27236756475E+02  0.00000000000E+00 0. -1.
</event>
<event>
 7    1  0.4141894E-008  0.4614233E+02  0.7816164E-02  0.1320468E+00
        -11   -1    0    0    0    0  0.00000000000E+00  0.00000000000E+00  0.45593999997E+02  0.45594000000E+02  0.51100000000E-03 0.  1.
         11   -1    0    0    0    0 -0.00000000000E+00 -0.00000000000E+00 -0.45593999997E+02  0.45594000000E+02  0.51100000000E-03 0. -1.
    9900012    2    1    2    0    0  0.20156041247E+02 -0.25535170856E+02 -0.31157691393E+02  0.46142326708E+02  0.10000081582E+02 0.  0.
        -12    1    1    2    0    0 -0.20156041247E+02  0.25535170856E+02  0.31157691393E+02  0.45045673292E+02  0.00000000000E+00 0.  1.
         11    1    3    3    0    0  0.66746962855E+01 -0.12375508857E+02 -0.13899713338E+02  0.19771363663E+02  0.51100000000E-03 0. -1.
        -11    1    3    3    0    0  0.14655337172E+01 -0.61343050925E+00  0.35963721379E+00  0.16289337779E+01  0.51100000000E-03 0.  1.
         12    1    3    3    0    0  0.12015811244E+02 -0.12546231490E+02 -0.17617615270E+02  0.24742029267E+02  0.00000000000E+00 0. -1.
</event>
<event>
 7    1  0.4141894E-008  0.4614232E+02  0.7816164E-02  0.1320468E+00
        -11   -1    0    0    0    0  0.00000000000E+00  0.00000000000E+00  0.45593999997E+02  0.45594000000E+02  0.51100000000E-03 0.  1.
         11   -1    0    0    0    0 -0.00000000000E+00 -0.00000000000E+00 -0.45593999997E+02  0.45594000000E+02  0.51100000000E-03 0. -1.
    9900012    2    1    2    0    0  0.39212796403E+02 -0.34415474231E+01 -0.21900362107E+02  0.46142317512E+02  0.99999977317E+01 0.  0.
        -12    1    1    2    0    0 -0.39212796403E+02  0.34415474231E+01  0.21900362107E+02  0.45045682488E+02  0.00000000000E+00 0.  1.
         11    1    3    3    0    0  0.44821834825E+01 -0.13297711067E+01 -0.54574453571E+01  0.71862347620E+01  0.51100000000E-03 0. -1.
        -11    1    3    3    0    0  0.43069429867E+01  0.85284492197E+00 -0.33355508037E+00  0.44032217301E+01  0.51100000000E-03 0.  1.
         12    1    3    3    0    0  0.30423669933E+02 -0.29646212383E+01 -0.16109361669E+02  0.34552861020E+02  0.00000000000E+00 0. -1.
</event>
<event>
 7    1  0.4141894E-008  0.4614232E+02  0.7816164E-02  0.1320468E+00
        -11   -1    0    0    0    0  0.00000000000E+00  0.00000000000E+00  0.45593999997E+02  0.45594000000E+02  0.51100000000E-03 0. -1.
         11   -1    0    0    0    0 -0.00000000000E+00 -0.00000000000E+00 -0.45593999997E+02  0.45594000000E+02  0.51100000000E-03 0.  1.
    9900012    2    1    2    0    0 -0.74992371137E+01  0.22128752602E+02  0.38512248634E+02  0.46142317145E+02  0.99999943847E+01 0.  0.
        -12    1    1    2    0    0  0.74992371137E+01 -0.22128752602E+02 -0.38512248634E+02  0.45045682855E+02  0.00000000000E+00 0.  1.
         11    1    3    3    0    0 -0.29054910964E+01  0.10115490365E+02  0.10079811476E+02  0.14572838553E+02  0.51100000000E-03 0. -1.
        -11    1    3    3    0    0 -0.31623841048E+01  0.42434604496E+01  0.73639530370E+01  0.90683755109E+01  0.51100000000E-03 0.  1.
         12    1    3    3    0    0 -0.14313619125E+01  0.77698017875E+01  0.21068484121E+02  0.22501103082E+02  0.00000000000E+00 0. -1.
</event>
<event>
 7    1  0.4141894E-008  0.4614232E+02  0.7816164E-02  0.1320468E+00
        -11   -1    0    0    0    0  0.00000000000E+00  0.00000000000E+00  0.45593999997E+02  0.45594000000E+02  0.51100000000E-03 0.  1.
         11   -1    0    0    0    0 -0.00000000000E+00 -0.00000000000E+00 -0.45593999997E+02  0.45594000000E+02  0.51100000000E-03 0. -1.
    9900012    2    1    2    0    0 -0.26214618975E+02 -0.24064392735E+02 -0.27619055302E+02  0.46142318059E+02  0.10000002720E+02 0.  0.
        -12    1    1    2    0    0  0.26214618975E+02  0.24064392735E+02  0.27619055302E+02  0.45045681941E+02  0.00000000000E+00 0.  1.
         11    1    3    3    0    0 -0.21733241080E+01 -0.39633719359E+01 -0.15448515254E+01  0.47768421868E+01  0.51100000000E-03 0. -1.
        -11    1    3    3    0    0 -0.23628272207E+02 -0.20168413722E+02 -0.24018618442E+02  0.39267724555E+02  0.51100000000E-03 0.  1.
        -12    1    3    3    0    0 -0.41302265984E+00  0.67392923317E-01 -0.20555853347E+01  0.20977513179E+01  0.00000000000E+00 0.  1.
</event>
<event>
 7    1  0.4141894E-008  0.4614232E+02  0.7816164E-02  0.1320468E+00
        -11   -1    0    0    0    0  0.00000000000E+00  0.00000000000E+00  0.45593999997E+02  0.45594000000E+02  0.51100000000E-03 0.  1.
         11   -1    0    0    0    0 -0.00000000000E+00 -0.00000000000E+00 -0.45593999997E+02  0.45594000000E+02  0.51100000000E-03 0. -1.
    9900012    2    1    2    0    0  0.39636202673E+02 -0.11567508020E+02 -0.18007711801E+02  0.46142317760E+02  0.99999999926E+01 0.  0.
        -12    1    1    2    0    0 -0.39636202673E+02  0.11567508020E+02  0.18007711801E+02  0.45045682240E+02  0.00000000000E+00 0.  1.
         11    1    3    3    0    0  0.61600031557E+01 -0.35774829400E+01 -0.13167575113E+00  0.71247008238E+01  0.51100000000E-03 0. -1.
        -11    1    3    3    0    0  0.13990595897E+02 -0.13643080006E+01 -0.62995006799E+01  0.15403954653E+02  0.51100000000E-03 0.  1.
         12    1    3    3    0    0  0.19485603620E+02 -0.66257170798E+01 -0.11576535370E+02  0.23613662284E+02  0.00000000000E+00 0. -1.
</event>
<event>
 7    1  0.4141894E-008  0.4614232E+02  0.7816164E-02  0.1320468E+00
        -11   -1    0    0    0    0  0.00000000000E+00  0.00000000000E+00  0.45593999997E+02  0.45594000000E+02  0.51100000000E-03 0.  1.
         11   -1    0    0    0    0 -0.00000000000E+00 -0.00000000000E+00 -0.45593999997E+02  0.45594000000E+02  0.51100000000E-03 0. -1.
    9900012    2    1    2    0    0  0.78868578590E+01  0.44123859670E+02 -0.44716786810E+01  0.46142318417E+02  0.10000005982E+02 0.  0.
        -12    1    1    2    0    0 -0.78868578590E+01 -0.44123859670E+02  0.44716786810E+01  0.45045681583E+02  0.00000000000E+00 0.  1.
         11    1    3    3    0    0 -0.46014938214E+00  0.13973022551E+01  0.94897788425E+00  0.17506428339E+01  0.51100000000E-03 0. -1.
        -11    1    3    3    0    0 -0.26530122364E+00  0.48258639912E+00 -0.88293302555E+00  0.10405985588E+01  0.51100000000E-03 0.  1.
         12    1    3    3    0    0  0.86123084648E+01  0.42243971016E+02 -0.45377235397E+01  0.43351077024E+02  0.00000000000E+00 0. -1.
</event>
<event>
 7    1  0.4141894E-008  0.4614232E+02  0.7816164E-02  0.1320468E+00
        -11   -1    0    0    0    0  0.00000000000E+00  0.00000000000E+00  0.45593999997E+02  0.45594000000E+02  0.51100000000E-03 0. -1.
         11   -1    0    0    0    0 -0.00000000000E+00 -0.00000000000E+00 -0.45593999997E+02  0.45594000000E+02  0.51100000000E-03 0.  1.
    9900012    2    1    2    0    0 -0.16346049261E+02  0.10514070703E+02  0.40637109349E+02  0.46142315795E+02  0.99999820731E+01 0.  0.
        -12    1    1    2    0    0  0.16346049261E+02 -0.10514070703E+02 -0.40637109349E+02  0.45045684205E+02  0.00000000000E+00 0.  1.
         11    1    3    3    0    0 -0.80371687973E+01  0.54011266637E+01  0.21539548619E+02  0.23616104812E+02  0.51100000000E-03 0. -1.
        -11    1    3    3    0    0  0.83863593090E+00  0.17181606971E+01  0.52428067351E+01  0.55805384264E+01  0.51100000000E-03 0.  1.
         12    1    3    3    0    0 -0.91475163949E+01  0.33947833424E+01  0.13854753995E+02  0.16945672557E+02  0.00000000000E+00 0. -1.
</event>
<event>
 7    1  0.4141894E-008  0.4614232E+02  0.7816164E-02  0.1320468E+00
        -11   -1    0    0    0    0  0.00000000000E+00  0.00000000000E+00  0.45593999997E+02  0.45594000000E+02  0.51100000000E-03 0. -1.
         11   -1    0    0    0    0 -0.00000000000E+00 -0.00000000000E+00 -0.45593999997E+02  0.45594000000E+02  0.51100000000E-03 0.  1.
    9900012    2    1    2    0    0  0.31549704858E+01  0.44542394240E+02  0.59274630589E+01  0.46142317169E+02  0.99999946017E+01 0.  0.
        -12    1    1    2    0    0 -0.31549704858E+01 -0.44542394240E+02 -0.59274630589E+01  0.45045682831E+02  0.00000000000E+00 0.  1.
         11    1    3    3    0    0 -0.13596303138E+01  0.25349803814E+02  0.16106410638E+01  0.25437281948E+02  0.51100000000E-03 0. -1.
        -11    1    3    3    0    0  0.37065061468E+00  0.32941824865E+01 -0.95598050254E+00  0.34500607408E+01  0.51100000000E-03 0.  1.
         12    1    3    3    0    0  0.41439501849E+01  0.15898407939E+02  0.52728024977E+01  0.17254974480E+02  0.00000000000E+00 0. -1.
</event>
<event>
 7    1  0.4141894E-008  0.4614232E+02  0.7816164E-02  0.1320468E+00
        -11   -1    0    0    0    0  0.00000000000E+00  0.00000000000E+00  0.45593999997E+02  0.45594000000E+02  0.51100000000E-03 0. -1.
         11   -1    0    0    0    0 -0.00000000000E+00 -0.00000000000E+00 -0.45593999997E+02  0.45594000000E+02  0.51100000000E-03 0.  1.
    9900012    2    1    2    0    0  0.40259700469E+02  0.20181633004E+02  0.98572896662E+00  0.46142318141E+02  0.10000003460E+02 0.  0.
        -12    1    1    2    0    0 -0.40259700469E+02 -0.20181633004E+02 -0.98572896662E+00  0.45045681859E+02  0.00000000000E+00 0.  1.
         11    1    3    3    0    0  0.10403365010E+02  0.76476839569E+01 -0.29964398281E+00  0.12915373019E+02  0.51100000000E-03 0. -1.
        -11    1    3    3    0    0  0.90426651474E+00  0.42876615244E+00 -0.14116585885E+01  0.17304099441E+01  0.51100000000E-03 0.  1.
         12    1    3    3    0    0  0.28952068944E+02  0.12105182895E+02  0.26970315379E+01  0.31496535177E+02  0.00000000000E+00 0. -1.
</event>
<event>
 7    1  0.4141894E-008  0.4614231E+02  0.7816164E-02  0.1320468E+00
        -11   -1    0    0    0    0  0.00000000000E+00  0.00000000000E+00  0.45593999997E+02  0.45594000000E+02  0.51100000000E-03 0.  1.
         11   -1    0    0    0    0 -0.00000000000E+00 -0.00000000000E+00 -0.45593999997E+02  0.45594000000E+02  0.51100000000E-03 0. -1.
    9900012    2    1    2    0    0 -0.15211581073E+02 -0.22999294810E+02 -0.35619573917E+02  0.46142314229E+02  0.99999677943E+01 0.  0.
        -12    1    1    2    0    0  0.15211581073E+02  0.22999294810E+02  0.35619573917E+02  0.45045685771E+02  0.00000000000E+00 0.  1.
         11    1    3    3    0    0 -0.84059361462E+01 -0.17522455556E+02 -0.19686310239E+02  0.27663098566E+02  0.51100000000E-03 0. -1.
        -11    1    3    3    0    0 -0.38855488998E+00 -0.81657374975E+00 -0.43375290987E+01  0.44307929916E+01  0.51100000000E-03 0.  1.
         12    1    3    3    0    0 -0.64170900371E+01 -0.46602655042E+01 -0.11595734579E+02  0.14048422671E+02  0.00000000000E+00 0. -1.
</event>
<event>
 7    1  0.4141894E-008  0.4614232E+02  0.7816164E-02  0.1320468E+00
        -11   -1    0    0    0    0  0.00000000000E+00  0.00000000000E+00  0.45593999997E+02  0.45594000000E+02  0.51100000000E-03 0. -1.
         11   -1    0    0    0    0 -0.00000000000E+00 -0.00000000000E+00 -0.45593999997E+02  0.45594000000E+02  0.51100000000E-03 0.  1.
    9900012    2    1    2    0    0 -0.23356013053E+01  0.12176884130E+02  0.43305680048E+02  0.46142318021E+02  0.10000002366E+02 0.  0.
        -12    1    1    2    0    0  0.23356013053E+01 -0.12176884130E+02 -0.43305680048E+02  0.45045681979E+02  0.00000000000E+00 0.  1.
         11    1    3    3    0    0 -0.17053008213E+01  0.29638187622E+01  0.17763827620E+02  0.18089937660E+02  0.51100000000E-03 0. -1.
        -11    1    3    3    0    0 -0.13321044833E+01  0.98194231954E+00  0.12535688590E+02  0.12644453399E+02  0.51100000000E-03 0.  1.
        -12    1    3    3    0    0  0.70180399932E+00  0.82311230485E+01  0.13006163838E+02  0.15407926962E+02  0.00000000000E+00 0.  1.
</event>
<event>
 7    1  0.4141894E-008  0.4614232E+02  0.7816164E-02  0.1320468E+00
        -11   -1    0    0    0    0  0.00000000000E+00  0.00000000000E+00  0.45593999997E+02  0.45594000000E+02  0.51100000000E-03 0.  1.
         11   -1    0    0    0    0 -0.00000000000E+00 -0.00000000000E+00 -0.45593999997E+02  0.45594000000E+02  0.51100000000E-03 0. -1.
    9900012    2    1    2    0    0 -0.13975602156E+02  0.42546256246E+02  0.48592292348E+01  0.46142317799E+02  0.10000000348E+02 0.  0.
        -12    1    1    2    0    0  0.13975602156E+02 -0.42546256246E+02 -0.48592292348E+01  0.45045682201E+02  0.00000000000E+00 0.  1.
         11    1    3    3    0    0 -0.12812195968E+02  0.31531055516E+02  0.51352102425E+01  0.34419910110E+02  0.51100000000E-03 0. -1.
        -11    1    3    3    0    0  0.37160667728E+00  0.36638652991E+00  0.75112192205E+00  0.91461194766E+00  0.51100000000E-03 0.  1.
         12    1    3    3    0    0 -0.15350128652E+01  0.10648814200E+02 -0.10271029297E+01  0.10807795742E+02  0.00000000000E+00 0. -1.
</event>
<event>
 7    1  0.4141894E-008  0.4614232E+02  0.7816164E-02  0.1320468E+00
        -11   -1    0    0    0    0  0.00000000000E+00  0.00000000000E+00  0.45593999997E+02  0.45594000000E+02  0.51100000000E-03 0.  1.
         11   -1    0    0    0    0 -0.00000000000E+00 -0.00000000000E+00 -0.45593999997E+02  0.45594000000E+02  0.51100000000E-03 0. -1.
    9900012    2    1    2    0    0 -0.28720724528E+02 -0.32067481621E+02 -0.13263111432E+02  0.46142317412E+02  0.99999968201E+01 0.  0.
        -12    1    1    2    0    0  0.28720724528E+02  0.32067481621E+02  0.13263111432E+02  0.45045682588E+02  0.00000000000E+00 0.  1.
         11    1    3    3    0    0 -0.94711627580E+01 -0.12955640553E+02 -0.49238639249E+01  0.16786779987E+02  0.51100000000E-03 0. -1.
        -11    1    3    3    0    0 -0.59998775458E+01 -0.77888636330E+01 -0.65966921881E+01  0.11839817370E+02  0.51100000000E-03 0.  1.
        -12    1    3    3    0    0 -0.13249684224E+02 -0.11322977436E+02 -0.17425553192E+01  0.17515720056E+02  0.00000000000E+00 0.  1.
</event>
<event>
 7    1  0.4141894E-008  0.4614232E+02  0.7816164E-02  0.1320468E+00
        -11   -1    0    0    0    0  0.00000000000E+00  0.00000000000E+00  0.45593999997E+02  0.45594000000E+02  0.51100000000E-03 0. -1.
         11   -1    0    0    0    0 -0.00000000000E+00 -0.00000000000E+00 -0.45593999997E+02  0.45594000000E+02  0.51100000000E-03 0.  1.
    9900012    2    1    2    0    0  0.25784972622E+02  0.51611131936E+00  0.36932130274E+02  0.46142318403E+02  0.10000005851E+02 0.  0.
        -12    1    1    2    0    0 -0.25784972622E+02 -0.51611131936E+00 -0.36932130274E+02  0.45045681597E+02  0.00000000000E+00 0.  1.
         11    1    3    3    0    0  0.79823366740E+01 -0.75266194644E+00  0.12424359594E+02  0.14786781609E+02  0.51100000000E-03 0. -1.
        -11    1    3    3    0    0  0.81313289578E+01  0.14030970035E+01  0.17696397732E+02  0.19525616118E+02  0.51100000000E-03 0.  1.
        -12    1    3    3    0    0  0.96713069898E+01 -0.13432373766E+00  0.68113729481E+01  0.11829920676E+02  0.00000000000E+00 0.  1.
</event>
<event>
 7    1  0.4141894E-008  0.4614232E+02  0.7816164E-02  0.1320468E+00
        -11   -1    0    0    0    0  0.00000000000E+00  0.00000000000E+00  0.45593999997E+02  0.45594000000E+02  0.51100000000E-03 0.  1.
         11   -1    0    0    0    0 -0.00000000000E+00 -0.00000000000E+00 -0.45593999997E+02  0.45594000000E+02  0.51100000000E-03 0. -1.
    9900012    2    1    2    0    0  0.31524900428E+02 -0.14778952757E+02 -0.28581053986E+02  0.46142318314E+02  0.10000005043E+02 0.  0.
        -12    1    1    2    0    0 -0.31524900428E+02  0.14778952757E+02  0.28581053986E+02  0.45045681686E+02  0.00000000000E+00 0.  1.
         11    1    3    3    0    0  0.10820569777E+02 -0.58653795603E+01 -0.63582517340E+01  0.13853330757E+02  0.51100000000E-03 0. -1.
        -11    1    3    3    0    0  0.36777856511E+01  0.82164818312E+00 -0.43316326820E+01  0.57414505993E+01  0.51100000000E-03 0.  1.
         12    1    3    3    0    0  0.17026545000E+02 -0.97352213801E+01 -0.17891169570E+02  0.26547536958E+02  0.00000000000E+00 0. -1.
</event>
<event>
 7    1  0.4141894E-008  0.4614232E+02  0.7816164E-02  0.1320468E+00
        -11   -1    0    0    0    0  0.00000000000E+00  0.00000000000E+00  0.45593999997E+02  0.45594000000E+02  0.51100000000E-03 0.  1.
         11   -1    0    0    0    0 -0.00000000000E+00 -0.00000000000E+00 -0.45593999997E+02  0.45594000000E+02  0.51100000000E-03 0. -1.
    9900012    2    1    2    0    0 -0.44914917792E+02  0.34296641778E+01  0.35246530143E-01  0.46142315646E+02  0.99999807104E+01 0.  0.
        -12    1    1    2    0    0  0.44914917792E+02 -0.34296641778E+01 -0.35246530143E-01  0.45045684354E+02  0.00000000000E+00 0.  1.
         11    1    3    3    0    0 -0.51457446257E+01  0.12693560302E+01 -0.16565985987E+01  0.55528615742E+01  0.51100000000E-03 0. -1.
        -11    1    3    3    0    0 -0.18941906550E+02 -0.24494030900E+00 -0.27962700999E+01  0.19148758348E+02  0.51100000000E-03 0.  1.
        -12    1    3    3    0    0 -0.20827266616E+02  0.24052484566E+01  0.44881152287E+01  0.21440695724E+02  0.00000000000E+00 0.  1.
</event>
<event>
 7    1  0.4141894E-008  0.4614232E+02  0.7816164E-02  0.1320468E+00
        -11   -1    0    0    0    0  0.00000000000E+00  0.00000000000E+00  0.45593999997E+02  0.45594000000E+02  0.51100000000E-03 0.  1.
         11   -1    0    0    0    0 -0.00000000000E+00 -0.00000000000E+00 -0.45593999997E+02  0.45594000000E+02  0.51100000000E-03 0. -1.
    9900012    2    1    2    0    0 -0.17813846552E+02  0.37022290424E+02 -0.18469713755E+02  0.46142318260E+02  0.10000004553E+02 0.  0.
        -12    1    1    2    0    0  0.17813846552E+02 -0.37022290424E+02  0.18469713755E+02  0.45045681740E+02  0.00000000000E+00 0.  1.
         11    1    3    3    0    0 -0.21610314475E+01  0.14452768568E+02 -0.78590110624E+01  0.16592668000E+02  0.51100000000E-03 0. -1.
        -11    1    3    3    0    0 -0.10929105997E+02  0.16996317635E+02 -0.68769661808E+01  0.21345089251E+02  0.51100000000E-03 0.  1.
         12    1    3    3    0    0 -0.47237091079E+01  0.55732042205E+01 -0.37337365118E+01  0.82045610095E+01  0.00000000000E+00 0. -1.
</event>
<event>
 7    1  0.4141894E-008  0.4614232E+02  0.7816164E-02  0.1320468E+00
        -11   -1    0    0    0    0  0.00000000000E+00  0.00000000000E+00  0.45593999997E+02  0.45594000000E+02  0.51100000000E-03 0.  1.
         11   -1    0    0    0    0 -0.00000000000E+00 -0.00000000000E+00 -0.45593999997E+02  0.45594000000E+02  0.51100000000E-03 0. -1.
    9900012    2    1    2    0    0  0.21363130308E+02 -0.66664691997E+01 -0.39093328889E+02  0.46142317501E+02  0.99999976308E+01 0.  0.
        -12    1    1    2    0    0 -0.21363130308E+02  0.66664691997E+01  0.39093328889E+02  0.45045682499E+02  0.00000000000E+00 0.  1.
         11    1    3    3    0    0  0.12039827820E+02 -0.38842772165E+01 -0.12621572809E+02  0.17870343138E+02  0.51100000000E-03 0. -1.
        -11    1    3    3    0    0  0.31562454795E+01 -0.19103325226E+00 -0.10200366251E+02  0.10679225213E+02  0.51100000000E-03 0.  1.
         12    1    3    3    0    0  0.61670570089E+01 -0.25911587310E+01 -0.16271389829E+02  0.17592749151E+02  0.00000000000E+00 0. -1.
</event>
<event>
 7    1  0.4141894E-008  0.4614232E+02  0.7816164E-02  0.1320468E+00
        -11   -1    0    0    0    0  0.00000000000E+00  0.00000000000E+00  0.45593999997E+02  0.45594000000E+02  0.51100000000E-03 0.  1.
         11   -1    0    0    0    0 -0.00000000000E+00 -0.00000000000E+00 -0.45593999997E+02  0.45594000000E+02  0.51100000000E-03 0. -1.
    9900012    2    1    2    0    0 -0.11175427042E+02  0.15422577549E+02 -0.40821165064E+02  0.46142316689E+02  0.99999902208E+01 0.  0.
        -12    1    1    2    0    0  0.11175427042E+02 -0.15422577549E+02  0.40821165064E+02  0.45045683311E+02  0.00000000000E+00 0.  1.
         11    1    3    3    0    0 -0.57130292689E+01  0.69064065692E+01 -0.23877753059E+02  0.25504592656E+02  0.51100000000E-03 0. -1.
        -11    1    3    3    0    0  0.98287824959E-01  0.90619995072E+00 -0.65262078305E+01  0.65895559604E+01  0.51100000000E-03 0.  1.
         12    1    3    3    0    0 -0.55606855984E+01  0.76099710291E+01 -0.10417204174E+02  0.14048168072E+02  0.00000000000E+00 0. -1.
</event>
<event>
 7    1  0.4141894E-008  0.4614232E+02  0.7816164E-02  0.1320468E+00
        -11   -1    0    0    0    0  0.00000000000E+00  0.00000000000E+00  0.45593999997E+02  0.45594000000E+02  0.51100000000E-03 0.  1.
         11   -1    0    0    0    0 -0.00000000000E+00 -0.00000000000E+00 -0.45593999997E+02  0.45594000000E+02  0.51100000000E-03 0. -1.
    9900012    2    1    2    0    0 -0.24016710363E+02 -0.11125162784E+02 -0.36449168146E+02  0.46142317830E+02  0.10000000631E+02 0.  0.
        -12    1    1    2    0    0  0.24016710363E+02  0.11125162784E+02  0.36449168146E+02  0.45045682170E+02  0.00000000000E+00 0.  1.
         11    1    3    3    0    0 -0.17330171906E-01  0.58149087509E+00 -0.17139828464E+00  0.60647308743E+00  0.51100000000E-03 0.  1.
        -11    1    3    3    0    0 -0.28513683492E+01 -0.29910229443E+01 -0.92306797468E+01  0.10113454828E+02  0.51100000000E-03 0. -1.
         12    1    3    3    0    0 -0.21148011842E+02 -0.87156307145E+01 -0.27047090114E+02  0.35422389915E+02  0.00000000000E+00 0. -1.
</event>
<event>
 7    1  0.4141894E-008  0.4614232E+02  0.7816164E-02  0.1320468E+00
        -11   -1    0    0    0    0  0.00000000000E+00  0.00000000000E+00  0.45593999997E+02  0.45594000000E+02  0.51100000000E-03 0. -1.
         11   -1    0    0    0    0 -0.00000000000E+00 -0.00000000000E+00 -0.45593999997E+02  0.45594000000E+02  0.51100000000E-03 0.  1.
    9900012    2    1    2    0    0 -0.27911574860E+02 -0.80388151910E+01  0.34430145258E+02  0.46142318039E+02  0.10000002537E+02 0.  0.
        -12    1    1    2    0    0  0.27911574860E+02  0.80388151910E+01 -0.34430145258E+02  0.45045681961E+02  0.00000000000E+00 0.  1.
         11    1    3    3    0    0 -0.17351974436E+01 -0.12653906860E+01  0.92623858817E+00  0.23388120788E+01  0.51100000000E-03 0. -1.
        -11    1    3    3    0    0 -0.39967918423E+01  0.13710136886E+01  0.28341205546E+01  0.50878544735E+01  0.51100000000E-03 0.  1.
         12    1    3    3    0    0 -0.22179585574E+02 -0.81444381936E+01  0.30669786115E+02  0.38715651487E+02  0.00000000000E+00 0. -1.
</event>
<event>
 7    1  0.4141894E-008  0.4614232E+02  0.7816164E-02  0.1320468E+00
        -11   -1    0    0    0    0  0.00000000000E+00  0.00000000000E+00  0.45593999997E+02  0.45594000000E+02  0.51100000000E-03 0. -1.
         11   -1    0    0    0    0 -0.00000000000E+00 -0.00000000000E+00 -0.45593999997E+02  0.45594000000E+02  0.51100000000E-03 0.  1.
    9900012    2    1    2    0    0 -0.40670615138E+02 -0.18987383491E+02  0.38070815065E+01  0.46142317219E+02  0.99999950603E+01 0.  0.
        -12    1    1    2    0    0  0.40670615138E+02  0.18987383491E+02 -0.38070815065E+01  0.45045682781E+02  0.00000000000E+00 0.  1.
         11    1    3    3    0    0 -0.22975487974E+02 -0.14221236528E+02  0.31170409438E+01  0.27199863244E+02  0.51100000000E-03 0. -1.
        -11    1    3    3    0    0 -0.15721583668E+02 -0.33621654280E+01 -0.80322546147E+00  0.16097127719E+02  0.51100000000E-03 0.  1.
         12    1    3    3    0    0 -0.19735434969E+01 -0.14039815353E+01  0.14932660242E+01  0.28453262562E+01  0.00000000000E+00 0. -1.
</event>
<event>
 7    1  0.4141894E-008  0.4614232E+02  0.7816164E-02  0.1320468E+00
        -11   -1    0    0    0    0  0.00000000000E+00  0.00000000000E+00  0.45593999997E+02  0.45594000000E+02  0.51100000000E-03 0. -1.
         11   -1    0    0    0    0 -0.00000000000E+00 -0.00000000000E+00 -0.45593999997E+02  0.45594000000E+02  0.51100000000E-03 0.  1.
    9900012    2    1    2    0    0  0.34587225047E+02  0.26786453613E+02  0.10738865372E+02  0.46142318041E+02  0.10000002555E+02 0.  0.
        -12    1    1    2    0    0 -0.34587225047E+02 -0.26786453613E+02 -0.10738865372E+02  0.45045681959E+02  0.00000000000E+00 0.  1.
         11    1    3    3    0    0  0.12133526484E+02  0.81168713957E+01  0.10430123873E+01  0.14635366114E+02  0.51100000000E-03 0. -1.
        -11    1    3    3    0    0  0.15567660182E+02  0.13221294567E+02  0.99573674363E+01  0.22722320306E+02  0.51100000000E-03 0.  1.
        -12    1    3    3    0    0  0.68860383810E+01  0.54482876505E+01 -0.26151445189E+00  0.87846316210E+01  0.00000000000E+00 0.  1.
</event>
<event>
 7    1  0.4141894E-008  0.4614232E+02  0.7816164E-02  0.1320468E+00
        -11   -1    0    0    0    0  0.00000000000E+00  0.00000000000E+00  0.45593999997E+02  0.45594000000E+02  0.51100000000E-03 0.  1.
         11   -1    0    0    0    0 -0.00000000000E+00 -0.00000000000E+00 -0.45593999997E+02  0.45594000000E+02  0.51100000000E-03 0. -1.
    9900012    2    1    2    0    0 -0.38687753180E+02 -0.17682236064E+02  0.14822609742E+02  0.46142317878E+02  0.10000001062E+02 0.  0.
        -12    1    1    2    0    0  0.38687753180E+02  0.17682236064E+02 -0.14822609742E+02  0.45045682122E+02  0.00000000000E+00 0.  1.
         11    1    3    3    0    0 -0.17293972277E+02 -0.77752263792E+01  0.83124926073E+01  0.20703457585E+02  0.51100000000E-03 0. -1.
        -11    1    3    3    0    0 -0.27661003792E+01 -0.24450082297E+01 -0.12882696798E+01  0.39101170801E+01  0.51100000000E-03 0.  1.
        -12    1    3    3    0    0 -0.18627680524E+02 -0.74620014554E+01  0.77983868141E+01  0.21528743213E+02  0.00000000000E+00 0.  1.
</event>
<event>
 7    1  0.4141894E-008  0.4614232E+02  0.7816164E-02  0.1320468E+00
        -11   -1    0    0    0    0  0.00000000000E+00  0.00000000000E+00  0.45593999997E+02  0.45594000000E+02  0.51100000000E-03 0. -1.
         11   -1    0    0    0    0 -0.00000000000E+00 -0.00000000000E+00 -0.45593999997E+02  0.45594000000E+02  0.51100000000E-03 0.  1.
    9900012    2    1    2    0    0  0.18649713000E+02 -0.39643132956E+02  0.10474909857E+02  0.46142317387E+02  0.99999965906E+01 0.  0.
        -12    1    1    2    0    0 -0.18649713000E+02  0.39643132956E+02 -0.10474909857E+02  0.45045682613E+02  0.00000000000E+00 0.  1.
         11    1    3    3    0    0  0.10511624193E+01 -0.72120199610E+01  0.19883398612E+01  0.75545794069E+01  0.51100000000E-03 0. -1.
        -11    1    3    3    0    0  0.20780227946E+01 -0.96758079270E+01  0.50071338352E+00  0.99090944050E+01  0.51100000000E-03 0.  1.
        -12    1    3    3    0    0  0.15520527786E+02 -0.22755305068E+02  0.79858566127E+01  0.28678643575E+02  0.00000000000E+00 0.  1.
</event>
<event>
 7    1  0.4141894E-008  0.4614232E+02  0.7816164E-02  0.1320468E+00
        -11   -1    0    0    0    0  0.00000000000E+00  0.00000000000E+00  0.45593999997E+02  0.45594000000E+02  0.51100000000E-03 0.  1.
         11   -1    0    0    0    0 -0.00000000000E+00 -0.00000000000E+00 -0.45593999997E+02  0.45594000000E+02  0.51100000000E-03 0. -1.
    9900012    2    1    2    0    0  0.92480097239E+01 -0.34052811204E+02 -0.27999892432E+02  0.46142316400E+02  0.99999875904E+01 0.  0.
        -12    1    1    2    0    0 -0.92480097239E+01  0.34052811204E+02  0.27999892432E+02  0.45045683600E+02  0.00000000000E+00 0.  1.
         11    1    3    3    0    0  0.97173080646E+00 -0.33047087642E+01 -0.43387794902E+01  0.55398888529E+01  0.51100000000E-03 0. -1.
        -11    1    3    3    0    0  0.27373960606E+01 -0.51375470844E+01 -0.89223756941E+00  0.58892966794E+01  0.51100000000E-03 0.  1.
         12    1    3    3    0    0  0.55388828568E+01 -0.25610555355E+02 -0.22768875373E+02  0.34713130868E+02  0.00000000000E+00 0. -1.
</event>
<event>
 7    1  0.4141894E-008  0.4614232E+02  0.7816164E-02  0.1320468E+00
        -11   -1    0    0    0    0  0.00000000000E+00  0.00000000000E+00  0.45593999997E+02  0.45594000000E+02  0.51100000000E-03 0.  1.
         11   -1    0    0    0    0 -0.00000000000E+00 -0.00000000000E+00 -0.45593999997E+02  0.45594000000E+02  0.51100000000E-03 0. -1.
    9900012    2    1    2    0    0  0.27520393302E+02 -0.27331599199E+02 -0.22906883002E+02  0.46142315954E+02  0.99999835201E+01 0.  0.
        -12    1    1    2    0    0 -0.27520393302E+02  0.27331599199E+02  0.22906883002E+02  0.45045684046E+02  0.00000000000E+00 0.  1.
         11    1    3    3    0    0  0.16518828160E+02 -0.17294136263E+02 -0.89998419662E+01  0.25553003513E+02  0.51100000000E-03 0. -1.
        -11    1    3    3    0    0  0.53742366245E+01 -0.45000411937E+01 -0.45967797970E+01  0.83823132132E+01  0.51100000000E-03 0.  1.
        -12    1    3    3    0    0  0.56273285179E+01 -0.55374217428E+01 -0.93102612392E+01  0.12206999228E+02  0.00000000000E+00 0.  1.
</event>
<event>
 7    1  0.4141894E-008  0.4614232E+02  0.7816164E-02  0.1320468E+00
        -11   -1    0    0    0    0  0.00000000000E+00  0.00000000000E+00  0.45593999997E+02  0.45594000000E+02  0.51100000000E-03 0.  1.
         11   -1    0    0    0    0 -0.00000000000E+00 -0.00000000000E+00 -0.45593999997E+02  0.45594000000E+02  0.51100000000E-03 0. -1.
    9900012    2    1    2    0    0  0.11443409888E+02  0.31424264946E+02 -0.30177432878E+02  0.46142317495E+02  0.99999975691E+01 0.  0.
        -12    1    1    2    0    0 -0.11443409888E+02 -0.31424264946E+02  0.30177432878E+02  0.45045682505E+02  0.00000000000E+00 0.  1.
         11    1    3    3    0    0  0.19933387899E+01  0.10136424881E+02 -0.58925122403E+01  0.11892947896E+02  0.51100000000E-03 0.  1.
        -11    1    3    3    0    0  0.81072789427E-01  0.54711772634E+01 -0.34724239213E+01  0.64805926886E+01  0.51100000000E-03 0. -1.
        -12    1    3    3    0    0  0.93689983091E+01  0.15816662802E+02 -0.20812496716E+02  0.27768776910E+02  0.00000000000E+00 0.  1.
</event>
<event>
 7    1  0.4141894E-008  0.4614232E+02  0.7816164E-02  0.1320468E+00
        -11   -1    0    0    0    0  0.00000000000E+00  0.00000000000E+00  0.45593999997E+02  0.45594000000E+02  0.51100000000E-03 0. -1.
         11   -1    0    0    0    0 -0.00000000000E+00 -0.00000000000E+00 -0.45593999997E+02  0.45594000000E+02  0.51100000000E-03 0.  1.
    9900012    2    1    2    0    0  0.33742235920E+02  0.25517258923E+02  0.15473995800E+02  0.46142317256E+02  0.99999953958E+01 0.  0.
        -12    1    1    2    0    0 -0.33742235920E+02 -0.25517258923E+02 -0.15473995800E+02  0.45045682744E+02  0.00000000000E+00 0.  1.
         11    1    3    3    0    0  0.99640020482E-01  0.11330529050E+01  0.47095360131E+00  0.12310704995E+01  0.51100000000E-03 0. -1.
        -11    1    3    3    0    0  0.24927439169E+02  0.13397917349E+02  0.96187952729E+01  0.29889841678E+02  0.51100000000E-03 0.  1.
         12    1    3    3    0    0  0.87151567312E+01  0.10986288669E+02  0.53842469259E+01  0.15021405078E+02  0.00000000000E+00 0. -1.
</event>
<event>
 7    1  0.4141894E-008  0.4614232E+02  0.7816164E-02  0.1320468E+00
        -11   -1    0    0    0    0  0.00000000000E+00  0.00000000000E+00  0.45593999997E+02  0.45594000000E+02  0.51100000000E-03 0. -1.
         11   -1    0    0    0    0 -0.00000000000E+00 -0.00000000000E+00 -0.45593999997E+02  0.45594000000E+02  0.51100000000E-03 0.  1.
    9900012    2    1    2    0    0 -0.14568687059E+00  0.39323817664E+02  0.21971107954E+02  0.46142318242E+02  0.10000004386E+02 0.  0.
        -12    1    1    2    0    0  0.14568687059E+00 -0.39323817664E+02 -0.21971107954E+02  0.45045681758E+02  0.00000000000E+00 0.  1.
         11    1    3    3    0    0  0.13339083794E+00  0.75046005096E+01  0.23505298626E+01  0.78652280844E+01  0.51100000000E-03 0. -1.
        -11    1    3    3    0    0 -0.10659939231E+01  0.60160430336E+01  0.45777880549E+00  0.61268816311E+01  0.51100000000E-03 0.  1.
         12    1    3    3    0    0  0.78691621455E+00  0.25803174121E+02  0.19162799286E+02  0.32150208526E+02  0.00000000000E+00 0. -1.
</event>
<event>
 7    1  0.4141894E-008  0.4614231E+02  0.7816164E-02  0.1320468E+00
        -11   -1    0    0    0    0  0.00000000000E+00  0.00000000000E+00  0.45593999997E+02  0.45594000000E+02  0.51100000000E-03 0.  1.
         11   -1    0    0    0    0 -0.00000000000E+00 -0.00000000000E+00 -0.45593999997E+02  0.45594000000E+02  0.51100000000E-03 0. -1.
    9900012    2    1    2    0    0  0.10655560490E+02  0.37647109923E+01 -0.43605044303E+02  0.46142313116E+02  0.99999576422E+01 0.  0.
        -12    1    1    2    0    0 -0.10655560490E+02 -0.37647109923E+01  0.43605044303E+02  0.45045686884E+02  0.00000000000E+00 0.  1.
         11    1    3    3    0    0  0.83756278891E+01  0.16214545348E+01 -0.33789486826E+02  0.34849816033E+02  0.51100000000E-03 0. -1.
        -11    1    3    3    0    0  0.15176129944E+01 -0.12935081643E+01 -0.27309064599E+01  0.33814439114E+01  0.51100000000E-03 0.  1.
         12    1    3    3    0    0  0.76231960691E+00  0.34367646218E+01 -0.70846510170E+01  0.79110531714E+01  0.00000000000E+00 0. -1.
</event>
<event>
 7    1  0.4141894E-008  0.4614232E+02  0.7816164E-02  0.1320468E+00
        -11   -1    0    0    0    0  0.00000000000E+00  0.00000000000E+00  0.45593999997E+02  0.45594000000E+02  0.51100000000E-03 0. -1.
         11   -1    0    0    0    0 -0.00000000000E+00 -0.00000000000E+00 -0.45593999997E+02  0.45594000000E+02  0.51100000000E-03 0.  1.
    9900012    2    1    2    0    0 -0.38979500300E+02  0.10811880566E+02  0.19819565523E+02  0.46142318936E+02  0.10000010718E+02 0.  0.
        -12    1    1    2    0    0  0.38979500300E+02 -0.10811880566E+02 -0.19819565523E+02  0.45045681064E+02  0.00000000000E+00 0.  1.
         11    1    3    3    0    0 -0.21347986325E+02  0.99261299002E+01  0.12265499594E+02  0.26546319057E+02  0.51100000000E-03 0. -1.
        -11    1    3    3    0    0 -0.13338548815E+00  0.53994870322E+00  0.41706584197E+00  0.69518376579E+00  0.51100000000E-03 0.  1.
        -12    1    3    3    0    0 -0.17498128486E+02  0.34580196213E+00  0.71370000871E+01  0.18900816113E+02  0.00000000000E+00 0.  1.
</event>
<event>
 7    1  0.4141894E-008  0.4614232E+02  0.7816164E-02  0.1320468E+00
        -11   -1    0    0    0    0  0.00000000000E+00  0.00000000000E+00  0.45593999997E+02  0.45594000000E+02  0.51100000000E-03 0. -1.
         11   -1    0    0    0    0 -0.00000000000E+00 -0.00000000000E+00 -0.45593999997E+02  0.45594000000E+02  0.51100000000E-03 0.  1.
    9900012    2    1    2    0    0 -0.44816184134E+02 -0.34709659715E+01  0.29284154537E+01  0.46142316720E+02  0.99999905021E+01 0.  0.
        -12    1    1    2    0    0  0.44816184134E+02  0.34709659715E+01 -0.29284154537E+01  0.45045683280E+02  0.00000000000E+00 0.  1.
         11    1    3    3    0    0 -0.33603812453E+02 -0.17413948539E+01 -0.19429390381E+01  0.33704950375E+02  0.51100000000E-03 0. -1.
        -11    1    3    3    0    0 -0.23757866455E+01 -0.92058765583E+00  0.76902094709E+00  0.26614351946E+01  0.51100000000E-03 0.  1.
         12    1    3    3    0    0 -0.88365850356E+01 -0.80898346175E+00  0.41023335446E+01  0.97759311497E+01  0.00000000000E+00 0. -1.
</event>
<event>
 7    1  0.4141894E-008  0.4614232E+02  0.7816164E-02  0.1320468E+00
        -11   -1    0    0    0    0  0.00000000000E+00  0.00000000000E+00  0.45593999997E+02  0.45594000000E+02  0.51100000000E-03 0.  1.
         11   -1    0    0    0    0 -0.00000000000E+00 -0.00000000000E+00 -0.45593999997E+02  0.45594000000E+02  0.51100000000E-03 0. -1.
    9900012    2    1    2    0    0 -0.35536063144E+02  0.52595142660E+01 -0.27177908753E+02  0.46142323201E+02  0.10000049609E+02 0.  0.
        -12    1    1    2    0    0  0.35536063144E+02 -0.52595142660E+01  0.27177908753E+02  0.45045676799E+02  0.00000000000E+00 0.  1.
         11    1    3    3    0    0 -0.63660458793E+01 -0.99588745219E+00 -0.36021694148E+01  0.73820022154E+01  0.51100000000E-03 0. -1.
        -11    1    3    3    0    0 -0.71307114812E+01  0.68955523296E+00 -0.20432547668E+01  0.74496592507E+01  0.51100000000E-03 0.  1.
        -12    1    3    3    0    0 -0.22039305783E+02  0.55658464852E+01 -0.21532484571E+02  0.31310661735E+02  0.00000000000E+00 0.  1.
</event>
<event>
 7    1  0.4141894E-008  0.4614231E+02  0.7816164E-02  0.1320468E+00
        -11   -1    0    0    0    0  0.00000000000E+00  0.00000000000E+00  0.45593999997E+02  0.45594000000E+02  0.51100000000E-03 0.  1.
         11   -1    0    0    0    0 -0.00000000000E+00 -0.00000000000E+00 -0.45593999997E+02  0.45594000000E+02  0.51100000000E-03 0. -1.
    9900012    2    1    2    0    0 -0.29977223010E+02 -0.30601144169E+02 -0.13930200582E+02  0.46142307508E+02  0.99999065002E+01 0.  0.
        -12    1    1    2    0    0  0.29977223010E+02  0.30601144169E+02  0.13930200582E+02  0.45045692492E+02  0.00000000000E+00 0.  1.
         11    1    3    3    0    0 -0.25846379105E+01 -0.31423432893E+01 -0.39644710944E+01  0.56808191131E+01  0.51100000000E-03 0. -1.
        -11    1    3    3    0    0 -0.39916856102E+01 -0.73278171646E+01 -0.22926457083E+01  0.86537092055E+01  0.51100000000E-03 0.  1.
         12    1    3    3    0    0 -0.23400899489E+02 -0.20130983716E+02 -0.76730837796E+01  0.31807779189E+02  0.00000000000E+00 0. -1.
</event>
<event>
 7    1  0.4141894E-008  0.4614232E+02  0.7816164E-02  0.1320468E+00
        -11   -1    0    0    0    0  0.00000000000E+00  0.00000000000E+00  0.45593999997E+02  0.45594000000E+02  0.51100000000E-03 0.  1.
         11   -1    0    0    0    0 -0.00000000000E+00 -0.00000000000E+00 -0.45593999997E+02  0.45594000000E+02  0.51100000000E-03 0. -1.
    9900012    2    1    2    0    0  0.40297290245E+02  0.19410062011E+02 -0.53377504041E+01  0.46142315548E+02  0.99999798232E+01 0.  0.
        -12    1    1    2    0    0 -0.40297290245E+02 -0.19410062011E+02  0.53377504041E+01  0.45045684452E+02  0.00000000000E+00 0.  1.
         11    1    3    3    0    0  0.11537215227E+02  0.62428522281E+01 -0.35936723897E+01  0.13601287463E+02  0.51100000000E-03 0. -1.
        -11    1    3    3    0    0  0.95082813499E+01  0.15709421816E+01 -0.28183256454E+01  0.10040828316E+02  0.51100000000E-03 0.  1.
         12    1    3    3    0    0  0.19251793667E+02  0.11596267601E+02  0.10742476311E+01  0.22500199770E+02  0.00000000000E+00 0. -1.
</event>
<event>
 7    1  0.4141894E-008  0.4614232E+02  0.7816164E-02  0.1320468E+00
        -11   -1    0    0    0    0  0.00000000000E+00  0.00000000000E+00  0.45593999997E+02  0.45594000000E+02  0.51100000000E-03 0.  1.
         11   -1    0    0    0    0 -0.00000000000E+00 -0.00000000000E+00 -0.45593999997E+02  0.45594000000E+02  0.51100000000E-03 0. -1.
    9900012    2    1    2    0    0  0.18522664296E+02 -0.20155082425E+02 -0.35774252073E+02  0.46142317060E+02  0.99999936034E+01 0.  0.
        -12    1    1    2    0    0 -0.18522664296E+02  0.20155082425E+02  0.35774252073E+02  0.45045682940E+02  0.00000000000E+00 0.  1.
         11    1    3    3    0    0  0.65943914100E+01 -0.29037154448E+01 -0.52300491740E+01  0.89034249633E+01  0.51100000000E-03 0. -1.
        -11    1    3    3    0    0  0.83251846505E+01 -0.11599162885E+02 -0.17607379602E+02  0.22668680946E+02  0.51100000000E-03 0.  1.
        -12    1    3    3    0    0  0.36030882359E+01 -0.56522040951E+01 -0.12936823297E+02  0.14570211151E+02  0.00000000000E+00 0.  1.
</event>
<event>
 7    1  0.4141894E-008  0.4614232E+02  0.7816164E-02  0.1320468E+00
        -11   -1    0    0    0    0  0.00000000000E+00  0.00000000000E+00  0.45593999997E+02  0.45594000000E+02  0.51100000000E-03 0.  1.
         11   -1    0    0    0    0 -0.00000000000E+00 -0.00000000000E+00 -0.45593999997E+02  0.45594000000E+02  0.51100000000E-03 0. -1.
    9900012    2    1    2    0    0 -0.26044342980E+02  0.57357657806E+01 -0.36302984664E+02  0.46142317567E+02  0.99999982311E+01 0.  0.
        -12    1    1    2    0    0  0.26044342980E+02 -0.57357657806E+01  0.36302984664E+02  0.45045682433E+02  0.00000000000E+00 0.  1.
         11    1    3    3    0    0 -0.72004795702E+01  0.39632320842E+01 -0.11595661024E+02  0.14213144249E+02  0.51100000000E-03 0. -1.
        -11    1    3    3    0    0 -0.17289448676E+02  0.37398676382E+01 -0.21063541618E+02  0.27506079895E+02  0.51100000000E-03 0.  1.
        -12    1    3    3    0    0 -0.15544147338E+01 -0.19673339418E+01 -0.36437820221E+01  0.44230934229E+01  0.00000000000E+00 0.  1.
</event>
<event>
 7    1  0.4141894E-008  0.4614232E+02  0.7816164E-02  0.1320468E+00
        -11   -1    0    0    0    0  0.00000000000E+00  0.00000000000E+00  0.45593999997E+02  0.45594000000E+02  0.51100000000E-03 0. -1.
         11   -1    0    0    0    0 -0.00000000000E+00 -0.00000000000E+00 -0.45593999997E+02  0.45594000000E+02  0.51100000000E-03 0.  1.
    9900012    2    1    2    0    0  0.35132721504E+02 -0.20832555328E+02  0.18994999317E+02  0.46142317845E+02  0.10000000765E+02 0.  0.
        -12    1    1    2    0    0 -0.35132721504E+02  0.20832555328E+02 -0.18994999317E+02  0.45045682155E+02  0.00000000000E+00 0.  1.
         11    1    3    3    0    0  0.79981518972E+01 -0.12320075223E+01  0.43223589465E+01  0.91744789187E+01  0.51100000000E-03 0. -1.
        -11    1    3    3    0    0  0.73636508306E+01 -0.75079742212E+01  0.66510291370E+01  0.12443038990E+02  0.51100000000E-03 0.  1.
         12    1    3    3    0    0  0.19770918776E+02 -0.12092573584E+02  0.80216112338E+01  0.24524799936E+02  0.00000000000E+00 0. -1.
</event>
<event>
 7    1  0.4141894E-008  0.4614232E+02  0.7816164E-02  0.1320468E+00
        -11   -1    0    0    0    0  0.00000000000E+00  0.00000000000E+00  0.45593999997E+02  0.45594000000E+02  0.51100000000E-03 0. -1.
         11   -1    0    0    0    0 -0.00000000000E+00 -0.00000000000E+00 -0.45593999997E+02  0.45594000000E+02  0.51100000000E-03 0.  1.
    9900012    2    1    2    0    0 -0.28272813116E+02  0.33573565677E+02 -0.10128037340E+02  0.46142318585E+02  0.10000007516E+02 0.  0.
        -12    1    1    2    0    0  0.28272813116E+02 -0.33573565677E+02  0.10128037340E+02  0.45045681415E+02  0.00000000000E+00 0.  1.
         11    1    3    3    0    0 -0.68568052054E+01  0.13676125776E+02 -0.12527159983E+01  0.15349967150E+02  0.51100000000E-03 0. -1.
        -11    1    3    3    0    0 -0.57878442995E+01  0.65282296635E+01 -0.42848093221E+01  0.97199030532E+01  0.51100000000E-03 0.  1.
        -12    1    3    3    0    0 -0.15628163611E+02  0.13369210237E+02 -0.45905120198E+01  0.21072448382E+02  0.00000000000E+00 0.  1.
</event>
<event>
 7    1  0.4141894E-008  0.4614232E+02  0.7816164E-02  0.1320468E+00
        -11   -1    0    0    0    0  0.00000000000E+00  0.00000000000E+00  0.45593999997E+02  0.45594000000E+02  0.51100000000E-03 0. -1.
         11   -1    0    0    0    0 -0.00000000000E+00 -0.00000000000E+00 -0.45593999997E+02  0.45594000000E+02  0.51100000000E-03 0.  1.
    9900012    2    1    2    0    0  0.88591885696E+01 -0.15705994337E+02  0.41278928832E+02  0.46142318234E+02  0.10000004312E+02 0.  0.
        -12    1    1    2    0    0 -0.88591885696E+01  0.15705994337E+02 -0.41278928832E+02  0.45045681766E+02  0.00000000000E+00 0.  1.
         11    1    3    3    0    0 -0.78660620685E-01  0.49485567907E+00  0.99535524693E+00  0.11143616850E+01  0.51100000000E-03 0. -1.
        -11    1    3    3    0    0  0.32840739809E+01 -0.97902490084E+01  0.14047618273E+02  0.17434726753E+02  0.51100000000E-03 0.  1.
         12    1    3    3    0    0  0.56537752094E+01 -0.64106010081E+01  0.26235955312E+02  0.27593229796E+02  0.00000000000E+00 0. -1.
</event>
<event>
 7    1  0.4141894E-008  0.4614232E+02  0.7816164E-02  0.1320468E+00
        -11   -1    0    0    0    0  0.00000000000E+00  0.00000000000E+00  0.45593999997E+02  0.45594000000E+02  0.51100000000E-03 0. -1.
         11   -1    0    0    0    0 -0.00000000000E+00 -0.00000000000E+00 -0.45593999997E+02  0.45594000000E+02  0.51100000000E-03 0.  1.
    9900012    2    1    2    0    0  0.35068067035E+02 -0.27606144952E+02  0.61028526449E+01  0.46142319018E+02  0.10000011464E+02 0.  0.
        -12    1    1    2    0    0 -0.35068067035E+02  0.27606144952E+02 -0.61028526449E+01  0.45045680982E+02  0.00000000000E+00 0.  1.
         11    1    3    3    0    0  0.23138320023E+02 -0.18660986235E+02  0.57500568605E+01  0.30276681041E+02  0.51100000000E-03 0. -1.
        -11    1    3    3    0    0  0.10714535355E+02 -0.56197852896E+01  0.13846720253E+01  0.12177872205E+02  0.51100000000E-03 0.  1.
         12    1    3    3    0    0  0.12152116574E+01 -0.33253734281E+01 -0.10318762409E+01  0.36877657714E+01  0.00000000000E+00 0. -1.
</event>
<event>
 7    1  0.4141894E-008  0.4614232E+02  0.7816164E-02  0.1320468E+00
        -11   -1    0    0    0    0  0.00000000000E+00  0.00000000000E+00  0.45593999997E+02  0.45594000000E+02  0.51100000000E-03 0. -1.
         11   -1    0    0    0    0 -0.00000000000E+00 -0.00000000000E+00 -0.45593999997E+02  0.45594000000E+02  0.51100000000E-03 0.  1.
    9900012    2    1    2    0    0 -0.28271316710E+02 -0.89306823697E+01  0.33912963081E+02  0.46142317620E+02  0.99999987144E+01 0.  0.
        -12    1    1    2    0    0  0.28271316710E+02  0.89306823697E+01 -0.33912963081E+02  0.45045682380E+02  0.00000000000E+00 0.  1.
         11    1    3    3    0    0 -0.12445904363E+02 -0.54291644853E+01  0.22579850777E+02  0.26348169269E+02  0.51100000000E-03 0.  1.
        -11    1    3    3    0    0 -0.69063488267E+01 -0.12038411758E+01  0.45930459974E+01  0.83811072949E+01  0.51100000000E-03 0. -1.
        -12    1    3    3    0    0 -0.89190635210E+01 -0.22976767085E+01  0.67400663063E+01  0.11413041057E+02  0.00000000000E+00 0.  1.
</event>
<event>
 7    1  0.4141894E-008  0.4614232E+02  0.7816164E-02  0.1320468E+00
        -11   -1    0    0    0    0  0.00000000000E+00  0.00000000000E+00  0.45593999997E+02  0.45594000000E+02  0.51100000000E-03 0.  1.
         11   -1    0    0    0    0 -0.00000000000E+00 -0.00000000000E+00 -0.45593999997E+02  0.45594000000E+02  0.51100000000E-03 0. -1.
    9900012    2    1    2    0    0 -0.63774381300E+01 -0.18867289738E+02 -0.40403800880E+02  0.46142318023E+02  0.10000002391E+02 0.  0.
        -12    1    1    2    0    0  0.63774381300E+01  0.18867289738E+02  0.40403800880E+02  0.45045681977E+02  0.00000000000E+00 0.  1.
         11    1    3    3    0    0 -0.15598393528E+01 -0.82954606207E+01 -0.10153935611E+02  0.13204172612E+02  0.51100000000E-03 0. -1.
        -11    1    3    3    0    0 -0.13886733888E+01 -0.25437524512E+01 -0.24341442853E+01  0.37847257465E+01  0.51100000000E-03 0.  1.
         12    1    3    3    0    0 -0.34289253884E+01 -0.80280766659E+01 -0.27815720985E+02  0.29153419665E+02  0.00000000000E+00 0. -1.
</event>
<event>
 7    1  0.4141894E-008  0.4614232E+02  0.7816164E-02  0.1320468E+00
        -11   -1    0    0    0    0  0.00000000000E+00  0.00000000000E+00  0.45593999997E+02  0.45594000000E+02  0.51100000000E-03 0. -1.
         11   -1    0    0    0    0 -0.00000000000E+00 -0.00000000000E+00 -0.45593999997E+02  0.45594000000E+02  0.51100000000E-03 0.  1.
    9900012    2    1    2    0    0 -0.38918996779E+02 -0.20364535059E+02  0.99855302472E+01  0.46142318600E+02  0.10000007649E+02 0.  0.
        -12    1    1    2    0    0  0.38918996779E+02  0.20364535059E+02 -0.99855302472E+01  0.45045681400E+02  0.00000000000E+00 0.  1.
         11    1    3    3    0    0 -0.19779184813E+02 -0.10161619749E+02  0.99357641552E+01  0.24355575900E+02  0.51100000000E-03 0. -1.
        -11    1    3    3    0    0 -0.50497247420E+01 -0.16933853822E+01  0.57580186796E-01  0.53264049566E+01  0.51100000000E-03 0.  1.
         12    1    3    3    0    0 -0.14090087225E+02 -0.85095299274E+01 -0.78140948204E-02  0.16460337744E+02  0.00000000000E+00 0. -1.
</event>
<event>
 7    1  0.4141894E-008  0.4614231E+02  0.7816164E-02  0.1320468E+00
        -11   -1    0    0    0    0  0.00000000000E+00  0.00000000000E+00  0.45593999997E+02  0.45594000000E+02  0.51100000000E-03 0.  1.
         11   -1    0    0    0    0 -0.00000000000E+00 -0.00000000000E+00 -0.45593999997E+02  0.45594000000E+02  0.51100000000E-03 0. -1.
    9900012    2    1    2    0    0  0.11182080906E+02 -0.52652288752E+01 -0.43316882803E+02  0.46142313145E+02  0.99999579068E+01 0.  0.
        -12    1    1    2    0    0 -0.11182080906E+02  0.52652288752E+01  0.43316882803E+02  0.45045686855E+02  0.00000000000E+00 0.  1.
         11    1    3    3    0    0  0.87782800546E+01 -0.81262619608E+01 -0.34463196657E+02  0.36480217354E+02  0.51100000000E-03 0. -1.
        -11    1    3    3    0    0 -0.12372771101E-01  0.40897195907E+00 -0.12547024739E+01  0.13197309225E+01  0.51100000000E-03 0.  1.
         12    1    3    3    0    0  0.24161736228E+01  0.24520611265E+01 -0.75989836722E+01  0.83423648682E+01  0.00000000000E+00 0. -1.
</event>
<event>
 7    1  0.4141894E-008  0.4614232E+02  0.7816164E-02  0.1320468E+00
        -11   -1    0    0    0    0  0.00000000000E+00  0.00000000000E+00  0.45593999997E+02  0.45594000000E+02  0.51100000000E-03 0.  1.
         11   -1    0    0    0    0 -0.00000000000E+00 -0.00000000000E+00 -0.45593999997E+02  0.45594000000E+02  0.51100000000E-03 0. -1.
    9900012    2    1    2    0    0 -0.32338460837E+02 -0.18391194879E+02 -0.25398846228E+02  0.46142317764E+02  0.10000000028E+02 0.  0.
        -12    1    1    2    0    0  0.32338460837E+02  0.18391194879E+02  0.25398846228E+02  0.45045682236E+02  0.00000000000E+00 0.  1.
         11    1    3    3    0    0 -0.38977162275E+00 -0.21621770001E+01 -0.22417903730E+01  0.31388780854E+01  0.51100000000E-03 0. -1.
        -11    1    3    3    0    0 -0.80664077315E+01 -0.29858853883E+01 -0.31889337271E+01  0.91734259587E+01  0.51100000000E-03 0.  1.
         12    1    3    3    0    0 -0.23882281482E+02 -0.13243132491E+02 -0.19968122128E+02  0.33830013720E+02  0.00000000000E+00 0. -1.
</event>
<event>
 7    1  0.4141894E-008  0.4614232E+02  0.7816164E-02  0.1320468E+00
        -11   -1    0    0    0    0  0.00000000000E+00  0.00000000000E+00  0.45593999997E+02  0.45594000000E+02  0.51100000000E-03 0. -1.
         11   -1    0    0    0    0 -0.00000000000E+00 -0.00000000000E+00 -0.45593999997E+02  0.45594000000E+02  0.51100000000E-03 0.  1.
    9900012    2    1    2    0    0  0.11987368803E+01 -0.36799754560E+01  0.44879107529E+02  0.46142317831E+02  0.10000000635E+02 0.  0.
        -12    1    1    2    0    0 -0.11987368803E+01  0.36799754560E+01 -0.44879107529E+02  0.45045682169E+02  0.00000000000E+00 0.  1.
         11    1    3    3    0    0 -0.12828206528E+01 -0.10968435452E+01  0.43820308918E+01  0.46958374746E+01  0.51100000000E-03 0. -1.
        -11    1    3    3    0    0  0.28696737652E+00  0.13477632330E+01  0.10222333348E+01  0.17157439375E+01  0.51100000000E-03 0.  1.
         12    1    3    3    0    0  0.21945901566E+01 -0.39308951438E+01  0.39474843303E+02  0.39730736419E+02  0.00000000000E+00 0. -1.
</event>
<event>
 7    1  0.4141894E-008  0.4614232E+02  0.7816164E-02  0.1320468E+00
        -11   -1    0    0    0    0  0.00000000000E+00  0.00000000000E+00  0.45593999997E+02  0.45594000000E+02  0.51100000000E-03 0.  1.
         11   -1    0    0    0    0 -0.00000000000E+00 -0.00000000000E+00 -0.45593999997E+02  0.45594000000E+02  0.51100000000E-03 0. -1.
    9900012    2    1    2    0    0  0.11607508524E+02  0.11737058143E+02 -0.41912057478E+02  0.46142319296E+02  0.10000014000E+02 0.  0.
        -12    1    1    2    0    0 -0.11607508524E+02 -0.11737058143E+02  0.41912057478E+02  0.45045680704E+02  0.00000000000E+00 0.  1.
         11    1    3    3    0    0  0.24844005198E+01  0.17354579280E+01 -0.53440133801E+01  0.61434957012E+01  0.51100000000E-03 0. -1.
        -11    1    3    3    0    0  0.36832470556E+01  0.91712302927E+01 -0.16922803543E+02  0.19597424677E+02  0.51100000000E-03 0.  1.
         12    1    3    3    0    0  0.54398609490E+01  0.83036992183E+00 -0.19645240555E+02  0.20401398918E+02  0.00000000000E+00 0. -1.
</event>
<event>
 7    1  0.4141894E-008  0.4614232E+02  0.7816164E-02  0.1320468E+00
        -11   -1    0    0    0    0  0.00000000000E+00  0.00000000000E+00  0.45593999997E+02  0.45594000000E+02  0.51100000000E-03 0.  1.
         11   -1    0    0    0    0 -0.00000000000E+00 -0.00000000000E+00 -0.45593999997E+02  0.45594000000E+02  0.51100000000E-03 0. -1.
    9900012    2    1    2    0    0  0.17285666673E+02 -0.94465964237E+01 -0.40510257842E+02  0.46142318223E+02  0.10000004215E+02 0.  0.
        -12    1    1    2    0    0 -0.17285666673E+02  0.94465964237E+01  0.40510257842E+02  0.45045681777E+02  0.00000000000E+00 0.  1.
         11    1    3    3    0    0  0.62935251219E+01 -0.40987416836E+00 -0.10654911374E+02  0.12381582772E+02  0.51100000000E-03 0. -1.
        -11    1    3    3    0    0  0.11921504012E+02 -0.79404643548E+01 -0.27016275737E+02  0.30578626311E+02  0.51100000000E-03 0.  1.
        -12    1    3    3    0    0 -0.92936246131E+00 -0.10962579006E+01 -0.28390707300E+01  0.31821091400E+01  0.00000000000E+00 0.  1.
</event>
<event>
 7    1  0.4141894E-008  0.4614232E+02  0.7816164E-02  0.1320468E+00
        -11   -1    0    0    0    0  0.00000000000E+00  0.00000000000E+00  0.45593999997E+02  0.45594000000E+02  0.51100000000E-03 0.  1.
         11   -1    0    0    0    0 -0.00000000000E+00 -0.00000000000E+00 -0.45593999997E+02  0.45594000000E+02  0.51100000000E-03 0. -1.
    9900012    2    1    2    0    0  0.18678575086E+02  0.40933900757E+02 -0.21540157826E+01  0.46142321157E+02  0.10000030965E+02 0.  0.
        -12    1    1    2    0    0 -0.18678575086E+02 -0.40933900757E+02  0.21540157826E+01  0.45045678843E+02  0.00000000000E+00 0.  1.
         11    1    3    3    0    0  0.84219359640E+01  0.14481163299E+02  0.28544389127E+01  0.16993555180E+02  0.51100000000E-03 0. -1.
        -11    1    3    3    0    0  0.51727857356E+01  0.78468688095E+01 -0.22560937037E+01  0.96654550561E+01  0.51100000000E-03 0.  1.
        -12    1    3    3    0    0  0.50838533867E+01  0.18605868649E+02 -0.27523609916E+01  0.19483310921E+02  0.00000000000E+00 0.  1.
</event>
<event>
 7    1  0.4141894E-008  0.4614232E+02  0.7816164E-02  0.1320468E+00
        -11   -1    0    0    0    0  0.00000000000E+00  0.00000000000E+00  0.45593999997E+02  0.45594000000E+02  0.51100000000E-03 0.  1.
         11   -1    0    0    0    0 -0.00000000000E+00 -0.00000000000E+00 -0.45593999997E+02  0.45594000000E+02  0.51100000000E-03 0. -1.
    9900012    2    1    2    0    0  0.34449613842E+02  0.12707445857E+02  0.26093264305E+02  0.46142317452E+02  0.99999971858E+01 0.  0.
        -12    1    1    2    0    0 -0.34449613842E+02 -0.12707445857E+02 -0.26093264305E+02  0.45045682548E+02  0.00000000000E+00 0.  1.
         11    1    3    3    0    0  0.42441511928E+01  0.24999385920E+01  0.33633668299E+01  0.59644571425E+01  0.51100000000E-03 0.  1.
        -11    1    3    3    0    0  0.28808633473E+02  0.10220823667E+02  0.18516229036E+02  0.35738681243E+02  0.51100000000E-03 0. -1.
         12    1    3    3    0    0  0.13968291762E+01 -0.13316402104E-01  0.42136684388E+01  0.44391790667E+01  0.00000000000E+00 0. -1.
</event>
<event>
 7    1  0.4141894E-008  0.4614232E+02  0.7816164E-02  0.1320468E+00
        -11   -1    0    0    0    0  0.00000000000E+00  0.00000000000E+00  0.45593999997E+02  0.45594000000E+02  0.51100000000E-03 0.  1.
         11   -1    0    0    0    0 -0.00000000000E+00 -0.00000000000E+00 -0.45593999997E+02  0.45594000000E+02  0.51100000000E-03 0. -1.
    9900012    2    1    2    0    0 -0.49067651004E+01  0.44668623441E+02  0.31227031629E+01  0.46142317200E+02  0.99999948828E+01 0.  0.
        -12    1    1    2    0    0  0.49067651004E+01 -0.44668623441E+02 -0.31227031629E+01  0.45045682800E+02  0.00000000000E+00 0.  1.
         11    1    3    3    0    0 -0.64807346456E+01  0.16366150625E+02  0.12077003297E+01  0.17643960671E+02  0.51100000000E-03 0. -1.
        -11    1    3    3    0    0 -0.58102283888E-01  0.13587507158E+02  0.15127362081E+00  0.13588473446E+02  0.51100000000E-03 0.  1.
        -12    1    3    3    0    0  0.16320718291E+01  0.14714965658E+02  0.17637292125E+01  0.14909883082E+02  0.00000000000E+00 0.  1.
</event>
<event>
 7    1  0.4141894E-008  0.4614232E+02  0.7816164E-02  0.1320468E+00
        -11   -1    0    0    0    0  0.00000000000E+00  0.00000000000E+00  0.45593999997E+02  0.45594000000E+02  0.51100000000E-03 0.  1.
         11   -1    0    0    0    0 -0.00000000000E+00 -0.00000000000E+00 -0.45593999997E+02  0.45594000000E+02  0.51100000000E-03 0. -1.
    9900012    2    1    2    0    0  0.10941320261E+02 -0.45721961025E+01 -0.43456828301E+02  0.46142318828E+02  0.10000009730E+02 0.  0.
        -12    1    1    2    0    0 -0.10941320261E+02  0.45721961025E+01  0.43456828301E+02  0.45045681172E+02  0.00000000000E+00 0.  1.
         11    1    3    3    0    0  0.30770889324E+01  0.16543055774E+01 -0.12287106380E+02  0.12774121758E+02  0.51100000000E-03 0. -1.
        -11    1    3    3    0    0  0.82282796549E+01 -0.71329441408E+01 -0.29309956102E+02  0.31267507178E+02  0.51100000000E-03 0.  1.
        -12    1    3    3    0    0 -0.36404832601E+00  0.90644246079E+00 -0.18597658193E+01  0.21006898916E+01  0.00000000000E+00 0.  1.
</event>
<event>
 7    1  0.4141894E-008  0.4614232E+02  0.7816164E-02  0.1320468E+00
        -11   -1    0    0    0    0  0.00000000000E+00  0.00000000000E+00  0.45593999997E+02  0.45594000000E+02  0.51100000000E-03 0.  1.
         11   -1    0    0    0    0 -0.00000000000E+00 -0.00000000000E+00 -0.45593999997E+02  0.45594000000E+02  0.51100000000E-03 0. -1.
    9900012    2    1    2    0    0  0.38459008156E+02  0.23309193009E+02 -0.25883841311E+01  0.46142317416E+02  0.99999968488E+01 0.  0.
        -12    1    1    2    0    0 -0.38459008156E+02 -0.23309193009E+02  0.25883841311E+01  0.45045682584E+02  0.00000000000E+00 0.  1.
         11    1    3    3    0    0  0.78923080267E+01  0.33709047459E+01 -0.23260719080E+01  0.88916891296E+01  0.51100000000E-03 0. -1.
        -11    1    3    3    0    0 -0.30201271173E+00 -0.19339673374E+00 -0.17089082523E+00  0.39726302362E+00  0.51100000000E-03 0.  1.
        -12    1    3    3    0    0  0.30868712841E+02  0.20131684997E+02 -0.91421397807E-01  0.36853365262E+02  0.00000000000E+00 0.  1.
</event>
<event>
 7    1  0.4141894E-008  0.4614232E+02  0.7816164E-02  0.1320468E+00
        -11   -1    0    0    0    0  0.00000000000E+00  0.00000000000E+00  0.45593999997E+02  0.45594000000E+02  0.51100000000E-03 0. -1.
         11   -1    0    0    0    0 -0.00000000000E+00 -0.00000000000E+00 -0.45593999997E+02  0.45594000000E+02  0.51100000000E-03 0.  1.
    9900012    2    1    2    0    0  0.15824272062E+02 -0.38446750471E+02  0.17336471403E+02  0.46142318201E+02  0.10000004008E+02 0.  0.
        -12    1    1    2    0    0 -0.15824272062E+02  0.38446750471E+02 -0.17336471403E+02  0.45045681799E+02  0.00000000000E+00 0.  1.
         11    1    3    3    0    0  0.48466058427E+01 -0.49954948168E+01  0.30787870995E+01  0.76107481185E+01  0.51100000000E-03 0. -1.
        -11    1    3    3    0    0  0.70755085792E+00 -0.67681507274E+01  0.51184039006E+01  0.85150778760E+01  0.51100000000E-03 0.  1.
         12    1    3    3    0    0  0.10270115361E+02 -0.26683104927E+02  0.91392804025E+01  0.30016492206E+02  0.00000000000E+00 0. -1.
</event>
<event>
 7    1  0.4141894E-008  0.4614232E+02  0.7816164E-02  0.1320468E+00
        -11   -1    0    0    0    0  0.00000000000E+00  0.00000000000E+00  0.45593999997E+02  0.45594000000E+02  0.51100000000E-03 0. -1.
         11   -1    0    0    0    0 -0.00000000000E+00 -0.00000000000E+00 -0.45593999997E+02  0.45594000000E+02  0.51100000000E-03 0.  1.
    9900012    2    1    2    0    0 -0.14393692760E+02  0.38286347116E+02  0.18870362678E+02  0.46142319249E+02  0.10000013564E+02 0.  0.
        -12    1    1    2    0    0  0.14393692760E+02 -0.38286347116E+02 -0.18870362678E+02  0.45045680751E+02  0.00000000000E+00 0.  1.
         11    1    3    3    0    0 -0.60980413867E+00  0.53445949566E+01  0.98925267750E-01  0.53801805553E+01  0.51100000000E-03 0.  1.
        -11    1    3    3    0    0 -0.39338854594E+01  0.14138974837E+02  0.10188765804E+02  0.17866085557E+02  0.51100000000E-03 0. -1.
         12    1    3    3    0    0 -0.98500031621E+01  0.18802777323E+02  0.85826716061E+01  0.22896053137E+02  0.00000000000E+00 0. -1.
</event>
<event>
 7    1  0.4141894E-008  0.4614232E+02  0.7816164E-02  0.1320468E+00
        -11   -1    0    0    0    0  0.00000000000E+00  0.00000000000E+00  0.45593999997E+02  0.45594000000E+02  0.51100000000E-03 0.  1.
         11   -1    0    0    0    0 -0.00000000000E+00 -0.00000000000E+00 -0.45593999997E+02  0.45594000000E+02  0.51100000000E-03 0. -1.
    9900012    2    1    2    0    0  0.27800818033E+02 -0.30210872024E+02 -0.18534597690E+02  0.46142316708E+02  0.99999903933E+01 0.  0.
        -12    1    1    2    0    0 -0.27800818033E+02  0.30210872024E+02  0.18534597690E+02  0.45045683292E+02  0.00000000000E+00 0.  1.
         11    1    3    3    0    0  0.48786923602E+01 -0.75479591269E+01 -0.73184517175E+01  0.11590214059E+02  0.51100000000E-03 0. -1.
        -11    1    3    3    0    0  0.45012767290E+01 -0.39484057416E+01  0.25166845543E-01  0.59876567806E+01  0.51100000000E-03 0.  1.
         12    1    3    3    0    0  0.18420848944E+02 -0.18714507155E+02 -0.11241312818E+02  0.28564445868E+02  0.00000000000E+00 0. -1.
</event>
<event>
 7    1  0.4141894E-008  0.4614232E+02  0.7816164E-02  0.1320468E+00
        -11   -1    0    0    0    0  0.00000000000E+00  0.00000000000E+00  0.45593999997E+02  0.45594000000E+02  0.51100000000E-03 0.  1.
         11   -1    0    0    0    0 -0.00000000000E+00 -0.00000000000E+00 -0.45593999997E+02  0.45594000000E+02  0.51100000000E-03 0. -1.
    9900012    2    1    2    0    0 -0.43506519151E+02  0.11031875124E+02 -0.38202190768E+01  0.46142317064E+02  0.99999936459E+01 0.  0.
        -12    1    1    2    0    0  0.43506519151E+02 -0.11031875124E+02  0.38202190768E+01  0.45045682936E+02  0.00000000000E+00 0.  1.
         11    1    3    3    0    0 -0.11221163575E+02  0.36780625886E+01 -0.44505157272E+01  0.12619419435E+02  0.51100000000E-03 0. -1.
        -11    1    3    3    0    0 -0.16930470592E+02  0.65080004697E+01  0.24179917689E+00  0.18139828325E+02  0.51100000000E-03 0.  1.
         12    1    3    3    0    0 -0.15354884983E+02  0.84581206566E+00  0.38849747351E+00  0.15383069303E+02  0.00000000000E+00 0. -1.
</event>
<event>
 7    1  0.4141894E-008  0.4614232E+02  0.7816164E-02  0.1320468E+00
        -11   -1    0    0    0    0  0.00000000000E+00  0.00000000000E+00  0.45593999997E+02  0.45594000000E+02  0.51100000000E-03 0. -1.
         11   -1    0    0    0    0 -0.00000000000E+00 -0.00000000000E+00 -0.45593999997E+02  0.45594000000E+02  0.51100000000E-03 0.  1.
    9900012    2    1    2    0    0 -0.31812753028E+02  0.29820205099E+02  0.11305645764E+02  0.46142317482E+02  0.99999974543E+01 0.  0.
        -12    1    1    2    0    0  0.31812753028E+02 -0.29820205099E+02 -0.11305645764E+02  0.45045682518E+02  0.00000000000E+00 0.  1.
         11    1    3    3    0    0 -0.17058756498E+02  0.13888899535E+02  0.60474196613E+01  0.22813899017E+02  0.51100000000E-03 0. -1.
        -11    1    3    3    0    0 -0.48527800382E+01  0.12665114025E+01  0.15531453943E+01  0.52503129534E+01  0.51100000000E-03 0.  1.
         12    1    3    3    0    0 -0.99012164922E+01  0.14664794161E+02  0.37050807082E+01  0.18078105511E+02  0.00000000000E+00 0. -1.
</event>
<event>
 7    1  0.4141894E-008  0.4614232E+02  0.7816164E-02  0.1320468E+00
        -11   -1    0    0    0    0  0.00000000000E+00  0.00000000000E+00  0.45593999997E+02  0.45594000000E+02  0.51100000000E-03 0.  1.
         11   -1    0    0    0    0 -0.00000000000E+00 -0.00000000000E+00 -0.45593999997E+02  0.45594000000E+02  0.51100000000E-03 0. -1.
    9900012    2    1    2    0    0  0.17454167366E+02  0.15052233190E+02 -0.38702659556E+02  0.46142317197E+02  0.99999948554E+01 0.  0.
        -12    1    1    2    0    0 -0.17454167366E+02 -0.15052233190E+02  0.38702659556E+02  0.45045682803E+02  0.00000000000E+00 0.  1.
         11    1    3    3    0    0  0.12489046670E+02  0.10529788848E+02 -0.23303868059E+02  0.28459146275E+02  0.51100000000E-03 0. -1.
        -11    1    3    3    0    0  0.14852767243E+01  0.25023915985E+00 -0.20374666987E+00  0.15199274823E+01  0.51100000000E-03 0.  1.
         12    1    3    3    0    0  0.34798439715E+01  0.42722051824E+01 -0.15195044827E+02  0.16163243440E+02  0.00000000000E+00 0. -1.
</event>
<event>
 7    1  0.4141894E-008  0.4614232E+02  0.7816164E-02  0.1320468E+00
        -11   -1    0    0    0    0  0.00000000000E+00  0.00000000000E+00  0.45593999997E+02  0.45594000000E+02  0.51100000000E-03 0.  1.
         11   -1    0    0    0    0 -0.00000000000E+00 -0.00000000000E+00 -0.45593999997E+02  0.45594000000E+02  0.51100000000E-03 0. -1.
    9900012    2    1    2    0    0  0.40613804356E+02 -0.17705560610E+02 -0.81329895935E+01  0.46142317626E+02  0.99999987682E+01 0.  0.
        -12    1    1    2    0    0 -0.40613804356E+02  0.17705560610E+02  0.81329895935E+01  0.45045682374E+02  0.00000000000E+00 0.  1.
         11    1    3    3    0    0  0.58455103563E+01 -0.18111950358E+01  0.12890857695E+01  0.62539716314E+01  0.51100000000E-03 0. -1.
        -11    1    3    3    0    0  0.74977181213E+01 -0.35113430506E+01 -0.48382220862E+01  0.95892492022E+01  0.51100000000E-03 0.  1.
         12    1    3    3    0    0  0.27270575879E+02 -0.12383022523E+02 -0.45838532767E+01  0.30299096792E+02  0.00000000000E+00 0. -1.
</event>
<event>
 7    1  0.4141894E-008  0.4614232E+02  0.7816164E-02  0.1320468E+00
        -11   -1    0    0    0    0  0.00000000000E+00  0.00000000000E+00  0.45593999997E+02  0.45594000000E+02  0.51100000000E-03 0. -1.
         11   -1    0    0    0    0 -0.00000000000E+00 -0.00000000000E+00 -0.45593999997E+02  0.45594000000E+02  0.51100000000E-03 0.  1.
    9900012    2    1    2    0    0  0.89663179534E+01  0.14890157797E+02  0.41557210268E+02  0.46142318941E+02  0.10000010755E+02 0.  0.
        -12    1    1    2    0    0 -0.89663179534E+01 -0.14890157797E+02 -0.41557210268E+02  0.45045681059E+02  0.00000000000E+00 0.  1.
         11    1    3    3    0    0  0.75073786653E+00 -0.14784028858E+00  0.15339608594E+01  0.17142054353E+01  0.51100000000E-03 0. -1.
        -11    1    3    3    0    0 -0.87881549847E+00  0.13003527513E+01  0.56426150559E+00  0.16678205137E+01  0.51100000000E-03 0.  1.
        -12    1    3    3    0    0  0.90943955853E+01  0.13737645334E+02  0.39458987903E+02  0.42760292991E+02  0.00000000000E+00 0.  1.
</event>
<event>
 7    1  0.4141894E-008  0.4614232E+02  0.7816164E-02  0.1320468E+00
        -11   -1    0    0    0    0  0.00000000000E+00  0.00000000000E+00  0.45593999997E+02  0.45594000000E+02  0.51100000000E-03 0.  1.
         11   -1    0    0    0    0 -0.00000000000E+00 -0.00000000000E+00 -0.45593999997E+02  0.45594000000E+02  0.51100000000E-03 0. -1.
    9900012    2    1    2    0    0 -0.80790633722E+01  0.49481171025E+01 -0.44038146333E+02  0.46142318073E+02  0.10000002846E+02 0.  0.
        -12    1    1    2    0    0  0.80790633722E+01 -0.49481171025E+01  0.44038146333E+02  0.45045681927E+02  0.00000000000E+00 0.  1.
         11    1    3    3    0    0 -0.44604587232E+01  0.21770805621E+01 -0.15724938644E+02  0.16489665473E+02  0.51100000000E-03 0. -1.
        -11    1    3    3    0    0 -0.56635212391E+01  0.43507670853E+00 -0.19384850854E+02  0.20199930878E+02  0.51100000000E-03 0.  1.
        -12    1    3    3    0    0  0.20449165902E+01  0.23359598319E+01 -0.89283568347E+01  0.94527217226E+01  0.00000000000E+00 0.  1.
</event>
<event>
 7    1  0.4141894E-008  0.4614232E+02  0.7816164E-02  0.1320468E+00
        -11   -1    0    0    0    0  0.00000000000E+00  0.00000000000E+00  0.45593999997E+02  0.45594000000E+02  0.51100000000E-03 0.  1.
         11   -1    0    0    0    0 -0.00000000000E+00 -0.00000000000E+00 -0.45593999997E+02  0.45594000000E+02  0.51100000000E-03 0. -1.
    9900012    2    1    2    0    0 -0.34337677051E+02  0.23504934829E+02 -0.17249796232E+02  0.46142317670E+02  0.99999991647E+01 0.  0.
        -12    1    1    2    0    0  0.34337677051E+02 -0.23504934829E+02  0.17249796232E+02  0.45045682330E+02  0.00000000000E+00 0.  1.
         11    1    3    3    0    0 -0.18881709057E+02  0.12438821419E+02 -0.71913698619E+01  0.23726757384E+02  0.51100000000E-03 0. -1.
        -11    1    3    3    0    0  0.14087469355E+00  0.40660651954E+00  0.58958851590E+00  0.72992425649E+00  0.51100000000E-03 0.  1.
         12    1    3    3    0    0 -0.15596842688E+02  0.10659506890E+02 -0.10648014886E+02  0.21685636029E+02  0.00000000000E+00 0. -1.
</event>
<event>
 7    1  0.4141894E-008  0.4614232E+02  0.7816164E-02  0.1320468E+00
        -11   -1    0    0    0    0  0.00000000000E+00  0.00000000000E+00  0.45593999997E+02  0.45594000000E+02  0.51100000000E-03 0.  1.
         11   -1    0    0    0    0 -0.00000000000E+00 -0.00000000000E+00 -0.45593999997E+02  0.45594000000E+02  0.51100000000E-03 0. -1.
    9900012    2    1    2    0    0  0.26950103580E+01 -0.12787675484E+02 -0.43108301649E+02  0.46142318785E+02  0.10000009335E+02 0.  0.
        -12    1    1    2    0    0 -0.26950103580E+01  0.12787675484E+02  0.43108301649E+02  0.45045681215E+02  0.00000000000E+00 0.  1.
         11    1    3    3    0    0  0.26223841434E+01 -0.31404686678E+00 -0.66945207767E+01  0.71966751157E+01  0.51100000000E-03 0. -1.
        -11    1    3    3    0    0  0.14584563565E+01 -0.39981665835E+01 -0.60934918680E+01  0.74325684914E+01  0.51100000000E-03 0.  1.
         12    1    3    3    0    0 -0.13858301420E+01 -0.84754620341E+01 -0.30320289004E+02  0.31513075178E+02  0.00000000000E+00 0. -1.
</event>
<event>
 7    1  0.4141894E-008  0.4614232E+02  0.7816164E-02  0.1320468E+00
        -11   -1    0    0    0    0  0.00000000000E+00  0.00000000000E+00  0.45593999997E+02  0.45594000000E+02  0.51100000000E-03 0.  1.
         11   -1    0    0    0    0 -0.00000000000E+00 -0.00000000000E+00 -0.45593999997E+02  0.45594000000E+02  0.51100000000E-03 0. -1.
    9900012    2    1    2    0    0 -0.44886062523E+01  0.35551506821E+02 -0.27295718801E+02  0.46142317763E+02  0.10000000014E+02 0.  0.
        -12    1    1    2    0    0  0.44886062523E+01 -0.35551506821E+02  0.27295718801E+02  0.45045682237E+02  0.00000000000E+00 0.  1.
         11    1    3    3    0    0 -0.38501674793E+01  0.14448762971E+02 -0.11993641215E+02  0.19168671599E+02  0.51100000000E-03 0. -1.
        -11    1    3    3    0    0 -0.27203870042E+01  0.95411224316E+01 -0.40804331128E+01  0.10727695808E+02  0.51100000000E-03 0.  1.
        -12    1    3    3    0    0  0.20819482311E+01  0.11561621419E+02 -0.11221644473E+02  0.16245950356E+02  0.00000000000E+00 0.  1.
</event>
<event>
 7    1  0.4141894E-008  0.4614231E+02  0.7816164E-02  0.1320468E+00
        -11   -1    0    0    0    0  0.00000000000E+00  0.00000000000E+00  0.45593999997E+02  0.45594000000E+02  0.51100000000E-03 0.  1.
         11   -1    0    0    0    0 -0.00000000000E+00 -0.00000000000E+00 -0.45593999997E+02  0.45594000000E+02  0.51100000000E-03 0. -1.
    9900012    2    1    2    0    0 -0.25304901930E+02 -0.76570091263E+01 -0.36471167618E+02  0.46142312993E+02  0.99999565226E+01 0.  0.
        -12    1    1    2    0    0  0.25304901930E+02  0.76570091263E+01  0.36471167618E+02  0.45045687007E+02  0.00000000000E+00 0.  1.
         11    1    3    3    0    0 -0.15127575092E+02 -0.20632780080E+01 -0.20902002042E+02  0.25884248761E+02  0.51100000000E-03 0. -1.
        -11    1    3    3    0    0 -0.81277368976E+01 -0.24384330201E+01 -0.73800463446E+01  0.11245939133E+02  0.51100000000E-03 0.  1.
        -12    1    3    3    0    0 -0.20495899408E+01 -0.31552980982E+01 -0.81891192315E+01  0.90121250991E+01  0.00000000000E+00 0.  1.
</event>
<event>
 7    1  0.4141894E-008  0.4614232E+02  0.7816164E-02  0.1320468E+00
        -11   -1    0    0    0    0  0.00000000000E+00  0.00000000000E+00  0.45593999997E+02  0.45594000000E+02  0.51100000000E-03 0. -1.
         11   -1    0    0    0    0 -0.00000000000E+00 -0.00000000000E+00 -0.45593999997E+02  0.45594000000E+02  0.51100000000E-03 0.  1.
    9900012    2    1    2    0    0  0.23193932554E+02  0.25885938209E+02  0.28654374504E+02  0.46142317827E+02  0.10000000599E+02 0.  0.
        -12    1    1    2    0    0 -0.23193932554E+02 -0.25885938209E+02 -0.28654374504E+02  0.45045682173E+02  0.00000000000E+00 0.  1.
         11    1    3    3    0    0  0.60962997252E+01  0.53059112272E+01  0.53749387461E+01  0.97060564122E+01  0.51100000000E-03 0. -1.
        -11    1    3    3    0    0 -0.61469806741E+00  0.43667311196E+00  0.21870928412E+01  0.23134200825E+01  0.51100000000E-03 0.  1.
         12    1    3    3    0    0  0.17712330896E+02  0.20143353869E+02  0.21092342917E+02  0.34122841332E+02  0.00000000000E+00 0. -1.
</event>
<event>
 7    1  0.4141894E-008  0.4614232E+02  0.7816164E-02  0.1320468E+00
        -11   -1    0    0    0    0  0.00000000000E+00  0.00000000000E+00  0.45593999997E+02  0.45594000000E+02  0.51100000000E-03 0.  1.
         11   -1    0    0    0    0 -0.00000000000E+00 -0.00000000000E+00 -0.45593999997E+02  0.45594000000E+02  0.51100000000E-03 0. -1.
    9900012    2    1    2    0    0 -0.42572516924E+02  0.71478387228E+01  0.12868675273E+02  0.46142316534E+02  0.99999888065E+01 0.  0.
        -12    1    1    2    0    0  0.42572516924E+02 -0.71478387228E+01 -0.12868675273E+02  0.45045683466E+02  0.00000000000E+00 0.  1.
         11    1    3    3    0    0  0.89697232987E-01  0.17100984274E+00 -0.22088240819E+00  0.29339267081E+00  0.51100000000E-03 0. -1.
        -11    1    3    3    0    0 -0.33952024272E+01 -0.15701969683E+01  0.79972974743E+00  0.38252432564E+01  0.51100000000E-03 0.  1.
         12    1    3    3    0    0 -0.39267011730E+02  0.85470258484E+01  0.12289827934E+02  0.42023680606E+02  0.00000000000E+00 0. -1.
</event>
<event>
 7    1  0.4141894E-008  0.4614232E+02  0.7816164E-02  0.1320468E+00
        -11   -1    0    0    0    0  0.00000000000E+00  0.00000000000E+00  0.45593999997E+02  0.45594000000E+02  0.51100000000E-03 0.  1.
         11   -1    0    0    0    0 -0.00000000000E+00 -0.00000000000E+00 -0.45593999997E+02  0.45594000000E+02  0.51100000000E-03 0. -1.
    9900012    2    1    2    0    0  0.38259233145E+02  0.21911853030E+02 -0.92312226727E+01  0.46142315456E+02  0.99999789779E+01 0.  0.
        -12    1    1    2    0    0 -0.38259233145E+02 -0.21911853030E+02  0.92312226727E+01  0.45045684544E+02  0.00000000000E+00 0.  1.
         11    1    3    3    0    0  0.15557125551E+01  0.16367655156E+01 -0.10258966158E+01  0.24802635011E+01  0.51100000000E-03 0. -1.
        -11    1    3    3    0    0  0.42310693672E+01  0.35689224806E+01 -0.41530033663E+01  0.69200139367E+01  0.51100000000E-03 0.  1.
         12    1    3    3    0    0  0.32472451222E+02  0.16706165034E+02 -0.40523226906E+01  0.36742038018E+02  0.00000000000E+00 0. -1.
</event>
<event>
 7    1  0.4141894E-008  0.4614232E+02  0.7816164E-02  0.1320468E+00
        -11   -1    0    0    0    0  0.00000000000E+00  0.00000000000E+00  0.45593999997E+02  0.45594000000E+02  0.51100000000E-03 0. -1.
         11   -1    0    0    0    0 -0.00000000000E+00 -0.00000000000E+00 -0.45593999997E+02  0.45594000000E+02  0.51100000000E-03 0.  1.
    9900012    2    1    2    0    0  0.32162688235E+01  0.36352287008E+02  0.26406065094E+02  0.46142318413E+02  0.10000005946E+02 0.  0.
        -12    1    1    2    0    0 -0.32162688235E+01 -0.36352287008E+02 -0.26406065094E+02  0.45045681587E+02  0.00000000000E+00 0.  1.
         11    1    3    3    0    0  0.63806967188E+01  0.21547019191E+02  0.16382353875E+02  0.27809509981E+02  0.51100000000E-03 0. -1.
        -11    1    3    3    0    0 -0.56627258963E+00  0.26818430640E+01  0.72679787186E+00  0.28356978460E+01  0.51100000000E-03 0.  1.
        -12    1    3    3    0    0 -0.25981553057E+01  0.12123424754E+02  0.92969133467E+01  0.15497110586E+02  0.00000000000E+00 0.  1.
</event>
<event>
 7    1  0.4141894E-008  0.4614232E+02  0.7816164E-02  0.1320468E+00
        -11   -1    0    0    0    0  0.00000000000E+00  0.00000000000E+00  0.45593999997E+02  0.45594000000E+02  0.51100000000E-03 0. -1.
         11   -1    0    0    0    0 -0.00000000000E+00 -0.00000000000E+00 -0.45593999997E+02  0.45594000000E+02  0.51100000000E-03 0.  1.
    9900012    2    1    2    0    0 -0.19355937975E+02  0.78478124479E+01  0.39910813042E+02  0.46142317712E+02  0.99999995508E+01 0.  0.
        -12    1    1    2    0    0  0.19355937975E+02 -0.78478124479E+01 -0.39910813042E+02  0.45045682288E+02  0.00000000000E+00 0.  1.
         11    1    3    3    0    0 -0.60454669739E+01  0.54965924348E+01  0.13131279099E+02  0.15465790971E+02  0.51100000000E-03 0. -1.
        -11    1    3    3    0    0 -0.32558661256E+01 -0.20052834070E+01  0.49883015184E+01  0.62852985665E+01  0.51100000000E-03 0.  1.
        -12    1    3    3    0    0 -0.10054604876E+02  0.43565034202E+01  0.21791232424E+02  0.24391228174E+02  0.00000000000E+00 0.  1.
</event>
<event>
 7    1  0.4141894E-008  0.4614232E+02  0.7816164E-02  0.1320468E+00
        -11   -1    0    0    0    0  0.00000000000E+00  0.00000000000E+00  0.45593999997E+02  0.45594000000E+02  0.51100000000E-03 0. -1.
         11   -1    0    0    0    0 -0.00000000000E+00 -0.00000000000E+00 -0.45593999997E+02  0.45594000000E+02  0.51100000000E-03 0.  1.
    9900012    2    1    2    0    0 -0.22465845359E+02  0.38930825968E+02  0.29647978827E+01  0.46142318245E+02  0.10000004415E+02 0.  0.
        -12    1    1    2    0    0  0.22465845359E+02 -0.38930825968E+02 -0.29647978827E+01  0.45045681755E+02  0.00000000000E+00 0.  1.
         11    1    3    3    0    0 -0.12526879740E+02  0.16115829369E+02  0.57889723759E+00  0.20420034147E+02  0.51100000000E-03 0. -1.
        -11    1    3    3    0    0 -0.46446679297E+01  0.42739294336E+01  0.99804441291E+00  0.63902664962E+01  0.51100000000E-03 0.  1.
        -12    1    3    3    0    0 -0.52942976884E+01  0.18541067165E+02  0.13878562322E+01  0.19332017602E+02  0.00000000000E+00 0.  1.
</event>
<event>
 7    1  0.4141894E-008  0.4614232E+02  0.7816164E-02  0.1320468E+00
        -11   -1    0    0    0    0  0.00000000000E+00  0.00000000000E+00  0.45593999997E+02  0.45594000000E+02  0.51100000000E-03 0. -1.
         11   -1    0    0    0    0 -0.00000000000E+00 -0.00000000000E+00 -0.45593999997E+02  0.45594000000E+02  0.51100000000E-03 0.  1.
    9900012    2    1    2    0    0  0.41343645552E+02  0.11746438101E+02 -0.13484719322E+02  0.46142317734E+02  0.99999997504E+01 0.  0.
        -12    1    1    2    0    0 -0.41343645552E+02 -0.11746438101E+02  0.13484719322E+02  0.45045682266E+02  0.00000000000E+00 0.  1.
         11    1    3    3    0    0  0.13965762528E+02  0.77613321804E+01 -0.49609822886E+01  0.16729977458E+02  0.51100000000E-03 0. -1.
        -11    1    3    3    0    0  0.17876186386E+02  0.27469970651E+01 -0.81107828599E+01  0.19821423547E+02  0.51100000000E-03 0.  1.
         12    1    3    3    0    0  0.95016966387E+01  0.12381088557E+01 -0.41295417383E+00  0.95909167290E+01  0.00000000000E+00 0. -1.
</event>
<event>
 7    1  0.4141894E-008  0.4614232E+02  0.7816164E-02  0.1320468E+00
        -11   -1    0    0    0    0  0.00000000000E+00  0.00000000000E+00  0.45593999997E+02  0.45594000000E+02  0.51100000000E-03 0. -1.
         11   -1    0    0    0    0 -0.00000000000E+00 -0.00000000000E+00 -0.45593999997E+02  0.45594000000E+02  0.51100000000E-03 0.  1.
    9900012    2    1    2    0    0 -0.35311477936E+02  0.19104107035E+02  0.20426601904E+02  0.46142318243E+02  0.10000004391E+02 0.  0.
        -12    1    1    2    0    0  0.35311477936E+02 -0.19104107035E+02 -0.20426601904E+02  0.45045681757E+02  0.00000000000E+00 0.  1.
         11    1    3    3    0    0 -0.15207694916E+02  0.37895572232E+01  0.88366086752E+01  0.17992231150E+02  0.51100000000E-03 0. -1.
        -11    1    3    3    0    0 -0.70893883916E+01  0.45203021062E+01  0.17537159869E+01  0.85888345497E+01  0.51100000000E-03 0.  1.
        -12    1    3    3    0    0 -0.13014394629E+02  0.10794247706E+02  0.98362772415E+01  0.19561252543E+02  0.00000000000E+00 0.  1.
</event>
<event>
 7    1  0.4141894E-008  0.4614232E+02  0.7816164E-02  0.1320468E+00
        -11   -1    0    0    0    0  0.00000000000E+00  0.00000000000E+00  0.45593999997E+02  0.45594000000E+02  0.51100000000E-03 0.  1.
         11   -1    0    0    0    0 -0.00000000000E+00 -0.00000000000E+00 -0.45593999997E+02  0.45594000000E+02  0.51100000000E-03 0. -1.
    9900012    2    1    2    0    0 -0.19778708455E+01 -0.44997253774E+02  0.66981509869E+00  0.46142317936E+02  0.10000001599E+02 0.  0.
        -12    1    1    2    0    0  0.19778708455E+01  0.44997253774E+02 -0.66981509869E+00  0.45045682064E+02  0.00000000000E+00 0.  1.
         11    1    3    3    0    0 -0.26860430954E+01 -0.29316860290E+02  0.17207466692E+01  0.29489898171E+02  0.51100000000E-03 0. -1.
        -11    1    3    3    0    0 -0.21730243349E+01 -0.52945169907E+01 -0.13102988338E+01  0.58711862703E+01  0.51100000000E-03 0.  1.
        -12    1    3    3    0    0  0.28811965849E+01 -0.10385876493E+02  0.25936726330E+00  0.10781233495E+02  0.00000000000E+00 0.  1.
</event>
<event>
 7    1  0.4141894E-008  0.4614232E+02  0.7816164E-02  0.1320468E+00
        -11   -1    0    0    0    0  0.00000000000E+00  0.00000000000E+00  0.45593999997E+02  0.45594000000E+02  0.51100000000E-03 0. -1.
         11   -1    0    0    0    0 -0.00000000000E+00 -0.00000000000E+00 -0.45593999997E+02  0.45594000000E+02  0.51100000000E-03 0.  1.
    9900012    2    1    2    0    0 -0.14725889442E+02 -0.16123496105E+02  0.39399169875E+02  0.46142317261E+02  0.99999954416E+01 0.  0.
        -12    1    1    2    0    0  0.14725889442E+02  0.16123496105E+02 -0.39399169875E+02  0.45045682739E+02  0.00000000000E+00 0.  1.
         11    1    3    3    0    0 -0.38169179198E+01 -0.16580608310E+01  0.10192413899E+02  0.11009238369E+02  0.51100000000E-03 0. -1.
        -11    1    3    3    0    0 -0.21122362536E+01 -0.39204128777E+00  0.75418070216E+01  0.78418168669E+01  0.51100000000E-03 0.  1.
        -12    1    3    3    0    0 -0.87967352690E+01 -0.14073393986E+02  0.21664948955E+02  0.27291262025E+02  0.00000000000E+00 0.  1.
</event>
<event>
 7    1  0.4141894E-008  0.4614232E+02  0.7816164E-02  0.1320468E+00
        -11   -1    0    0    0    0  0.00000000000E+00  0.00000000000E+00  0.45593999997E+02  0.45594000000E+02  0.51100000000E-03 0. -1.
         11   -1    0    0    0    0 -0.00000000000E+00 -0.00000000000E+00 -0.45593999997E+02  0.45594000000E+02  0.51100000000E-03 0.  1.
    9900012    2    1    2    0    0 -0.25220742202E+01 -0.32240922935E+02  0.31357225330E+02  0.46142317071E+02  0.99999937112E+01 0.  0.
        -12    1    1    2    0    0  0.25220742202E+01  0.32240922935E+02 -0.31357225330E+02  0.45045682929E+02  0.00000000000E+00 0.  1.
         11    1    3    3    0    0 -0.23084585737E+01 -0.61342992798E+01  0.51771529452E+01  0.83523362911E+01  0.51100000000E-03 0. -1.
        -11    1    3    3    0    0 -0.57082195348E+00  0.30310748048E+00  0.69223066278E-01  0.65000303178E+00  0.51100000000E-03 0.  1.
         12    1    3    3    0    0  0.35720630697E+00 -0.26409731136E+02  0.26110849319E+02  0.37139977749E+02  0.00000000000E+00 0. -1.
</event>
<event>
 7    1  0.4141894E-008  0.4614232E+02  0.7816164E-02  0.1320468E+00
        -11   -1    0    0    0    0  0.00000000000E+00  0.00000000000E+00  0.45593999997E+02  0.45594000000E+02  0.51100000000E-03 0. -1.
         11   -1    0    0    0    0 -0.00000000000E+00 -0.00000000000E+00 -0.45593999997E+02  0.45594000000E+02  0.51100000000E-03 0.  1.
    9900012    2    1    2    0    0 -0.17371112430E+02  0.32016237639E+02  0.26501293856E+02  0.46142316571E+02  0.99999891432E+01 0.  0.
        -12    1    1    2    0    0  0.17371112430E+02 -0.32016237639E+02 -0.26501293856E+02  0.45045683429E+02  0.00000000000E+00 0.  1.
         11    1    3    3    0    0 -0.29226429749E+01  0.65804330459E+01  0.46465535681E+01  0.85693874549E+01  0.51100000000E-03 0. -1.
        -11    1    3    3    0    0 -0.96333716270E+00 -0.51181082355E+00  0.42994652203E-01  0.10917039935E+01  0.51100000000E-03 0.  1.
        -12    1    3    3    0    0 -0.13485132293E+02  0.25947615416E+02  0.21811745636E+02  0.36481225122E+02  0.00000000000E+00 0.  1.
</event>
<event>
 7    1  0.4141894E-008  0.4614232E+02  0.7816164E-02  0.1320468E+00
        -11   -1    0    0    0    0  0.00000000000E+00  0.00000000000E+00  0.45593999997E+02  0.45594000000E+02  0.51100000000E-03 0.  1.
         11   -1    0    0    0    0 -0.00000000000E+00 -0.00000000000E+00 -0.45593999997E+02  0.45594000000E+02  0.51100000000E-03 0. -1.
    9900012    2    1    2    0    0  0.38384632549E+02 -0.17736527563E+02 -0.15528972912E+02  0.46142318458E+02  0.10000006351E+02 0.  0.
        -12    1    1    2    0    0 -0.38384632549E+02  0.17736527563E+02  0.15528972912E+02  0.45045681542E+02  0.00000000000E+00 0.  1.
         11    1    3    3    0    0  0.20478480869E+02 -0.90693708726E+01 -0.12062497329E+02  0.25438661695E+02  0.51100000000E-03 0. -1.
        -11    1    3    3    0    0  0.75559016294E+01 -0.18244294820E+01  0.16721199778E+00  0.77748409940E+01  0.51100000000E-03 0.  1.
        -12    1    3    3    0    0  0.10350250050E+02 -0.68427272087E+01 -0.36336875813E+01  0.12928815769E+02  0.00000000000E+00 0.  1.
</event>
<event>
 7    1  0.4141894E-008  0.4614231E+02  0.7816164E-02  0.1320468E+00
        -11   -1    0    0    0    0  0.00000000000E+00  0.00000000000E+00  0.45593999997E+02  0.45594000000E+02  0.51100000000E-03 0.  1.
         11   -1    0    0    0    0 -0.00000000000E+00 -0.00000000000E+00 -0.45593999997E+02  0.45594000000E+02  0.51100000000E-03 0. -1.
    9900012    2    1    2    0    0 -0.99161588841E+01  0.16083746334E+02 -0.40891278352E+02  0.46142314874E+02  0.99999736761E+01 0.  0.
        -12    1    1    2    0    0  0.99161588841E+01 -0.16083746334E+02  0.40891278352E+02  0.45045685126E+02  0.00000000000E+00 0.  1.
         11    1    3    3    0    0 -0.61172698923E+01  0.96135304826E+01 -0.24901192380E+02  0.27384490893E+02  0.51100000000E-03 0. -1.
        -11    1    3    3    0    0 -0.27491179592E+01  0.66378921886E+01 -0.16156348772E+02  0.17681823101E+02  0.51100000000E-03 0.  1.
        -12    1    3    3    0    0 -0.10497710326E+01 -0.16767633677E+00  0.16626280033E+00  0.10760008799E+01  0.00000000000E+00 0.  1.
</event>
<event>
 7    1  0.4141894E-008  0.4614232E+02  0.7816164E-02  0.1320468E+00
        -11   -1    0    0    0    0  0.00000000000E+00  0.00000000000E+00  0.45593999997E+02  0.45594000000E+02  0.51100000000E-03 0. -1.
         11   -1    0    0    0    0 -0.00000000000E+00 -0.00000000000E+00 -0.45593999997E+02  0.45594000000E+02  0.51100000000E-03 0.  1.
    9900012    2    1    2    0    0  0.14552353571E+01  0.44099498798E+02 -0.90680745242E+01  0.46142317857E+02  0.10000000875E+02 0.  0.
        -12    1    1    2    0    0 -0.14552353571E+01 -0.44099498798E+02  0.90680745242E+01  0.45045682143E+02  0.00000000000E+00 0.  1.
         11    1    3    3    0    0  0.38195587214E+00  0.14375586751E+01  0.11670180381E+01  0.18906074672E+01  0.51100000000E-03 0. -1.
        -11    1    3    3    0    0  0.33890243414E+01  0.26554203838E+02 -0.59299332864E+01  0.27418521778E+02  0.51100000000E-03 0.  1.
         12    1    3    3    0    0 -0.23157448564E+01  0.16107736284E+02 -0.43051592759E+01  0.16833188612E+02  0.00000000000E+00 0. -1.
</event>
<event>
 7    1  0.4141894E-008  0.4614232E+02  0.7816164E-02  0.1320468E+00
        -11   -1    0    0    0    0  0.00000000000E+00  0.00000000000E+00  0.45593999997E+02  0.45594000000E+02  0.51100000000E-03 0.  1.
         11   -1    0    0    0    0 -0.00000000000E+00 -0.00000000000E+00 -0.45593999997E+02  0.45594000000E+02  0.51100000000E-03 0. -1.
    9900012    2    1    2    0    0  0.21031480037E+01  0.83454298745E+01 -0.44215879988E+02  0.46142317916E+02  0.10000001414E+02 0.  0.
        -12    1    1    2    0    0 -0.21031480037E+01 -0.83454298745E+01  0.44215879988E+02  0.45045682084E+02  0.00000000000E+00 0.  1.
         11    1    3    3    0    0  0.55187236714E+00  0.15508845533E+01 -0.25629789788E+02  0.25682599768E+02  0.51100000000E-03 0. -1.
        -11    1    3    3    0    0 -0.47947298601E+00  0.23006713379E+01 -0.17886315563E+01  0.29533347346E+01  0.51100000000E-03 0.  1.
        -12    1    3    3    0    0  0.20307486226E+01  0.44938739833E+01 -0.16797458644E+02  0.17506383414E+02  0.00000000000E+00 0.  1.
</event>
<event>
 7    1  0.4141894E-008  0.4614232E+02  0.7816164E-02  0.1320468E+00
        -11   -1    0    0    0    0  0.00000000000E+00  0.00000000000E+00  0.45593999997E+02  0.45594000000E+02  0.51100000000E-03 0.  1.
         11   -1    0    0    0    0 -0.00000000000E+00 -0.00000000000E+00 -0.45593999997E+02  0.45594000000E+02  0.51100000000E-03 0. -1.
    9900012    2    1    2    0    0  0.14082860645E+02 -0.75873446432E+01 -0.42109603011E+02  0.46142318426E+02  0.10000006066E+02 0.  0.
        -12    1    1    2    0    0 -0.14082860645E+02  0.75873446432E+01  0.42109603011E+02  0.45045681574E+02  0.00000000000E+00 0.  1.
         11    1    3    3    0    0  0.56422622282E+01 -0.27615204844E+01 -0.11306561574E+02  0.12934428991E+02  0.51100000000E-03 0. -1.
        -11    1    3    3    0    0  0.98861790334E+01 -0.38217941686E+01 -0.25308879428E+02  0.27438695754E+02  0.51100000000E-03 0.  1.
        -12    1    3    3    0    0 -0.14455806170E+01 -0.10040299902E+01 -0.54941620093E+01  0.57691936808E+01  0.00000000000E+00 0.  1.
</event>
<event>
 7    1  0.4141894E-008  0.4614232E+02  0.7816164E-02  0.1320468E+00
        -11   -1    0    0    0    0  0.00000000000E+00  0.00000000000E+00  0.45593999997E+02  0.45594000000E+02  0.51100000000E-03 0.  1.
         11   -1    0    0    0    0 -0.00000000000E+00 -0.00000000000E+00 -0.45593999997E+02  0.45594000000E+02  0.51100000000E-03 0. -1.
    9900012    2    1    2    0    0  0.22850581525E+02 -0.31303615688E+02 -0.22957527673E+02  0.46142317543E+02  0.99999980107E+01 0.  0.
        -12    1    1    2    0    0 -0.22850581525E+02  0.31303615688E+02  0.22957527673E+02  0.45045682457E+02  0.00000000000E+00 0.  1.
         11    1    3    3    0    0  0.21510823120E+01 -0.47753785490E+01 -0.35131357772E+01  0.63066249809E+01  0.51100000000E-03 0. -1.
        -11    1    3    3    0    0  0.10158688260E+02 -0.63256234423E+01 -0.61706935678E+01  0.13464394471E+02  0.51100000000E-03 0.  1.
        -12    1    3    3    0    0  0.10540810954E+02 -0.20202613696E+02 -0.13273698328E+02  0.26371298091E+02  0.00000000000E+00 0.  1.
</event>
<event>
 7    1  0.4141894E-008  0.4614232E+02  0.7816164E-02  0.1320468E+00
        -11   -1    0    0    0    0  0.00000000000E+00  0.00000000000E+00  0.45593999997E+02  0.45594000000E+02  0.51100000000E-03 0. -1.
         11   -1    0    0    0    0 -0.00000000000E+00 -0.00000000000E+00 -0.45593999997E+02  0.45594000000E+02  0.51100000000E-03 0.  1.
    9900012    2    1    2    0    0 -0.13723337228E+02 -0.42787041929E+02  0.31705421130E+01  0.46142320085E+02  0.10000021193E+02 0.  0.
        -12    1    1    2    0    0  0.13723337228E+02  0.42787041929E+02 -0.31705421130E+01  0.45045679915E+02  0.00000000000E+00 0.  1.
         11    1    3    3    0    0 -0.13990817814E+02 -0.37769985593E+02  0.27450424802E+01  0.40371401428E+02  0.51100000000E-03 0. -1.
        -11    1    3    3    0    0  0.43170620196E+00  0.15374014871E+00 -0.29877982196E+00  0.54706116776E+00  0.51100000000E-03 0.  1.
         12    1    3    3    0    0 -0.16422561548E+00 -0.51707964847E+01  0.72427945478E+00  0.52238574892E+01  0.00000000000E+00 0. -1.
</event>
<event>
 7    1  0.4141894E-008  0.4614232E+02  0.7816164E-02  0.1320468E+00
        -11   -1    0    0    0    0  0.00000000000E+00  0.00000000000E+00  0.45593999997E+02  0.45594000000E+02  0.51100000000E-03 0. -1.
         11   -1    0    0    0    0 -0.00000000000E+00 -0.00000000000E+00 -0.45593999997E+02  0.45594000000E+02  0.51100000000E-03 0.  1.
    9900012    2    1    2    0    0 -0.42572139793E+02  0.12945371630E+02 -0.70102495235E+01  0.46142319502E+02  0.10000015873E+02 0.  0.
        -12    1    1    2    0    0  0.42572139793E+02 -0.12945371630E+02  0.70102495235E+01  0.45045680498E+02  0.00000000000E+00 0.  1.
         11    1    3    3    0    0 -0.15734219496E+02  0.65155271434E+01 -0.24385468526E+01  0.17203612066E+02  0.51100000000E-03 0. -1.
        -11    1    3    3    0    0 -0.16054622047E+02  0.75180783257E+01 -0.24745476754E+01  0.17899602712E+02  0.51100000000E-03 0.  1.
        -12    1    3    3    0    0 -0.10783298250E+02 -0.10882338390E+01 -0.20971549955E+01  0.11039104724E+02  0.00000000000E+00 0.  1.
</event>
<event>
 7    1  0.4141894E-008  0.4614232E+02  0.7816164E-02  0.1320468E+00
        -11   -1    0    0    0    0  0.00000000000E+00  0.00000000000E+00  0.45593999997E+02  0.45594000000E+02  0.51100000000E-03 0.  1.
         11   -1    0    0    0    0 -0.00000000000E+00 -0.00000000000E+00 -0.45593999997E+02  0.45594000000E+02  0.51100000000E-03 0. -1.
    9900012    2    1    2    0    0  0.12870116403E+02 -0.42978279908E+02 -0.40423967570E+01  0.46142318613E+02  0.10000007769E+02 0.  0.
        -12    1    1    2    0    0 -0.12870116403E+02  0.42978279908E+02  0.40423967570E+01  0.45045681387E+02  0.00000000000E+00 0.  1.
         11    1    3    3    0    0  0.37851504874E+01 -0.20614953686E+02 -0.60460235115E+00  0.20968290916E+02  0.51100000000E-03 0. -1.
        -11    1    3    3    0    0  0.67746398125E+01 -0.18132157570E+02 -0.18293009976E+00  0.19357281483E+02  0.51100000000E-03 0.  1.
        -12    1    3    3    0    0  0.23103261028E+01 -0.42311686520E+01 -0.32548643061E+01  0.58167462136E+01  0.00000000000E+00 0.  1.
</event>
<event>
 7    1  0.4141894E-008  0.4614232E+02  0.7816164E-02  0.1320468E+00
        -11   -1    0    0    0    0  0.00000000000E+00  0.00000000000E+00  0.45593999997E+02  0.45594000000E+02  0.51100000000E-03 0.  1.
         11   -1    0    0    0    0 -0.00000000000E+00 -0.00000000000E+00 -0.45593999997E+02  0.45594000000E+02  0.51100000000E-03 0. -1.
    9900012    2    1    2    0    0 -0.17921709641E+02 -0.52464927379E+01 -0.40992682815E+02  0.46142318666E+02  0.10000008253E+02 0.  0.
        -12    1    1    2    0    0  0.17921709641E+02  0.52464927379E+01  0.40992682815E+02  0.45045681334E+02  0.00000000000E+00 0.  1.
         11    1    3    3    0    0 -0.24118115252E+01 -0.18177953871E+01 -0.29054497713E+01  0.41908058339E+01  0.51100000000E-03 0. -1.
        -11    1    3    3    0    0 -0.23715809513E+00  0.15130115717E+01 -0.35370996130E+01  0.38544158976E+01  0.51100000000E-03 0.  1.
         12    1    3    3    0    0 -0.15272740020E+02 -0.49417089226E+01 -0.34550133430E+02  0.38097096935E+02  0.00000000000E+00 0. -1.
</event>
<event>
 7    1  0.4141894E-008  0.4614232E+02  0.7816164E-02  0.1320468E+00
        -11   -1    0    0    0    0  0.00000000000E+00  0.00000000000E+00  0.45593999997E+02  0.45594000000E+02  0.51100000000E-03 0.  1.
         11   -1    0    0    0    0 -0.00000000000E+00 -0.00000000000E+00 -0.45593999997E+02  0.45594000000E+02  0.51100000000E-03 0. -1.
    9900012    2    1    2    0    0 -0.17528249660E+02  0.93845815110E+00 -0.41484855945E+02  0.46142317492E+02  0.99999975430E+01 0.  0.
        -12    1    1    2    0    0  0.17528249660E+02 -0.93845815110E+00  0.41484855945E+02  0.45045682508E+02  0.00000000000E+00 0.  1.
         11    1    3    3    0    0 -0.37490790732E+01 -0.87350308483E+00 -0.58411250056E+01  0.69955230775E+01  0.51100000000E-03 0. -1.
        -11    1    3    3    0    0 -0.11676995330E+02 -0.16492298843E+01 -0.29690493103E+02  0.31946792641E+02  0.51100000000E-03 0.  1.
         12    1    3    3    0    0 -0.21021752575E+01  0.34611911202E+01 -0.59532378370E+01  0.72000017727E+01  0.00000000000E+00 0. -1.
</event>
<event>
 7    1  0.4141894E-008  0.4614232E+02  0.7816164E-02  0.1320468E+00
        -11   -1    0    0    0    0  0.00000000000E+00  0.00000000000E+00  0.45593999997E+02  0.45594000000E+02  0.51100000000E-03 0. -1.
         11   -1    0    0    0    0 -0.00000000000E+00 -0.00000000000E+00 -0.45593999997E+02  0.45594000000E+02  0.51100000000E-03 0.  1.
    9900012    2    1    2    0    0 -0.40555269300E+02 -0.50010502410E+01  0.18957140301E+02  0.46142317189E+02  0.99999947851E+01 0.  0.
        -12    1    1    2    0    0  0.40555269300E+02  0.50010502410E+01 -0.18957140301E+02  0.45045682811E+02  0.00000000000E+00 0.  1.
         11    1    3    3    0    0 -0.83998122420E+01  0.16190032540E+01  0.41116711146E+01  0.94912515958E+01  0.51100000000E-03 0.  1.
        -11    1    3    3    0    0 -0.16393550952E+02 -0.67647747071E+01  0.73524049608E+01  0.19198139197E+02  0.51100000000E-03 0. -1.
         12    1    3    3    0    0 -0.15761906105E+02  0.14472121204E+00  0.74930642257E+01  0.17452926396E+02  0.00000000000E+00 0. -1.
</event>
<event>
 7    1  0.4141894E-008  0.4614232E+02  0.7816164E-02  0.1320468E+00
        -11   -1    0    0    0    0  0.00000000000E+00  0.00000000000E+00  0.45593999997E+02  0.45594000000E+02  0.51100000000E-03 0. -1.
         11   -1    0    0    0    0 -0.00000000000E+00 -0.00000000000E+00 -0.45593999997E+02  0.45594000000E+02  0.51100000000E-03 0.  1.
    9900012    2    1    2    0    0  0.47949514831E+01  0.33938221104E+02  0.29228736524E+02  0.46142318185E+02  0.10000003861E+02 0.  0.
        -12    1    1    2    0    0 -0.47949514831E+01 -0.33938221104E+02 -0.29228736524E+02  0.45045681815E+02  0.00000000000E+00 0.  1.
         11    1    3    3    0    0 -0.20997931034E+01  0.34446045159E+01  0.24000060494E+01  0.46940878396E+01  0.51100000000E-03 0. -1.
        -11    1    3    3    0    0  0.18485126298E+01  0.13742238401E+02  0.93895223675E+01  0.16746021789E+02  0.51100000000E-03 0.  1.
         12    1    3    3    0    0  0.50462319567E+01  0.16751378187E+02  0.17439208107E+02  0.24702208556E+02  0.00000000000E+00 0. -1.
</event>
<event>
 7    1  0.4141894E-008  0.4614232E+02  0.7816164E-02  0.1320468E+00
        -11   -1    0    0    0    0  0.00000000000E+00  0.00000000000E+00  0.45593999997E+02  0.45594000000E+02  0.51100000000E-03 0.  1.
         11   -1    0    0    0    0 -0.00000000000E+00 -0.00000000000E+00 -0.45593999997E+02  0.45594000000E+02  0.51100000000E-03 0. -1.
    9900012    2    1    2    0    0  0.26190502168E+02  0.98723092705E+01 -0.35294592783E+02  0.46142321252E+02  0.10000031832E+02 0.  0.
        -12    1    1    2    0    0 -0.26190502168E+02 -0.98723092705E+01  0.35294592783E+02  0.45045678748E+02  0.00000000000E+00 0.  1.
         11    1    3    3    0    0  0.19565331691E+02  0.73295012999E+01 -0.30147944261E+02  0.36679999140E+02  0.51100000000E-03 0. -1.
        -11    1    3    3    0    0  0.30367488009E+01  0.47806637503E+00 -0.42180503814E+01  0.52194195099E+01  0.51100000000E-03 0.  1.
        -12    1    3    3    0    0  0.35884216764E+01  0.20647415955E+01 -0.92859814057E+00  0.42429026020E+01  0.00000000000E+00 0.  1.
</event>
<event>
 7    1  0.4141894E-008  0.4614231E+02  0.7816164E-02  0.1320468E+00
        -11   -1    0    0    0    0  0.00000000000E+00  0.00000000000E+00  0.45593999997E+02  0.45594000000E+02  0.51100000000E-03 0.  1.
         11   -1    0    0    0    0 -0.00000000000E+00 -0.00000000000E+00 -0.45593999997E+02  0.45594000000E+02  0.51100000000E-03 0. -1.
    9900012    2    1    2    0    0 -0.17272690446E+01 -0.30967331199E+01 -0.44905907901E+02  0.46142314538E+02  0.99999706090E+01 0.  0.
        -12    1    1    2    0    0  0.17272690446E+01  0.30967331199E+01  0.44905907901E+02  0.45045685462E+02  0.00000000000E+00 0.  1.
         11    1    3    3    0    0 -0.38624851566E-01  0.18193189703E+01 -0.52112324547E+01  0.55198149746E+01  0.51100000000E-03 0. -1.
        -11    1    3    3    0    0  0.10690081238E+01 -0.33007164828E+01 -0.74324737408E+01  0.82023883008E+01  0.51100000000E-03 0.  1.
         12    1    3    3    0    0 -0.27576523168E+01 -0.16153356074E+01 -0.32262201705E+02  0.32420111263E+02  0.00000000000E+00 0. -1.
</event>
<event>
 7    1  0.4141894E-008  0.4614232E+02  0.7816164E-02  0.1320468E+00
        -11   -1    0    0    0    0  0.00000000000E+00  0.00000000000E+00  0.45593999997E+02  0.45594000000E+02  0.51100000000E-03 0. -1.
         11   -1    0    0    0    0 -0.00000000000E+00 -0.00000000000E+00 -0.45593999997E+02  0.45594000000E+02  0.51100000000E-03 0.  1.
    9900012    2    1    2    0    0 -0.41193320215E+02  0.39643296799E+01  0.17790671425E+02  0.46142317300E+02  0.99999957956E+01 0.  0.
        -12    1    1    2    0    0  0.41193320215E+02 -0.39643296799E+01 -0.17790671425E+02  0.45045682700E+02  0.00000000000E+00 0.  1.
         11    1    3    3    0    0 -0.99707658617E+01 -0.10132386916E+00  0.66352114758E+01  0.11977164522E+02  0.51100000000E-03 0. -1.
        -11    1    3    3    0    0 -0.21274682119E+02  0.34768964399E+01  0.40701745042E+01  0.21937803647E+02  0.51100000000E-03 0.  1.
        -12    1    3    3    0    0 -0.99478722347E+01  0.58875710918E+00  0.70852854455E+01  0.12227349131E+02  0.00000000000E+00 0.  1.
</event>
<event>
 7    1  0.4141894E-008  0.4614232E+02  0.7816164E-02  0.1320468E+00
        -11   -1    0    0    0    0  0.00000000000E+00  0.00000000000E+00  0.45593999997E+02  0.45594000000E+02  0.51100000000E-03 0. -1.
         11   -1    0    0    0    0 -0.00000000000E+00 -0.00000000000E+00 -0.45593999997E+02  0.45594000000E+02  0.51100000000E-03 0.  1.
    9900012    2    1    2    0    0  0.22129499816E+02  0.10733645846E+01  0.39220487470E+02  0.46142317510E+02  0.99999977070E+01 0.  0.
        -12    1    1    2    0    0 -0.22129499816E+02 -0.10733645846E+01 -0.39220487470E+02  0.45045682490E+02  0.00000000000E+00 0.  1.
         11    1    3    3    0    0  0.64103429524E+01  0.22773824923E+01  0.67250716568E+01  0.95658536908E+01  0.51100000000E-03 0. -1.
        -11    1    3    3    0    0  0.11100863398E+02 -0.39950206686E+00  0.16366252427E+02  0.19779863216E+02  0.51100000000E-03 0.  1.
        -12    1    3    3    0    0  0.46182934657E+01 -0.80451584087E+00  0.16129163386E+02  0.16796600603E+02  0.00000000000E+00 0.  1.
</event>
<event>
 7    1  0.4141894E-008  0.4614232E+02  0.7816164E-02  0.1320468E+00
        -11   -1    0    0    0    0  0.00000000000E+00  0.00000000000E+00  0.45593999997E+02  0.45594000000E+02  0.51100000000E-03 0.  1.
         11   -1    0    0    0    0 -0.00000000000E+00 -0.00000000000E+00 -0.45593999997E+02  0.45594000000E+02  0.51100000000E-03 0. -1.
    9900012    2    1    2    0    0 -0.34628315747E+02 -0.92776252047E+01 -0.27274878745E+02  0.46142316617E+02  0.99999895689E+01 0.  0.
        -12    1    1    2    0    0  0.34628315747E+02  0.92776252047E+01  0.27274878745E+02  0.45045683383E+02  0.00000000000E+00 0.  1.
         11    1    3    3    0    0 -0.77744896320E+01 -0.81080270914E-01 -0.20560018932E+01  0.80421643290E+01  0.51100000000E-03 0.  1.
        -11    1    3    3    0    0 -0.14945772037E+02 -0.66242057814E+01 -0.13604280234E+02  0.21268113338E+02  0.51100000000E-03 0. -1.
        -12    1    3    3    0    0 -0.11908054078E+02 -0.25723391524E+01 -0.11614596618E+02  0.16832038950E+02  0.00000000000E+00 0.  1.
</event>
<event>
 7    1  0.4141894E-008  0.4614232E+02  0.7816164E-02  0.1320468E+00
        -11   -1    0    0    0    0  0.00000000000E+00  0.00000000000E+00  0.45593999997E+02  0.45594000000E+02  0.51100000000E-03 0.  1.
         11   -1    0    0    0    0 -0.00000000000E+00 -0.00000000000E+00 -0.45593999997E+02  0.45594000000E+02  0.51100000000E-03 0. -1.
    9900012    2    1    2    0    0 -0.25248942417E+02  0.36722563962E+02 -0.65618368922E+01  0.46142317626E+02  0.99999987687E+01 0.  0.
        -12    1    1    2    0    0  0.25248942417E+02 -0.36722563962E+02  0.65618368922E+01  0.45045682374E+02  0.00000000000E+00 0.  1.
         11    1    3    3    0    0 -0.15201733528E+02  0.21241735076E+02  0.57988089070E+00  0.26127385507E+02  0.51100000000E-03 0. -1.
        -11    1    3    3    0    0  0.19043976911E+00  0.61346600030E+00 -0.32047400917E+00  0.71785213718E+00  0.51100000000E-03 0.  1.
         12    1    3    3    0    0 -0.10237648658E+02  0.14867362886E+02 -0.68212437737E+01  0.19297079982E+02  0.00000000000E+00 0. -1.
</event>
<event>
 7    1  0.4141894E-008  0.4614232E+02  0.7816164E-02  0.1320468E+00
        -11   -1    0    0    0    0  0.00000000000E+00  0.00000000000E+00  0.45593999997E+02  0.45594000000E+02  0.51100000000E-03 0.  1.
         11   -1    0    0    0    0 -0.00000000000E+00 -0.00000000000E+00 -0.45593999997E+02  0.45594000000E+02  0.51100000000E-03 0. -1.
    9900012    2    1    2    0    0 -0.22389338107E+02  0.19458609646E+02 -0.33899757006E+02  0.46142317907E+02  0.10000001327E+02 0.  0.
        -12    1    1    2    0    0  0.22389338107E+02 -0.19458609646E+02  0.33899757006E+02  0.45045682093E+02  0.00000000000E+00 0.  1.
         11    1    3    3    0    0 -0.13200102031E+02  0.67323868843E+01 -0.13468550973E+02  0.20024225137E+02  0.51100000000E-03 0. -1.
        -11    1    3    3    0    0 -0.16560775857E+01  0.30734850517E+01 -0.21016249139E+01  0.40750129905E+01  0.51100000000E-03 0.  1.
         12    1    3    3    0    0 -0.75331584907E+01  0.96527377096E+01 -0.18329581119E+02  0.22043079779E+02  0.00000000000E+00 0. -1.
</event>
<event>
 7    1  0.4141894E-008  0.4614232E+02  0.7816164E-02  0.1320468E+00
        -11   -1    0    0    0    0  0.00000000000E+00  0.00000000000E+00  0.45593999997E+02  0.45594000000E+02  0.51100000000E-03 0.  1.
         11   -1    0    0    0    0 -0.00000000000E+00 -0.00000000000E+00 -0.45593999997E+02  0.45594000000E+02  0.51100000000E-03 0. -1.
    9900012    2    1    2    0    0  0.21685168621E+02  0.15763771583E+02 -0.36199039248E+02  0.46142317909E+02  0.10000001344E+02 0.  0.
        -12    1    1    2    0    0 -0.21685168621E+02 -0.15763771583E+02  0.36199039248E+02  0.45045682091E+02  0.00000000000E+00 0.  1.
         11    1    3    3    0    0  0.61474444038E+01  0.30011475714E+01 -0.13332533942E+02  0.14985140007E+02  0.51100000000E-03 0. -1.
        -11    1    3    3    0    0  0.17705722353E+01  0.18587746269E+01 -0.71229564265E+01  0.75714250752E+01  0.51100000000E-03 0.  1.
         12    1    3    3    0    0  0.13767151982E+02  0.10903849384E+02 -0.15743548879E+02  0.23585752826E+02  0.00000000000E+00 0. -1.
</event>
<event>
 7    1  0.4141894E-008  0.4614232E+02  0.7816164E-02  0.1320468E+00
        -11   -1    0    0    0    0  0.00000000000E+00  0.00000000000E+00  0.45593999997E+02  0.45594000000E+02  0.51100000000E-03 0. -1.
         11   -1    0    0    0    0 -0.00000000000E+00 -0.00000000000E+00 -0.45593999997E+02  0.45594000000E+02  0.51100000000E-03 0.  1.
    9900012    2    1    2    0    0  0.16801486793E+02  0.15942428886E+02  0.38634990165E+02  0.46142318050E+02  0.10000002638E+02 0.  0.
        -12    1    1    2    0    0 -0.16801486793E+02 -0.15942428886E+02 -0.38634990165E+02  0.45045681950E+02  0.00000000000E+00 0.  1.
         11    1    3    3    0    0  0.98427729831E+00  0.40370537010E+00  0.21935930261E+00  0.10862313707E+01  0.51100000000E-03 0. -1.
        -11    1    3    3    0    0  0.27317160617E+01  0.45368688806E+01  0.40292666370E+01  0.66543550983E+01  0.51100000000E-03 0.  1.
         12    1    3    3    0    0  0.13085493433E+02  0.11001854636E+02  0.34386364225E+02  0.38401731581E+02  0.00000000000E+00 0. -1.
</event>
<event>
 7    1  0.4141894E-008  0.4614232E+02  0.7816164E-02  0.1320468E+00
        -11   -1    0    0    0    0  0.00000000000E+00  0.00000000000E+00  0.45593999997E+02  0.45594000000E+02  0.51100000000E-03 0. -1.
         11   -1    0    0    0    0 -0.00000000000E+00 -0.00000000000E+00 -0.45593999997E+02  0.45594000000E+02  0.51100000000E-03 0.  1.
    9900012    2    1    2    0    0 -0.30952376868E+02 -0.15663188614E+02  0.28735489947E+02  0.46142317700E+02  0.99999994471E+01 0.  0.
        -12    1    1    2    0    0  0.30952376868E+02  0.15663188614E+02 -0.28735489947E+02  0.45045682300E+02  0.00000000000E+00 0.  1.
         11    1    3    3    0    0 -0.55167185236E+00 -0.91285698193E+00  0.16022577245E+01  0.19248064264E+01  0.51100000000E-03 0. -1.
        -11    1    3    3    0    0 -0.15608923256E+02 -0.73176428608E+01  0.82690346014E+01  0.19119710138E+02  0.51100000000E-03 0.  1.
        -12    1    3    3    0    0 -0.14791781760E+02 -0.74326887711E+01  0.18864197621E+02  0.25097801136E+02  0.00000000000E+00 0.  1.
</event>
<event>
 7    1  0.4141894E-008  0.4614232E+02  0.7816164E-02  0.1320468E+00
        -11   -1    0    0    0    0  0.00000000000E+00  0.00000000000E+00  0.45593999997E+02  0.45594000000E+02  0.51100000000E-03 0.  1.
         11   -1    0    0    0    0 -0.00000000000E+00 -0.00000000000E+00 -0.45593999997E+02  0.45594000000E+02  0.51100000000E-03 0. -1.
    9900012    2    1    2    0    0  0.42382202818E+02  0.75672189655E+01  0.13251400806E+02  0.46142317167E+02  0.99999945813E+01 0.  0.
        -12    1    1    2    0    0 -0.42382202818E+02 -0.75672189655E+01 -0.13251400806E+02  0.45045682833E+02  0.00000000000E+00 0.  1.
         11    1    3    3    0    0  0.80710744419E+01  0.35254874261E+01  0.10233830853E+01  0.88667140158E+01  0.51100000000E-03 0. -1.
        -11    1    3    3    0    0  0.11902075183E+02  0.35314592168E+01  0.17678180123E+01  0.12540166612E+02  0.51100000000E-03 0.  1.
        -12    1    3    3    0    0  0.22409053193E+02  0.51027232262E+00  0.10460199708E+02  0.24735436539E+02  0.00000000000E+00 0.  1.
</event>
<event>
 7    1  0.4141894E-008  0.4614232E+02  0.7816164E-02  0.1320468E+00
        -11   -1    0    0    0    0  0.00000000000E+00  0.00000000000E+00  0.45593999997E+02  0.45594000000E+02  0.51100000000E-03 0.  1.
         11   -1    0    0    0    0 -0.00000000000E+00 -0.00000000000E+00 -0.45593999997E+02  0.45594000000E+02  0.51100000000E-03 0. -1.
    9900012    2    1    2    0    0  0.18562403791E+02  0.37181995683E+01 -0.40874508759E+02  0.46142319754E+02  0.10000018172E+02 0.  0.
        -12    1    1    2    0    0 -0.18562403791E+02 -0.37181995683E+01  0.40874508759E+02  0.45045680246E+02  0.00000000000E+00 0.  1.
         11    1    3    3    0    0  0.40638948504E+01  0.24271314703E+00 -0.11619115208E+02  0.12311701324E+02  0.51100000000E-03 0. -1.
        -11    1    3    3    0    0  0.66284541035E+01  0.12870921515E+01 -0.54961525573E+01  0.87063599284E+01  0.51100000000E-03 0.  1.
        -12    1    3    3    0    0  0.78700548374E+01  0.21883942697E+01 -0.23759240994E+02  0.25124258501E+02  0.00000000000E+00 0.  1.
</event>
<event>
 7    1  0.4141894E-008  0.4614232E+02  0.7816164E-02  0.1320468E+00
        -11   -1    0    0    0    0  0.00000000000E+00  0.00000000000E+00  0.45593999997E+02  0.45594000000E+02  0.51100000000E-03 0.  1.
         11   -1    0    0    0    0 -0.00000000000E+00 -0.00000000000E+00 -0.45593999997E+02  0.45594000000E+02  0.51100000000E-03 0. -1.
    9900012    2    1    2    0    0 -0.31839008782E+01 -0.42974312725E+02 -0.13121917002E+02  0.46142317801E+02  0.10000000363E+02 0.  0.
        -12    1    1    2    0    0  0.31839008782E+01  0.42974312725E+02  0.13121917002E+02  0.45045682199E+02  0.00000000000E+00 0.  1.
         11    1    3    3    0    0 -0.28654998485E+01 -0.34024687790E+02 -0.10690260641E+02  0.35779493308E+02  0.51100000000E-03 0. -1.
        -11    1    3    3    0    0 -0.21495966535E+01 -0.64087386884E+01 -0.25601085043E+01  0.72281984729E+01  0.51100000000E-03 0.  1.
        -12    1    3    3    0    0  0.18311956238E+01 -0.25408862469E+01  0.12845214298E+00  0.31346260200E+01  0.00000000000E+00 0.  1.
</event>
<event>
 7    1  0.4141894E-008  0.4614232E+02  0.7816164E-02  0.1320468E+00
        -11   -1    0    0    0    0  0.00000000000E+00  0.00000000000E+00  0.45593999997E+02  0.45594000000E+02  0.51100000000E-03 0.  1.
         11   -1    0    0    0    0 -0.00000000000E+00 -0.00000000000E+00 -0.45593999997E+02  0.45594000000E+02  0.51100000000E-03 0. -1.
    9900012    2    1    2    0    0  0.37173179542E+02 -0.69233860816E+01 -0.24481317461E+02  0.46142318113E+02  0.10000003205E+02 0.  0.
        -12    1    1    2    0    0 -0.37173179542E+02  0.69233860816E+01  0.24481317461E+02  0.45045681887E+02  0.00000000000E+00 0.  1.
         11    1    3    3    0    0  0.18519016608E+02 -0.31818860519E+01 -0.14567514978E+02  0.23775846312E+02  0.51100000000E-03 0. -1.
        -11    1    3    3    0    0  0.15825061296E+02 -0.54270932120E+01 -0.78490790901E+01  0.18479554880E+02  0.51100000000E-03 0.  1.
        -12    1    3    3    0    0  0.28291016380E+01  0.16855931824E+01 -0.20647233931E+01  0.38869169202E+01  0.00000000000E+00 0.  1.
</event>
<event>
 7    1  0.4141894E-008  0.4614232E+02  0.7816164E-02  0.1320468E+00
        -11   -1    0    0    0    0  0.00000000000E+00  0.00000000000E+00  0.45593999997E+02  0.45594000000E+02  0.51100000000E-03 0.  1.
         11   -1    0    0    0    0 -0.00000000000E+00 -0.00000000000E+00 -0.45593999997E+02  0.45594000000E+02  0.51100000000E-03 0. -1.
    9900012    2    1    2    0    0 -0.27683295410E+02 -0.35185019629E+02  0.49762482788E+01  0.46142317654E+02  0.99999990232E+01 0.  0.
        -12    1    1    2    0    0  0.27683295410E+02  0.35185019629E+02 -0.49762482788E+01  0.45045682346E+02  0.00000000000E+00 0.  1.
         11    1    3    3    0    0 -0.25511751609E+02 -0.28952341692E+02  0.57462646802E+01  0.39014191234E+02  0.51100000000E-03 0. -1.
        -11    1    3    3    0    0 -0.23141572633E+01 -0.36963280534E+01 -0.12633988060E+01  0.45403019417E+01  0.51100000000E-03 0.  1.
        -12    1    3    3    0    0  0.14261346208E+00 -0.25363498838E+01  0.49338240457E+00  0.25878244782E+01  0.00000000000E+00 0.  1.
</event>
<event>
 7    1  0.4141894E-008  0.4614232E+02  0.7816164E-02  0.1320468E+00
        -11   -1    0    0    0    0  0.00000000000E+00  0.00000000000E+00  0.45593999997E+02  0.45594000000E+02  0.51100000000E-03 0.  1.
         11   -1    0    0    0    0 -0.00000000000E+00 -0.00000000000E+00 -0.45593999997E+02  0.45594000000E+02  0.51100000000E-03 0. -1.
    9900012    2    1    2    0    0  0.24291051289E+02  0.22704214932E+02 -0.30390408612E+02  0.46142317810E+02  0.10000000443E+02 0.  0.
        -12    1    1    2    0    0 -0.24291051289E+02 -0.22704214932E+02  0.30390408612E+02  0.45045682190E+02  0.00000000000E+00 0.  1.
         11    1    3    3    0    0  0.29749999301E+01  0.44339667249E+00 -0.34337207802E+01  0.45648290056E+01  0.51100000000E-03 0. -1.
        -11    1    3    3    0    0  0.88992047719E+01  0.68132659229E+01 -0.59206485559E+01  0.12675587469E+02  0.51100000000E-03 0.  1.
         12    1    3    3    0    0  0.12416846587E+02  0.15447552336E+02 -0.21036039276E+02  0.28901901335E+02  0.00000000000E+00 0. -1.
</event>
<event>
 7    1  0.4141894E-008  0.4614232E+02  0.7816164E-02  0.1320468E+00
        -11   -1    0    0    0    0  0.00000000000E+00  0.00000000000E+00  0.45593999997E+02  0.45594000000E+02  0.51100000000E-03 0. -1.
         11   -1    0    0    0    0 -0.00000000000E+00 -0.00000000000E+00 -0.45593999997E+02  0.45594000000E+02  0.51100000000E-03 0.  1.
    9900012    2    1    2    0    0  0.25191131940E+02  0.25022020870E+02  0.27720368810E+02  0.46142317590E+02  0.99999984362E+01 0.  0.
        -12    1    1    2    0    0 -0.25191131940E+02 -0.25022020870E+02 -0.27720368810E+02  0.45045682410E+02  0.00000000000E+00 0.  1.
         11    1    3    3    0    0  0.14324693613E+02  0.14645284575E+02  0.20126415173E+02  0.28718527041E+02  0.51100000000E-03 0. -1.
        -11    1    3    3    0    0  0.34902853603E+01  0.26551848313E+01  0.45512346934E+01  0.63202718201E+01  0.51100000000E-03 0.  1.
        -12    1    3    3    0    0  0.73761529673E+01  0.77215514630E+01  0.30427189436E+01  0.11103518729E+02  0.00000000000E+00 0.  1.
</event>
<event>
 7    1  0.4141894E-008  0.4614232E+02  0.7816164E-02  0.1320468E+00
        -11   -1    0    0    0    0  0.00000000000E+00  0.00000000000E+00  0.45593999997E+02  0.45594000000E+02  0.51100000000E-03 0. -1.
         11   -1    0    0    0    0 -0.00000000000E+00 -0.00000000000E+00 -0.45593999997E+02  0.45594000000E+02  0.51100000000E-03 0.  1.
    9900012    2    1    2    0    0 -0.13023039973E+02 -0.38972573964E+02  0.18456768413E+02  0.46142318834E+02  0.10000009780E+02 0.  0.
        -12    1    1    2    0    0  0.13023039973E+02  0.38972573964E+02 -0.18456768413E+02  0.45045681166E+02  0.00000000000E+00 0.  1.
         11    1    3    3    0    0  0.28069614874E+00 -0.17384336190E+01 -0.22808940754E+00  0.17756595435E+01  0.51100000000E-03 0.  1.
        -11    1    3    3    0    0 -0.61069737105E+01 -0.20033897978E+02  0.58997362471E+01  0.21759114967E+02  0.51100000000E-03 0. -1.
         12    1    3    3    0    0 -0.71967624112E+01 -0.17200242367E+02  0.12785121574E+02  0.22607544323E+02  0.00000000000E+00 0. -1.
</event>
<event>
 7    1  0.4141894E-008  0.4614232E+02  0.7816164E-02  0.1320468E+00
        -11   -1    0    0    0    0  0.00000000000E+00  0.00000000000E+00  0.45593999997E+02  0.45594000000E+02  0.51100000000E-03 0. -1.
         11   -1    0    0    0    0 -0.00000000000E+00 -0.00000000000E+00 -0.45593999997E+02  0.45594000000E+02  0.51100000000E-03 0.  1.
    9900012    2    1    2    0    0 -0.19196921495E+02 -0.13673420435E+02  0.38387878467E+02  0.46142318359E+02  0.10000005453E+02 0.  0.
        -12    1    1    2    0    0  0.19196921495E+02  0.13673420435E+02 -0.38387878467E+02  0.45045681641E+02  0.00000000000E+00 0.  1.
         11    1    3    3    0    0 -0.11416328733E+01 -0.33707976000E+01  0.26365698058E+01  0.44291198538E+01  0.51100000000E-03 0.  1.
        -11    1    3    3    0    0 -0.75029266240E+01 -0.65141367305E+01  0.13130169281E+02  0.16466002274E+02  0.51100000000E-03 0. -1.
         12    1    3    3    0    0 -0.10552361998E+02 -0.37884861050E+01  0.22621139380E+02  0.25247196232E+02  0.00000000000E+00 0. -1.
</event>
<event>
 7    1  0.4141894E-008  0.4614232E+02  0.7816164E-02  0.1320468E+00
        -11   -1    0    0    0    0  0.00000000000E+00  0.00000000000E+00  0.45593999997E+02  0.45594000000E+02  0.51100000000E-03 0.  1.
         11   -1    0    0    0    0 -0.00000000000E+00 -0.00000000000E+00 -0.45593999997E+02  0.45594000000E+02  0.51100000000E-03 0. -1.
    9900012    2    1    2    0    0  0.26571349408E+02  0.12634011791E+02 -0.34109509360E+02  0.46142317720E+02  0.99999996261E+01 0.  0.
        -12    1    1    2    0    0 -0.26571349408E+02 -0.12634011791E+02  0.34109509360E+02  0.45045682280E+02  0.00000000000E+00 0.  1.
         11    1    3    3    0    0  0.33422970816E+01  0.82534873660E+00 -0.76245297595E+00  0.35261147345E+01  0.51100000000E-03 0. -1.
        -11    1    3    3    0    0  0.15084811553E+01  0.23893267511E+01 -0.29182122853E+01  0.40620636286E+01  0.51100000000E-03 0.  1.
         12    1    3    3    0    0  0.21720571171E+02  0.94193363032E+01 -0.30428844099E+02  0.38554139357E+02  0.00000000000E+00 0. -1.
</event>
<event>
 7    1  0.4141894E-008  0.4614232E+02  0.7816164E-02  0.1320468E+00
        -11   -1    0    0    0    0  0.00000000000E+00  0.00000000000E+00  0.45593999997E+02  0.45594000000E+02  0.51100000000E-03 0. -1.
         11   -1    0    0    0    0 -0.00000000000E+00 -0.00000000000E+00 -0.45593999997E+02  0.45594000000E+02  0.51100000000E-03 0.  1.
    9900012    2    1    2    0    0 -0.28424556343E+02  0.17248006447E+02  0.30391845826E+02  0.46142318494E+02  0.10000006680E+02 0.  0.
        -12    1    1    2    0    0  0.28424556343E+02 -0.17248006447E+02 -0.30391845826E+02  0.45045681506E+02  0.00000000000E+00 0.  1.
         11    1    3    3    0    0 -0.26317824618E+02  0.15126527521E+02  0.25466582297E+02  0.39623055682E+02  0.51100000000E-03 0. -1.
        -11    1    3    3    0    0 -0.13914751081E+01  0.14056088542E+01  0.58496306135E+00  0.20625521258E+01  0.51100000000E-03 0.  1.
         12    1    3    3    0    0 -0.71525661673E+00  0.71587007242E+00  0.43403004673E+01  0.44567106856E+01  0.00000000000E+00 0. -1.
</event>
<event>
 7    1  0.4141894E-008  0.4614232E+02  0.7816164E-02  0.1320468E+00
        -11   -1    0    0    0    0  0.00000000000E+00  0.00000000000E+00  0.45593999997E+02  0.45594000000E+02  0.51100000000E-03 0. -1.
         11   -1    0    0    0    0 -0.00000000000E+00 -0.00000000000E+00 -0.45593999997E+02  0.45594000000E+02  0.51100000000E-03 0.  1.
    9900012    2    1    2    0    0 -0.35466862504E+02 -0.21148343185E+02  0.17998965908E+02  0.46142317309E+02  0.99999958787E+01 0.  0.
        -12    1    1    2    0    0  0.35466862504E+02  0.21148343185E+02 -0.17998965908E+02  0.45045682691E+02  0.00000000000E+00 0.  1.
         11    1    3    3    0    0 -0.99992930122E+01 -0.95759648684E+01  0.50516554710E+01  0.14737848797E+02  0.51100000000E-03 0. -1.
        -11    1    3    3    0    0 -0.25560010140E+02 -0.11457665674E+02  0.13310687530E+02  0.31012362435E+02  0.51100000000E-03 0.  1.
         12    1    3    3    0    0  0.92440648428E-01 -0.11471264279E+00 -0.36337709279E+00  0.39210607679E+00  0.00000000000E+00 0. -1.
</event>
<event>
 7    1  0.4141894E-008  0.4614231E+02  0.7816164E-02  0.1320468E+00
        -11   -1    0    0    0    0  0.00000000000E+00  0.00000000000E+00  0.45593999997E+02  0.45594000000E+02  0.51100000000E-03 0.  1.
         11   -1    0    0    0    0 -0.00000000000E+00 -0.00000000000E+00 -0.45593999997E+02  0.45594000000E+02  0.51100000000E-03 0. -1.
    9900012    2    1    2    0    0  0.26428877340E+02 -0.10293519497E+02 -0.34995309077E+02  0.46142314763E+02  0.99999726577E+01 0.  0.
        -12    1    1    2    0    0 -0.26428877340E+02  0.10293519497E+02  0.34995309077E+02  0.45045685237E+02  0.00000000000E+00 0.  1.
         11    1    3    3    0    0  0.48399299480E+01 -0.16825317655E+01 -0.97097063933E+01  0.10978808385E+02  0.51100000000E-03 0. -1.
        -11    1    3    3    0    0  0.10542923493E+02 -0.57918275137E+00 -0.13387000421E+02  0.17049940439E+02  0.51100000000E-03 0.  1.
        -12    1    3    3    0    0  0.11046023899E+02 -0.80318049801E+01 -0.11898602263E+02  0.18113565939E+02  0.00000000000E+00 0.  1.
</event>
<event>
 7    1  0.4141894E-008  0.4614232E+02  0.7816164E-02  0.1320468E+00
        -11   -1    0    0    0    0  0.00000000000E+00  0.00000000000E+00  0.45593999997E+02  0.45594000000E+02  0.51100000000E-03 0.  1.
         11   -1    0    0    0    0 -0.00000000000E+00 -0.00000000000E+00 -0.45593999997E+02  0.45594000000E+02  0.51100000000E-03 0. -1.
    9900012    2    1    2    0    0 -0.25960366511E+02 -0.34025523407E+02 -0.14051214171E+02  0.46142317719E+02  0.99999996141E+01 0.  0.
        -12    1    1    2    0    0  0.25960366511E+02  0.34025523407E+02  0.14051214171E+02  0.45045682281E+02  0.00000000000E+00 0.  1.
         11    1    3    3    0    0 -0.35423172177E+01 -0.72847269363E+01 -0.14353747237E+01  0.82265155847E+01  0.51100000000E-03 0. -1.
        -11    1    3    3    0    0 -0.10303051209E+02 -0.10243349860E+02 -0.14512842036E+01  0.14600866641E+02  0.51100000000E-03 0.  1.
        -12    1    3    3    0    0 -0.12114998084E+02 -0.16497446611E+02 -0.11164555243E+02  0.23314935493E+02  0.00000000000E+00 0.  1.
</event>
<event>
 7    1  0.4141894E-008  0.4614232E+02  0.7816164E-02  0.1320468E+00
        -11   -1    0    0    0    0  0.00000000000E+00  0.00000000000E+00  0.45593999997E+02  0.45594000000E+02  0.51100000000E-03 0. -1.
         11   -1    0    0    0    0 -0.00000000000E+00 -0.00000000000E+00 -0.45593999997E+02  0.45594000000E+02  0.51100000000E-03 0.  1.
    9900012    2    1    2    0    0 -0.43490458370E+02  0.11421044964E+02  0.26931900510E+01  0.46142317522E+02  0.99999978198E+01 0.  0.
        -12    1    1    2    0    0  0.43490458370E+02 -0.11421044964E+02 -0.26931900510E+01  0.45045682478E+02  0.00000000000E+00 0.  1.
         11    1    3    3    0    0 -0.21811526114E+02  0.48959623253E+01  0.34427185266E+01  0.22617812220E+02  0.51100000000E-03 0. -1.
        -11    1    3    3    0    0 -0.14843340206E+02  0.34534933769E+01  0.23404429032E+01  0.15418464198E+02  0.51100000000E-03 0.  1.
        -12    1    3    3    0    0 -0.68355920498E+01  0.30715892615E+01 -0.30899713788E+01  0.81060411043E+01  0.00000000000E+00 0.  1.
</event>
<event>
 7    1  0.4141894E-008  0.4614231E+02  0.7816164E-02  0.1320468E+00
        -11   -1    0    0    0    0  0.00000000000E+00  0.00000000000E+00  0.45593999997E+02  0.45594000000E+02  0.51100000000E-03 0.  1.
         11   -1    0    0    0    0 -0.00000000000E+00 -0.00000000000E+00 -0.45593999997E+02  0.45594000000E+02  0.51100000000E-03 0. -1.
    9900012    2    1    2    0    0  0.16242968055E+02 -0.37535925226E+02 -0.18876813379E+02  0.46142314555E+02  0.99999707664E+01 0.  0.
        -12    1    1    2    0    0 -0.16242968055E+02  0.37535925226E+02  0.18876813379E+02  0.45045685445E+02  0.00000000000E+00 0.  1.
         11    1    3    3    0    0  0.11890744740E+01 -0.73928639413E+01 -0.25258137762E+01  0.79024091803E+01  0.51100000000E-03 0. -1.
        -11    1    3    3    0    0  0.10263542517E+02 -0.21932201269E+02 -0.15375428591E+02  0.28683890289E+02  0.51100000000E-03 0.  1.
         12    1    3    3    0    0  0.47903510647E+01 -0.82108600157E+01 -0.97557101211E+00  0.95560150858E+01  0.00000000000E+00 0. -1.
</event>
<event>
 7    1  0.4141894E-008  0.4614232E+02  0.7816164E-02  0.1320468E+00
        -11   -1    0    0    0    0  0.00000000000E+00  0.00000000000E+00  0.45593999997E+02  0.45594000000E+02  0.51100000000E-03 0.  1.
         11   -1    0    0    0    0 -0.00000000000E+00 -0.00000000000E+00 -0.45593999997E+02  0.45594000000E+02  0.51100000000E-03 0. -1.
    9900012    2    1    2    0    0  0.39431450274E+02 -0.13226087792E+00 -0.21777435879E+02  0.46142317886E+02  0.10000001141E+02 0.  0.
        -12    1    1    2    0    0 -0.39431450274E+02  0.13226087792E+00  0.21777435879E+02  0.45045682114E+02  0.00000000000E+00 0.  1.
         11    1    3    3    0    0  0.23813227115E+01  0.35603240135E+00  0.99492537716E+00  0.26052511768E+01  0.51100000000E-03 0.  1.
        -11    1    3    3    0    0  0.25858588581E+02 -0.27953389589E+00 -0.14812268319E+02  0.29801812623E+02  0.51100000000E-03 0. -1.
        -12    1    3    3    0    0  0.11191538981E+02 -0.20875938338E+00 -0.79600929376E+01  0.13735254086E+02  0.00000000000E+00 0.  1.
</event>
<event>
 7    1  0.4141894E-008  0.4614232E+02  0.7816164E-02  0.1320468E+00
        -11   -1    0    0    0    0  0.00000000000E+00  0.00000000000E+00  0.45593999997E+02  0.45594000000E+02  0.51100000000E-03 0.  1.
         11   -1    0    0    0    0 -0.00000000000E+00 -0.00000000000E+00 -0.45593999997E+02  0.45594000000E+02  0.51100000000E-03 0. -1.
    9900012    2    1    2    0    0  0.43437396741E+02 -0.11498724736E+02 -0.31757497811E+01  0.46142317711E+02  0.99999995475E+01 0.  0.
        -12    1    1    2    0    0 -0.43437396741E+02  0.11498724736E+02  0.31757497811E+01  0.45045682289E+02  0.00000000000E+00 0.  1.
         11    1    3    3    0    0  0.55318736052E+01  0.74528593576E+00  0.55827065481E+00  0.56097008027E+01  0.51100000000E-03 0.  1.
        -11    1    3    3    0    0  0.21555500345E+02 -0.10249902784E+02 -0.28467880745E+01  0.24037560293E+02  0.51100000000E-03 0. -1.
         12    1    3    3    0    0  0.16350022790E+02 -0.19941078877E+01 -0.88723236145E+00  0.16495056616E+02  0.00000000000E+00 0. -1.
</event>
<event>
 7    1  0.4141894E-008  0.4614232E+02  0.7816164E-02  0.1320468E+00
        -11   -1    0    0    0    0  0.00000000000E+00  0.00000000000E+00  0.45593999997E+02  0.45594000000E+02  0.51100000000E-03 0.  1.
         11   -1    0    0    0    0 -0.00000000000E+00 -0.00000000000E+00 -0.45593999997E+02  0.45594000000E+02  0.51100000000E-03 0. -1.
    9900012    2    1    2    0    0  0.28615385193E+02  0.14128265317E+02 -0.31790961334E+02  0.46142319040E+02  0.10000011664E+02 0.  0.
        -12    1    1    2    0    0 -0.28615385193E+02 -0.14128265317E+02  0.31790961334E+02  0.45045680960E+02  0.00000000000E+00 0.  1.
         11    1    3    3    0    0  0.61966122771E+01  0.59167675094E+01 -0.80009067020E+01  0.11722655407E+02  0.51100000000E-03 0. -1.
        -11    1    3    3    0    0  0.52637445909E+00  0.15960397294E+01 -0.44418484379E+00  0.17383076038E+01  0.51100000000E-03 0.  1.
         12    1    3    3    0    0  0.21892398457E+02  0.66154580787E+01 -0.23345869788E+02  0.32681356030E+02  0.00000000000E+00 0. -1.
</event>
<event>
 7    1  0.4141894E-008  0.4614232E+02  0.7816164E-02  0.1320468E+00
        -11   -1    0    0    0    0  0.00000000000E+00  0.00000000000E+00  0.45593999997E+02  0.45594000000E+02  0.51100000000E-03 0. -1.
         11   -1    0    0    0    0 -0.00000000000E+00 -0.00000000000E+00 -0.45593999997E+02  0.45594000000E+02  0.51100000000E-03 0.  1.
    9900012    2    1    2    0    0 -0.19980654420E+00  0.14526407110E+02  0.42638680087E+02  0.46142318012E+02  0.10000002288E+02 0.  0.
        -12    1    1    2    0    0  0.19980654420E+00 -0.14526407110E+02 -0.42638680087E+02  0.45045681988E+02  0.00000000000E+00 0.  1.
         11    1    3    3    0    0  0.19070832516E+01  0.46182114647E+01  0.16271382553E+02  0.17021243612E+02  0.51100000000E-03 0. -1.
        -11    1    3    3    0    0 -0.27715843796E+01  0.10308913389E+02  0.26248131654E+02  0.28335839335E+02  0.51100000000E-03 0.  1.
        -12    1    3    3    0    0  0.66469458382E+00 -0.40071774429E+00  0.11916588106E+00  0.78523506516E+00  0.00000000000E+00 0.  1.
</event>
<event>
 7    1  0.4141894E-008  0.4614232E+02  0.7816164E-02  0.1320468E+00
        -11   -1    0    0    0    0  0.00000000000E+00  0.00000000000E+00  0.45593999997E+02  0.45594000000E+02  0.51100000000E-03 0. -1.
         11   -1    0    0    0    0 -0.00000000000E+00 -0.00000000000E+00 -0.45593999997E+02  0.45594000000E+02  0.51100000000E-03 0.  1.
    9900012    2    1    2    0    0  0.17633066618E+02 -0.21602441311E+02  0.35376870068E+02  0.46142318245E+02  0.10000004412E+02 0.  0.
        -12    1    1    2    0    0 -0.17633066618E+02  0.21602441311E+02 -0.35376870068E+02  0.45045681755E+02  0.00000000000E+00 0.  1.
         11    1    3    3    0    0 -0.60880261472E+00 -0.29156494954E+01  0.21555516670E+01  0.36766908837E+01  0.51100000000E-03 0.  1.
        -11    1    3    3    0    0  0.13843708672E+02 -0.15415085283E+02  0.23703945588E+02  0.31482537394E+02  0.51100000000E-03 0. -1.
        -12    1    3    3    0    0  0.43981605605E+01 -0.32717065318E+01  0.95173728138E+01  0.10983089967E+02  0.00000000000E+00 0.  1.
</event>
<event>
 7    1  0.4141894E-008  0.4614232E+02  0.7816164E-02  0.1320468E+00
        -11   -1    0    0    0    0  0.00000000000E+00  0.00000000000E+00  0.45593999997E+02  0.45594000000E+02  0.51100000000E-03 0.  1.
         11   -1    0    0    0    0 -0.00000000000E+00 -0.00000000000E+00 -0.45593999997E+02  0.45594000000E+02  0.51100000000E-03 0. -1.
    9900012    2    1    2    0    0  0.11726101337E+02  0.22803364807E+02 -0.37035369063E+02  0.46142318068E+02  0.10000002795E+02 0.  0.
        -12    1    1    2    0    0 -0.11726101337E+02 -0.22803364807E+02  0.37035369063E+02  0.45045681932E+02  0.00000000000E+00 0.  1.
         11    1    3    3    0    0  0.78773037863E+01  0.87362909621E+01 -0.16863845785E+02  0.20561225392E+02  0.51100000000E-03 0. -1.
        -11    1    3    3    0    0 -0.11424333032E+01  0.13932375791E+01 -0.99194683458E+00  0.20567507355E+01  0.51100000000E-03 0.  1.
         12    1    3    3    0    0  0.49912308537E+01  0.12673836266E+02 -0.19179576444E+02  0.23524341940E+02  0.00000000000E+00 0. -1.
</event>
<event>
 7    1  0.4141894E-008  0.4614232E+02  0.7816164E-02  0.1320468E+00
        -11   -1    0    0    0    0  0.00000000000E+00  0.00000000000E+00  0.45593999997E+02  0.45594000000E+02  0.51100000000E-03 0. -1.
         11   -1    0    0    0    0 -0.00000000000E+00 -0.00000000000E+00 -0.45593999997E+02  0.45594000000E+02  0.51100000000E-03 0.  1.
    9900012    2    1    2    0    0 -0.20684849506E+02 -0.38769914306E+02  0.99067784225E+01  0.46142317487E+02  0.99999974965E+01 0.  0.
        -12    1    1    2    0    0  0.20684849506E+02  0.38769914306E+02 -0.99067784225E+01  0.45045682513E+02  0.00000000000E+00 0.  1.
         11    1    3    3    0    0 -0.98330375194E+01 -0.14253388179E+02  0.35938533798E+01  0.17685120407E+02  0.51100000000E-03 0. -1.
        -11    1    3    3    0    0  0.48306542854E+00 -0.37681588402E+01  0.23982645262E+01  0.44926658291E+01  0.51100000000E-03 0.  1.
        -12    1    3    3    0    0 -0.11334877415E+02 -0.20748367287E+02  0.39146605164E+01  0.23964531250E+02  0.00000000000E+00 0.  1.
</event>
<event>
 7    1  0.4141894E-008  0.4614232E+02  0.7816164E-02  0.1320468E+00
        -11   -1    0    0    0    0  0.00000000000E+00  0.00000000000E+00  0.45593999997E+02  0.45594000000E+02  0.51100000000E-03 0.  1.
         11   -1    0    0    0    0 -0.00000000000E+00 -0.00000000000E+00 -0.45593999997E+02  0.45594000000E+02  0.51100000000E-03 0. -1.
    9900012    2    1    2    0    0  0.49528982758E+01 -0.41834040444E+02 -0.15952910921E+02  0.46142317542E+02  0.99999980038E+01 0.  0.
        -12    1    1    2    0    0 -0.49528982758E+01  0.41834040444E+02  0.15952910921E+02  0.45045682458E+02  0.00000000000E+00 0.  1.
         11    1    3    3    0    0  0.24947893099E+01 -0.13360627763E+02 -0.62590150828E+01  0.14963476133E+02  0.51100000000E-03 0. -1.
        -11    1    3    3    0    0 -0.44149874945E+00 -0.25313032496E+02 -0.87576387668E+01  0.26788818047E+02  0.51100000000E-03 0.  1.
        -12    1    3    3    0    0  0.28996077154E+01 -0.31603801845E+01 -0.93625707179E+00  0.43900233619E+01  0.00000000000E+00 0.  1.
</event>
<event>
 7    1  0.4141894E-008  0.4614232E+02  0.7816164E-02  0.1320468E+00
        -11   -1    0    0    0    0  0.00000000000E+00  0.00000000000E+00  0.45593999997E+02  0.45594000000E+02  0.51100000000E-03 0. -1.
         11   -1    0    0    0    0 -0.00000000000E+00 -0.00000000000E+00 -0.45593999997E+02  0.45594000000E+02  0.51100000000E-03 0.  1.
    9900012    2    1    2    0    0  0.15214595891E+02  0.42270019484E+02  0.32977403050E+01  0.46142316895E+02  0.99999920977E+01 0.  0.
        -12    1    1    2    0    0 -0.15214595891E+02 -0.42270019484E+02 -0.32977403050E+01  0.45045683105E+02  0.00000000000E+00 0.  1.
         11    1    3    3    0    0  0.10998249531E+01  0.13788824168E+02  0.56572869366E+00  0.13844180585E+02  0.51100000000E-03 0. -1.
        -11    1    3    3    0    0  0.64531645805E+01  0.12536308853E+02  0.37144015872E+01  0.14580780232E+02  0.51100000000E-03 0.  1.
         12    1    3    3    0    0  0.76616063577E+01  0.15944886463E+02 -0.98238997588E+00  0.17717356077E+02  0.00000000000E+00 0. -1.
</event>
<event>
 7    1  0.4141894E-008  0.4614232E+02  0.7816164E-02  0.1320468E+00
        -11   -1    0    0    0    0  0.00000000000E+00  0.00000000000E+00  0.45593999997E+02  0.45594000000E+02  0.51100000000E-03 0. -1.
         11   -1    0    0    0    0 -0.00000000000E+00 -0.00000000000E+00 -0.45593999997E+02  0.45594000000E+02  0.51100000000E-03 0.  1.
    9900012    2    1    2    0    0  0.22214576996E+02  0.14419179198E+02  0.36437796551E+02  0.46142321214E+02  0.10000031483E+02 0.  0.
        -12    1    1    2    0    0 -0.22214576996E+02 -0.14419179198E+02 -0.36437796551E+02  0.45045678786E+02  0.00000000000E+00 0.  1.
         11    1    3    3    0    0  0.53153485528E+01 -0.51662049018E+00  0.74467040580E+01  0.91636907715E+01  0.51100000000E-03 0. -1.
        -11    1    3    3    0    0  0.23557869149E+01  0.18466062854E+01  0.18457946787E+01  0.35166240940E+01  0.51100000000E-03 0.  1.
         12    1    3    3    0    0  0.14543441528E+02  0.13089193403E+02  0.27145297814E+02  0.33462006348E+02  0.00000000000E+00 0. -1.
</event>
<event>
 7    1  0.4141894E-008  0.4614232E+02  0.7816164E-02  0.1320468E+00
        -11   -1    0    0    0    0  0.00000000000E+00  0.00000000000E+00  0.45593999997E+02  0.45594000000E+02  0.51100000000E-03 0.  1.
         11   -1    0    0    0    0 -0.00000000000E+00 -0.00000000000E+00 -0.45593999997E+02  0.45594000000E+02  0.51100000000E-03 0. -1.
    9900012    2    1    2    0    0 -0.13964710895E+02 -0.24360555918E+02 -0.35223056690E+02  0.46142316992E+02  0.99999929905E+01 0.  0.
        -12    1    1    2    0    0  0.13964710895E+02  0.24360555918E+02  0.35223056690E+02  0.45045683008E+02  0.00000000000E+00 0.  1.
         11    1    3    3    0    0 -0.64872470751E+01 -0.14263017870E+02 -0.13514399471E+02  0.20691956086E+02  0.51100000000E-03 0. -1.
        -11    1    3    3    0    0 -0.74319170613E+00  0.29849893771E+00 -0.70835606409E+00  0.10692072309E+01  0.51100000000E-03 0.  1.
         12    1    3    3    0    0 -0.67342721141E+01 -0.10396036986E+02 -0.21000301155E+02  0.24381153675E+02  0.00000000000E+00 0. -1.
</event>
<event>
 7    1  0.4141894E-008  0.4614232E+02  0.7816164E-02  0.1320468E+00
        -11   -1    0    0    0    0  0.00000000000E+00  0.00000000000E+00  0.45593999997E+02  0.45594000000E+02  0.51100000000E-03 0. -1.
         11   -1    0    0    0    0 -0.00000000000E+00 -0.00000000000E+00 -0.45593999997E+02  0.45594000000E+02  0.51100000000E-03 0.  1.
    9900012    2    1    2    0    0  0.24086155064E+02  0.20799950870E+02  0.31879972893E+02  0.46142317703E+02  0.99999994668E+01 0.  0.
        -12    1    1    2    0    0 -0.24086155064E+02 -0.20799950870E+02 -0.31879972893E+02  0.45045682297E+02  0.00000000000E+00 0.  1.
         11    1    3    3    0    0  0.64401019443E+01  0.68234899897E+01  0.47809575484E+01  0.10530550035E+02  0.51100000000E-03 0. -1.
        -11    1    3    3    0    0  0.81280979209E+01  0.35255023813E+01  0.87830189103E+01  0.12475438441E+02  0.51100000000E-03 0.  1.
        -12    1    3    3    0    0  0.95179551988E+01  0.10450958499E+02  0.18315996434E+02  0.23136329227E+02  0.00000000000E+00 0.  1.
</event>
<event>
 7    1  0.4141894E-008  0.4614232E+02  0.7816164E-02  0.1320468E+00
        -11   -1    0    0    0    0  0.00000000000E+00  0.00000000000E+00  0.45593999997E+02  0.45594000000E+02  0.51100000000E-03 0.  1.
         11   -1    0    0    0    0 -0.00000000000E+00 -0.00000000000E+00 -0.45593999997E+02  0.45594000000E+02  0.51100000000E-03 0. -1.
    9900012    2    1    2    0    0 -0.40679973845E+02 -0.83338567708E+01 -0.17458524378E+02  0.46142317475E+02  0.99999973912E+01 0.  0.
        -12    1    1    2    0    0  0.40679973845E+02  0.83338567708E+01  0.17458524378E+02  0.45045682525E+02  0.00000000000E+00 0.  1.
         11    1    3    3    0    0 -0.76021144428E+01  0.93966819329E+00 -0.43966317130E+01  0.88320717273E+01  0.51100000000E-03 0.  1.
        -11    1    3    3    0    0 -0.27145616441E+02 -0.61596093510E+01 -0.81549440821E+01  0.29005661388E+02  0.51100000000E-03 0. -1.
         12    1    3    3    0    0 -0.59322429611E+01 -0.31139156130E+01 -0.49069485825E+01  0.83045843597E+01  0.00000000000E+00 0. -1.
</event>
<event>
 7    1  0.4141894E-008  0.4614232E+02  0.7816164E-02  0.1320468E+00
        -11   -1    0    0    0    0  0.00000000000E+00  0.00000000000E+00  0.45593999997E+02  0.45594000000E+02  0.51100000000E-03 0. -1.
         11   -1    0    0    0    0 -0.00000000000E+00 -0.00000000000E+00 -0.45593999997E+02  0.45594000000E+02  0.51100000000E-03 0.  1.
    9900012    2    1    2    0    0  0.46009332020E+01  0.16976220854E+02  0.41469902444E+02  0.46142317970E+02  0.10000001909E+02 0.  0.
        -12    1    1    2    0    0 -0.46009332020E+01 -0.16976220854E+02 -0.41469902444E+02  0.45045682030E+02  0.00000000000E+00 0.  1.
         11    1    3    3    0    0  0.84148665336E+00  0.97005035338E+01  0.16580369735E+02  0.19228014183E+02  0.51100000000E-03 0. -1.
        -11    1    3    3    0    0 -0.27978186525E-01 -0.80027290431E+00  0.49817596795E+00  0.94307955999E+00  0.51100000000E-03 0.  1.
         12    1    3    3    0    0  0.37874247351E+01  0.80759902244E+01  0.24391356741E+02  0.25971224228E+02  0.00000000000E+00 0. -1.
</event>
<event>
 7    1  0.4141894E-008  0.4614232E+02  0.7816164E-02  0.1320468E+00
        -11   -1    0    0    0    0  0.00000000000E+00  0.00000000000E+00  0.45593999997E+02  0.45594000000E+02  0.51100000000E-03 0. -1.
         11   -1    0    0    0    0 -0.00000000000E+00 -0.00000000000E+00 -0.45593999997E+02  0.45594000000E+02  0.51100000000E-03 0.  1.
    9900012    2    1    2    0    0 -0.15498462211E+02 -0.19385350583E+02  0.37591479035E+02  0.46142318252E+02  0.10000004472E+02 0.  0.
        -12    1    1    2    0    0  0.15498462211E+02  0.19385350583E+02 -0.37591479035E+02  0.45045681748E+02  0.00000000000E+00 0.  1.
         11    1    3    3    0    0 -0.50337892212E+01 -0.40335361220E+01  0.12264138472E+02  0.13857039376E+02  0.51100000000E-03 0. -1.
        -11    1    3    3    0    0 -0.15120026701E+01 -0.45430639835E+01  0.22855534000E+01  0.53055948806E+01  0.51100000000E-03 0.  1.
        -12    1    3    3    0    0 -0.89526703202E+01 -0.10808750477E+02  0.23041787164E+02  0.26979683994E+02  0.00000000000E+00 0.  1.
</event>
<event>
 7    1  0.4141894E-008  0.4614232E+02  0.7816164E-02  0.1320468E+00
        -11   -1    0    0    0    0  0.00000000000E+00  0.00000000000E+00  0.45593999997E+02  0.45594000000E+02  0.51100000000E-03 0.  1.
         11   -1    0    0    0    0 -0.00000000000E+00 -0.00000000000E+00 -0.45593999997E+02  0.45594000000E+02  0.51100000000E-03 0. -1.
    9900012    2    1    2    0    0 -0.27332118535E+02  0.15285472637E+02 -0.32379360553E+02  0.46142319107E+02  0.10000012269E+02 0.  0.
        -12    1    1    2    0    0  0.27332118535E+02 -0.15285472637E+02  0.32379360553E+02  0.45045680893E+02  0.00000000000E+00 0.  1.
         11    1    3    3    0    0 -0.17027075686E+02  0.89250135742E+01 -0.15150868945E+02  0.24477050553E+02  0.51100000000E-03 0. -1.
        -11    1    3    3    0    0 -0.49638694215E+01  0.20726203166E+01 -0.37846744724E+01  0.65771966470E+01  0.51100000000E-03 0.  1.
        -12    1    3    3    0    0 -0.53411734275E+01  0.42878387463E+01 -0.13443817135E+02  0.15088071907E+02  0.00000000000E+00 0.  1.
</event>
<event>
 7    1  0.4141894E-008  0.4614232E+02  0.7816164E-02  0.1320468E+00
        -11   -1    0    0    0    0  0.00000000000E+00  0.00000000000E+00  0.45593999997E+02  0.45594000000E+02  0.51100000000E-03 0.  1.
         11   -1    0    0    0    0 -0.00000000000E+00 -0.00000000000E+00 -0.45593999997E+02  0.45594000000E+02  0.51100000000E-03 0. -1.
    9900012    2    1    2    0    0 -0.47172046627E+01  0.30516850575E+02 -0.32796086402E+02  0.46142317941E+02  0.10000001644E+02 0.  0.
        -12    1    1    2    0    0  0.47172046627E+01 -0.30516850575E+02  0.32796086402E+02  0.45045682059E+02  0.00000000000E+00 0.  1.
         11    1    3    3    0    0 -0.12098835553E+01  0.62327219923E+01 -0.10719339193E+02  0.12458526183E+02  0.51100000000E-03 0. -1.
        -11    1    3    3    0    0 -0.26799875657E+01  0.31852323038E+01 -0.23122874446E+01  0.47617971050E+01  0.51100000000E-03 0.  1.
        -12    1    3    3    0    0 -0.82733354172E+00  0.21098896279E+02 -0.19764459764E+02  0.28921994654E+02  0.00000000000E+00 0.  1.
</event>
<event>
 7    1  0.4141894E-008  0.4614232E+02  0.7816164E-02  0.1320468E+00
        -11   -1    0    0    0    0  0.00000000000E+00  0.00000000000E+00  0.45593999997E+02  0.45594000000E+02  0.51100000000E-03 0. -1.
         11   -1    0    0    0    0 -0.00000000000E+00 -0.00000000000E+00 -0.45593999997E+02  0.45594000000E+02  0.51100000000E-03 0.  1.
    9900012    2    1    2    0    0  0.37293607446E+02 -0.24070117052E+02  0.76765835546E+01  0.46142316230E+02  0.99999860398E+01 0.  0.
        -12    1    1    2    0    0 -0.37293607446E+02  0.24070117052E+02 -0.76765835546E+01  0.45045683770E+02  0.00000000000E+00 0.  1.
         11    1    3    3    0    0  0.52030368181E+01 -0.50788863574E+01 -0.56891335879E+00  0.72931708765E+01  0.51100000000E-03 0. -1.
        -11    1    3    3    0    0  0.18941622586E+01  0.81821623824E-01  0.16839910731E+01  0.25358177449E+01  0.51100000000E-03 0.  1.
        -12    1    3    3    0    0  0.30196408369E+02 -0.19073052318E+02  0.65615058403E+01  0.36313327609E+02  0.00000000000E+00 0.  1.
</event>
<event>
 7    1  0.4141894E-008  0.4614231E+02  0.7816164E-02  0.1320468E+00
        -11   -1    0    0    0    0  0.00000000000E+00  0.00000000000E+00  0.45593999997E+02  0.45594000000E+02  0.51100000000E-03 0.  1.
         11   -1    0    0    0    0 -0.00000000000E+00 -0.00000000000E+00 -0.45593999997E+02  0.45594000000E+02  0.51100000000E-03 0. -1.
    9900012    2    1    2    0    0  0.41233049924E+02  0.15354064273E+02 -0.96541361917E+01  0.46142311623E+02  0.99999440302E+01 0.  0.
        -12    1    1    2    0    0 -0.41233049924E+02 -0.15354064273E+02  0.96541361917E+01  0.45045688377E+02  0.00000000000E+00 0.  1.
         11    1    3    3    0    0  0.76049037982E+01  0.41277195535E+01 -0.24764108629E+01  0.90002911906E+01  0.51100000000E-03 0. -1.
        -11    1    3    3    0    0  0.92870365159E+01  0.13342860450E+00 -0.43094641174E+01  0.10239059121E+02  0.51100000000E-03 0.  1.
         12    1    3    3    0    0  0.24341109610E+02  0.11092916115E+02 -0.28682612114E+01  0.26902961312E+02  0.00000000000E+00 0. -1.
</event>
<event>
 7    1  0.4141894E-008  0.4614232E+02  0.7816164E-02  0.1320468E+00
        -11   -1    0    0    0    0  0.00000000000E+00  0.00000000000E+00  0.45593999997E+02  0.45594000000E+02  0.51100000000E-03 0.  1.
         11   -1    0    0    0    0 -0.00000000000E+00 -0.00000000000E+00 -0.45593999997E+02  0.45594000000E+02  0.51100000000E-03 0. -1.
    9900012    2    1    2    0    0 -0.41578359889E+02 -0.11764435617E+02 -0.12726016663E+02  0.46142318114E+02  0.10000003222E+02 0.  0.
        -12    1    1    2    0    0  0.41578359889E+02  0.11764435617E+02  0.12726016663E+02  0.45045681886E+02  0.00000000000E+00 0.  1.
         11    1    3    3    0    0 -0.11211266517E+01 -0.59363726253E+00 -0.18038477205E+01  0.22052657501E+01  0.51100000000E-03 0. -1.
        -11    1    3    3    0    0 -0.62742203643E+01 -0.18726721889E-01  0.26756793535E+00  0.62799510134E+01  0.51100000000E-03 0.  1.
         12    1    3    3    0    0 -0.34183012873E+02 -0.11152071632E+02 -0.11189736878E+02  0.37657101351E+02  0.00000000000E+00 0. -1.
</event>
<event>
 7    1  0.4141894E-008  0.4614232E+02  0.7816164E-02  0.1320468E+00
        -11   -1    0    0    0    0  0.00000000000E+00  0.00000000000E+00  0.45593999997E+02  0.45594000000E+02  0.51100000000E-03 0. -1.
         11   -1    0    0    0    0 -0.00000000000E+00 -0.00000000000E+00 -0.45593999997E+02  0.45594000000E+02  0.51100000000E-03 0.  1.
    9900012    2    1    2    0    0 -0.37325675530E+02  0.14249357044E+02 -0.20805367079E+02  0.46142317307E+02  0.99999958615E+01 0.  0.
        -12    1    1    2    0    0  0.37325675530E+02 -0.14249357044E+02  0.20805367079E+02  0.45045682693E+02  0.00000000000E+00 0.  1.
         11    1    3    3    0    0 -0.14181901521E+02  0.55522911003E+01 -0.58721806276E+01  0.16322891068E+02  0.51100000000E-03 0. -1.
        -11    1    3    3    0    0 -0.69652065554E+01 -0.76171759715E+00 -0.50104229313E+01  0.86138640730E+01  0.51100000000E-03 0.  1.
         12    1    3    3    0    0 -0.16178567454E+02  0.94587835409E+01 -0.99227635202E+01  0.21205562167E+02  0.00000000000E+00 0. -1.
</event>
<event>
 7    1  0.4141894E-008  0.4614232E+02  0.7816164E-02  0.1320468E+00
        -11   -1    0    0    0    0  0.00000000000E+00  0.00000000000E+00  0.45593999997E+02  0.45594000000E+02  0.51100000000E-03 0.  1.
         11   -1    0    0    0    0 -0.00000000000E+00 -0.00000000000E+00 -0.45593999997E+02  0.45594000000E+02  0.51100000000E-03 0. -1.
    9900012    2    1    2    0    0  0.25004053122E+02 -0.72271719424E+01 -0.36765184078E+02  0.46142318219E+02  0.10000004177E+02 0.  0.
        -12    1    1    2    0    0 -0.25004053122E+02  0.72271719424E+01  0.36765184078E+02  0.45045681781E+02  0.00000000000E+00 0.  1.
         11    1    3    3    0    0  0.42980142245E+01 -0.23089922301E+01 -0.34661882871E+01  0.59848836994E+01  0.51100000000E-03 0. -1.
        -11    1    3    3    0    0  0.28008681986E+01 -0.31722011254E+01 -0.87790261344E+01  0.97457181765E+01  0.51100000000E-03 0.  1.
         12    1    3    3    0    0  0.17905170699E+02 -0.17459785868E+01 -0.24519969656E+02  0.30411716343E+02  0.00000000000E+00 0. -1.
</event>
<event>
 7    1  0.4141894E-008  0.4614232E+02  0.7816164E-02  0.1320468E+00
        -11   -1    0    0    0    0  0.00000000000E+00  0.00000000000E+00  0.45593999997E+02  0.45594000000E+02  0.51100000000E-03 0.  1.
         11   -1    0    0    0    0 -0.00000000000E+00 -0.00000000000E+00 -0.45593999997E+02  0.45594000000E+02  0.51100000000E-03 0. -1.
    9900012    2    1    2    0    0  0.33956673574E+01 -0.60959346858E+01 -0.44501938084E+02  0.46142317968E+02  0.10000001882E+02 0.  0.
        -12    1    1    2    0    0 -0.33956673574E+01  0.60959346858E+01  0.44501938084E+02  0.45045682032E+02  0.00000000000E+00 0.  1.
         11    1    3    3    0    0  0.21835151806E+00 -0.18714845180E+01 -0.12460809274E+01  0.22589487877E+01  0.51100000000E-03 0. -1.
        -11    1    3    3    0    0  0.14601966037E+01  0.12320581147E+00 -0.28180287169E+01  0.31762619388E+01  0.51100000000E-03 0.  1.
         12    1    3    3    0    0  0.17171192357E+01 -0.43476559793E+01 -0.40437828440E+02  0.40707107241E+02  0.00000000000E+00 0. -1.
</event>
<event>
 7    1  0.4141894E-008  0.4614232E+02  0.7816164E-02  0.1320468E+00
        -11   -1    0    0    0    0  0.00000000000E+00  0.00000000000E+00  0.45593999997E+02  0.45594000000E+02  0.51100000000E-03 0.  1.
         11   -1    0    0    0    0 -0.00000000000E+00 -0.00000000000E+00 -0.45593999997E+02  0.45594000000E+02  0.51100000000E-03 0. -1.
    9900012    2    1    2    0    0  0.20557251263E+01  0.40603599407E+02 -0.19396778651E+02  0.46142319711E+02  0.10000017785E+02 0.  0.
        -12    1    1    2    0    0 -0.20557251263E+01 -0.40603599407E+02  0.19396778651E+02  0.45045680289E+02  0.00000000000E+00 0.  1.
         11    1    3    3    0    0 -0.52348821557E+00  0.75488549639E+01 -0.73234902535E+01  0.10530563182E+02  0.51100000000E-03 0. -1.
        -11    1    3    3    0    0 -0.30497453187E+00  0.13091037519E+02 -0.27034055156E+01  0.13370739487E+02  0.51100000000E-03 0.  1.
         12    1    3    3    0    0  0.28841878737E+01  0.19963706924E+02 -0.93698828817E+01  0.22241017042E+02  0.00000000000E+00 0. -1.
</event>
<event>
 7    1  0.4141894E-008  0.4614232E+02  0.7816164E-02  0.1320468E+00
        -11   -1    0    0    0    0  0.00000000000E+00  0.00000000000E+00  0.45593999997E+02  0.45594000000E+02  0.51100000000E-03 0.  1.
         11   -1    0    0    0    0 -0.00000000000E+00 -0.00000000000E+00 -0.45593999997E+02  0.45594000000E+02  0.51100000000E-03 0. -1.
    9900012    2    1    2    0    0  0.10988015669E+02 -0.23321533975E+02 -0.36938909622E+02  0.46142317861E+02  0.10000000913E+02 0.  0.
        -12    1    1    2    0    0 -0.10988015669E+02  0.23321533975E+02  0.36938909622E+02  0.45045682139E+02  0.00000000000E+00 0.  1.
         11    1    3    3    0    0  0.81502861050E+01 -0.83605864753E+01 -0.19404881424E+02  0.22646765622E+02  0.51100000000E-03 0. -1.
        -11    1    3    3    0    0 -0.23609421017E+00 -0.43602716814E+01 -0.32463934498E+01  0.54412112901E+01  0.51100000000E-03 0.  1.
         12    1    3    3    0    0  0.30738237739E+01 -0.10600675819E+02 -0.14287634748E+02  0.18054340949E+02  0.00000000000E+00 0. -1.
</event>
<event>
 7    1  0.4141894E-008  0.4614232E+02  0.7816164E-02  0.1320468E+00
        -11   -1    0    0    0    0  0.00000000000E+00  0.00000000000E+00  0.45593999997E+02  0.45594000000E+02  0.51100000000E-03 0.  1.
         11   -1    0    0    0    0 -0.00000000000E+00 -0.00000000000E+00 -0.45593999997E+02  0.45594000000E+02  0.51100000000E-03 0. -1.
    9900012    2    1    2    0    0 -0.16922565317E+02 -0.32959644312E+02 -0.25620347568E+02  0.46142316748E+02  0.99999907613E+01 0.  0.
        -12    1    1    2    0    0  0.16922565317E+02  0.32959644312E+02  0.25620347568E+02  0.45045683252E+02  0.00000000000E+00 0.  1.
         11    1    3    3    0    0 -0.17444474893E+01 -0.25282794835E+01 -0.41880179813E+01  0.51937259326E+01  0.51100000000E-03 0. -1.
        -11    1    3    3    0    0  0.42780849589E+00 -0.30111422571E+01 -0.35811867577E+01  0.46983929866E+01  0.51100000000E-03 0.  1.
         12    1    3    3    0    0 -0.15605926324E+02 -0.27420222572E+02 -0.17851142829E+02  0.36250197829E+02  0.00000000000E+00 0. -1.
</event>
<event>
 7    1  0.4141894E-008  0.4614231E+02  0.7816164E-02  0.1320468E+00
        -11   -1    0    0    0    0  0.00000000000E+00  0.00000000000E+00  0.45593999997E+02  0.45594000000E+02  0.51100000000E-03 0.  1.
         11   -1    0    0    0    0 -0.00000000000E+00 -0.00000000000E+00 -0.45593999997E+02  0.45594000000E+02  0.51100000000E-03 0. -1.
    9900012    2    1    2    0    0  0.17286752305E+02 -0.76457766724E+01 -0.40887945232E+02  0.46142314619E+02  0.99999713487E+01 0.  0.
        -12    1    1    2    0    0 -0.17286752305E+02  0.76457766724E+01  0.40887945232E+02  0.45045685381E+02  0.00000000000E+00 0.  1.
         11    1    3    3    0    0  0.20428746716E+01 -0.18513704241E+01 -0.11089876636E+02  0.11427435121E+02  0.51100000000E-03 0. -1.
        -11    1    3    3    0    0  0.99586352279E+01 -0.61506606411E+01 -0.15193819067E+02  0.19179603229E+02  0.51100000000E-03 0.  1.
        -12    1    3    3    0    0  0.52852424055E+01  0.35625439273E+00 -0.14604249529E+02  0.15535276270E+02  0.00000000000E+00 0.  1.
</event>
<event>
 7    1  0.4141894E-008  0.4614232E+02  0.7816164E-02  0.1320468E+00
        -11   -1    0    0    0    0  0.00000000000E+00  0.00000000000E+00  0.45593999997E+02  0.45594000000E+02  0.51100000000E-03 0. -1.
         11   -1    0    0    0    0 -0.00000000000E+00 -0.00000000000E+00 -0.45593999997E+02  0.45594000000E+02  0.51100000000E-03 0.  1.
    9900012    2    1    2    0    0 -0.19751211076E+02 -0.22562058300E+02  0.33614828734E+02  0.46142317359E+02  0.99999963355E+01 0.  0.
        -12    1    1    2    0    0  0.19751211076E+02  0.22562058300E+02 -0.33614828734E+02  0.45045682641E+02  0.00000000000E+00 0.  1.
         11    1    3    3    0    0 -0.71247657745E+01 -0.84353286282E+01  0.16911880096E+02  0.20197245977E+02  0.51100000000E-03 0. -1.
        -11    1    3    3    0    0 -0.11539808456E+02 -0.94291441344E+01  0.11289478701E+02  0.18695675113E+02  0.51100000000E-03 0.  1.
        -12    1    3    3    0    0 -0.10866368461E+01 -0.46975855376E+01  0.54134699373E+01  0.72493962701E+01  0.00000000000E+00 0.  1.
</event>
<event>
 7    1  0.4141894E-008  0.4614232E+02  0.7816164E-02  0.1320468E+00
        -11   -1    0    0    0    0  0.00000000000E+00  0.00000000000E+00  0.45593999997E+02  0.45594000000E+02  0.51100000000E-03 0. -1.
         11   -1    0    0    0    0 -0.00000000000E+00 -0.00000000000E+00 -0.45593999997E+02  0.45594000000E+02  0.51100000000E-03 0.  1.
    9900012    2    1    2    0    0  0.31766387133E+02 -0.12627623913E+02  0.29335179485E+02  0.46142323264E+02  0.10000050180E+02 0.  0.
        -12    1    1    2    0    0 -0.31766387133E+02  0.12627623913E+02 -0.29335179485E+02  0.45045676736E+02  0.00000000000E+00 0.  1.
         11    1    3    3    0    0  0.21962933767E+02 -0.10075096380E+02  0.16914696260E+02  0.29495507735E+02  0.51100000000E-03 0. -1.
        -11    1    3    3    0    0  0.37142652473E+01 -0.14553335942E+01  0.83120332692E+01  0.92197429209E+01  0.51100000000E-03 0.  1.
         12    1    3    3    0    0  0.60891881191E+01 -0.10971939395E+01  0.41084499550E+01  0.74270726079E+01  0.00000000000E+00 0. -1.
</event>
<event>
 7    1  0.4141894E-008  0.4614232E+02  0.7816164E-02  0.1320468E+00
        -11   -1    0    0    0    0  0.00000000000E+00  0.00000000000E+00  0.45593999997E+02  0.45594000000E+02  0.51100000000E-03 0. -1.
         11   -1    0    0    0    0 -0.00000000000E+00 -0.00000000000E+00 -0.45593999997E+02  0.45594000000E+02  0.51100000000E-03 0.  1.
    9900012    2    1    2    0    0  0.10622160672E+02  0.27902528390E+02  0.33730284908E+02  0.46142317545E+02  0.99999980266E+01 0.  0.
        -12    1    1    2    0    0 -0.10622160672E+02 -0.27902528390E+02 -0.33730284908E+02  0.45045682455E+02  0.00000000000E+00 0.  1.
         11    1    3    3    0    0  0.36913983653E+01  0.66905767675E+01  0.62215613853E+01  0.98538350760E+01  0.51100000000E-03 0. -1.
        -11    1    3    3    0    0  0.40427353027E+01  0.14503847566E+02  0.12393816131E+02  0.19501589205E+02  0.51100000000E-03 0.  1.
        -12    1    3    3    0    0  0.28880270043E+01  0.67081040562E+01  0.15114907392E+02  0.16786893264E+02  0.00000000000E+00 0.  1.
</event>
<event>
 7    1  0.4141894E-008  0.4614232E+02  0.7816164E-02  0.1320468E+00
        -11   -1    0    0    0    0  0.00000000000E+00  0.00000000000E+00  0.45593999997E+02  0.45594000000E+02  0.51100000000E-03 0. -1.
         11   -1    0    0    0    0 -0.00000000000E+00 -0.00000000000E+00 -0.45593999997E+02  0.45594000000E+02  0.51100000000E-03 0.  1.
    9900012    2    1    2    0    0 -0.11863823147E+01 -0.25426818464E+02  0.37164269038E+02  0.46142317706E+02  0.99999995012E+01 0.  0.
        -12    1    1    2    0    0  0.11863823147E+01  0.25426818464E+02 -0.37164269038E+02  0.45045682294E+02  0.00000000000E+00 0.  1.
         11    1    3    3    0    0 -0.54657100913E+00 -0.42195301844E+01  0.23959534652E+01  0.48830081009E+01  0.51100000000E-03 0. -1.
        -11    1    3    3    0    0 -0.34297851369E+01 -0.78274474765E+01  0.13166198766E+02  0.15696533066E+02  0.51100000000E-03 0.  1.
         12    1    3    3    0    0  0.27899738313E+01 -0.13379840803E+02  0.21602116807E+02  0.25562776540E+02  0.00000000000E+00 0. -1.
</event>
<event>
 7    1  0.4141894E-008  0.4614232E+02  0.7816164E-02  0.1320468E+00
        -11   -1    0    0    0    0  0.00000000000E+00  0.00000000000E+00  0.45593999997E+02  0.45594000000E+02  0.51100000000E-03 0.  1.
         11   -1    0    0    0    0 -0.00000000000E+00 -0.00000000000E+00 -0.45593999997E+02  0.45594000000E+02  0.51100000000E-03 0. -1.
    9900012    2    1    2    0    0 -0.20912154383E+02  0.33512155166E+02 -0.21650190121E+02  0.46142317886E+02  0.10000001139E+02 0.  0.
        -12    1    1    2    0    0  0.20912154383E+02 -0.33512155166E+02  0.21650190121E+02  0.45045682114E+02  0.00000000000E+00 0.  1.
         11    1    3    3    0    0 -0.91764352596E+01  0.10543981906E+02 -0.10494549436E+02  0.17479075681E+02  0.51100000000E-03 0. -1.
        -11    1    3    3    0    0 -0.26248425834E+01  0.27892136787E+01 -0.36349004999E+01  0.52803421706E+01  0.51100000000E-03 0.  1.
         12    1    3    3    0    0 -0.91108765397E+01  0.20178959581E+02 -0.75207401851E+01  0.23382900035E+02  0.00000000000E+00 0. -1.
</event>
<event>
 7    1  0.4141894E-008  0.4614232E+02  0.7816164E-02  0.1320468E+00
        -11   -1    0    0    0    0  0.00000000000E+00  0.00000000000E+00  0.45593999997E+02  0.45594000000E+02  0.51100000000E-03 0.  1.
         11   -1    0    0    0    0 -0.00000000000E+00 -0.00000000000E+00 -0.45593999997E+02  0.45594000000E+02  0.51100000000E-03 0. -1.
    9900012    2    1    2    0    0  0.41519729120E+02  0.10079646797E+02 -0.14269770980E+02  0.46142317082E+02  0.99999938052E+01 0.  0.
        -12    1    1    2    0    0 -0.41519729120E+02 -0.10079646797E+02  0.14269770980E+02  0.45045682918E+02  0.00000000000E+00 0.  1.
         11    1    3    3    0    0  0.90852711817E+01  0.51109212048E+01 -0.65825305532E+01  0.12328559395E+02  0.51100000000E-03 0. -1.
        -11    1    3    3    0    0  0.14384725864E+02  0.16202576621E+01 -0.21176169882E+01  0.14629759911E+02  0.51100000000E-03 0.  1.
        -12    1    3    3    0    0  0.18049732074E+02  0.33484679298E+01 -0.55696234390E+01  0.19183997776E+02  0.00000000000E+00 0.  1.
</event>
<event>
 7    1  0.4141894E-008  0.4614232E+02  0.7816164E-02  0.1320468E+00
        -11   -1    0    0    0    0  0.00000000000E+00  0.00000000000E+00  0.45593999997E+02  0.45594000000E+02  0.51100000000E-03 0. -1.
         11   -1    0    0    0    0 -0.00000000000E+00 -0.00000000000E+00 -0.45593999997E+02  0.45594000000E+02  0.51100000000E-03 0.  1.
    9900012    2    1    2    0    0 -0.12838811038E+02  0.29559956054E+02  0.31472011695E+02  0.46142316623E+02  0.99999896189E+01 0.  0.
        -12    1    1    2    0    0  0.12838811038E+02 -0.29559956054E+02 -0.31472011695E+02  0.45045683377E+02  0.00000000000E+00 0.  1.
         11    1    3    3    0    0 -0.22783658912E+00  0.42884330788E+01  0.71219353416E+01  0.83165215718E+01  0.51100000000E-03 0. -1.
        -11    1    3    3    0    0 -0.64480667126E+01  0.72346823830E+01  0.61917536177E+01  0.11500261155E+02  0.51100000000E-03 0.  1.
         12    1    3    3    0    0 -0.61629077359E+01  0.18036840592E+02  0.18158322736E+02  0.26325533896E+02  0.00000000000E+00 0. -1.
</event>
<event>
 7    1  0.4141894E-008  0.4614232E+02  0.7816164E-02  0.1320468E+00
        -11   -1    0    0    0    0  0.00000000000E+00  0.00000000000E+00  0.45593999997E+02  0.45594000000E+02  0.51100000000E-03 0. -1.
         11   -1    0    0    0    0 -0.00000000000E+00 -0.00000000000E+00 -0.45593999997E+02  0.45594000000E+02  0.51100000000E-03 0.  1.
    9900012    2    1    2    0    0 -0.15072260028E+02  0.27636787173E+02  0.32220311498E+02  0.46142317625E+02  0.99999987571E+01 0.  0.
        -12    1    1    2    0    0  0.15072260028E+02 -0.27636787173E+02 -0.32220311498E+02  0.45045682375E+02  0.00000000000E+00 0.  1.
         11    1    3    3    0    0 -0.62605089504E+01  0.13806432499E+02  0.17357523164E+02  0.23045501976E+02  0.51100000000E-03 0. -1.
        -11    1    3    3    0    0 -0.89248020529E+01  0.85383896783E+01  0.11056819339E+02  0.16577377481E+02  0.51100000000E-03 0.  1.
        -12    1    3    3    0    0  0.11305097495E+00  0.52919649951E+01  0.38059689949E+01  0.65194381677E+01  0.00000000000E+00 0.  1.
</event>
<event>
 7    1  0.4141894E-008  0.4614232E+02  0.7816164E-02  0.1320468E+00
        -11   -1    0    0    0    0  0.00000000000E+00  0.00000000000E+00  0.45593999997E+02  0.45594000000E+02  0.51100000000E-03 0.  1.
         11   -1    0    0    0    0 -0.00000000000E+00 -0.00000000000E+00 -0.45593999997E+02  0.45594000000E+02  0.51100000000E-03 0. -1.
    9900012    2    1    2    0    0 -0.42468283222E+02 -0.12327397628E+02  0.85786692138E+01  0.46142318990E+02  0.10000011210E+02 0.  0.
        -12    1    1    2    0    0  0.42468283222E+02  0.12327397628E+02 -0.85786692138E+01  0.45045681010E+02  0.00000000000E+00 0.  1.
         11    1    3    3    0    0 -0.12019833159E+02 -0.30175027994E+00 -0.32802000823E-01  0.12023664942E+02  0.51100000000E-03 0. -1.
        -11    1    3    3    0    0 -0.82702849423E+01 -0.30247528205E+01  0.42944203204E+01  0.97973868354E+01  0.51100000000E-03 0.  1.
         12    1    3    3    0    0 -0.22178165121E+02 -0.90008945273E+01  0.43170508942E+01  0.24321267213E+02  0.00000000000E+00 0. -1.
</event>
<event>
 7    1  0.4141894E-008  0.4614232E+02  0.7816164E-02  0.1320468E+00
        -11   -1    0    0    0    0  0.00000000000E+00  0.00000000000E+00  0.45593999997E+02  0.45594000000E+02  0.51100000000E-03 0. -1.
         11   -1    0    0    0    0 -0.00000000000E+00 -0.00000000000E+00 -0.45593999997E+02  0.45594000000E+02  0.51100000000E-03 0.  1.
    9900012    2    1    2    0    0 -0.12565494126E+02  0.36580585434E+02 -0.23088575296E+02  0.46142321156E+02  0.10000030957E+02 0.  0.
        -12    1    1    2    0    0  0.12565494126E+02 -0.36580585434E+02  0.23088575296E+02  0.45045678844E+02  0.00000000000E+00 0.  1.
         11    1    3    3    0    0 -0.48515616968E+01  0.87817425586E+01 -0.50915121290E+01  0.11250784385E+02  0.51100000000E-03 0. -1.
        -11    1    3    3    0    0 -0.23563554250E+01  0.14788277276E+02 -0.51424109205E+01  0.15833191277E+02  0.51100000000E-03 0.  1.
        -12    1    3    3    0    0 -0.53575770043E+01  0.13010565599E+02 -0.12854652247E+02  0.19058345493E+02  0.00000000000E+00 0.  1.
</event>
<event>
 7    1  0.4141894E-008  0.4614232E+02  0.7816164E-02  0.1320468E+00
        -11   -1    0    0    0    0  0.00000000000E+00  0.00000000000E+00  0.45593999997E+02  0.45594000000E+02  0.51100000000E-03 0.  1.
         11   -1    0    0    0    0 -0.00000000000E+00 -0.00000000000E+00 -0.45593999997E+02  0.45594000000E+02  0.51100000000E-03 0. -1.
    9900012    2    1    2    0    0 -0.36667292657E+02 -0.26013014148E+02  0.28189142354E+01  0.46142317263E+02  0.99999954542E+01 0.  0.
        -12    1    1    2    0    0  0.36667292657E+02  0.26013014148E+02 -0.28189142354E+01  0.45045682737E+02  0.00000000000E+00 0.  1.
         11    1    3    3    0    0 -0.31168188399E+02 -0.19415304362E+02  0.29339758913E+01  0.36837728300E+02  0.51100000000E-03 0. -1.
        -11    1    3    3    0    0 -0.40586031859E+01 -0.45236570602E+01  0.15597689119E+01  0.62744411972E+01  0.51100000000E-03 0.  1.
         12    1    3    3    0    0 -0.14405010716E+01 -0.20740527256E+01 -0.16748305678E+01  0.30301477649E+01  0.00000000000E+00 0. -1.
</event>
<event>
 7    1  0.4141894E-008  0.4614232E+02  0.7816164E-02  0.1320468E+00
        -11   -1    0    0    0    0  0.00000000000E+00  0.00000000000E+00  0.45593999997E+02  0.45594000000E+02  0.51100000000E-03 0.  1.
         11   -1    0    0    0    0 -0.00000000000E+00 -0.00000000000E+00 -0.45593999997E+02  0.45594000000E+02  0.51100000000E-03 0. -1.
    9900012    2    1    2    0    0 -0.34422507712E+02 -0.15266164564E+02 -0.24721410130E+02  0.46142323886E+02  0.10000055855E+02 0.  0.
        -12    1    1    2    0    0  0.34422507712E+02  0.15266164564E+02  0.24721410130E+02  0.45045676114E+02  0.00000000000E+00 0.  1.
         11    1    3    3    0    0 -0.10312785848E+02 -0.63223084349E+01 -0.56288520835E+01  0.13342005544E+02  0.51100000000E-03 0. -1.
        -11    1    3    3    0    0 -0.84280339966E+01 -0.66671371125E+01 -0.64921783244E+01  0.12555112663E+02  0.51100000000E-03 0.  1.
         12    1    3    3    0    0 -0.15681687867E+02 -0.22767190168E+01 -0.12600379723E+02  0.20245205680E+02  0.00000000000E+00 0. -1.
</event>
<event>
 7    1  0.4141894E-008  0.4614232E+02  0.7816164E-02  0.1320468E+00
        -11   -1    0    0    0    0  0.00000000000E+00  0.00000000000E+00  0.45593999997E+02  0.45594000000E+02  0.51100000000E-03 0.  1.
         11   -1    0    0    0    0 -0.00000000000E+00 -0.00000000000E+00 -0.45593999997E+02  0.45594000000E+02  0.51100000000E-03 0. -1.
    9900012    2    1    2    0    0  0.14760096345E+02 -0.62812268103E+01 -0.42092744536E+02  0.46142318776E+02  0.10000009257E+02 0.  0.
        -12    1    1    2    0    0 -0.14760096345E+02  0.62812268103E+01  0.42092744536E+02  0.45045681224E+02  0.00000000000E+00 0.  1.
         11    1    3    3    0    0  0.47582496716E+01 -0.25237237365E+01 -0.71154129659E+01  0.89240810939E+01  0.51100000000E-03 0.  1.
        -11    1    3    3    0    0  0.16553420792E+01 -0.73161579175E+00 -0.17710084027E+02  0.17802317140E+02  0.51100000000E-03 0. -1.
         12    1    3    3    0    0  0.83465045940E+01 -0.30258872820E+01 -0.17267247543E+02  0.19415920542E+02  0.00000000000E+00 0. -1.
</event>
<event>
 7    1  0.4141894E-008  0.4614232E+02  0.7816164E-02  0.1320468E+00
        -11   -1    0    0    0    0  0.00000000000E+00  0.00000000000E+00  0.45593999997E+02  0.45594000000E+02  0.51100000000E-03 0.  1.
         11   -1    0    0    0    0 -0.00000000000E+00 -0.00000000000E+00 -0.45593999997E+02  0.45594000000E+02  0.51100000000E-03 0. -1.
    9900012    2    1    2    0    0 -0.82685484160E+01  0.26641007295E+01 -0.44200081514E+02  0.46142317283E+02  0.99999956400E+01 0.  0.
        -12    1    1    2    0    0  0.82685484160E+01 -0.26641007295E+01  0.44200081514E+02  0.45045682717E+02  0.00000000000E+00 0.  1.
         11    1    3    3    0    0 -0.30584362938E+01  0.27821586727E+01 -0.22958809486E+02  0.23328124072E+02  0.51100000000E-03 0. -1.
        -11    1    3    3    0    0 -0.99816592738E+00 -0.26438477915E+01 -0.40737643604E+01  0.49580059185E+01  0.51100000000E-03 0.  1.
        -12    1    3    3    0    0 -0.42119461948E+01  0.25257898483E+01 -0.17167507667E+02  0.17856187292E+02  0.00000000000E+00 0.  1.
</event>
<event>
 7    1  0.4141894E-008  0.4614232E+02  0.7816164E-02  0.1320468E+00
        -11   -1    0    0    0    0  0.00000000000E+00  0.00000000000E+00  0.45593999997E+02  0.45594000000E+02  0.51100000000E-03 0.  1.
         11   -1    0    0    0    0 -0.00000000000E+00 -0.00000000000E+00 -0.45593999997E+02  0.45594000000E+02  0.51100000000E-03 0. -1.
    9900012    2    1    2    0    0 -0.50738773290E+01  0.29367079236E+02 -0.33777859706E+02  0.46142318960E+02  0.10000010934E+02 0.  0.
        -12    1    1    2    0    0  0.50738773290E+01 -0.29367079236E+02  0.33777859706E+02  0.45045681040E+02  0.00000000000E+00 0.  1.
         11    1    3    3    0    0  0.20651642194E+01  0.56158817080E+01 -0.54264768292E+01  0.80777275053E+01  0.51100000000E-03 0. -1.
        -11    1    3    3    0    0 -0.42973548271E+01  0.75101237923E+01 -0.72706565388E+01  0.11301843418E+02  0.51100000000E-03 0.  1.
         12    1    3    3    0    0 -0.28416867213E+01  0.16241073736E+02 -0.21080726338E+02  0.26762748036E+02  0.00000000000E+00 0. -1.
</event>
<event>
 7    1  0.4141894E-008  0.4614232E+02  0.7816164E-02  0.1320468E+00
        -11   -1    0    0    0    0  0.00000000000E+00  0.00000000000E+00  0.45593999997E+02  0.45594000000E+02  0.51100000000E-03 0.  1.
         11   -1    0    0    0    0 -0.00000000000E+00 -0.00000000000E+00 -0.45593999997E+02  0.45594000000E+02  0.51100000000E-03 0. -1.
    9900012    2    1    2    0    0  0.30104736888E+02  0.98166645560E+01 -0.32038275883E+02  0.46142320878E+02  0.10000028418E+02 0.  0.
        -12    1    1    2    0    0 -0.30104736888E+02 -0.98166645560E+01  0.32038275883E+02  0.45045679122E+02  0.00000000000E+00 0.  1.
         11    1    3    3    0    0  0.24443650055E+01  0.15861434083E+01 -0.27403104853E+01  0.40000091261E+01  0.51100000000E-03 0. -1.
        -11    1    3    3    0    0  0.17444001776E+02  0.42260449537E+01 -0.11772420442E+02  0.21464914098E+02  0.51100000000E-03 0.  1.
         12    1    3    3    0    0  0.10216370106E+02  0.40044761940E+01 -0.17525544956E+02  0.20677397653E+02  0.00000000000E+00 0. -1.
</event>
<event>
 7    1  0.4141894E-008  0.4614232E+02  0.7816164E-02  0.1320468E+00
        -11   -1    0    0    0    0  0.00000000000E+00  0.00000000000E+00  0.45593999997E+02  0.45594000000E+02  0.51100000000E-03 0.  1.
         11   -1    0    0    0    0 -0.00000000000E+00 -0.00000000000E+00 -0.45593999997E+02  0.45594000000E+02  0.51100000000E-03 0. -1.
    9900012    2    1    2    0    0  0.23975360178E+02  0.37913434196E+02  0.41069590567E+01  0.46142317622E+02  0.99999987329E+01 0.  0.
        -12    1    1    2    0    0 -0.23975360178E+02 -0.37913434196E+02 -0.41069590567E+01  0.45045682378E+02  0.00000000000E+00 0.  1.
         11    1    3    3    0    0  0.15135105384E+02  0.22576276012E+02  0.29402677607E+01  0.27338705681E+02  0.51100000000E-03 0. -1.
        -11    1    3    3    0    0  0.21486350941E+01  0.96358694737E+01 -0.36914335878E+00  0.98794170052E+01  0.51100000000E-03 0.  1.
         12    1    3    3    0    0  0.66916197002E+01  0.57012887105E+01  0.15358346547E+01  0.89241949362E+01  0.00000000000E+00 0. -1.
</event>
<event>
 7    1  0.4141894E-008  0.4614232E+02  0.7816164E-02  0.1320468E+00
        -11   -1    0    0    0    0  0.00000000000E+00  0.00000000000E+00  0.45593999997E+02  0.45594000000E+02  0.51100000000E-03 0. -1.
         11   -1    0    0    0    0 -0.00000000000E+00 -0.00000000000E+00 -0.45593999997E+02  0.45594000000E+02  0.51100000000E-03 0.  1.
    9900012    2    1    2    0    0 -0.19043936574E+02  0.32971803449E+02  0.24068696603E+02  0.46142317642E+02  0.99999989147E+01 0.  0.
        -12    1    1    2    0    0  0.19043936574E+02 -0.32971803449E+02 -0.24068696603E+02  0.45045682358E+02  0.00000000000E+00 0.  1.
         11    1    3    3    0    0 -0.11604447959E+02  0.25586272289E+02  0.15488949453E+02  0.32081585022E+02  0.51100000000E-03 0. -1.
        -11    1    3    3    0    0 -0.12136226888E+01  0.16094871151E+00 -0.11982419217E-01  0.12243072972E+01  0.51100000000E-03 0.  1.
        -12    1    3    3    0    0 -0.62258659262E+01  0.72245824485E+01  0.85917295691E+01  0.12836425323E+02  0.00000000000E+00 0.  1.
</event>
<event>
 7    1  0.4141894E-008  0.4614232E+02  0.7816164E-02  0.1320468E+00
        -11   -1    0    0    0    0  0.00000000000E+00  0.00000000000E+00  0.45593999997E+02  0.45594000000E+02  0.51100000000E-03 0. -1.
         11   -1    0    0    0    0 -0.00000000000E+00 -0.00000000000E+00 -0.45593999997E+02  0.45594000000E+02  0.51100000000E-03 0.  1.
    9900012    2    1    2    0    0 -0.62504312091E+01  0.10143008165E+02  0.43441512363E+02  0.46142317618E+02  0.99999986912E+01 0.  0.
        -12    1    1    2    0    0  0.62504312091E+01 -0.10143008165E+02 -0.43441512363E+02  0.45045682382E+02  0.00000000000E+00 0.  1.
         11    1    3    3    0    0  0.87943356705E+00  0.52245311485E+01  0.10748621854E+02  0.11983405240E+02  0.51100000000E-03 0. -1.
        -11    1    3    3    0    0 -0.83775049779E+00  0.29377516273E+01  0.14195836105E+02  0.14520811737E+02  0.51100000000E-03 0.  1.
        -12    1    3    3    0    0 -0.62921142783E+01  0.19807253888E+01  0.18497054404E+02  0.19638100641E+02  0.00000000000E+00 0.  1.
</event>
<event>
 7    1  0.4141894E-008  0.4614232E+02  0.7816164E-02  0.1320468E+00
        -11   -1    0    0    0    0  0.00000000000E+00  0.00000000000E+00  0.45593999997E+02  0.45594000000E+02  0.51100000000E-03 0.  1.
         11   -1    0    0    0    0 -0.00000000000E+00 -0.00000000000E+00 -0.45593999997E+02  0.45594000000E+02  0.51100000000E-03 0. -1.
    9900012    2    1    2    0    0  0.87236560086E+01 -0.38023420048E+02 -0.22521785548E+02  0.46142317958E+02  0.10000001799E+02 0.  0.
        -12    1    1    2    0    0 -0.87236560086E+01  0.38023420048E+02  0.22521785548E+02  0.45045682042E+02  0.00000000000E+00 0.  1.
         11    1    3    3    0    0  0.23520308685E+01 -0.27993786076E+01 -0.28259604699E+01  0.46211062132E+01  0.51100000000E-03 0. -1.
        -11    1    3    3    0    0  0.12015787449E+01 -0.19692530820E+02 -0.13989771786E+02  0.24185807335E+02  0.51100000000E-03 0.  1.
         12    1    3    3    0    0  0.51700463952E+01 -0.15531510620E+02 -0.57060532929E+01  0.17335404410E+02  0.00000000000E+00 0. -1.
</event>
<event>
 7    1  0.4141894E-008  0.4614232E+02  0.7816164E-02  0.1320468E+00
        -11   -1    0    0    0    0  0.00000000000E+00  0.00000000000E+00  0.45593999997E+02  0.45594000000E+02  0.51100000000E-03 0. -1.
         11   -1    0    0    0    0 -0.00000000000E+00 -0.00000000000E+00 -0.45593999997E+02  0.45594000000E+02  0.51100000000E-03 0.  1.
    9900012    2    1    2    0    0 -0.40427703215E+02 -0.18280635212E+02  0.77802741716E+01  0.46142317885E+02  0.10000001134E+02 0.  0.
        -12    1    1    2    0    0  0.40427703215E+02  0.18280635212E+02 -0.77802741716E+01  0.45045682115E+02  0.00000000000E+00 0.  1.
         11    1    3    3    0    0 -0.39873148598E+01 -0.39642630125E+01  0.96886876888E+00  0.57055033061E+01  0.51100000000E-03 0. -1.
        -11    1    3    3    0    0 -0.81587290786E+01 -0.63038928799E+01  0.33395146551E+01  0.10837725039E+02  0.51100000000E-03 0.  1.
         12    1    3    3    0    0 -0.28281659277E+02 -0.80124793194E+01  0.34718907476E+01  0.29599089541E+02  0.00000000000E+00 0. -1.
</event>
<event>
 7    1  0.4141894E-008  0.4614232E+02  0.7816164E-02  0.1320468E+00
        -11   -1    0    0    0    0  0.00000000000E+00  0.00000000000E+00  0.45593999997E+02  0.45594000000E+02  0.51100000000E-03 0. -1.
         11   -1    0    0    0    0 -0.00000000000E+00 -0.00000000000E+00 -0.45593999997E+02  0.45594000000E+02  0.51100000000E-03 0.  1.
    9900012    2    1    2    0    0  0.24729836217E+02  0.37256478954E+02 -0.54317078082E+01  0.46142317931E+02  0.10000001545E+02 0.  0.
        -12    1    1    2    0    0 -0.24729836217E+02 -0.37256478954E+02  0.54317078082E+01  0.45045682069E+02  0.00000000000E+00 0.  1.
         11    1    3    3    0    0  0.18715535953E+01  0.71311939871E+01  0.29608639094E+00  0.73786386247E+01  0.51100000000E-03 0. -1.
        -11    1    3    3    0    0  0.14146115082E+02  0.13515287122E+02 -0.35071513686E+01  0.19876510481E+02  0.51100000000E-03 0.  1.
         12    1    3    3    0    0  0.87121675395E+01  0.16609997845E+02 -0.22206428306E+01  0.18887168825E+02  0.00000000000E+00 0. -1.
</event>
<event>
 7    1  0.4141894E-008  0.4614232E+02  0.7816164E-02  0.1320468E+00
        -11   -1    0    0    0    0  0.00000000000E+00  0.00000000000E+00  0.45593999997E+02  0.45594000000E+02  0.51100000000E-03 0. -1.
         11   -1    0    0    0    0 -0.00000000000E+00 -0.00000000000E+00 -0.45593999997E+02  0.45594000000E+02  0.51100000000E-03 0.  1.
    9900012    2    1    2    0    0 -0.25732677079E+02 -0.36931934031E+02 -0.17248410579E+01  0.46142317659E+02  0.99999990657E+01 0.  0.
        -12    1    1    2    0    0  0.25732677079E+02  0.36931934031E+02  0.17248410579E+01  0.45045682341E+02  0.00000000000E+00 0.  1.
         11    1    3    3    0    0 -0.11620836868E+02 -0.14959783644E+02 -0.16269385362E+01  0.19012782686E+02  0.51100000000E-03 0. -1.
        -11    1    3    3    0    0 -0.12419020549E+02 -0.18235017958E+02  0.26063774449E+01  0.22215786166E+02  0.51100000000E-03 0.  1.
         12    1    3    3    0    0 -0.16928196613E+01 -0.37371324288E+01 -0.27042799666E+01  0.49137488065E+01  0.00000000000E+00 0. -1.
</event>
<event>
 7    1  0.4141894E-008  0.4614232E+02  0.7816164E-02  0.1320468E+00
        -11   -1    0    0    0    0  0.00000000000E+00  0.00000000000E+00  0.45593999997E+02  0.45594000000E+02  0.51100000000E-03 0.  1.
         11   -1    0    0    0    0 -0.00000000000E+00 -0.00000000000E+00 -0.45593999997E+02  0.45594000000E+02  0.51100000000E-03 0. -1.
    9900012    2    1    2    0    0  0.19319521336E+02  0.14405348900E+02 -0.38057266604E+02  0.46142317377E+02  0.99999965005E+01 0.  0.
        -12    1    1    2    0    0 -0.19319521336E+02 -0.14405348900E+02  0.38057266604E+02  0.45045682623E+02  0.00000000000E+00 0.  1.
         11    1    3    3    0    0  0.32359814592E+01 -0.10940166786E+00 -0.79498993497E+01  0.85839643907E+01  0.51100000000E-03 0. -1.
        -11    1    3    3    0    0 -0.21677192768E+00  0.13348596523E+01 -0.30062330433E+01  0.32964037574E+01  0.51100000000E-03 0.  1.
         12    1    3    3    0    0  0.16300311805E+02  0.13179890916E+02 -0.27101134211E+02  0.34261949229E+02  0.00000000000E+00 0. -1.
</event>
<event>
 7    1  0.4141894E-008  0.4614232E+02  0.7816164E-02  0.1320468E+00
        -11   -1    0    0    0    0  0.00000000000E+00  0.00000000000E+00  0.45593999997E+02  0.45594000000E+02  0.51100000000E-03 0.  1.
         11   -1    0    0    0    0 -0.00000000000E+00 -0.00000000000E+00 -0.45593999997E+02  0.45594000000E+02  0.51100000000E-03 0. -1.
    9900012    2    1    2    0    0  0.42276447475E+02  0.15008609814E+02  0.40690429778E+01  0.46142317738E+02  0.99999997894E+01 0.  0.
        -12    1    1    2    0    0 -0.42276447475E+02 -0.15008609814E+02 -0.40690429778E+01  0.45045682262E+02  0.00000000000E+00 0.  1.
         11    1    3    3    0    0  0.24293967960E+02  0.70379633302E+01  0.26043323513E+01  0.25426607213E+02  0.51100000000E-03 0. -1.
        -11    1    3    3    0    0  0.16504091153E+02  0.89693593924E+01  0.76551057881E+00  0.18799479764E+02  0.51100000000E-03 0.  1.
        -12    1    3    3    0    0  0.14783883621E+01 -0.99871290859E+00  0.69920004764E+00  0.19162307610E+01  0.00000000000E+00 0.  1.
</event>
<event>
 7    1  0.4141894E-008  0.4614232E+02  0.7816164E-02  0.1320468E+00
        -11   -1    0    0    0    0  0.00000000000E+00  0.00000000000E+00  0.45593999997E+02  0.45594000000E+02  0.51100000000E-03 0.  1.
         11   -1    0    0    0    0 -0.00000000000E+00 -0.00000000000E+00 -0.45593999997E+02  0.45594000000E+02  0.51100000000E-03 0. -1.
    9900012    2    1    2    0    0 -0.25255414748E+02 -0.19740720123E+02 -0.31647772368E+02  0.46142317621E+02  0.99999987258E+01 0.  0.
        -12    1    1    2    0    0  0.25255414748E+02  0.19740720123E+02  0.31647772368E+02  0.45045682379E+02  0.00000000000E+00 0.  1.
         11    1    3    3    0    0 -0.10092258798E+02 -0.95980101475E+01 -0.18628332489E+02  0.23259197278E+02  0.51100000000E-03 0. -1.
        -11    1    3    3    0    0 -0.31088753210E+01 -0.22043258291E+00 -0.30383771953E+01  0.43526351245E+01  0.51100000000E-03 0.  1.
         12    1    3    3    0    0 -0.12054280629E+02 -0.99222773925E+01 -0.99810626838E+01  0.18530485218E+02  0.00000000000E+00 0. -1.
</event>
<event>
 7    1  0.4141894E-008  0.4614232E+02  0.7816164E-02  0.1320468E+00
        -11   -1    0    0    0    0  0.00000000000E+00  0.00000000000E+00  0.45593999997E+02  0.45594000000E+02  0.51100000000E-03 0. -1.
         11   -1    0    0    0    0 -0.00000000000E+00 -0.00000000000E+00 -0.45593999997E+02  0.45594000000E+02  0.51100000000E-03 0.  1.
    9900012    2    1    2    0    0 -0.13442913638E+02  0.19395033736E+02  0.38369704984E+02  0.46142317396E+02  0.99999966693E+01 0.  0.
        -12    1    1    2    0    0  0.13442913638E+02 -0.19395033736E+02 -0.38369704984E+02  0.45045682604E+02  0.00000000000E+00 0.  1.
         11    1    3    3    0    0  0.72030098245E+00  0.12571319419E+01  0.12990078706E+01  0.19459280392E+01  0.51100000000E-03 0. -1.
        -11    1    3    3    0    0 -0.75107503465E+01  0.48327553775E+01  0.10882243936E+02  0.14078001586E+02  0.51100000000E-03 0.  1.
        -12    1    3    3    0    0 -0.66524642736E+01  0.13305146417E+02  0.26188453177E+02  0.30118387771E+02  0.00000000000E+00 0.  1.
</event>
<event>
 7    1  0.4141894E-008  0.4614232E+02  0.7816164E-02  0.1320468E+00
        -11   -1    0    0    0    0  0.00000000000E+00  0.00000000000E+00  0.45593999997E+02  0.45594000000E+02  0.51100000000E-03 0. -1.
         11   -1    0    0    0    0 -0.00000000000E+00 -0.00000000000E+00 -0.45593999997E+02  0.45594000000E+02  0.51100000000E-03 0.  1.
    9900012    2    1    2    0    0 -0.13943365893E+02  0.40539906901E+02  0.13827943853E+02  0.46142317242E+02  0.99999952627E+01 0.  0.
        -12    1    1    2    0    0  0.13943365893E+02 -0.40539906901E+02 -0.13827943853E+02  0.45045682758E+02  0.00000000000E+00 0.  1.
         11    1    3    3    0    0 -0.69665983454E+01  0.24975144472E+02  0.10146735455E+02  0.27843268030E+02  0.51100000000E-03 0. -1.
        -11    1    3    3    0    0  0.88367209651E+00  0.17568453885E+01 -0.91731692428E-01  0.19687044110E+01  0.51100000000E-03 0.  1.
         12    1    3    3    0    0 -0.78604396444E+01  0.13807917041E+02  0.37729400896E+01  0.16330344801E+02  0.00000000000E+00 0. -1.
</event>
<event>
 7    1  0.4141894E-008  0.4614232E+02  0.7816164E-02  0.1320468E+00
        -11   -1    0    0    0    0  0.00000000000E+00  0.00000000000E+00  0.45593999997E+02  0.45594000000E+02  0.51100000000E-03 0.  1.
         11   -1    0    0    0    0 -0.00000000000E+00 -0.00000000000E+00 -0.45593999997E+02  0.45594000000E+02  0.51100000000E-03 0. -1.
    9900012    2    1    2    0    0  0.41718992483E+02  0.16695568717E+02  0.31459800980E+01  0.46142317195E+02  0.99999948409E+01 0.  0.
        -12    1    1    2    0    0 -0.41718992483E+02 -0.16695568717E+02 -0.31459800980E+01  0.45045682805E+02  0.00000000000E+00 0.  1.
         11    1    3    3    0    0  0.12911712033E+02  0.26423496032E+01 -0.28274857345E+00  0.13182346759E+02  0.51100000000E-03 0. -1.
        -11    1    3    3    0    0  0.96994832949E+01  0.17194678589E+01  0.26633889650E+01  0.10204419971E+02  0.51100000000E-03 0.  1.
         12    1    3    3    0    0  0.19107797155E+02  0.12333751255E+02  0.76533970640E+00  0.22755550466E+02  0.00000000000E+00 0. -1.
</event>
<event>
 7    1  0.4141894E-008  0.4614232E+02  0.7816164E-02  0.1320468E+00
        -11   -1    0    0    0    0  0.00000000000E+00  0.00000000000E+00  0.45593999997E+02  0.45594000000E+02  0.51100000000E-03 0.  1.
         11   -1    0    0    0    0 -0.00000000000E+00 -0.00000000000E+00 -0.45593999997E+02  0.45594000000E+02  0.51100000000E-03 0. -1.
    9900012    2    1    2    0    0 -0.26844003155E+02  0.24432189869E+02 -0.26675476959E+02  0.46142317874E+02  0.10000001031E+02 0.  0.
        -12    1    1    2    0    0  0.26844003155E+02 -0.24432189869E+02  0.26675476959E+02  0.45045682126E+02  0.00000000000E+00 0.  1.
         11    1    3    3    0    0 -0.89210481680E+01  0.86951304373E+01 -0.72849675037E+01  0.14431255854E+02  0.51100000000E-03 0. -1.
        -11    1    3    3    0    0 -0.13063247273E+01  0.18159034580E+01  0.49864141655E+00  0.22918623836E+01  0.51100000000E-03 0.  1.
         12    1    3    3    0    0 -0.16616630259E+02  0.13921155974E+02 -0.19889150872E+02  0.29419199636E+02  0.00000000000E+00 0. -1.
</event>
<event>
 7    1  0.4141894E-008  0.4614232E+02  0.7816164E-02  0.1320468E+00
        -11   -1    0    0    0    0  0.00000000000E+00  0.00000000000E+00  0.45593999997E+02  0.45594000000E+02  0.51100000000E-03 0. -1.
         11   -1    0    0    0    0 -0.00000000000E+00 -0.00000000000E+00 -0.45593999997E+02  0.45594000000E+02  0.51100000000E-03 0.  1.
    9900012    2    1    2    0    0 -0.12417866272E+02  0.34059161883E+02  0.26737304532E+02  0.46142319135E+02  0.10000012529E+02 0.  0.
        -12    1    1    2    0    0  0.12417866272E+02 -0.34059161883E+02 -0.26737304532E+02  0.45045680865E+02  0.00000000000E+00 0.  1.
         11    1    3    3    0    0 -0.93837392128E+01  0.28478477855E+02  0.20800641907E+02  0.36493081078E+02  0.51100000000E-03 0.  1.
        -11    1    3    3    0    0 -0.13640039369E+01  0.57669150335E+01  0.45879420144E+01  0.74944664874E+01  0.51100000000E-03 0. -1.
        -12    1    3    3    0    0 -0.16701231225E+01 -0.18623100548E+00  0.13487206108E+01  0.21547715697E+01  0.00000000000E+00 0.  1.
</event>
<event>
 7    1  0.4141894E-008  0.4614232E+02  0.7816164E-02  0.1320468E+00
        -11   -1    0    0    0    0  0.00000000000E+00  0.00000000000E+00  0.45593999997E+02  0.45594000000E+02  0.51100000000E-03 0.  1.
         11   -1    0    0    0    0 -0.00000000000E+00 -0.00000000000E+00 -0.45593999997E+02  0.45594000000E+02  0.51100000000E-03 0. -1.
    9900012    2    1    2    0    0 -0.29483181035E+02  0.85395717316E+01 -0.32968640402E+02  0.46142317640E+02  0.99999988943E+01 0.  0.
        -12    1    1    2    0    0  0.29483181035E+02 -0.85395717316E+01  0.32968640402E+02  0.45045682360E+02  0.00000000000E+00 0.  1.
         11    1    3    3    0    0 -0.13407994768E+02  0.68117345662E+01 -0.15533763599E+02  0.21621097643E+02  0.51100000000E-03 0. -1.
        -11    1    3    3    0    0 -0.26766181547E+01  0.25850783392E+01 -0.49046080882E+01  0.61564677800E+01  0.51100000000E-03 0.  1.
        -12    1    3    3    0    0 -0.13398568112E+02 -0.85724117388E+00 -0.12530268715E+02  0.18364752216E+02  0.00000000000E+00 0.  1.
</event>
<event>
 7    1  0.4141894E-008  0.4614232E+02  0.7816164E-02  0.1320468E+00
        -11   -1    0    0    0    0  0.00000000000E+00  0.00000000000E+00  0.45593999997E+02  0.45594000000E+02  0.51100000000E-03 0. -1.
         11   -1    0    0    0    0 -0.00000000000E+00 -0.00000000000E+00 -0.45593999997E+02  0.45594000000E+02  0.51100000000E-03 0.  1.
    9900012    2    1    2    0    0 -0.22398319486E+02 -0.21430638921E+02  0.32682663040E+02  0.46142318034E+02  0.10000002486E+02 0.  0.
        -12    1    1    2    0    0  0.22398319486E+02  0.21430638921E+02 -0.32682663040E+02  0.45045681966E+02  0.00000000000E+00 0.  1.
         11    1    3    3    0    0 -0.39280877726E+01 -0.68119728569E+01  0.10708523409E+02  0.13285530535E+02  0.51100000000E-03 0. -1.
        -11    1    3    3    0    0 -0.65651887599E+01 -0.80208962575E+01  0.12669730307E+02  0.16369439408E+02  0.51100000000E-03 0.  1.
        -12    1    3    3    0    0 -0.11905042954E+02 -0.65977698070E+01  0.93044093244E+01  0.16487348090E+02  0.00000000000E+00 0.  1.
</event>
<event>
 7    1  0.4141894E-008  0.4614232E+02  0.7816164E-02  0.1320468E+00
        -11   -1    0    0    0    0  0.00000000000E+00  0.00000000000E+00  0.45593999997E+02  0.45594000000E+02  0.51100000000E-03 0.  1.
         11   -1    0    0    0    0 -0.00000000000E+00 -0.00000000000E+00 -0.45593999997E+02  0.45594000000E+02  0.51100000000E-03 0. -1.
    9900012    2    1    2    0    0  0.19058963592E+01  0.54274814019E+01 -0.44676879472E+02  0.46142317025E+02  0.99999932906E+01 0.  0.
        -12    1    1    2    0    0 -0.19058963592E+01 -0.54274814019E+01  0.44676879472E+02  0.45045682975E+02  0.00000000000E+00 0.  1.
         11    1    3    3    0    0 -0.24728526026E+01  0.17886680005E+01 -0.18773850528E+02  0.19020299606E+02  0.51100000000E-03 0. -1.
        -11    1    3    3    0    0 -0.13763983005E+01  0.81868418735E+00 -0.61617556516E+01  0.63664706904E+01  0.51100000000E-03 0.  1.
        -12    1    3    3    0    0  0.57551472624E+01  0.28201292140E+01 -0.19741273293E+02  0.20755546729E+02  0.00000000000E+00 0.  1.
</event>
<event>
 7    1  0.4141894E-008  0.4614232E+02  0.7816164E-02  0.1320468E+00
        -11   -1    0    0    0    0  0.00000000000E+00  0.00000000000E+00  0.45593999997E+02  0.45594000000E+02  0.51100000000E-03 0.  1.
         11   -1    0    0    0    0 -0.00000000000E+00 -0.00000000000E+00 -0.45593999997E+02  0.45594000000E+02  0.51100000000E-03 0. -1.
    9900012    2    1    2    0    0  0.69580312214E+01  0.27998748384E+02 -0.34594353415E+02  0.46142318767E+02  0.10000009170E+02 0.  0.
        -12    1    1    2    0    0 -0.69580312214E+01 -0.27998748384E+02  0.34594353415E+02  0.45045681233E+02  0.00000000000E+00 0.  1.
         11    1    3    3    0    0  0.25961273398E+01  0.12226899719E+01 -0.40368166464E+01  0.49528513837E+01  0.51100000000E-03 0. -1.
        -11    1    3    3    0    0  0.43312003385E+01  0.27024026896E+02 -0.30265048830E+02  0.40804785344E+02  0.51100000000E-03 0.  1.
        -12    1    3    3    0    0  0.30703543030E-01 -0.24796848377E+00 -0.29248793927E+00  0.38468203898E+00  0.00000000000E+00 0.  1.
</event>
<event>
 7    1  0.4141894E-008  0.4614232E+02  0.7816164E-02  0.1320468E+00
        -11   -1    0    0    0    0  0.00000000000E+00  0.00000000000E+00  0.45593999997E+02  0.45594000000E+02  0.51100000000E-03 0.  1.
         11   -1    0    0    0    0 -0.00000000000E+00 -0.00000000000E+00 -0.45593999997E+02  0.45594000000E+02  0.51100000000E-03 0. -1.
    9900012    2    1    2    0    0  0.28867031625E+02  0.25554580430E+02 -0.23297440747E+02  0.46142324945E+02  0.10000065508E+02 0.  0.
        -12    1    1    2    0    0 -0.28867031625E+02 -0.25554580430E+02  0.23297440747E+02  0.45045675055E+02  0.00000000000E+00 0.  1.
         11    1    3    3    0    0  0.12452471680E+01  0.18884840204E-01  0.22364870747E+00  0.12653126697E+01  0.51100000000E-03 0. -1.
        -11    1    3    3    0    0  0.29045063711E+00  0.54111645980E+00  0.44846912406E+00  0.76045605528E+00  0.51100000000E-03 0.  1.
         12    1    3    3    0    0  0.27331333820E+02  0.24994579130E+02 -0.23969558579E+02  0.44116556220E+02  0.00000000000E+00 0. -1.
</event>
<event>
 7    1  0.4141894E-008  0.4614231E+02  0.7816164E-02  0.1320468E+00
        -11   -1    0    0    0    0  0.00000000000E+00  0.00000000000E+00  0.45593999997E+02  0.45594000000E+02  0.51100000000E-03 0.  1.
         11   -1    0    0    0    0 -0.00000000000E+00 -0.00000000000E+00 -0.45593999997E+02  0.45594000000E+02  0.51100000000E-03 0. -1.
    9900012    2    1    2    0    0 -0.15447336830E+01 -0.43689793082E+02 -0.10859539150E+02  0.46142314166E+02  0.99999672149E+01 0.  0.
        -12    1    1    2    0    0  0.15447336830E+01  0.43689793082E+02  0.10859539150E+02  0.45045685834E+02  0.00000000000E+00 0.  1.
         11    1    3    3    0    0  0.16616982686E+01 -0.20231951732E+02 -0.83512438529E+01  0.21950771881E+02  0.51100000000E-03 0. -1.
        -11    1    3    3    0    0 -0.15387077408E+01 -0.20525643637E+01  0.76144408561E-01  0.25664060884E+01  0.51100000000E-03 0.  1.
         12    1    3    3    0    0 -0.16677242108E+01 -0.21405276987E+02 -0.25844397056E+01  0.21625136197E+02  0.00000000000E+00 0. -1.
</event>
<event>
 7    1  0.4141894E-008  0.4614232E+02  0.7816164E-02  0.1320468E+00
        -11   -1    0    0    0    0  0.00000000000E+00  0.00000000000E+00  0.45593999997E+02  0.45594000000E+02  0.51100000000E-03 0. -1.
         11   -1    0    0    0    0 -0.00000000000E+00 -0.00000000000E+00 -0.45593999997E+02  0.45594000000E+02  0.51100000000E-03 0.  1.
    9900012    2    1    2    0    0  0.17439675749E+02 -0.38448411902E+02  0.15706393624E+02  0.46142317980E+02  0.10000001994E+02 0.  0.
        -12    1    1    2    0    0 -0.17439675749E+02  0.38448411902E+02 -0.15706393624E+02  0.45045682020E+02  0.00000000000E+00 0.  1.
         11    1    3    3    0    0  0.68413521257E+01 -0.13255565828E+02  0.13758098949E+01  0.14980219540E+02  0.51100000000E-03 0. -1.
        -11    1    3    3    0    0  0.19719688169E+00 -0.22192161492E+01  0.23641557973E+01  0.32485442619E+01  0.51100000000E-03 0.  1.
         12    1    3    3    0    0  0.10401126741E+02 -0.22973629925E+02  0.11966427932E+02  0.27913554178E+02  0.00000000000E+00 0. -1.
</event>
<event>
 7    1  0.4141894E-008  0.4614232E+02  0.7816164E-02  0.1320468E+00
        -11   -1    0    0    0    0  0.00000000000E+00  0.00000000000E+00  0.45593999997E+02  0.45594000000E+02  0.51100000000E-03 0.  1.
         11   -1    0    0    0    0 -0.00000000000E+00 -0.00000000000E+00 -0.45593999997E+02  0.45594000000E+02  0.51100000000E-03 0. -1.
    9900012    2    1    2    0    0 -0.38594816093E+02 -0.49075678941E+01 -0.22703950926E+02  0.46142318303E+02  0.10000004938E+02 0.  0.
        -12    1    1    2    0    0  0.38594816093E+02  0.49075678941E+01  0.22703950926E+02  0.45045681697E+02  0.00000000000E+00 0.  1.
         11    1    3    3    0    0 -0.64163052717E+01 -0.12365410190E+01 -0.83174036668E+00  0.65870933901E+01  0.51100000000E-03 0.  1.
        -11    1    3    3    0    0 -0.34914830906E+01 -0.21519947758E+01 -0.39598158162E+01  0.57010242279E+01  0.51100000000E-03 0. -1.
         12    1    3    3    0    0 -0.28687027731E+02 -0.15190320993E+01 -0.17912394743E+02  0.33854200685E+02  0.00000000000E+00 0. -1.
</event>
<event>
 7    1  0.4141894E-008  0.4614232E+02  0.7816164E-02  0.1320468E+00
        -11   -1    0    0    0    0  0.00000000000E+00  0.00000000000E+00  0.45593999997E+02  0.45594000000E+02  0.51100000000E-03 0.  1.
         11   -1    0    0    0    0 -0.00000000000E+00 -0.00000000000E+00 -0.45593999997E+02  0.45594000000E+02  0.51100000000E-03 0. -1.
    9900012    2    1    2    0    0 -0.25460616193E+02  0.47550570282E+01 -0.36854579705E+02  0.46142316638E+02  0.99999897609E+01 0.  0.
        -12    1    1    2    0    0  0.25460616193E+02 -0.47550570282E+01  0.36854579705E+02  0.45045683362E+02  0.00000000000E+00 0.  1.
         11    1    3    3    0    0 -0.55240767059E+01 -0.29702758883E+00 -0.10999443212E+02  0.12312245940E+02  0.51100000000E-03 0. -1.
        -11    1    3    3    0    0 -0.10610017703E+02 -0.10070712479E+01 -0.11662424224E+02  0.15798696376E+02  0.51100000000E-03 0.  1.
        -12    1    3    3    0    0 -0.93265217842E+01  0.60591558649E+01 -0.14192712269E+02  0.18031374322E+02  0.00000000000E+00 0.  1.
</event>
<event>
 7    1  0.4141894E-008  0.4614232E+02  0.7816164E-02  0.1320468E+00
        -11   -1    0    0    0    0  0.00000000000E+00  0.00000000000E+00  0.45593999997E+02  0.45594000000E+02  0.51100000000E-03 0.  1.
         11   -1    0    0    0    0 -0.00000000000E+00 -0.00000000000E+00 -0.45593999997E+02  0.45594000000E+02  0.51100000000E-03 0. -1.
    9900012    2    1    2    0    0  0.22603484248E+02  0.38936338864E+02 -0.14688485003E+01  0.46142317630E+02  0.99999988046E+01 0.  0.
        -12    1    1    2    0    0 -0.22603484248E+02 -0.38936338864E+02  0.14688485003E+01  0.45045682370E+02  0.00000000000E+00 0.  1.
         11    1    3    3    0    0  0.15700845991E+02  0.24960987640E+02  0.15732617740E+01  0.29530367787E+02  0.51100000000E-03 0. -1.
        -11    1    3    3    0    0  0.69558934660E+01  0.10421808589E+02 -0.11417197061E+01  0.12581815144E+02  0.51100000000E-03 0.  1.
        -12    1    3    3    0    0 -0.53255208965E-01  0.35535426352E+01 -0.19003905681E+01  0.40301346986E+01  0.00000000000E+00 0.  1.
</event>
<event>
 7    1  0.4141894E-008  0.4614232E+02  0.7816164E-02  0.1320468E+00
        -11   -1    0    0    0    0  0.00000000000E+00  0.00000000000E+00  0.45593999997E+02  0.45594000000E+02  0.51100000000E-03 0.  1.
         11   -1    0    0    0    0 -0.00000000000E+00 -0.00000000000E+00 -0.45593999997E+02  0.45594000000E+02  0.51100000000E-03 0. -1.
    9900012    2    1    2    0    0 -0.27667678010E+01  0.41929046551E+02  0.16230019071E+02  0.46142317990E+02  0.10000002085E+02 0.  0.
        -12    1    1    2    0    0  0.27667678010E+01 -0.41929046551E+02 -0.16230019071E+02  0.45045682010E+02  0.00000000000E+00 0.  1.
         11    1    3    3    0    0 -0.54069039567E+00  0.44305372137E+00 -0.60242775128E+00  0.92280125738E+00  0.51100000000E-03 0.  1.
        -11    1    3    3    0    0  0.39536659092E+00  0.39730705059E+01  0.35366619828E+01  0.53338149788E+01  0.51100000000E-03 0. -1.
        -12    1    3    3    0    0 -0.26214439963E+01  0.37512922324E+02  0.13295784839E+02  0.39885701754E+02  0.00000000000E+00 0.  1.
</event>
<event>
 7    1  0.4141894E-008  0.4614232E+02  0.7816164E-02  0.1320468E+00
        -11   -1    0    0    0    0  0.00000000000E+00  0.00000000000E+00  0.45593999997E+02  0.45594000000E+02  0.51100000000E-03 0.  1.
         11   -1    0    0    0    0 -0.00000000000E+00 -0.00000000000E+00 -0.45593999997E+02  0.45594000000E+02  0.51100000000E-03 0. -1.
    9900012    2    1    2    0    0  0.31706677271E+01  0.20826805620E+02 -0.39815880891E+02  0.46142319438E+02  0.10000015293E+02 0.  0.
        -12    1    1    2    0    0 -0.31706677271E+01 -0.20826805620E+02  0.39815880891E+02  0.45045680562E+02  0.00000000000E+00 0.  1.
         11    1    3    3    0    0  0.26835669594E+01  0.12877152415E+02 -0.20616600816E+02  0.24455404625E+02  0.51100000000E-03 0. -1.
        -11    1    3    3    0    0  0.41987057382E+00  0.70257664362E+01 -0.89030378887E+01  0.11349086713E+02  0.51100000000E-03 0.  1.
         12    1    3    3    0    0  0.67230193952E-01  0.92388676968E+00 -0.10296242186E+02  0.10337828100E+02  0.00000000000E+00 0. -1.
</event>
<event>
 7    1  0.4141894E-008  0.4614232E+02  0.7816164E-02  0.1320468E+00
        -11   -1    0    0    0    0  0.00000000000E+00  0.00000000000E+00  0.45593999997E+02  0.45594000000E+02  0.51100000000E-03 0. -1.
         11   -1    0    0    0    0 -0.00000000000E+00 -0.00000000000E+00 -0.45593999997E+02  0.45594000000E+02  0.51100000000E-03 0.  1.
    9900012    2    1    2    0    0  0.44684513587E+02  0.24905621984E+01 -0.51190693816E+01  0.46142317344E+02  0.99999962006E+01 0.  0.
        -12    1    1    2    0    0 -0.44684513587E+02 -0.24905621984E+01  0.51190693816E+01  0.45045682656E+02  0.00000000000E+00 0.  1.
         11    1    3    3    0    0  0.12771313593E+02  0.25723882538E+01 -0.36880191799E+01  0.13539760631E+02  0.51100000000E-03 0. -1.
        -11    1    3    3    0    0  0.20145056541E+02  0.17190577039E+01  0.17087158353E+01  0.20290346781E+02  0.51100000000E-03 0.  1.
        -12    1    3    3    0    0  0.11768143453E+02 -0.18008837593E+01 -0.31397660370E+01  0.12312209932E+02  0.00000000000E+00 0.  1.
</event>
<event>
 7    1  0.4141894E-008  0.4614232E+02  0.7816164E-02  0.1320468E+00
        -11   -1    0    0    0    0  0.00000000000E+00  0.00000000000E+00  0.45593999997E+02  0.45594000000E+02  0.51100000000E-03 0.  1.
         11   -1    0    0    0    0 -0.00000000000E+00 -0.00000000000E+00 -0.45593999997E+02  0.45594000000E+02  0.51100000000E-03 0. -1.
    9900012    2    1    2    0    0  0.24658629282E+02 -0.11940780383E+02 -0.35755884331E+02  0.46142317648E+02  0.99999989723E+01 0.  0.
        -12    1    1    2    0    0 -0.24658629282E+02  0.11940780383E+02  0.35755884331E+02  0.45045682352E+02  0.00000000000E+00 0.  1.
         11    1    3    3    0    0  0.10958314336E+02 -0.56608972113E+01 -0.14155933222E+02  0.18775538766E+02  0.51100000000E-03 0. -1.
        -11    1    3    3    0    0  0.49032314160E+01 -0.62700263288E+01 -0.11290906875E+02  0.13814466577E+02  0.51100000000E-03 0.  1.
        -12    1    3    3    0    0  0.87970835303E+01 -0.98568424357E-02 -0.10309044235E+02  0.13552312306E+02  0.00000000000E+00 0.  1.
</event>
<event>
 7    1  0.4141894E-008  0.4614232E+02  0.7816164E-02  0.1320468E+00
        -11   -1    0    0    0    0  0.00000000000E+00  0.00000000000E+00  0.45593999997E+02  0.45594000000E+02  0.51100000000E-03 0.  1.
         11   -1    0    0    0    0 -0.00000000000E+00 -0.00000000000E+00 -0.45593999997E+02  0.45594000000E+02  0.51100000000E-03 0. -1.
    9900012    2    1    2    0    0 -0.96059017050E+01  0.35590297589E+02 -0.25887659411E+02  0.46142317190E+02  0.99999947921E+01 0.  0.
        -12    1    1    2    0    0  0.96059017050E+01 -0.35590297589E+02  0.25887659411E+02  0.45045682810E+02  0.00000000000E+00 0.  1.
         11    1    3    3    0    0 -0.20013859598E+01  0.12866468540E+02 -0.90402922053E+01  0.15851764629E+02  0.51100000000E-03 0. -1.
        -11    1    3    3    0    0 -0.46485226091E+00  0.12997066910E+02 -0.73767260357E+01  0.14951786621E+02  0.51100000000E-03 0.  1.
        -12    1    3    3    0    0 -0.71396634843E+01  0.97267621386E+01 -0.94706411704E+01  0.15338765940E+02  0.00000000000E+00 0.  1.
</event>
<event>
 7    1  0.4141894E-008  0.4614232E+02  0.7816164E-02  0.1320468E+00
        -11   -1    0    0    0    0  0.00000000000E+00  0.00000000000E+00  0.45593999997E+02  0.45594000000E+02  0.51100000000E-03 0.  1.
         11   -1    0    0    0    0 -0.00000000000E+00 -0.00000000000E+00 -0.45593999997E+02  0.45594000000E+02  0.51100000000E-03 0. -1.
    9900012    2    1    2    0    0  0.18076951337E+02  0.14295168645E+02 -0.38703817104E+02  0.46142317913E+02  0.10000001388E+02 0.  0.
        -12    1    1    2    0    0 -0.18076951337E+02 -0.14295168645E+02  0.38703817104E+02  0.45045682087E+02  0.00000000000E+00 0.  1.
         11    1    3    3    0    0  0.38390895126E+01  0.43312694079E+01 -0.12224403320E+02  0.13525329562E+02  0.51100000000E-03 0. -1.
        -11    1    3    3    0    0  0.35574311928E+01  0.43068951074E+01 -0.33323813747E+01  0.65045697817E+01  0.51100000000E-03 0.  1.
         12    1    3    3    0    0  0.10680430632E+02  0.56570041296E+01 -0.23147032410E+02  0.26112418570E+02  0.00000000000E+00 0. -1.
</event>
<event>
 7    1  0.4141894E-008  0.4614232E+02  0.7816164E-02  0.1320468E+00
        -11   -1    0    0    0    0  0.00000000000E+00  0.00000000000E+00  0.45593999997E+02  0.45594000000E+02  0.51100000000E-03 0.  1.
         11   -1    0    0    0    0 -0.00000000000E+00 -0.00000000000E+00 -0.45593999997E+02  0.45594000000E+02  0.51100000000E-03 0. -1.
    9900012    2    1    2    0    0 -0.36416109202E+02  0.15335547884E+02 -0.21628715343E+02  0.46142319122E+02  0.10000012412E+02 0.  0.
        -12    1    1    2    0    0  0.36416109202E+02 -0.15335547884E+02  0.21628715343E+02  0.45045680878E+02  0.00000000000E+00 0.  1.
         11    1    3    3    0    0 -0.13389479667E+02  0.51109186815E+01 -0.80744212373E+01  0.16449800428E+02  0.51100000000E-03 0. -1.
        -11    1    3    3    0    0 -0.12094948581E+02  0.90401538676E+01 -0.10102038784E+02  0.18167645719E+02  0.51100000000E-03 0.  1.
        -12    1    3    3    0    0 -0.10931680953E+02  0.11844753350E+01 -0.34522553227E+01  0.11524872975E+02  0.00000000000E+00 0.  1.
</event>
<event>
 7    1  0.4141894E-008  0.4614232E+02  0.7816164E-02  0.1320468E+00
        -11   -1    0    0    0    0  0.00000000000E+00  0.00000000000E+00  0.45593999997E+02  0.45594000000E+02  0.51100000000E-03 0.  1.
         11   -1    0    0    0    0 -0.00000000000E+00 -0.00000000000E+00 -0.45593999997E+02  0.45594000000E+02  0.51100000000E-03 0. -1.
    9900012    2    1    2    0    0  0.37965508472E+02 -0.23756839950E+02 -0.48317850963E+01  0.46142318463E+02  0.10000006401E+02 0.  0.
        -12    1    1    2    0    0 -0.37965508472E+02  0.23756839950E+02  0.48317850963E+01  0.45045681537E+02  0.00000000000E+00 0.  1.
         11    1    3    3    0    0  0.14912899719E+01 -0.12409390180E+00 -0.95516727559E+00  0.17752999359E+01  0.51100000000E-03 0.  1.
        -11    1    3    3    0    0  0.15940571030E+02 -0.60718034745E+01  0.93512612072E-01  0.17058058127E+02  0.51100000000E-03 0. -1.
         12    1    3    3    0    0  0.20533647469E+02 -0.17560942573E+02 -0.39701304327E+01  0.27308960400E+02  0.00000000000E+00 0. -1.
</event>
<event>
 7    1  0.4141894E-008  0.4614232E+02  0.7816164E-02  0.1320468E+00
        -11   -1    0    0    0    0  0.00000000000E+00  0.00000000000E+00  0.45593999997E+02  0.45594000000E+02  0.51100000000E-03 0.  1.
         11   -1    0    0    0    0 -0.00000000000E+00 -0.00000000000E+00 -0.45593999997E+02  0.45594000000E+02  0.51100000000E-03 0. -1.
    9900012    2    1    2    0    0 -0.19376298855E+02  0.78772636174E+01 -0.39895129533E+02  0.46142316523E+02  0.99999887093E+01 0.  0.
        -12    1    1    2    0    0  0.19376298855E+02 -0.78772636174E+01  0.39895129533E+02  0.45045683477E+02  0.00000000000E+00 0.  1.
         11    1    3    3    0    0 -0.13505744266E+02  0.46983094212E+01 -0.21068321599E+02  0.25462784899E+02  0.51100000000E-03 0. -1.
        -11    1    3    3    0    0 -0.17147021957E+01  0.10232873912E+00 -0.74398551881E+00  0.18719480506E+01  0.51100000000E-03 0.  1.
         12    1    3    3    0    0 -0.41558523937E+01  0.30766254571E+01 -0.18082822416E+02  0.18807583573E+02  0.00000000000E+00 0. -1.
</event>
<event>
 7    1  0.4141894E-008  0.4614232E+02  0.7816164E-02  0.1320468E+00
        -11   -1    0    0    0    0  0.00000000000E+00  0.00000000000E+00  0.45593999997E+02  0.45594000000E+02  0.51100000000E-03 0.  1.
         11   -1    0    0    0    0 -0.00000000000E+00 -0.00000000000E+00 -0.45593999997E+02  0.45594000000E+02  0.51100000000E-03 0. -1.
    9900012    2    1    2    0    0  0.23253907360E+02  0.65482470828E+01 -0.38019595902E+02  0.46142318521E+02  0.10000006928E+02 0.  0.
        -12    1    1    2    0    0 -0.23253907360E+02 -0.65482470828E+01  0.38019595902E+02  0.45045681479E+02  0.00000000000E+00 0.  1.
         11    1    3    3    0    0  0.28359921723E+01  0.16839369216E+01 -0.79618565481E+01  0.86179843995E+01  0.51100000000E-03 0. -1.
        -11    1    3    3    0    0  0.20670941001E+01  0.24368853132E+01 -0.15940517799E+01  0.35710347781E+01  0.51100000000E-03 0.  1.
         12    1    3    3    0    0  0.18350821087E+02  0.24274248481E+01 -0.28463687574E+02  0.33953299343E+02  0.00000000000E+00 0. -1.
</event>
<event>
 7    1  0.4141894E-008  0.4614231E+02  0.7816164E-02  0.1320468E+00
        -11   -1    0    0    0    0  0.00000000000E+00  0.00000000000E+00  0.45593999997E+02  0.45594000000E+02  0.51100000000E-03 0.  1.
         11   -1    0    0    0    0 -0.00000000000E+00 -0.00000000000E+00 -0.45593999997E+02  0.45594000000E+02  0.51100000000E-03 0. -1.
    9900012    2    1    2    0    0 -0.12729751435E+02 -0.33148366939E+02 -0.27717377760E+02  0.46142313944E+02  0.99999651942E+01 0.  0.
        -12    1    1    2    0    0  0.12729751435E+02  0.33148366939E+02  0.27717377760E+02  0.45045686056E+02  0.00000000000E+00 0.  1.
         11    1    3    3    0    0 -0.92932763350E+01 -0.21343740863E+02 -0.18115898742E+02  0.29497560010E+02  0.51100000000E-03 0. -1.
        -11    1    3    3    0    0  0.13177726214E+01 -0.55867042604E+01 -0.46027522952E+01  0.73575211945E+01  0.51100000000E-03 0.  1.
        -12    1    3    3    0    0 -0.47542477218E+01 -0.62179218158E+01 -0.49987267227E+01  0.92872327394E+01  0.00000000000E+00 0.  1.
</event>
<event>
 7    1  0.4141894E-008  0.4614232E+02  0.7816164E-02  0.1320468E+00
        -11   -1    0    0    0    0  0.00000000000E+00  0.00000000000E+00  0.45593999997E+02  0.45594000000E+02  0.51100000000E-03 0.  1.
         11   -1    0    0    0    0 -0.00000000000E+00 -0.00000000000E+00 -0.45593999997E+02  0.45594000000E+02  0.51100000000E-03 0. -1.
    9900012    2    1    2    0    0 -0.33432696722E+01 -0.49756901906E+01 -0.44645027497E+02  0.46142318462E+02  0.10000006391E+02 0.  0.
        -12    1    1    2    0    0  0.33432696722E+01  0.49756901906E+01  0.44645027497E+02  0.45045681538E+02  0.00000000000E+00 0.  1.
         11    1    3    3    0    0 -0.12447107942E+01 -0.52710739660E+01 -0.38347725624E+02  0.38728304721E+02  0.51100000000E-03 0. -1.
        -11    1    3    3    0    0  0.18776101805E+00 -0.11117485128E+01 -0.11607595739E+01  0.16182095059E+01  0.51100000000E-03 0.  1.
         12    1    3    3    0    0 -0.22863198960E+01  0.14071322881E+01 -0.51365422992E+01  0.57958042354E+01  0.00000000000E+00 0. -1.
</event>
<event>
 7    1  0.4141894E-008  0.4614232E+02  0.7816164E-02  0.1320468E+00
        -11   -1    0    0    0    0  0.00000000000E+00  0.00000000000E+00  0.45593999997E+02  0.45594000000E+02  0.51100000000E-03 0. -1.
         11   -1    0    0    0    0 -0.00000000000E+00 -0.00000000000E+00 -0.45593999997E+02  0.45594000000E+02  0.51100000000E-03 0.  1.
    9900012    2    1    2    0    0 -0.31305223301E+02  0.31649186582E+01  0.32234758832E+02  0.46142318819E+02  0.10000009651E+02 0.  0.
        -12    1    1    2    0    0  0.31305223301E+02 -0.31649186582E+01 -0.32234758832E+02  0.45045681181E+02  0.00000000000E+00 0.  1.
         11    1    3    3    0    0 -0.99936701503E+01  0.16779264397E+01  0.14807601208E+02  0.17943074821E+02  0.51100000000E-03 0. -1.
        -11    1    3    3    0    0 -0.22486894476E+01 -0.30566642711E+00  0.46682750505E+01  0.51906481680E+01  0.51100000000E-03 0.  1.
        -12    1    3    3    0    0 -0.19062863703E+02  0.17926586456E+01  0.12758882574E+02  0.23008595831E+02  0.00000000000E+00 0.  1.
</event>
<event>
 7    1  0.4141894E-008  0.4614232E+02  0.7816164E-02  0.1320468E+00
        -11   -1    0    0    0    0  0.00000000000E+00  0.00000000000E+00  0.45593999997E+02  0.45594000000E+02  0.51100000000E-03 0. -1.
         11   -1    0    0    0    0 -0.00000000000E+00 -0.00000000000E+00 -0.45593999997E+02  0.45594000000E+02  0.51100000000E-03 0.  1.
    9900012    2    1    2    0    0 -0.30442508200E+02  0.30961694960E+02  0.11989187741E+02  0.46142317820E+02  0.10000000540E+02 0.  0.
        -12    1    1    2    0    0  0.30442508200E+02 -0.30961694960E+02 -0.11989187741E+02  0.45045682180E+02  0.00000000000E+00 0.  1.
         11    1    3    3    0    0 -0.15356915095E+02  0.19358361403E+02  0.95256376530E+01  0.26482423801E+02  0.51100000000E-03 0. -1.
        -11    1    3    3    0    0 -0.14511375466E+02  0.96187283040E+01  0.25310361145E+01  0.17592785344E+02  0.51100000000E-03 0.  1.
        -12    1    3    3    0    0 -0.57421763940E+00  0.19846052533E+01 -0.67486026472E-01  0.20671086746E+01  0.00000000000E+00 0.  1.
</event>
<event>
 7    1  0.4141894E-008  0.4614232E+02  0.7816164E-02  0.1320468E+00
        -11   -1    0    0    0    0  0.00000000000E+00  0.00000000000E+00  0.45593999997E+02  0.45594000000E+02  0.51100000000E-03 0. -1.
         11   -1    0    0    0    0 -0.00000000000E+00 -0.00000000000E+00 -0.45593999997E+02  0.45594000000E+02  0.51100000000E-03 0.  1.
    9900012    2    1    2    0    0  0.39171325085E+02  0.22174484325E+02  0.17358256464E+01  0.46142317025E+02  0.99999932869E+01 0.  0.
        -12    1    1    2    0    0 -0.39171325085E+02 -0.22174484325E+02 -0.17358256464E+01  0.45045682975E+02  0.00000000000E+00 0.  1.
         11    1    3    3    0    0  0.16770765439E+02  0.12293029784E+02 -0.30873084338E+01  0.21021622875E+02  0.51100000000E-03 0. -1.
        -11    1    3    3    0    0  0.63946693213E+01  0.40986601288E+01  0.83547155740E+00  0.76412579831E+01  0.51100000000E-03 0.  1.
        -12    1    3    3    0    0  0.16005890325E+02  0.57827944126E+01  0.39876625228E+01  0.17479436167E+02  0.00000000000E+00 0.  1.
</event>
<event>
 7    1  0.4141894E-008  0.4614232E+02  0.7816164E-02  0.1320468E+00
        -11   -1    0    0    0    0  0.00000000000E+00  0.00000000000E+00  0.45593999997E+02  0.45594000000E+02  0.51100000000E-03 0. -1.
         11   -1    0    0    0    0 -0.00000000000E+00 -0.00000000000E+00 -0.45593999997E+02  0.45594000000E+02  0.51100000000E-03 0.  1.
    9900012    2    1    2    0    0  0.17349038174E+02  0.34478127219E+02 -0.23224622662E+02  0.46142317855E+02  0.10000000861E+02 0.  0.
        -12    1    1    2    0    0 -0.17349038174E+02 -0.34478127219E+02  0.23224622662E+02  0.45045682145E+02  0.00000000000E+00 0.  1.
         11    1    3    3    0    0  0.72809546448E+01  0.20559189820E+02 -0.11745967788E+02  0.24772168781E+02  0.51100000000E-03 0. -1.
        -11    1    3    3    0    0  0.16013247712E+01 -0.51141545763E-01 -0.46365784609E+00  0.16678834911E+01  0.51100000000E-03 0.  1.
         12    1    3    3    0    0  0.84667587584E+01  0.13970078945E+02 -0.11014997028E+02  0.19702265583E+02  0.00000000000E+00 0. -1.
</event>
<event>
 7    1  0.4141894E-008  0.4614232E+02  0.7816164E-02  0.1320468E+00
        -11   -1    0    0    0    0  0.00000000000E+00  0.00000000000E+00  0.45593999997E+02  0.45594000000E+02  0.51100000000E-03 0.  1.
         11   -1    0    0    0    0 -0.00000000000E+00 -0.00000000000E+00 -0.45593999997E+02  0.45594000000E+02  0.51100000000E-03 0. -1.
    9900012    2    1    2    0    0 -0.39623662449E+02 -0.10989046770E+02 -0.18393469132E+02  0.46142317838E+02  0.10000000697E+02 0.  0.
        -12    1    1    2    0    0  0.39623662449E+02  0.10989046770E+02  0.18393469132E+02  0.45045682162E+02  0.00000000000E+00 0.  1.
         11    1    3    3    0    0 -0.22366302132E+02 -0.56017087373E+01 -0.13382590424E+02  0.26659413695E+02  0.51100000000E-03 0. -1.
        -11    1    3    3    0    0 -0.11634875372E+02 -0.33469594466E+01 -0.73222667124E+00  0.12128834183E+02  0.51100000000E-03 0.  1.
        -12    1    3    3    0    0 -0.56224849443E+01 -0.20403785865E+01 -0.42786520374E+01  0.73540699604E+01  0.00000000000E+00 0.  1.
</event>
<event>
 7    1  0.4141894E-008  0.4614232E+02  0.7816164E-02  0.1320468E+00
        -11   -1    0    0    0    0  0.00000000000E+00  0.00000000000E+00  0.45593999997E+02  0.45594000000E+02  0.51100000000E-03 0.  1.
         11   -1    0    0    0    0 -0.00000000000E+00 -0.00000000000E+00 -0.45593999997E+02  0.45594000000E+02  0.51100000000E-03 0. -1.
    9900012    2    1    2    0    0  0.19409777936E+02 -0.29721157796E+02 -0.27731332353E+02  0.46142317695E+02  0.99999993993E+01 0.  0.
        -12    1    1    2    0    0 -0.19409777936E+02  0.29721157796E+02  0.27731332353E+02  0.45045682305E+02  0.00000000000E+00 0.  1.
         11    1    3    3    0    0  0.57527100536E+01 -0.15727048273E+02 -0.10183286130E+02  0.19599312156E+02  0.51100000000E-03 0. -1.
        -11    1    3    3    0    0  0.14352492726E+01 -0.21752700198E+01 -0.41332737814E+01  0.48862759385E+01  0.51100000000E-03 0.  1.
        -12    1    3    3    0    0  0.12221818610E+02 -0.11818839503E+02 -0.13414772442E+02  0.21656729601E+02  0.00000000000E+00 0.  1.
</event>
<event>
 7    1  0.4141894E-008  0.4614232E+02  0.7816164E-02  0.1320468E+00
        -11   -1    0    0    0    0  0.00000000000E+00  0.00000000000E+00  0.45593999997E+02  0.45594000000E+02  0.51100000000E-03 0.  1.
         11   -1    0    0    0    0 -0.00000000000E+00 -0.00000000000E+00 -0.45593999997E+02  0.45594000000E+02  0.51100000000E-03 0. -1.
    9900012    2    1    2    0    0  0.38868478118E+02 -0.55249009371E+01 -0.22086882064E+02  0.46142317844E+02  0.10000000756E+02 0.  0.
        -12    1    1    2    0    0 -0.38868478118E+02  0.55249009371E+01  0.22086882064E+02  0.45045682156E+02  0.00000000000E+00 0.  1.
         11    1    3    3    0    0  0.57623389716E+01 -0.56709475108E+00 -0.27671082034E-02  0.57901774410E+01  0.51100000000E-03 0. -1.
        -11    1    3    3    0    0  0.11002714312E+01  0.48624911667E+00 -0.25336254873E+00  0.12293202463E+01  0.51100000000E-03 0.  1.
         12    1    3    3    0    0  0.32005867715E+02 -0.54440553027E+01 -0.21830752407E+02  0.39122820157E+02  0.00000000000E+00 0. -1.
</event>
<event>
 7    1  0.4141894E-008  0.4614232E+02  0.7816164E-02  0.1320468E+00
        -11   -1    0    0    0    0  0.00000000000E+00  0.00000000000E+00  0.45593999997E+02  0.45594000000E+02  0.51100000000E-03 0.  1.
         11   -1    0    0    0    0 -0.00000000000E+00 -0.00000000000E+00 -0.45593999997E+02  0.45594000000E+02  0.51100000000E-03 0. -1.
    9900012    2    1    2    0    0  0.41279351530E+02  0.16925112605E+02 -0.62184538806E+01  0.46142317986E+02  0.10000002053E+02 0.  0.
        -12    1    1    2    0    0 -0.41279351530E+02 -0.16925112605E+02  0.62184538806E+01  0.45045682014E+02  0.00000000000E+00 0.  1.
         11    1    3    3    0    0  0.49487760789E+01 -0.43814840245E+00 -0.10369918670E+01  0.50752055225E+01  0.51100000000E-03 0. -1.
        -11    1    3    3    0    0  0.20664945586E+02  0.73114230788E+01 -0.74702720764E+00  0.21932964538E+02  0.51100000000E-03 0.  1.
         12    1    3    3    0    0  0.15665629865E+02  0.10051837928E+02 -0.44344348060E+01  0.19134147926E+02  0.00000000000E+00 0. -1.
</event>
