<event>
 7    1  0.1384886E-010  0.4778727E+02  0.7816164E-02  0.1312668E+00
        -11   -1    0    0    0    0  0.00000000000E+00  0.00000000000E+00  0.45593999997E+02  0.45594000000E+02  0.51100000000E-03 0.  1.
         11   -1    0    0    0    0 -0.00000000000E+00 -0.00000000000E+00 -0.45593999997E+02  0.45594000000E+02  0.51100000000E-03 0. -1.
    9900012    2    1    2    0    0 -0.20619671893E+02 -0.29622105508E+02  0.24103594594E+02  0.47787271019E+02  0.19999999886E+02 0.  0.
         12    1    1    2    0    0  0.20619671893E+02  0.29622105508E+02 -0.24103594594E+02  0.43400728981E+02  0.00000000000E+00 0. -1.
         11    1    3    3    0    0 -0.33387124643E+01 -0.98348648630E+01  0.31356511398E+01  0.10849141723E+02  0.51100000000E-03 0. -1.
        -11    1    3    3    0    0 -0.11162383938E+02 -0.19052441451E+02  0.97486077409E+01  0.24137723454E+02  0.51100000000E-03 0.  1.
         12    1    3    3    0    0 -0.61185754904E+01 -0.73479919466E+00  0.11219335713E+02  0.12800405842E+02  0.00000000000E+00 0. -1.
</event>
<event>
 7    1  0.1384886E-010  0.4778726E+02  0.7816164E-02  0.1312668E+00
        -11   -1    0    0    0    0  0.00000000000E+00  0.00000000000E+00  0.45593999997E+02  0.45594000000E+02  0.51100000000E-03 0.  1.
         11   -1    0    0    0    0 -0.00000000000E+00 -0.00000000000E+00 -0.45593999997E+02  0.45594000000E+02  0.51100000000E-03 0. -1.
    9900012    2    1    2    0    0 -0.26904216391E+02 -0.20754310344E+02  0.27000847240E+02  0.47787262574E+02  0.19999961378E+02 0.  0.
         12    1    1    2    0    0  0.26904216391E+02  0.20754310344E+02 -0.27000847240E+02  0.43400737426E+02  0.00000000000E+00 0. -1.
         11    1    3    3    0    0 -0.12700261718E+02 -0.97523713794E+01  0.19528560206E+02  0.25254109749E+02  0.51100000000E-03 0. -1.
        -11    1    3    3    0    0 -0.16072180482E+02 -0.87310248123E+01  0.60385132811E+01  0.19261604882E+02  0.51100000000E-03 0.  1.
         12    1    3    3    0    0  0.18682258097E+01 -0.22709141528E+01  0.14337737530E+01  0.32715479426E+01  0.00000000000E+00 0. -1.
</event>
<event>
 7    1  0.1384886E-010  0.4778727E+02  0.7816164E-02  0.1312668E+00
        -11   -1    0    0    0    0  0.00000000000E+00  0.00000000000E+00  0.45593999997E+02  0.45594000000E+02  0.51100000000E-03 0. -1.
         11   -1    0    0    0    0 -0.00000000000E+00 -0.00000000000E+00 -0.45593999997E+02  0.45594000000E+02  0.51100000000E-03 0.  1.
    9900012    2    1    2    0    0 -0.37812145808E+02 -0.67351699330E+01  0.20211441340E+02  0.47787271369E+02  0.20000001481E+02 0.  0.
         12    1    1    2    0    0  0.37812145808E+02  0.67351699330E+01 -0.20211441340E+02  0.43400728631E+02  0.00000000000E+00 0. -1.
         11    1    3    3    0    0 -0.17219546004E+02  0.31611501667E-01  0.15344626413E+02  0.23064503547E+02  0.51100000000E-03 0. -1.
        -11    1    3    3    0    0 -0.44771438975E+01  0.21366906173E+01 -0.15940011366E+01  0.52106721407E+01  0.51100000000E-03 0.  1.
        -12    1    3    3    0    0 -0.16115455907E+02 -0.89034720519E+01  0.64608160634E+01  0.19512095681E+02  0.00000000000E+00 0.  1.
</event>
<event>
 7    1  0.1384886E-010  0.4778728E+02  0.7816164E-02  0.1312668E+00
        -11   -1    0    0    0    0  0.00000000000E+00  0.00000000000E+00  0.45593999997E+02  0.45594000000E+02  0.51100000000E-03 0.  1.
         11   -1    0    0    0    0 -0.00000000000E+00 -0.00000000000E+00 -0.45593999997E+02  0.45594000000E+02  0.51100000000E-03 0. -1.
    9900012    2    1    2    0    0  0.30328647813E+02 -0.22041425587E+02  0.21862560719E+02  0.47787275568E+02  0.20000020624E+02 0.  0.
         12    1    1    2    0    0 -0.30328647813E+02  0.22041425587E+02 -0.21862560719E+02  0.43400724432E+02  0.00000000000E+00 0. -1.
         11    1    3    3    0    0  0.21013684176E+01 -0.23808900198E+01  0.22975082736E+01  0.39195575058E+01  0.51100000000E-03 0.  1.
        -11    1    3    3    0    0 -0.23388415303E+00 -0.16336344015E+01 -0.29266661998E+01  0.33598866738E+01  0.51100000000E-03 0. -1.
         12    1    3    3    0    0  0.28461163548E+02 -0.18026901165E+02  0.22491718646E+02  0.40507831388E+02  0.00000000000E+00 0. -1.
</event>
<event>
 7    1  0.1384886E-010  0.4778727E+02  0.7816164E-02  0.1312668E+00
        -11   -1    0    0    0    0  0.00000000000E+00  0.00000000000E+00  0.45593999997E+02  0.45594000000E+02  0.51100000000E-03 0.  1.
         11   -1    0    0    0    0 -0.00000000000E+00 -0.00000000000E+00 -0.45593999997E+02  0.45594000000E+02  0.51100000000E-03 0. -1.
    9900012    2    1    2    0    0  0.36627019743E+02  0.22860644125E+02  0.44131211344E+01  0.47787271167E+02  0.20000000559E+02 0.  0.
         12    1    1    2    0    0 -0.36627019743E+02 -0.22860644125E+02 -0.44131211344E+01  0.43400728833E+02  0.00000000000E+00 0. -1.
         11    1    3    3    0    0  0.94116732457E+01  0.39137775596E+01  0.62824436753E+00  0.10212342499E+02  0.51100000000E-03 0. -1.
        -11    1    3    3    0    0  0.13614715518E+02  0.23935741132E+01  0.76589488458E+01  0.15803454475E+02  0.51100000000E-03 0.  1.
        -12    1    3    3    0    0  0.13600630979E+02  0.16553292452E+02 -0.38740720789E+01  0.21771474193E+02  0.00000000000E+00 0.  1.
</event>
<event>
 7    1  0.1384886E-010  0.4778727E+02  0.7816164E-02  0.1312668E+00
        -11   -1    0    0    0    0  0.00000000000E+00  0.00000000000E+00  0.45593999997E+02  0.45594000000E+02  0.51100000000E-03 0. -1.
         11   -1    0    0    0    0 -0.00000000000E+00 -0.00000000000E+00 -0.45593999997E+02  0.45594000000E+02  0.51100000000E-03 0.  1.
    9900012    2    1    2    0    0  0.42103862688E+02  0.30296584361E+01 -0.10085100529E+02  0.47787270326E+02  0.19999996726E+02 0.  0.
         12    1    1    2    0    0 -0.42103862688E+02 -0.30296584361E+01  0.10085100529E+02  0.43400729674E+02  0.00000000000E+00 0. -1.
         11    1    3    3    0    0  0.88445020653E+01  0.57878486037E+01 -0.54302681488E+01  0.11883274829E+02  0.51100000000E-03 0. -1.
        -11    1    3    3    0    0  0.29445511460E+01  0.31061981129E+01 -0.24893199378E+01  0.49513192365E+01  0.51100000000E-03 0.  1.
        -12    1    3    3    0    0  0.30314809477E+02 -0.58643882805E+01 -0.21655124422E+01  0.30952676260E+02  0.00000000000E+00 0.  1.
</event>
<event>
 7    1  0.1384886E-010  0.4778727E+02  0.7816164E-02  0.1312668E+00
        -11   -1    0    0    0    0  0.00000000000E+00  0.00000000000E+00  0.45593999997E+02  0.45594000000E+02  0.51100000000E-03 0. -1.
         11   -1    0    0    0    0 -0.00000000000E+00 -0.00000000000E+00 -0.45593999997E+02  0.45594000000E+02  0.51100000000E-03 0.  1.
    9900012    2    1    2    0    0  0.15357206793E+02 -0.16813327030E+02 -0.36947143572E+02  0.47787272075E+02  0.20000004700E+02 0.  0.
         12    1    1    2    0    0 -0.15357206793E+02  0.16813327030E+02  0.36947143572E+02  0.43400727925E+02  0.00000000000E+00 0. -1.
         11    1    3    3    0    0 -0.41897855089E+01 -0.30422287427E+01 -0.66475068434E+01  0.84260789118E+01  0.51100000000E-03 0. -1.
        -11    1    3    3    0    0  0.93254808897E+01 -0.74493655233E+01 -0.91654270809E+01  0.15048677495E+02  0.51100000000E-03 0.  1.
        -12    1    3    3    0    0  0.10221511412E+02 -0.63217327637E+01 -0.21134209648E+02  0.24312515668E+02  0.00000000000E+00 0.  1.
</event>
<event>
 7    1  0.1384886E-010  0.4778727E+02  0.7816164E-02  0.1312668E+00
        -11   -1    0    0    0    0  0.00000000000E+00  0.00000000000E+00  0.45593999997E+02  0.45594000000E+02  0.51100000000E-03 0.  1.
         11   -1    0    0    0    0 -0.00000000000E+00 -0.00000000000E+00 -0.45593999997E+02  0.45594000000E+02  0.51100000000E-03 0. -1.
    9900012    2    1    2    0    0 -0.37294735611E+02 -0.11803685445E+02 -0.18798901020E+02  0.47787274499E+02  0.20000015753E+02 0.  0.
         12    1    1    2    0    0  0.37294735611E+02  0.11803685445E+02  0.18798901020E+02  0.43400725501E+02  0.00000000000E+00 0. -1.
         11    1    3    3    0    0 -0.20325277414E+02 -0.12122385630E+02 -0.16740470046E+02  0.28988143661E+02  0.51100000000E-03 0. -1.
        -11    1    3    3    0    0 -0.11749709118E+02 -0.31296493473E+01  0.16304704691E+00  0.12160466849E+02  0.51100000000E-03 0.  1.
         12    1    3    3    0    0 -0.52197490804E+01  0.34483495329E+01 -0.22214780214E+01  0.66386639893E+01  0.00000000000E+00 0. -1.
</event>
<event>
 7    1  0.1384886E-010  0.4778727E+02  0.7816164E-02  0.1312668E+00
        -11   -1    0    0    0    0  0.00000000000E+00  0.00000000000E+00  0.45593999997E+02  0.45594000000E+02  0.51100000000E-03 0.  1.
         11   -1    0    0    0    0 -0.00000000000E+00 -0.00000000000E+00 -0.45593999997E+02  0.45594000000E+02  0.51100000000E-03 0. -1.
    9900012    2    1    2    0    0  0.44743876191E+01 -0.74538947271E+01  0.42521084995E+02  0.47787270048E+02  0.19999995457E+02 0.  0.
         12    1    1    2    0    0 -0.44743876191E+01  0.74538947271E+01 -0.42521084995E+02  0.43400729952E+02  0.00000000000E+00 0. -1.
         11    1    3    3    0    0  0.54593492073E+01 -0.34485018689E+01  0.44873650907E+01  0.78634028655E+01  0.51100000000E-03 0. -1.
        -11    1    3    3    0    0  0.34595953704E+01 -0.55113181875E+01  0.29250981030E+02  0.29966036104E+02  0.51100000000E-03 0.  1.
         12    1    3    3    0    0 -0.44445569585E+01  0.15059253293E+01  0.87827388745E+01  0.99578310788E+01  0.00000000000E+00 0. -1.
</event>
<event>
 7    1  0.1384886E-010  0.4778727E+02  0.7816164E-02  0.1312668E+00
        -11   -1    0    0    0    0  0.00000000000E+00  0.00000000000E+00  0.45593999997E+02  0.45594000000E+02  0.51100000000E-03 0.  1.
         11   -1    0    0    0    0 -0.00000000000E+00 -0.00000000000E+00 -0.45593999997E+02  0.45594000000E+02  0.51100000000E-03 0. -1.
    9900012    2    1    2    0    0 -0.43468459195E+01  0.12951586974E+02  0.41194475467E+02  0.47787268629E+02  0.19999988986E+02 0.  0.
         12    1    1    2    0    0  0.43468459195E+01 -0.12951586974E+02 -0.41194475467E+02  0.43400731371E+02  0.00000000000E+00 0. -1.
         11    1    3    3    0    0  0.44867709590E+00 -0.19012748572E+01 -0.35843336447E-01  0.19538275832E+01  0.51100000000E-03 0. -1.
        -11    1    3    3    0    0 -0.76962926314E+01  0.85935149302E+01  0.16320852284E+02  0.19986286265E+02  0.51100000000E-03 0.  1.
        -12    1    3    3    0    0  0.29007696160E+01  0.62593469009E+01  0.24909466519E+02  0.25847154781E+02  0.00000000000E+00 0.  1.
</event>
<event>
 7    1  0.1384886E-010  0.4778728E+02  0.7816164E-02  0.1312668E+00
        -11   -1    0    0    0    0  0.00000000000E+00  0.00000000000E+00  0.45593999997E+02  0.45594000000E+02  0.51100000000E-03 0.  1.
         11   -1    0    0    0    0 -0.00000000000E+00 -0.00000000000E+00 -0.45593999997E+02  0.45594000000E+02  0.51100000000E-03 0. -1.
    9900012    2    1    2    0    0 -0.23510296421E+02 -0.35845650734E+02 -0.67807051080E+01  0.47787277931E+02  0.20000031399E+02 0.  0.
         12    1    1    2    0    0  0.23510296421E+02  0.35845650734E+02  0.67807051080E+01  0.43400722069E+02  0.00000000000E+00 0. -1.
         11    1    3    3    0    0 -0.11070443836E+02 -0.91187786890E+01 -0.81979595683E+00  0.14365894235E+02  0.51100000000E-03 0. -1.
        -11    1    3    3    0    0 -0.10999110149E+02 -0.28134822251E+02 -0.72022976139E+01  0.31055140289E+02  0.51100000000E-03 0.  1.
         12    1    3    3    0    0 -0.14407424358E+01  0.14079502058E+01  0.12413884627E+01  0.23662434075E+01  0.00000000000E+00 0. -1.
</event>
<event>
 7    1  0.1384886E-010  0.4778726E+02  0.7816164E-02  0.1312668E+00
        -11   -1    0    0    0    0  0.00000000000E+00  0.00000000000E+00  0.45593999997E+02  0.45594000000E+02  0.51100000000E-03 0.  1.
         11   -1    0    0    0    0 -0.00000000000E+00 -0.00000000000E+00 -0.45593999997E+02  0.45594000000E+02  0.51100000000E-03 0. -1.
    9900012    2    1    2    0    0  0.30764601612E+02  0.16670432125E+02  0.25676066624E+02  0.47787257877E+02  0.19999939964E+02 0.  0.
         12    1    1    2    0    0 -0.30764601612E+02 -0.16670432125E+02 -0.25676066624E+02  0.43400742123E+02  0.00000000000E+00 0. -1.
         11    1    3    3    0    0  0.15195019051E+02  0.11009922473E+02  0.15051008379E+02  0.24054934011E+02  0.51100000000E-03 0.  1.
        -11    1    3    3    0    0  0.97839585418E+01 -0.33058539154E+01  0.35130673154E+01  0.10908535973E+02  0.51100000000E-03 0. -1.
         12    1    3    3    0    0  0.57856240189E+01  0.89663635677E+01  0.71119909299E+01  0.12823787892E+02  0.00000000000E+00 0. -1.
</event>
<event>
 7    1  0.1384886E-010  0.4778727E+02  0.7816164E-02  0.1312668E+00
        -11   -1    0    0    0    0  0.00000000000E+00  0.00000000000E+00  0.45593999997E+02  0.45594000000E+02  0.51100000000E-03 0. -1.
         11   -1    0    0    0    0 -0.00000000000E+00 -0.00000000000E+00 -0.45593999997E+02  0.45594000000E+02  0.51100000000E-03 0.  1.
    9900012    2    1    2    0    0  0.20815899452E+02  0.70401519942E+01 -0.37426700418E+02  0.47787270579E+02  0.19999997878E+02 0.  0.
         12    1    1    2    0    0 -0.20815899452E+02 -0.70401519942E+01  0.37426700418E+02  0.43400729421E+02  0.00000000000E+00 0. -1.
         11    1    3    3    0    0  0.28111312634E+00  0.38389105178E+01 -0.10829596528E+01  0.39986323192E+01  0.51100000000E-03 0. -1.
        -11    1    3    3    0    0  0.16097886701E+02  0.44957285025E+01 -0.16770310017E+02  0.23676926096E+02  0.51100000000E-03 0.  1.
        -12    1    3    3    0    0  0.44368996250E+01 -0.12944870261E+01 -0.19573430747E+02  0.20111712164E+02  0.00000000000E+00 0.  1.
</event>
<event>
 7    1  0.1384886E-010  0.4778727E+02  0.7816164E-02  0.1312668E+00
        -11   -1    0    0    0    0  0.00000000000E+00  0.00000000000E+00  0.45593999997E+02  0.45594000000E+02  0.51100000000E-03 0.  1.
         11   -1    0    0    0    0 -0.00000000000E+00 -0.00000000000E+00 -0.45593999997E+02  0.45594000000E+02  0.51100000000E-03 0. -1.
    9900012    2    1    2    0    0  0.36889333434E+02  0.19012637915E+02  0.12701176438E+02  0.47787271842E+02  0.20000003638E+02 0.  0.
         12    1    1    2    0    0 -0.36889333434E+02 -0.19012637915E+02 -0.12701176438E+02  0.43400728158E+02  0.00000000000E+00 0. -1.
         11    1    3    3    0    0  0.91201206329E+01  0.69167564507E+01 -0.84587553649E+00  0.11477526992E+02  0.51100000000E-03 0. -1.
        -11    1    3    3    0    0  0.76021763458E+00  0.57724414620E+01  0.11906464757E+01  0.59427813837E+01  0.51100000000E-03 0.  1.
        -12    1    3    3    0    0  0.27008995167E+02  0.63234400029E+01  0.12356405498E+02  0.30366963467E+02  0.00000000000E+00 0.  1.
</event>
<event>
 7    1  0.1384886E-010  0.4778727E+02  0.7816164E-02  0.1312668E+00
        -11   -1    0    0    0    0  0.00000000000E+00  0.00000000000E+00  0.45593999997E+02  0.45594000000E+02  0.51100000000E-03 0.  1.
         11   -1    0    0    0    0 -0.00000000000E+00 -0.00000000000E+00 -0.45593999997E+02  0.45594000000E+02  0.51100000000E-03 0. -1.
    9900012    2    1    2    0    0  0.34732372716E+02 -0.17149220757E+02  0.19575229491E+02  0.47787273086E+02  0.20000009309E+02 0.  0.
         12    1    1    2    0    0 -0.34732372716E+02  0.17149220757E+02 -0.19575229491E+02  0.43400726914E+02  0.00000000000E+00 0. -1.
         11    1    3    3    0    0  0.58046753006E+01 -0.68631766533E+01  0.68956557816E+00  0.90151511395E+01  0.51100000000E-03 0. -1.
        -11    1    3    3    0    0  0.24509059273E+02 -0.13417531615E+02  0.18119912164E+02  0.33302482763E+02  0.51100000000E-03 0.  1.
        -12    1    3    3    0    0  0.44186381421E+01  0.31314875106E+01  0.76575174812E+00  0.54696391837E+01  0.00000000000E+00 0.  1.
</event>
<event>
 7    1  0.1384886E-010  0.4778727E+02  0.7816164E-02  0.1312668E+00
        -11   -1    0    0    0    0  0.00000000000E+00  0.00000000000E+00  0.45593999997E+02  0.45594000000E+02  0.51100000000E-03 0.  1.
         11   -1    0    0    0    0 -0.00000000000E+00 -0.00000000000E+00 -0.45593999997E+02  0.45594000000E+02  0.51100000000E-03 0. -1.
    9900012    2    1    2    0    0 -0.90681599129E+01 -0.36316006227E+02  0.21966784819E+02  0.47787268810E+02  0.19999989814E+02 0.  0.
         12    1    1    2    0    0  0.90681599129E+01  0.36316006227E+02 -0.21966784819E+02  0.43400731190E+02  0.00000000000E+00 0. -1.
         11    1    3    3    0    0 -0.75457214163E+01 -0.89227394585E+01  0.14032742822E+01  0.11769552672E+02  0.51100000000E-03 0. -1.
        -11    1    3    3    0    0 -0.45046259786E+01 -0.16958300326E+02  0.76285804016E+01  0.19132977927E+02  0.51100000000E-03 0.  1.
        -12    1    3    3    0    0  0.29821874820E+01 -0.10434966442E+02  0.12934930136E+02  0.16884738211E+02  0.00000000000E+00 0.  1.
</event>
<event>
 7    1  0.1384886E-010  0.4778727E+02  0.7816164E-02  0.1312668E+00
        -11   -1    0    0    0    0  0.00000000000E+00  0.00000000000E+00  0.45593999997E+02  0.45594000000E+02  0.51100000000E-03 0.  1.
         11   -1    0    0    0    0 -0.00000000000E+00 -0.00000000000E+00 -0.45593999997E+02  0.45594000000E+02  0.51100000000E-03 0. -1.
    9900012    2    1    2    0    0 -0.12644149646E+02  0.20071481239E+02  0.36343969836E+02  0.47787273937E+02  0.20000013187E+02 0.  0.
         12    1    1    2    0    0  0.12644149646E+02 -0.20071481239E+02 -0.36343969836E+02  0.43400726063E+02  0.00000000000E+00 0. -1.
         11    1    3    3    0    0 -0.18621924999E+01  0.15708979294E+02  0.24317320172E+02  0.29009857841E+02  0.51100000000E-03 0.  1.
        -11    1    3    3    0    0  0.29633727451E+00 -0.12340343193E+01 -0.27904470212E+00  0.12994316790E+01  0.51100000000E-03 0. -1.
         12    1    3    3    0    0 -0.11078294421E+02  0.55965362643E+01  0.12305694366E+02  0.17477984417E+02  0.00000000000E+00 0. -1.
</event>
<event>
 7    1  0.1384886E-010  0.4778727E+02  0.7816164E-02  0.1312668E+00
        -11   -1    0    0    0    0  0.00000000000E+00  0.00000000000E+00  0.45593999997E+02  0.45594000000E+02  0.51100000000E-03 0.  1.
         11   -1    0    0    0    0 -0.00000000000E+00 -0.00000000000E+00 -0.45593999997E+02  0.45594000000E+02  0.51100000000E-03 0. -1.
    9900012    2    1    2    0    0 -0.24202853082E+00  0.29169377269E+02  0.32135846742E+02  0.47787265054E+02  0.19999972687E+02 0.  0.
         12    1    1    2    0    0  0.24202853082E+00 -0.29169377269E+02 -0.32135846742E+02  0.43400734946E+02  0.00000000000E+00 0. -1.
         11    1    3    3    0    0 -0.55929390611E+01  0.19944682194E+01  0.76699218699E+01  0.96998233268E+01  0.51100000000E-03 0. -1.
        -11    1    3    3    0    0  0.24861785045E+01  0.95906225240E+01  0.33478268294E+01  0.10457966757E+02  0.51100000000E-03 0.  1.
        -12    1    3    3    0    0  0.28647320258E+01  0.17584286525E+02  0.21118098042E+02  0.27629474970E+02  0.00000000000E+00 0.  1.
</event>
<event>
 7    1  0.1384886E-010  0.4778728E+02  0.7816164E-02  0.1312668E+00
        -11   -1    0    0    0    0  0.00000000000E+00  0.00000000000E+00  0.45593999997E+02  0.45594000000E+02  0.51100000000E-03 0.  1.
         11   -1    0    0    0    0 -0.00000000000E+00 -0.00000000000E+00 -0.45593999997E+02  0.45594000000E+02  0.51100000000E-03 0. -1.
    9900012    2    1    2    0    0 -0.16720946942E+02 -0.38055588090E+02  0.12482163700E+02  0.47787282701E+02  0.20000053145E+02 0.  0.
         12    1    1    2    0    0  0.16720946942E+02  0.38055588090E+02 -0.12482163700E+02  0.43400717299E+02  0.00000000000E+00 0. -1.
         11    1    3    3    0    0 -0.70640257204E+01 -0.87601182118E+01  0.11730615597E+02  0.16255690480E+02  0.51100000000E-03 0.  1.
        -11    1    3    3    0    0 -0.69306903338E+01 -0.10904035334E+02 -0.82501293242E-01  0.12920497738E+02  0.51100000000E-03 0. -1.
        -12    1    3    3    0    0 -0.27262308877E+01 -0.18391434544E+02  0.83404939672E+00  0.18611094482E+02  0.00000000000E+00 0.  1.
</event>
<event>
 7    1  0.1384886E-010  0.4778727E+02  0.7816164E-02  0.1312668E+00
        -11   -1    0    0    0    0  0.00000000000E+00  0.00000000000E+00  0.45593999997E+02  0.45594000000E+02  0.51100000000E-03 0.  1.
         11   -1    0    0    0    0 -0.00000000000E+00 -0.00000000000E+00 -0.45593999997E+02  0.45594000000E+02  0.51100000000E-03 0. -1.
    9900012    2    1    2    0    0  0.11894002900E+02  0.25464429963E+02  0.33071421355E+02  0.47787269490E+02  0.19999992914E+02 0.  0.
         12    1    1    2    0    0 -0.11894002900E+02 -0.25464429963E+02 -0.33071421355E+02  0.43400730510E+02  0.00000000000E+00 0. -1.
         11    1    3    3    0    0 -0.21495198218E+01  0.17775235620E+01  0.61847616429E+01  0.67846372283E+01  0.51100000000E-03 0. -1.
        -11    1    3    3    0    0  0.13365567340E+02  0.24746859460E+02  0.21312837339E+02  0.35288560174E+02  0.51100000000E-03 0.  1.
         12    1    3    3    0    0  0.67795538181E+00 -0.10599530583E+01  0.55738223728E+01  0.57140720882E+01  0.00000000000E+00 0. -1.
</event>
<event>
 7    1  0.1384886E-010  0.4778728E+02  0.7816164E-02  0.1312668E+00
        -11   -1    0    0    0    0  0.00000000000E+00  0.00000000000E+00  0.45593999997E+02  0.45594000000E+02  0.51100000000E-03 0.  1.
         11   -1    0    0    0    0 -0.00000000000E+00 -0.00000000000E+00 -0.45593999997E+02  0.45594000000E+02  0.51100000000E-03 0. -1.
    9900012    2    1    2    0    0  0.14563045075E+02  0.20006989276E+02  0.35654742105E+02  0.47787279541E+02  0.20000038740E+02 0.  0.
         12    1    1    2    0    0 -0.14563045075E+02 -0.20006989276E+02 -0.35654742105E+02  0.43400720459E+02  0.00000000000E+00 0. -1.
         11    1    3    3    0    0  0.80560133046E+00  0.70594555387E+01  0.17025014742E+02  0.18448198645E+02  0.51100000000E-03 0. -1.
        -11    1    3    3    0    0 -0.24168927660E+00  0.20030294621E+01  0.88073041996E+01  0.90354384652E+01  0.51100000000E-03 0.  1.
         12    1    3    3    0    0  0.13999133022E+02  0.10944504275E+02  0.98224231637E+01  0.20303642431E+02  0.00000000000E+00 0. -1.
</event>
<event>
 7    1  0.1384886E-010  0.4778727E+02  0.7816164E-02  0.1312668E+00
        -11   -1    0    0    0    0  0.00000000000E+00  0.00000000000E+00  0.45593999997E+02  0.45594000000E+02  0.51100000000E-03 0.  1.
         11   -1    0    0    0    0 -0.00000000000E+00 -0.00000000000E+00 -0.45593999997E+02  0.45594000000E+02  0.51100000000E-03 0. -1.
    9900012    2    1    2    0    0 -0.18177720791E+02  0.39059496999E+02 -0.52487677720E+01  0.47787269568E+02  0.19999993266E+02 0.  0.
         12    1    1    2    0    0  0.18177720791E+02 -0.39059496999E+02  0.52487677720E+01  0.43400730432E+02  0.00000000000E+00 0. -1.
         11    1    3    3    0    0 -0.67290627514E+00  0.81326064132E+01  0.92425494839E+00  0.82125719113E+01  0.51100000000E-03 0. -1.
        -11    1    3    3    0    0 -0.13754372461E+02  0.30837976985E+02 -0.18017594985E+01  0.33814344942E+02  0.51100000000E-03 0.  1.
         12    1    3    3    0    0 -0.37504420548E+01  0.88913600518E-01 -0.43712632219E+01  0.57603527140E+01  0.00000000000E+00 0. -1.
</event>
<event>
 7    1  0.1384886E-010  0.4778727E+02  0.7816164E-02  0.1312668E+00
        -11   -1    0    0    0    0  0.00000000000E+00  0.00000000000E+00  0.45593999997E+02  0.45594000000E+02  0.51100000000E-03 0.  1.
         11   -1    0    0    0    0 -0.00000000000E+00 -0.00000000000E+00 -0.45593999997E+02  0.45594000000E+02  0.51100000000E-03 0. -1.
    9900012    2    1    2    0    0 -0.32920128830E+02  0.25797503859E+02  0.11592131001E+02  0.47787267417E+02  0.19999983463E+02 0.  0.
         12    1    1    2    0    0  0.32920128830E+02 -0.25797503859E+02 -0.11592131001E+02  0.43400732583E+02  0.00000000000E+00 0. -1.
         11    1    3    3    0    0 -0.15643227664E+02  0.15269830310E+02  0.36388075567E+01  0.22161209582E+02  0.51100000000E-03 0. -1.
        -11    1    3    3    0    0 -0.14745885545E+02  0.37293207001E+01  0.98587387657E+01  0.18125774569E+02  0.51100000000E-03 0.  1.
         12    1    3    3    0    0 -0.25310156210E+01  0.67983528488E+01 -0.19054153219E+01  0.75002832666E+01  0.00000000000E+00 0. -1.
</event>
<event>
 7    1  0.1384886E-010  0.4778728E+02  0.7816164E-02  0.1312668E+00
        -11   -1    0    0    0    0  0.00000000000E+00  0.00000000000E+00  0.45593999997E+02  0.45594000000E+02  0.51100000000E-03 0.  1.
         11   -1    0    0    0    0 -0.00000000000E+00 -0.00000000000E+00 -0.45593999997E+02  0.45594000000E+02  0.51100000000E-03 0. -1.
    9900012    2    1    2    0    0 -0.16221836564E+02  0.25932156754E+02  0.30789575393E+02  0.47787277791E+02  0.20000030759E+02 0.  0.
         12    1    1    2    0    0  0.16221836564E+02 -0.25932156754E+02 -0.30789575393E+02  0.43400722209E+02  0.00000000000E+00 0. -1.
         11    1    3    3    0    0 -0.84502553595E+01  0.12107544638E+02  0.17797421193E+02  0.23124611438E+02  0.51100000000E-03 0. -1.
        -11    1    3    3    0    0 -0.10873718154E+02  0.12282956403E+02  0.13390431404E+02  0.21175750705E+02  0.51100000000E-03 0.  1.
         12    1    3    3    0    0  0.31021369504E+01  0.15416557132E+01 -0.39827720364E+00  0.34869156468E+01  0.00000000000E+00 0. -1.
</event>
<event>
 7    1  0.1384886E-010  0.4778727E+02  0.7816164E-02  0.1312668E+00
        -11   -1    0    0    0    0  0.00000000000E+00  0.00000000000E+00  0.45593999997E+02  0.45594000000E+02  0.51100000000E-03 0. -1.
         11   -1    0    0    0    0 -0.00000000000E+00 -0.00000000000E+00 -0.45593999997E+02  0.45594000000E+02  0.51100000000E-03 0.  1.
    9900012    2    1    2    0    0  0.20222834976E+02  0.35711856621E+02 -0.14118207644E+02  0.47787267922E+02  0.19999985764E+02 0.  0.
         12    1    1    2    0    0 -0.20222834976E+02 -0.35711856621E+02  0.14118207644E+02  0.43400732078E+02  0.00000000000E+00 0. -1.
         11    1    3    3    0    0  0.94686472104E+01  0.87602761018E+01 -0.85561214735E+00  0.12927868725E+02  0.51100000000E-03 0. -1.
        -11    1    3    3    0    0  0.10943783577E+00 -0.14394272589E+00 -0.44353558618E+01  0.44390402149E+01  0.51100000000E-03 0.  1.
         12    1    3    3    0    0  0.10644749930E+02  0.27095523245E+02 -0.88272396354E+01  0.30420358982E+02  0.00000000000E+00 0. -1.
</event>
<event>
 7    1  0.1384886E-010  0.4778727E+02  0.7816164E-02  0.1312668E+00
        -11   -1    0    0    0    0  0.00000000000E+00  0.00000000000E+00  0.45593999997E+02  0.45594000000E+02  0.51100000000E-03 0.  1.
         11   -1    0    0    0    0 -0.00000000000E+00 -0.00000000000E+00 -0.45593999997E+02  0.45594000000E+02  0.51100000000E-03 0. -1.
    9900012    2    1    2    0    0  0.33780662025E+02  0.11929259254E+02  0.24498637014E+02  0.47787267647E+02  0.19999984508E+02 0.  0.
         12    1    1    2    0    0 -0.33780662025E+02 -0.11929259254E+02 -0.24498637014E+02  0.43400732353E+02  0.00000000000E+00 0. -1.
         11    1    3    3    0    0  0.48565481963E+01 -0.99972257697E+00  0.41360847464E+01  0.64569886870E+01  0.51100000000E-03 0. -1.
        -11    1    3    3    0    0  0.19379459667E+02  0.41696085584E+00  0.15620130537E+02  0.24894292350E+02  0.51100000000E-03 0.  1.
         12    1    3    3    0    0  0.95446541625E+01  0.12512020976E+02  0.47424217309E+01  0.16435986610E+02  0.00000000000E+00 0. -1.
</event>
<event>
 7    1  0.1384886E-010  0.4778727E+02  0.7816164E-02  0.1312668E+00
        -11   -1    0    0    0    0  0.00000000000E+00  0.00000000000E+00  0.45593999997E+02  0.45594000000E+02  0.51100000000E-03 0.  1.
         11   -1    0    0    0    0 -0.00000000000E+00 -0.00000000000E+00 -0.45593999997E+02  0.45594000000E+02  0.51100000000E-03 0. -1.
    9900012    2    1    2    0    0 -0.57884559816E+01  0.41237291089E+02  0.12231225901E+02  0.47787270904E+02  0.19999999359E+02 0.  0.
         12    1    1    2    0    0  0.57884559816E+01 -0.41237291089E+02 -0.12231225901E+02  0.43400729096E+02  0.00000000000E+00 0. -1.
         11    1    3    3    0    0  0.36745763695E+01  0.87380937900E+01  0.29874219843E+01  0.99388875108E+01  0.51100000000E-03 0. -1.
        -11    1    3    3    0    0  0.70489793591E+00  0.31914621052E+01 -0.30588283554E+01  0.44764654179E+01  0.51100000000E-03 0.  1.
        -12    1    3    3    0    0 -0.10167930287E+02  0.29307735194E+02  0.12302632272E+02  0.33371917975E+02  0.00000000000E+00 0.  1.
</event>
<event>
 7    1  0.1384886E-010  0.4778728E+02  0.7816164E-02  0.1312668E+00
        -11   -1    0    0    0    0  0.00000000000E+00  0.00000000000E+00  0.45593999997E+02  0.45594000000E+02  0.51100000000E-03 0.  1.
         11   -1    0    0    0    0 -0.00000000000E+00 -0.00000000000E+00 -0.45593999997E+02  0.45594000000E+02  0.51100000000E-03 0. -1.
    9900012    2    1    2    0    0  0.37398979951E+02  0.39854622118E+01  0.21657683805E+02  0.47787275603E+02  0.20000020784E+02 0.  0.
         12    1    1    2    0    0 -0.37398979951E+02 -0.39854622118E+01 -0.21657683805E+02  0.43400724397E+02  0.00000000000E+00 0. -1.
         11    1    3    3    0    0  0.29803820572E+02  0.66202056034E+01  0.10129947257E+02  0.32166918948E+02  0.51100000000E-03 0. -1.
        -11    1    3    3    0    0  0.82167466115E+01 -0.45362964660E+00  0.95947877836E+01  0.12640437398E+02  0.51100000000E-03 0.  1.
         12    1    3    3    0    0 -0.62158723260E+00 -0.21811137450E+01  0.19329487639E+01  0.29799192573E+01  0.00000000000E+00 0. -1.
</event>
<event>
 7    1  0.1384886E-010  0.4778727E+02  0.7816164E-02  0.1312668E+00
        -11   -1    0    0    0    0  0.00000000000E+00  0.00000000000E+00  0.45593999997E+02  0.45594000000E+02  0.51100000000E-03 0.  1.
         11   -1    0    0    0    0 -0.00000000000E+00 -0.00000000000E+00 -0.45593999997E+02  0.45594000000E+02  0.51100000000E-03 0. -1.
    9900012    2    1    2    0    0  0.98736784292E+01  0.27300032099E+02  0.32262085140E+02  0.47787269408E+02  0.19999992538E+02 0.  0.
         12    1    1    2    0    0 -0.98736784292E+01 -0.27300032099E+02 -0.32262085140E+02  0.43400730592E+02  0.00000000000E+00 0. -1.
         11    1    3    3    0    0 -0.29791324095E+01  0.15116608923E+02  0.10313246200E+02  0.18540500066E+02  0.51100000000E-03 0. -1.
        -11    1    3    3    0    0  0.32009919285E+01  0.40748059014E+01  0.12379500639E+02  0.13420224618E+02  0.51100000000E-03 0.  1.
         12    1    3    3    0    0  0.96518189102E+01  0.81086172747E+01  0.95693383009E+01  0.15826544724E+02  0.00000000000E+00 0. -1.
</event>
<event>
 7    1  0.1384886E-010  0.4778727E+02  0.7816164E-02  0.1312668E+00
        -11   -1    0    0    0    0  0.00000000000E+00  0.00000000000E+00  0.45593999997E+02  0.45594000000E+02  0.51100000000E-03 0.  1.
         11   -1    0    0    0    0 -0.00000000000E+00 -0.00000000000E+00 -0.45593999997E+02  0.45594000000E+02  0.51100000000E-03 0. -1.
    9900012    2    1    2    0    0 -0.26444614629E+02  0.24019723478E+02  0.24644645770E+02  0.47787270467E+02  0.19999997368E+02 0.  0.
         12    1    1    2    0    0  0.26444614629E+02 -0.24019723478E+02 -0.24644645770E+02  0.43400729533E+02  0.00000000000E+00 0. -1.
         11    1    3    3    0    0 -0.13062840086E+02  0.16072665282E+02  0.15777472315E+02  0.26036455083E+02  0.51100000000E-03 0. -1.
        -11    1    3    3    0    0 -0.96089045182E+01  0.65158466121E+00  0.94809717788E+01  0.13514600799E+02  0.51100000000E-03 0.  1.
         12    1    3    3    0    0 -0.37728700251E+01  0.72954735341E+01 -0.61379832392E+00  0.82362145854E+01  0.00000000000E+00 0. -1.
</event>
<event>
 7    1  0.1384886E-010  0.4778727E+02  0.7816164E-02  0.1312668E+00
        -11   -1    0    0    0    0  0.00000000000E+00  0.00000000000E+00  0.45593999997E+02  0.45594000000E+02  0.51100000000E-03 0.  1.
         11   -1    0    0    0    0 -0.00000000000E+00 -0.00000000000E+00 -0.45593999997E+02  0.45594000000E+02  0.51100000000E-03 0. -1.
    9900012    2    1    2    0    0 -0.37994701369E+02 -0.20852251056E+02  0.22824241179E+01  0.47787272286E+02  0.20000005661E+02 0.  0.
         12    1    1    2    0    0  0.37994701369E+02  0.20852251056E+02 -0.22824241179E+01  0.43400727714E+02  0.00000000000E+00 0. -1.
         11    1    3    3    0    0 -0.48546638484E+01  0.14058597364E+01  0.19038169829E+01  0.54008075363E+01  0.51100000000E-03 0. -1.
        -11    1    3    3    0    0 -0.13911473046E+02 -0.14095779954E+02  0.61092194285E+01  0.20725410904E+02  0.51100000000E-03 0.  1.
         12    1    3    3    0    0 -0.19228564475E+02 -0.81623308378E+01 -0.57306122935E+01  0.21661053846E+02  0.00000000000E+00 0. -1.
</event>
<event>
 7    1  0.1384886E-010  0.4778727E+02  0.7816164E-02  0.1312668E+00
        -11   -1    0    0    0    0  0.00000000000E+00  0.00000000000E+00  0.45593999997E+02  0.45594000000E+02  0.51100000000E-03 0.  1.
         11   -1    0    0    0    0 -0.00000000000E+00 -0.00000000000E+00 -0.45593999997E+02  0.45594000000E+02  0.51100000000E-03 0. -1.
    9900012    2    1    2    0    0  0.28179351140E+02 -0.12001405741E+02  0.30749205937E+02  0.47787271479E+02  0.20000001982E+02 0.  0.
         12    1    1    2    0    0 -0.28179351140E+02  0.12001405741E+02 -0.30749205937E+02  0.43400728521E+02  0.00000000000E+00 0. -1.
         11    1    3    3    0    0  0.10565685820E+01 -0.35972427818E+01  0.10172297403E+01  0.38847457324E+01  0.51100000000E-03 0. -1.
        -11    1    3    3    0    0  0.28541115946E+02 -0.88053922752E+01  0.30077565508E+02  0.42388561897E+02  0.51100000000E-03 0.  1.
         12    1    3    3    0    0 -0.14183333884E+01  0.40122931637E+00 -0.34558931193E+00  0.15139638494E+01  0.00000000000E+00 0. -1.
</event>
<event>
 7    1  0.1384886E-010  0.4778726E+02  0.7816164E-02  0.1312668E+00
        -11   -1    0    0    0    0  0.00000000000E+00  0.00000000000E+00  0.45593999997E+02  0.45594000000E+02  0.51100000000E-03 0. -1.
         11   -1    0    0    0    0 -0.00000000000E+00 -0.00000000000E+00 -0.45593999997E+02  0.45594000000E+02  0.51100000000E-03 0.  1.
    9900012    2    1    2    0    0  0.39517325335E-01  0.19871269952E+02 -0.38584394501E+02  0.47787257724E+02  0.19999939267E+02 0.  0.
         12    1    1    2    0    0 -0.39517325335E-01 -0.19871269952E+02  0.38584394501E+02  0.43400742276E+02  0.00000000000E+00 0. -1.
         11    1    3    3    0    0  0.18402407801E+00 -0.21463979881E+01  0.30200754567E+00  0.21753385951E+01  0.51100000000E-03 0. -1.
        -11    1    3    3    0    0  0.15153114962E+00  0.61317286661E+01 -0.20060709335E+02  0.20977443062E+02  0.51100000000E-03 0.  1.
         12    1    3    3    0    0 -0.29603790229E+00  0.15885939274E+02 -0.18825692712E+02  0.24634476067E+02  0.00000000000E+00 0. -1.
</event>
<event>
 7    1  0.1384886E-010  0.4778727E+02  0.7816164E-02  0.1312668E+00
        -11   -1    0    0    0    0  0.00000000000E+00  0.00000000000E+00  0.45593999997E+02  0.45594000000E+02  0.51100000000E-03 0. -1.
         11   -1    0    0    0    0 -0.00000000000E+00 -0.00000000000E+00 -0.45593999997E+02  0.45594000000E+02  0.51100000000E-03 0.  1.
    9900012    2    1    2    0    0 -0.10293158089E+00  0.17377805182E+02 -0.39769642752E+02  0.47787271982E+02  0.20000004277E+02 0.  0.
         12    1    1    2    0    0  0.10293158089E+00 -0.17377805182E+02  0.39769642752E+02  0.43400728018E+02  0.00000000000E+00 0. -1.
         11    1    3    3    0    0 -0.25296596975E+01  0.10492544834E+02 -0.16968935157E+02  0.20110629923E+02  0.51100000000E-03 0. -1.
        -11    1    3    3    0    0  0.31164173332E+01  0.99167810206E+01 -0.22195810932E+02  0.24509357927E+02  0.51100000000E-03 0.  1.
         12    1    3    3    0    0 -0.68968921662E+00 -0.30315206721E+01 -0.60489666192E+00  0.31672841319E+01  0.00000000000E+00 0. -1.
</event>
<event>
 7    1  0.1384886E-010  0.4778729E+02  0.7816164E-02  0.1312668E+00
        -11   -1    0    0    0    0  0.00000000000E+00  0.00000000000E+00  0.45593999997E+02  0.45594000000E+02  0.51100000000E-03 0.  1.
         11   -1    0    0    0    0 -0.00000000000E+00 -0.00000000000E+00 -0.45593999997E+02  0.45594000000E+02  0.51100000000E-03 0. -1.
    9900012    2    1    2    0    0  0.40871165483E+02 -0.90543274017E+01  0.11453771400E+02  0.47787286966E+02  0.20000072591E+02 0.  0.
         12    1    1    2    0    0 -0.40871165483E+02  0.90543274017E+01 -0.11453771400E+02  0.43400713034E+02  0.00000000000E+00 0. -1.
         11    1    3    3    0    0  0.72154565335E+01  0.20816298188E+01  0.33350995136E+01  0.82169875694E+01  0.51100000000E-03 0. -1.
        -11    1    3    3    0    0  0.19594075661E+02 -0.12260294778E+02 -0.35118956184E+00  0.23116357053E+02  0.51100000000E-03 0.  1.
        -12    1    3    3    0    0  0.14061633288E+02  0.11243375571E+01  0.84698614484E+01  0.16453942343E+02  0.00000000000E+00 0.  1.
</event>
<event>
 7    1  0.1384886E-010  0.4778727E+02  0.7816164E-02  0.1312668E+00
        -11   -1    0    0    0    0  0.00000000000E+00  0.00000000000E+00  0.45593999997E+02  0.45594000000E+02  0.51100000000E-03 0. -1.
         11   -1    0    0    0    0 -0.00000000000E+00 -0.00000000000E+00 -0.45593999997E+02  0.45594000000E+02  0.51100000000E-03 0.  1.
    9900012    2    1    2    0    0  0.12129598860E+02 -0.36779513154E+02 -0.19589881596E+02  0.47787271696E+02  0.20000002970E+02 0.  0.
         12    1    1    2    0    0 -0.12129598860E+02  0.36779513154E+02  0.19589881596E+02  0.43400728304E+02  0.00000000000E+00 0. -1.
         11    1    3    3    0    0 -0.53397077035E+00  0.13048656571E-01 -0.47887409165E+01  0.48184369746E+01  0.51100000000E-03 0. -1.
        -11    1    3    3    0    0  0.16418578143E+01 -0.13325567923E+02 -0.67373765707E+00  0.13443228044E+02  0.51100000000E-03 0.  1.
        -12    1    3    3    0    0  0.11021711816E+02 -0.23466993888E+02 -0.14127403022E+02  0.29525606677E+02  0.00000000000E+00 0.  1.
</event>
<event>
 7    1  0.1384886E-010  0.4778727E+02  0.7816164E-02  0.1312668E+00
        -11   -1    0    0    0    0  0.00000000000E+00  0.00000000000E+00  0.45593999997E+02  0.45594000000E+02  0.51100000000E-03 0.  1.
         11   -1    0    0    0    0 -0.00000000000E+00 -0.00000000000E+00 -0.45593999997E+02  0.45594000000E+02  0.51100000000E-03 0. -1.
    9900012    2    1    2    0    0 -0.21712595624E+02  0.32368349569E+02 -0.19091263396E+02  0.47787271888E+02  0.20000003848E+02 0.  0.
         12    1    1    2    0    0  0.21712595624E+02 -0.32368349569E+02  0.19091263396E+02  0.43400728112E+02  0.00000000000E+00 0. -1.
         11    1    3    3    0    0 -0.48615978761E+01  0.47378213929E+01 -0.71010240211E+01  0.98237786960E+01  0.51100000000E-03 0. -1.
        -11    1    3    3    0    0 -0.11739974011E+01  0.14654407454E+02 -0.76261003310E+00  0.14721124348E+02  0.51100000000E-03 0.  1.
        -12    1    3    3    0    0 -0.15677000347E+02  0.12976120722E+02 -0.11227629342E+02  0.23242368845E+02  0.00000000000E+00 0.  1.
</event>
<event>
 7    1  0.1384886E-010  0.4778727E+02  0.7816164E-02  0.1312668E+00
        -11   -1    0    0    0    0  0.00000000000E+00  0.00000000000E+00  0.45593999997E+02  0.45594000000E+02  0.51100000000E-03 0.  1.
         11   -1    0    0    0    0 -0.00000000000E+00 -0.00000000000E+00 -0.45593999997E+02  0.45594000000E+02  0.51100000000E-03 0. -1.
    9900012    2    1    2    0    0 -0.23321479606E+02 -0.41682959043E+01  0.36364228255E+02  0.47787271914E+02  0.20000003967E+02 0.  0.
         12    1    1    2    0    0  0.23321479606E+02  0.41682959043E+01 -0.36364228255E+02  0.43400728086E+02  0.00000000000E+00 0. -1.
         11    1    3    3    0    0 -0.29422502101E+01  0.24573039997E-01  0.41176788196E+01  0.50609010320E+01  0.51100000000E-03 0. -1.
        -11    1    3    3    0    0 -0.15243592094E+02 -0.75394077343E+01  0.32403012592E+02  0.36594603348E+02  0.51100000000E-03 0.  1.
         12    1    3    3    0    0 -0.51356373023E+01  0.33465387900E+01 -0.15646315679E+00  0.61317675342E+01  0.00000000000E+00 0. -1.
</event>
<event>
 7    1  0.1384886E-010  0.4778727E+02  0.7816164E-02  0.1312668E+00
        -11   -1    0    0    0    0  0.00000000000E+00  0.00000000000E+00  0.45593999997E+02  0.45594000000E+02  0.51100000000E-03 0. -1.
         11   -1    0    0    0    0 -0.00000000000E+00 -0.00000000000E+00 -0.45593999997E+02  0.45594000000E+02  0.51100000000E-03 0.  1.
    9900012    2    1    2    0    0  0.37889648184E+02 -0.38765625484E+01 -0.20807940336E+02  0.47787267775E+02  0.19999985091E+02 0.  0.
         12    1    1    2    0    0 -0.37889648184E+02  0.38765625484E+01  0.20807940336E+02  0.43400732225E+02  0.00000000000E+00 0. -1.
         11    1    3    3    0    0  0.36137803632E+01  0.39749648511E+01 -0.17711889086E+01  0.56565771003E+01  0.51100000000E-03 0. -1.
        -11    1    3    3    0    0  0.28362471828E+02 -0.34312019478E+01 -0.95787414135E+01  0.30132295669E+02  0.51100000000E-03 0.  1.
         12    1    3    3    0    0  0.59133959931E+01 -0.44203254517E+01 -0.94580100140E+01  0.11998395005E+02  0.00000000000E+00 0. -1.
</event>
<event>
 7    1  0.1384886E-010  0.4778727E+02  0.7816164E-02  0.1312668E+00
        -11   -1    0    0    0    0  0.00000000000E+00  0.00000000000E+00  0.45593999997E+02  0.45594000000E+02  0.51100000000E-03 0.  1.
         11   -1    0    0    0    0 -0.00000000000E+00 -0.00000000000E+00 -0.45593999997E+02  0.45594000000E+02  0.51100000000E-03 0. -1.
    9900012    2    1    2    0    0  0.39026184822E+02  0.18963056829E+02 -0.99126771812E+00  0.47787271461E+02  0.20000001898E+02 0.  0.
         12    1    1    2    0    0 -0.39026184822E+02 -0.18963056829E+02  0.99126771812E+00  0.43400728539E+02  0.00000000000E+00 0. -1.
         11    1    3    3    0    0  0.24697230478E+02  0.10774813440E+02 -0.27284193175E+00  0.26946692579E+02  0.51100000000E-03 0. -1.
        -11    1    3    3    0    0  0.58251735776E+01  0.77763299009E+01  0.46541793307E+01  0.10773362495E+02  0.51100000000E-03 0.  1.
         12    1    3    3    0    0  0.85037807662E+01  0.41191348801E+00 -0.53726051171E+01  0.10067216387E+02  0.00000000000E+00 0. -1.
</event>
<event>
 7    1  0.1384886E-010  0.4778728E+02  0.7816164E-02  0.1312668E+00
        -11   -1    0    0    0    0  0.00000000000E+00  0.00000000000E+00  0.45593999997E+02  0.45594000000E+02  0.51100000000E-03 0.  1.
         11   -1    0    0    0    0 -0.00000000000E+00 -0.00000000000E+00 -0.45593999997E+02  0.45594000000E+02  0.51100000000E-03 0. -1.
    9900012    2    1    2    0    0  0.15568979115E+02  0.36880449531E+01  0.40343873050E+02  0.47787275594E+02  0.20000020745E+02 0.  0.
         12    1    1    2    0    0 -0.15568979115E+02 -0.36880449531E+01 -0.40343873050E+02  0.43400724406E+02  0.00000000000E+00 0. -1.
         11    1    3    3    0    0  0.16358544832E+01  0.27510570210E+01 -0.20568375334E+00  0.32072793284E+01  0.51100000000E-03 0. -1.
        -11    1    3    3    0    0  0.49970407064E+01 -0.55113461226E+01  0.14552611152E+02  0.16343923749E+02  0.51100000000E-03 0.  1.
         12    1    3    3    0    0  0.89360839255E+01  0.64483340547E+01  0.25996945651E+02  0.28236072517E+02  0.00000000000E+00 0. -1.
</event>
<event>
 7    1  0.1384886E-010  0.4778727E+02  0.7816164E-02  0.1312668E+00
        -11   -1    0    0    0    0  0.00000000000E+00  0.00000000000E+00  0.45593999997E+02  0.45594000000E+02  0.51100000000E-03 0.  1.
         11   -1    0    0    0    0 -0.00000000000E+00 -0.00000000000E+00 -0.45593999997E+02  0.45594000000E+02  0.51100000000E-03 0. -1.
    9900012    2    1    2    0    0  0.22013634826E+02  0.67605637234E+00  0.37397406651E+02  0.47787271957E+02  0.20000004161E+02 0.  0.
         12    1    1    2    0    0 -0.22013634826E+02 -0.67605637234E+00 -0.37397406651E+02  0.43400728043E+02  0.00000000000E+00 0. -1.
         11    1    3    3    0    0  0.18378097370E+02 -0.29335407914E+01  0.18343155738E+02  0.26131044510E+02  0.51100000000E-03 0. -1.
        -11    1    3    3    0    0  0.40298641826E+01  0.53053222849E+01  0.77557350389E+01  0.10224366784E+02  0.51100000000E-03 0.  1.
        -12    1    3    3    0    0 -0.39432672695E+00 -0.16957251212E+01  0.11298515874E+02  0.11431860663E+02  0.00000000000E+00 0.  1.
</event>
<event>
 7    1  0.1384886E-010  0.4778727E+02  0.7816164E-02  0.1312668E+00
        -11   -1    0    0    0    0  0.00000000000E+00  0.00000000000E+00  0.45593999997E+02  0.45594000000E+02  0.51100000000E-03 0.  1.
         11   -1    0    0    0    0 -0.00000000000E+00 -0.00000000000E+00 -0.45593999997E+02  0.45594000000E+02  0.51100000000E-03 0. -1.
    9900012    2    1    2    0    0  0.26866932846E+02 -0.68852234116E+01  0.33382405361E+02  0.47787269941E+02  0.19999994969E+02 0.  0.
         12    1    1    2    0    0 -0.26866932846E+02  0.68852234116E+01 -0.33382405361E+02  0.43400730059E+02  0.00000000000E+00 0. -1.
         11    1    3    3    0    0  0.30986847099E+01  0.19956763582E+01  0.11474173623E+02  0.12051607015E+02  0.51100000000E-03 0.  1.
        -11    1    3    3    0    0  0.17844390230E+02 -0.44867110686E+00  0.15146539600E+02  0.23410280446E+02  0.51100000000E-03 0. -1.
        -12    1    3    3    0    0  0.59238579066E+01 -0.84322286629E+01  0.67616921381E+01  0.12325382481E+02  0.00000000000E+00 0.  1.
</event>
<event>
 7    1  0.1610705E-010  0.4778727E+02  0.7816164E-02  0.1312668E+00
        -11   -1    0    0    0    0  0.00000000000E+00  0.00000000000E+00  0.45593999997E+02  0.45594000000E+02  0.51100000000E-03 0. -1.
         11   -1    0    0    0    0 -0.00000000000E+00 -0.00000000000E+00 -0.45593999997E+02  0.45594000000E+02  0.51100000000E-03 0.  1.
    9900012    2    1    2    0    0 -0.11759938043E+02 -0.20693190143E+02 -0.36292131949E+02  0.47787273019E+02  0.20000009004E+02 0.  0.
         12    1    1    2    0    0  0.11759938043E+02  0.20693190143E+02  0.36292131949E+02  0.43400726981E+02  0.00000000000E+00 0. -1.
         11    1    3    3    0    0  0.18154234549E+01 -0.37626545267E+01  0.59688006844E-01  0.41781448427E+01  0.51100000000E-03 0. -1.
        -11    1    3    3    0    0 -0.95954205235E+01 -0.87436107906E+01 -0.12263804030E+02  0.17858435380E+02  0.51100000000E-03 0.  1.
        -12    1    3    3    0    0 -0.39799409747E+01 -0.81869248254E+01 -0.24088015926E+02  0.25750692797E+02  0.00000000000E+00 0.  1.
</event>
<event>
 7    1  0.1384886E-010  0.4778727E+02  0.7816164E-02  0.1312668E+00
        -11   -1    0    0    0    0  0.00000000000E+00  0.00000000000E+00  0.45593999997E+02  0.45594000000E+02  0.51100000000E-03 0.  1.
         11   -1    0    0    0    0 -0.00000000000E+00 -0.00000000000E+00 -0.45593999997E+02  0.45594000000E+02  0.51100000000E-03 0. -1.
    9900012    2    1    2    0    0  0.30527076311E+02  0.18559985477E+02  0.24642402752E+02  0.47787268872E+02  0.19999990096E+02 0.  0.
         12    1    1    2    0    0 -0.30527076311E+02 -0.18559985477E+02 -0.24642402752E+02  0.43400731128E+02  0.00000000000E+00 0. -1.
         11    1    3    3    0    0  0.19342193451E+02  0.16739463236E+02  0.10928171585E+02  0.27816452171E+02  0.51100000000E-03 0. -1.
        -11    1    3    3    0    0 -0.24495080131E+00  0.12667202377E+01 -0.77705241272E+00  0.15061181126E+01  0.51100000000E-03 0.  1.
        -12    1    3    3    0    0  0.11429833662E+02  0.55380200353E+00  0.14491283580E+02  0.18464698589E+02  0.00000000000E+00 0.  1.
</event>
<event>
 7    1  0.1384886E-010  0.4778728E+02  0.7816164E-02  0.1312668E+00
        -11   -1    0    0    0    0  0.00000000000E+00  0.00000000000E+00  0.45593999997E+02  0.45594000000E+02  0.51100000000E-03 0. -1.
         11   -1    0    0    0    0 -0.00000000000E+00 -0.00000000000E+00 -0.45593999997E+02  0.45594000000E+02  0.51100000000E-03 0.  1.
    9900012    2    1    2    0    0 -0.14854965541E+02  0.31075082821E+02 -0.26406283257E+02  0.47787279165E+02  0.20000037024E+02 0.  0.
         12    1    1    2    0    0  0.14854965541E+02 -0.31075082821E+02  0.26406283257E+02  0.43400720835E+02  0.00000000000E+00 0. -1.
         11    1    3    3    0    0 -0.67806697870E+01  0.21317195217E+02 -0.16743880017E+02  0.27942043822E+02  0.51100000000E-03 0. -1.
        -11    1    3    3    0    0 -0.10793990054E+02  0.59027254155E+01 -0.85964330427E+01  0.15008365998E+02  0.51100000000E-03 0.  1.
         12    1    3    3    0    0  0.27196943005E+01  0.38551621891E+01 -0.10659701973E+01  0.48368693443E+01  0.00000000000E+00 0. -1.
</event>
<event>
 7    1  0.1384886E-010  0.4778727E+02  0.7816164E-02  0.1312668E+00
        -11   -1    0    0    0    0  0.00000000000E+00  0.00000000000E+00  0.45593999997E+02  0.45594000000E+02  0.51100000000E-03 0.  1.
         11   -1    0    0    0    0 -0.00000000000E+00 -0.00000000000E+00 -0.45593999997E+02  0.45594000000E+02  0.51100000000E-03 0. -1.
    9900012    2    1    2    0    0 -0.34956154160E+02  0.27753497512E+01  0.25573189471E+02  0.47787270748E+02  0.19999998650E+02 0.  0.
         12    1    1    2    0    0  0.34956154160E+02 -0.27753497512E+01 -0.25573189471E+02  0.43400729252E+02  0.00000000000E+00 0. -1.
         11    1    3    3    0    0 -0.44087559977E+01 -0.29539055339E+01 -0.71707511131E+00  0.53550802353E+01  0.51100000000E-03 0. -1.
        -11    1    3    3    0    0 -0.17533174080E+02 -0.25142252039E+01  0.16298963542E+02  0.24070515876E+02  0.51100000000E-03 0.  1.
        -12    1    3    3    0    0 -0.13014224082E+02  0.82434804891E+01  0.99913010397E+01  0.18361674637E+02  0.00000000000E+00 0.  1.
</event>
<event>
 7    1  0.1384886E-010  0.4778727E+02  0.7816164E-02  0.1312668E+00
        -11   -1    0    0    0    0  0.00000000000E+00  0.00000000000E+00  0.45593999997E+02  0.45594000000E+02  0.51100000000E-03 0. -1.
         11   -1    0    0    0    0 -0.00000000000E+00 -0.00000000000E+00 -0.45593999997E+02  0.45594000000E+02  0.51100000000E-03 0.  1.
    9900012    2    1    2    0    0 -0.24664915843E+02 -0.35146211746E+02  0.63252731846E+01  0.47787270116E+02  0.19999995765E+02 0.  0.
         12    1    1    2    0    0  0.24664915843E+02  0.35146211746E+02 -0.63252731846E+01  0.43400729884E+02  0.00000000000E+00 0. -1.
         11    1    3    3    0    0 -0.97744218242E+01 -0.13444997071E+02  0.53576816087E+01  0.17464593345E+02  0.51100000000E-03 0. -1.
        -11    1    3    3    0    0 -0.17934227785E+02 -0.17804978873E+02 -0.65626956798E-01  0.25271685857E+02  0.51100000000E-03 0.  1.
         12    1    3    3    0    0  0.30437337665E+01 -0.38962358028E+01  0.10332185327E+01  0.50509909136E+01  0.00000000000E+00 0. -1.
</event>
<event>
 7    1  0.1384886E-010  0.4778727E+02  0.7816164E-02  0.1312668E+00
        -11   -1    0    0    0    0  0.00000000000E+00  0.00000000000E+00  0.45593999997E+02  0.45594000000E+02  0.51100000000E-03 0. -1.
         11   -1    0    0    0    0 -0.00000000000E+00 -0.00000000000E+00 -0.45593999997E+02  0.45594000000E+02  0.51100000000E-03 0.  1.
    9900012    2    1    2    0    0 -0.19285516546E+02  0.37036617545E+02 -0.11831365025E+02  0.47787269753E+02  0.19999994112E+02 0.  0.
         12    1    1    2    0    0  0.19285516546E+02 -0.37036617545E+02  0.11831365025E+02  0.43400730247E+02  0.00000000000E+00 0. -1.
         11    1    3    3    0    0 -0.12323049081E+02  0.22933023596E+02 -0.92829288871E+01  0.27639715608E+02  0.51100000000E-03 0.  1.
        -11    1    3    3    0    0 -0.18558249673E+01  0.13380212433E+02  0.14992874313E+01  0.13591248439E+02  0.51100000000E-03 0. -1.
        -12    1    3    3    0    0 -0.51066424981E+01  0.72338151588E+00 -0.40477235692E+01  0.65563057062E+01  0.00000000000E+00 0.  1.
</event>
<event>
 7    1  0.1384886E-010  0.4778727E+02  0.7816164E-02  0.1312668E+00
        -11   -1    0    0    0    0  0.00000000000E+00  0.00000000000E+00  0.45593999997E+02  0.45594000000E+02  0.51100000000E-03 0.  1.
         11   -1    0    0    0    0 -0.00000000000E+00 -0.00000000000E+00 -0.45593999997E+02  0.45594000000E+02  0.51100000000E-03 0. -1.
    9900012    2    1    2    0    0 -0.26908230170E+02  0.37435313017E+01  0.33846066447E+02  0.47787273146E+02  0.20000009584E+02 0.  0.
         12    1    1    2    0    0  0.26908230170E+02 -0.37435313017E+01 -0.33846066447E+02  0.43400726854E+02  0.00000000000E+00 0. -1.
         11    1    3    3    0    0 -0.15440365895E+02  0.41382508352E+01  0.92037079772E+01  0.18445548507E+02  0.51100000000E-03 0. -1.
        -11    1    3    3    0    0 -0.30338926418E+01  0.19606868029E+01  0.48312029997E+00  0.36444756531E+01  0.51100000000E-03 0.  1.
         12    1    3    3    0    0 -0.84339716336E+01 -0.23554063364E+01  0.24159238169E+02  0.25697248986E+02  0.00000000000E+00 0. -1.
</event>
<event>
 7    1  0.1384886E-010  0.4778727E+02  0.7816164E-02  0.1312668E+00
        -11   -1    0    0    0    0  0.00000000000E+00  0.00000000000E+00  0.45593999997E+02  0.45594000000E+02  0.51100000000E-03 0.  1.
         11   -1    0    0    0    0 -0.00000000000E+00 -0.00000000000E+00 -0.45593999997E+02  0.45594000000E+02  0.51100000000E-03 0. -1.
    9900012    2    1    2    0    0 -0.37496672118E+02 -0.31056830012E+01  0.21632793085E+02  0.47787269321E+02  0.19999992141E+02 0.  0.
         12    1    1    2    0    0  0.37496672118E+02  0.31056830012E+01 -0.21632793085E+02  0.43400730679E+02  0.00000000000E+00 0. -1.
         11    1    3    3    0    0 -0.33070988862E+02 -0.66105618205E+01  0.17966087645E+02  0.38212172634E+02  0.51100000000E-03 0.  1.
        -11    1    3    3    0    0 -0.13080595074E+01 -0.10942425699E+01 -0.12828423172E+01  0.21340269793E+01  0.51100000000E-03 0. -1.
        -12    1    3    3    0    0 -0.31176237491E+01  0.45991213892E+01  0.49495477571E+01  0.74410697076E+01  0.00000000000E+00 0.  1.
</event>
<event>
 7    1  0.1384886E-010  0.4778727E+02  0.7816164E-02  0.1312668E+00
        -11   -1    0    0    0    0  0.00000000000E+00  0.00000000000E+00  0.45593999997E+02  0.45594000000E+02  0.51100000000E-03 0.  1.
         11   -1    0    0    0    0 -0.00000000000E+00 -0.00000000000E+00 -0.45593999997E+02  0.45594000000E+02  0.51100000000E-03 0. -1.
    9900012    2    1    2    0    0  0.20430978435E+02  0.25119980307E+02  0.28899564996E+02  0.47787272501E+02  0.20000006641E+02 0.  0.
         12    1    1    2    0    0 -0.20430978435E+02 -0.25119980307E+02 -0.28899564996E+02  0.43400727499E+02  0.00000000000E+00 0. -1.
         11    1    3    3    0    0  0.48795121007E+01  0.24119760217E+01 -0.20655322780E+01  0.58218287954E+01  0.51100000000E-03 0. -1.
        -11    1    3    3    0    0  0.10473427490E+02  0.93783113088E+01  0.15577440487E+02  0.20983375772E+02  0.51100000000E-03 0.  1.
         12    1    3    3    0    0  0.50780388446E+01  0.13329692977E+02  0.15387656787E+02  0.20982067933E+02  0.00000000000E+00 0. -1.
</event>
<event>
 7    1  0.1384886E-010  0.4778728E+02  0.7816164E-02  0.1312668E+00
        -11   -1    0    0    0    0  0.00000000000E+00  0.00000000000E+00  0.45593999997E+02  0.45594000000E+02  0.51100000000E-03 0. -1.
         11   -1    0    0    0    0 -0.00000000000E+00 -0.00000000000E+00 -0.45593999997E+02  0.45594000000E+02  0.51100000000E-03 0.  1.
    9900012    2    1    2    0    0  0.56321980549E+01  0.95341859147E+01 -0.41964275782E+02  0.47787276528E+02  0.20000025001E+02 0.  0.
         12    1    1    2    0    0 -0.56321980549E+01 -0.95341859147E+01  0.41964275782E+02  0.43400723472E+02  0.00000000000E+00 0. -1.
         11    1    3    3    0    0  0.26587477550E+01  0.44549476535E+01 -0.22213125067E+02  0.22810927726E+02  0.51100000000E-03 0. -1.
        -11    1    3    3    0    0  0.77434611522E+01  0.12600958393E+01 -0.15963418691E+02  0.17787067456E+02  0.51100000000E-03 0.  1.
         12    1    3    3    0    0 -0.47700108523E+01  0.38191424219E+01 -0.37877320241E+01  0.71892813449E+01  0.00000000000E+00 0. -1.
</event>
<event>
 7    1  0.1384886E-010  0.4778727E+02  0.7816164E-02  0.1312668E+00
        -11   -1    0    0    0    0  0.00000000000E+00  0.00000000000E+00  0.45593999997E+02  0.45594000000E+02  0.51100000000E-03 0.  1.
         11   -1    0    0    0    0 -0.00000000000E+00 -0.00000000000E+00 -0.45593999997E+02  0.45594000000E+02  0.51100000000E-03 0. -1.
    9900012    2    1    2    0    0 -0.15538336252E+02  0.10907846242E+02  0.39028222156E+02  0.47787272728E+02  0.20000007675E+02 0.  0.
         12    1    1    2    0    0  0.15538336252E+02 -0.10907846242E+02 -0.39028222156E+02  0.43400727272E+02  0.00000000000E+00 0. -1.
         11    1    3    3    0    0 -0.31304663742E+01 -0.22232030160E+01  0.11809894904E+01  0.40171118740E+01  0.51100000000E-03 0. -1.
        -11    1    3    3    0    0 -0.40733296841E+01  0.32470454592E+01  0.25024068658E+02  0.25560503348E+02  0.51100000000E-03 0.  1.
        -12    1    3    3    0    0 -0.83345401937E+01  0.98840037987E+01  0.12823164008E+02  0.18209657506E+02  0.00000000000E+00 0.  1.
</event>
<event>
 7    1  0.1384886E-010  0.4778727E+02  0.7816164E-02  0.1312668E+00
        -11   -1    0    0    0    0  0.00000000000E+00  0.00000000000E+00  0.45593999997E+02  0.45594000000E+02  0.51100000000E-03 0. -1.
         11   -1    0    0    0    0 -0.00000000000E+00 -0.00000000000E+00 -0.45593999997E+02  0.45594000000E+02  0.51100000000E-03 0.  1.
    9900012    2    1    2    0    0  0.39158743746E+01 -0.28102784388E+02 -0.32840869178E+02  0.47787271310E+02  0.20000001209E+02 0.  0.
         12    1    1    2    0    0 -0.39158743746E+01  0.28102784388E+02  0.32840869178E+02  0.43400728690E+02  0.00000000000E+00 0. -1.
         11    1    3    3    0    0  0.48891446744E+00 -0.11439738789E+02 -0.17552689864E+02  0.20957184511E+02  0.51100000000E-03 0.  1.
        -11    1    3    3    0    0 -0.37679300343E+01 -0.13062480636E+02 -0.12017600189E+02  0.18145203544E+02  0.51100000000E-03 0. -1.
         12    1    3    3    0    0  0.71948899415E+01 -0.36005649635E+01 -0.32705791257E+01  0.86848832545E+01  0.00000000000E+00 0. -1.
</event>
<event>
 7    1  0.1384886E-010  0.4778727E+02  0.7816164E-02  0.1312668E+00
        -11   -1    0    0    0    0  0.00000000000E+00  0.00000000000E+00  0.45593999997E+02  0.45594000000E+02  0.51100000000E-03 0.  1.
         11   -1    0    0    0    0 -0.00000000000E+00 -0.00000000000E+00 -0.45593999997E+02  0.45594000000E+02  0.51100000000E-03 0. -1.
    9900012    2    1    2    0    0 -0.45225439016E+01 -0.35477693001E+02  0.24586656603E+02  0.47787265134E+02  0.19999973050E+02 0.  0.
         12    1    1    2    0    0  0.45225439016E+01  0.35477693001E+02 -0.24586656603E+02  0.43400734866E+02  0.00000000000E+00 0. -1.
         11    1    3    3    0    0 -0.73073911227E+01 -0.12489293916E+02  0.99303619461E+01  0.17549715559E+02  0.51100000000E-03 0. -1.
        -11    1    3    3    0    0  0.64837542944E+01 -0.93829473405E+01  0.26267341712E+01  0.11703781577E+02  0.51100000000E-03 0.  1.
         12    1    3    3    0    0 -0.36989070733E+01 -0.13605451744E+02  0.12029560486E+02  0.18533767997E+02  0.00000000000E+00 0. -1.
</event>
<event>
 7    1  0.1666162E-010  0.4778727E+02  0.7816164E-02  0.1312668E+00
        -11   -1    0    0    0    0  0.00000000000E+00  0.00000000000E+00  0.45593999997E+02  0.45594000000E+02  0.51100000000E-03 0.  1.
         11   -1    0    0    0    0 -0.00000000000E+00 -0.00000000000E+00 -0.45593999997E+02  0.45594000000E+02  0.51100000000E-03 0. -1.
    9900012    2    1    2    0    0 -0.32327783487E+02  0.28144914703E+02 -0.68118564890E+01  0.47787271923E+02  0.20000004005E+02 0.  0.
         12    1    1    2    0    0  0.32327783487E+02 -0.28144914703E+02  0.68118564890E+01  0.43400728077E+02  0.00000000000E+00 0. -1.
         11    1    3    3    0    0 -0.38984363107E+00  0.54468189209E+01  0.25432847010E+00  0.54666715326E+01  0.51100000000E-03 0.  1.
        -11    1    3    3    0    0 -0.28792040290E+02  0.24551396247E+02 -0.51207456641E+01  0.38183434604E+02  0.51100000000E-03 0. -1.
         12    1    3    3    0    0 -0.31458995654E+01 -0.18533004650E+01 -0.19454392950E+01  0.41371657859E+01  0.00000000000E+00 0. -1.
</event>
<event>
 7    1  0.1384886E-010  0.4778726E+02  0.7816164E-02  0.1312668E+00
        -11   -1    0    0    0    0  0.00000000000E+00  0.00000000000E+00  0.45593999997E+02  0.45594000000E+02  0.51100000000E-03 0.  1.
         11   -1    0    0    0    0 -0.00000000000E+00 -0.00000000000E+00 -0.45593999997E+02  0.45594000000E+02  0.51100000000E-03 0. -1.
    9900012    2    1    2    0    0 -0.33086209176E+02  0.60985540525E+01  0.27417777478E+02  0.47787261285E+02  0.19999955503E+02 0.  0.
         12    1    1    2    0    0  0.33086209176E+02 -0.60985540525E+01 -0.27417777478E+02  0.43400738715E+02  0.00000000000E+00 0. -1.
         11    1    3    3    0    0 -0.10722224347E+02 -0.52372735939E+01  0.74401493526E+01  0.14062394970E+02  0.51100000000E-03 0. -1.
        -11    1    3    3    0    0 -0.16471615476E+02  0.57361330932E+01  0.78546071292E+01  0.19128831451E+02  0.51100000000E-03 0.  1.
         12    1    3    3    0    0 -0.58923693528E+01  0.55996945532E+01  0.12123020997E+02  0.14596034864E+02  0.00000000000E+00 0. -1.
</event>
<event>
 7    1  0.1384886E-010  0.4778727E+02  0.7816164E-02  0.1312668E+00
        -11   -1    0    0    0    0  0.00000000000E+00  0.00000000000E+00  0.45593999997E+02  0.45594000000E+02  0.51100000000E-03 0.  1.
         11   -1    0    0    0    0 -0.00000000000E+00 -0.00000000000E+00 -0.45593999997E+02  0.45594000000E+02  0.51100000000E-03 0. -1.
    9900012    2    1    2    0    0  0.16080348539E+02 -0.26245741975E+02  0.30597492337E+02  0.47787272837E+02  0.20000008172E+02 0.  0.
         12    1    1    2    0    0 -0.16080348539E+02  0.26245741975E+02 -0.30597492337E+02  0.43400727163E+02  0.00000000000E+00 0. -1.
         11    1    3    3    0    0  0.97920624513E+00 -0.15184362307E+02  0.18899413465E+02  0.24263378436E+02  0.51100000000E-03 0.  1.
        -11    1    3    3    0    0  0.22541487089E+01 -0.41666708902E+01 -0.14543200100E+00  0.47395657435E+01  0.51100000000E-03 0. -1.
        -12    1    3    3    0    0  0.12846993585E+02 -0.68947087779E+01  0.11843510872E+02  0.18784328657E+02  0.00000000000E+00 0.  1.
</event>
<event>
 7    1  0.1384886E-010  0.4778727E+02  0.7816164E-02  0.1312668E+00
        -11   -1    0    0    0    0  0.00000000000E+00  0.00000000000E+00  0.45593999997E+02  0.45594000000E+02  0.51100000000E-03 0.  1.
         11   -1    0    0    0    0 -0.00000000000E+00 -0.00000000000E+00 -0.45593999997E+02  0.45594000000E+02  0.51100000000E-03 0. -1.
    9900012    2    1    2    0    0 -0.11607116323E+02 -0.59217614167E+01  0.41398440254E+02  0.47787271169E+02  0.20000000568E+02 0.  0.
         12    1    1    2    0    0  0.11607116323E+02  0.59217614167E+01 -0.41398440254E+02  0.43400728831E+02  0.00000000000E+00 0. -1.
         11    1    3    3    0    0 -0.88485922704E+01 -0.96216378192E+01  0.21107370005E+02  0.24827294824E+02  0.51100000000E-03 0. -1.
        -11    1    3    3    0    0  0.21527577379E+01  0.84336185463E+00  0.49465411837E+00  0.23643832291E+01  0.51100000000E-03 0.  1.
        -12    1    3    3    0    0 -0.49112817909E+01  0.28565145478E+01  0.19796416131E+02  0.20595593116E+02  0.00000000000E+00 0.  1.
</event>
<event>
 7    1  0.1384886E-010  0.4778727E+02  0.7816164E-02  0.1312668E+00
        -11   -1    0    0    0    0  0.00000000000E+00  0.00000000000E+00  0.45593999997E+02  0.45594000000E+02  0.51100000000E-03 0.  1.
         11   -1    0    0    0    0 -0.00000000000E+00 -0.00000000000E+00 -0.45593999997E+02  0.45594000000E+02  0.51100000000E-03 0. -1.
    9900012    2    1    2    0    0 -0.15223924789E+02  0.36581400909E+02  0.17710347249E+02  0.47787272147E+02  0.20000005029E+02 0.  0.
         12    1    1    2    0    0  0.15223924789E+02 -0.36581400909E+02 -0.17710347249E+02  0.43400727853E+02  0.00000000000E+00 0. -1.
         11    1    3    3    0    0 -0.75799779836E+01  0.18123486106E+02  0.76736364525E+00  0.19659747254E+02  0.51100000000E-03 0. -1.
        -11    1    3    3    0    0 -0.91023939673E+01  0.96879990135E+01  0.79869589853E+01  0.15508140279E+02  0.51100000000E-03 0.  1.
        -12    1    3    3    0    0  0.14584471615E+01  0.87699157896E+01  0.89560246188E+01  0.12619384615E+02  0.00000000000E+00 0.  1.
</event>
<event>
 7    1  0.1384886E-010  0.4778727E+02  0.7816164E-02  0.1312668E+00
        -11   -1    0    0    0    0  0.00000000000E+00  0.00000000000E+00  0.45593999997E+02  0.45594000000E+02  0.51100000000E-03 0. -1.
         11   -1    0    0    0    0 -0.00000000000E+00 -0.00000000000E+00 -0.45593999997E+02  0.45594000000E+02  0.51100000000E-03 0.  1.
    9900012    2    1    2    0    0 -0.17386782698E+02  0.12521928411E+01 -0.39746135255E+02  0.47787268817E+02  0.19999989843E+02 0.  0.
         12    1    1    2    0    0  0.17386782698E+02 -0.12521928411E+01  0.39746135255E+02  0.43400731183E+02  0.00000000000E+00 0. -1.
         11    1    3    3    0    0  0.29596968312E+01  0.16145376557E+01 -0.10789622197E+02  0.11304091498E+02  0.51100000000E-03 0. -1.
        -11    1    3    3    0    0 -0.11214248374E+02  0.37673555699E+01 -0.12466462803E+02  0.17186187177E+02  0.51100000000E-03 0.  1.
        -12    1    3    3    0    0 -0.91322311551E+01 -0.41297003845E+01 -0.16490050255E+02  0.19296990142E+02  0.00000000000E+00 0.  1.
</event>
<event>
 7    1  0.1384886E-010  0.4778727E+02  0.7816164E-02  0.1312668E+00
        -11   -1    0    0    0    0  0.00000000000E+00  0.00000000000E+00  0.45593999997E+02  0.45594000000E+02  0.51100000000E-03 0. -1.
         11   -1    0    0    0    0 -0.00000000000E+00 -0.00000000000E+00 -0.45593999997E+02  0.45594000000E+02  0.51100000000E-03 0.  1.
    9900012    2    1    2    0    0 -0.12638188505E+02 -0.41300770557E+02 -0.42598043811E+01  0.47787269699E+02  0.19999993864E+02 0.  0.
         12    1    1    2    0    0  0.12638188505E+02  0.41300770557E+02  0.42598043811E+01  0.43400730301E+02  0.00000000000E+00 0. -1.
         11    1    3    3    0    0 -0.42719855866E+01 -0.30402956491E+01 -0.40761838931E+01  0.66414255908E+01  0.51100000000E-03 0. -1.
        -11    1    3    3    0    0 -0.42327676421E+01 -0.40844448773E+01  0.29463704075E+01  0.65787620953E+01  0.51100000000E-03 0.  1.
        -12    1    3    3    0    0 -0.41334352759E+01 -0.34176030031E+02 -0.31299908955E+01  0.34567082013E+02  0.00000000000E+00 0.  1.
</event>
<event>
 7    1  0.1384886E-010  0.4778726E+02  0.7816164E-02  0.1312668E+00
        -11   -1    0    0    0    0  0.00000000000E+00  0.00000000000E+00  0.45593999997E+02  0.45594000000E+02  0.51100000000E-03 0.  1.
         11   -1    0    0    0    0 -0.00000000000E+00 -0.00000000000E+00 -0.45593999997E+02  0.45594000000E+02  0.51100000000E-03 0. -1.
    9900012    2    1    2    0    0 -0.48955691738E+01  0.34485718899E+02  0.25891943371E+02  0.47787261100E+02  0.19999954661E+02 0.  0.
         12    1    1    2    0    0  0.48955691738E+01 -0.34485718899E+02 -0.25891943371E+02  0.43400738900E+02  0.00000000000E+00 0. -1.
         11    1    3    3    0    0 -0.28711454730E+01  0.38449250892E+01  0.77473555735E+01  0.91130918964E+01  0.51100000000E-03 0. -1.
        -11    1    3    3    0    0 -0.17001067498E+01  0.24968219040E+02  0.67166616707E+01  0.25911693677E+02  0.51100000000E-03 0.  1.
        -12    1    3    3    0    0 -0.32431695098E+00  0.56725747701E+01  0.11427926127E+02  0.12762475527E+02  0.00000000000E+00 0.  1.
</event>
<event>
 7    1  0.1384886E-010  0.4778727E+02  0.7816164E-02  0.1312668E+00
        -11   -1    0    0    0    0  0.00000000000E+00  0.00000000000E+00  0.45593999997E+02  0.45594000000E+02  0.51100000000E-03 0.  1.
         11   -1    0    0    0    0 -0.00000000000E+00 -0.00000000000E+00 -0.45593999997E+02  0.45594000000E+02  0.51100000000E-03 0. -1.
    9900012    2    1    2    0    0 -0.27186667324E+02  0.28858127011E+02  0.17655516037E+02  0.47787267042E+02  0.19999981750E+02 0.  0.
         12    1    1    2    0    0  0.27186667324E+02 -0.28858127011E+02 -0.17655516037E+02  0.43400732958E+02  0.00000000000E+00 0. -1.
         11    1    3    3    0    0 -0.69393846210E+01  0.15496046765E+02  0.11105287891E+02  0.20288172507E+02  0.51100000000E-03 0. -1.
        -11    1    3    3    0    0  0.23328468696E+00  0.35559224180E+00  0.29397797607E+01  0.29703826168E+01  0.51100000000E-03 0.  1.
        -12    1    3    3    0    0 -0.20480567390E+02  0.13006488004E+02  0.36104483854E+01  0.24528711918E+02  0.00000000000E+00 0.  1.
</event>
<event>
 7    1  0.1384886E-010  0.4778727E+02  0.7816164E-02  0.1312668E+00
        -11   -1    0    0    0    0  0.00000000000E+00  0.00000000000E+00  0.45593999997E+02  0.45594000000E+02  0.51100000000E-03 0. -1.
         11   -1    0    0    0    0 -0.00000000000E+00 -0.00000000000E+00 -0.45593999997E+02  0.45594000000E+02  0.51100000000E-03 0.  1.
    9900012    2    1    2    0    0 -0.14412466087E+02 -0.24180617734E+01 -0.40866328569E+02  0.47787274060E+02  0.20000013747E+02 0.  0.
         12    1    1    2    0    0  0.14412466087E+02  0.24180617734E+01  0.40866328569E+02  0.43400725940E+02  0.00000000000E+00 0. -1.
         11    1    3    3    0    0  0.15266223310E+01 -0.77018089272E+01 -0.11301859983E+02  0.13761557899E+02  0.51100000000E-03 0. -1.
        -11    1    3    3    0    0 -0.74601322185E+01  0.21863658428E+01 -0.12484403626E+02  0.14706940623E+02  0.51100000000E-03 0.  1.
         12    1    3    3    0    0 -0.84789561990E+01  0.30973813110E+01 -0.17080064960E+02  0.19318775537E+02  0.00000000000E+00 0. -1.
</event>
<event>
 7    1  0.1384886E-010  0.4778727E+02  0.7816164E-02  0.1312668E+00
        -11   -1    0    0    0    0  0.00000000000E+00  0.00000000000E+00  0.45593999997E+02  0.45594000000E+02  0.51100000000E-03 0. -1.
         11   -1    0    0    0    0 -0.00000000000E+00 -0.00000000000E+00 -0.45593999997E+02  0.45594000000E+02  0.51100000000E-03 0.  1.
    9900012    2    1    2    0    0 -0.14499679008E+02  0.29883550912E+02  0.27934849662E+02  0.47787272678E+02  0.20000007450E+02 0.  0.
         12    1    1    2    0    0  0.14499679008E+02 -0.29883550912E+02 -0.27934849662E+02  0.43400727322E+02  0.00000000000E+00 0. -1.
         11    1    3    3    0    0 -0.33820021269E+01  0.38199681279E+01 -0.16875933241E+01  0.53738316287E+01  0.51100000000E-03 0. -1.
        -11    1    3    3    0    0 -0.39767694736E+01  0.76042009895E+00  0.35183047930E+01  0.53638981208E+01  0.51100000000E-03 0.  1.
        -12    1    3    3    0    0 -0.71409074074E+01  0.25303162685E+02  0.26104138193E+02  0.37049542929E+02  0.00000000000E+00 0.  1.
</event>
<event>
 7    1  0.1384886E-010  0.4778727E+02  0.7816164E-02  0.1312668E+00
        -11   -1    0    0    0    0  0.00000000000E+00  0.00000000000E+00  0.45593999997E+02  0.45594000000E+02  0.51100000000E-03 0.  1.
         11   -1    0    0    0    0 -0.00000000000E+00 -0.00000000000E+00 -0.45593999997E+02  0.45594000000E+02  0.51100000000E-03 0. -1.
    9900012    2    1    2    0    0 -0.38802649214E+02  0.16721859329E+02  0.99175397628E+01  0.47787265439E+02  0.19999974445E+02 0.  0.
         12    1    1    2    0    0  0.38802649214E+02 -0.16721859329E+02 -0.99175397628E+01  0.43400734561E+02  0.00000000000E+00 0. -1.
         11    1    3    3    0    0 -0.45077385338E+01 -0.13673747498E+01  0.62868219004E+01  0.78557972392E+01  0.51100000000E-03 0. -1.
        -11    1    3    3    0    0 -0.15455200875E+02  0.36938291059E+01 -0.32487664530E+00  0.15893808626E+02  0.51100000000E-03 0.  1.
        -12    1    3    3    0    0 -0.18839709805E+02  0.14395404973E+02  0.39555945077E+01  0.24037659574E+02  0.00000000000E+00 0.  1.
</event>
<event>
 7    1  0.1384886E-010  0.4778727E+02  0.7816164E-02  0.1312668E+00
        -11   -1    0    0    0    0  0.00000000000E+00  0.00000000000E+00  0.45593999997E+02  0.45594000000E+02  0.51100000000E-03 0.  1.
         11   -1    0    0    0    0 -0.00000000000E+00 -0.00000000000E+00 -0.45593999997E+02  0.45594000000E+02  0.51100000000E-03 0. -1.
    9900012    2    1    2    0    0 -0.41548910687E+02 -0.53930959702E+00  0.12530788399E+02  0.47787268531E+02  0.19999988541E+02 0.  0.
         12    1    1    2    0    0  0.41548910687E+02  0.53930959702E+00 -0.12530788399E+02  0.43400731469E+02  0.00000000000E+00 0. -1.
         11    1    3    3    0    0 -0.14021262354E+02  0.74284423053E+01  0.10299902816E+02  0.18917334679E+02  0.51100000000E-03 0. -1.
        -11    1    3    3    0    0 -0.14025070489E+02 -0.30271474734E+01  0.20261719303E+01  0.14490396716E+02  0.51100000000E-03 0.  1.
         12    1    3    3    0    0 -0.13502577845E+02 -0.49406044289E+01  0.20471365317E+00  0.14379537136E+02  0.00000000000E+00 0. -1.
</event>
<event>
 7    1  0.1384886E-010  0.4778727E+02  0.7816164E-02  0.1312668E+00
        -11   -1    0    0    0    0  0.00000000000E+00  0.00000000000E+00  0.45593999997E+02  0.45594000000E+02  0.51100000000E-03 0.  1.
         11   -1    0    0    0    0 -0.00000000000E+00 -0.00000000000E+00 -0.45593999997E+02  0.45594000000E+02  0.51100000000E-03 0. -1.
    9900012    2    1    2    0    0 -0.77206235075E+01 -0.33537080313E+02  0.26443899947E+02  0.47787266968E+02  0.19999981416E+02 0.  0.
         12    1    1    2    0    0  0.77206235075E+01  0.33537080313E+02 -0.26443899947E+02  0.43400733032E+02  0.00000000000E+00 0. -1.
         11    1    3    3    0    0 -0.44031936373E+00 -0.11046050094E+02  0.27765199535E+01  0.11398165078E+02  0.51100000000E-03 0. -1.
        -11    1    3    3    0    0 -0.32451977409E+01  0.11506091133E+01  0.46211782836E+01  0.57628550823E+01  0.51100000000E-03 0.  1.
        -12    1    3    3    0    0 -0.40351064029E+01 -0.23641639332E+02  0.19046201710E+02  0.30626246809E+02  0.00000000000E+00 0.  1.
</event>
<event>
 7    1  0.1384886E-010  0.4778728E+02  0.7816164E-02  0.1312668E+00
        -11   -1    0    0    0    0  0.00000000000E+00  0.00000000000E+00  0.45593999997E+02  0.45594000000E+02  0.51100000000E-03 0.  1.
         11   -1    0    0    0    0 -0.00000000000E+00 -0.00000000000E+00 -0.45593999997E+02  0.45594000000E+02  0.51100000000E-03 0. -1.
    9900012    2    1    2    0    0 -0.52673167705E+01 -0.29299854653E+02  0.31581588341E+02  0.47787276149E+02  0.20000023273E+02 0.  0.
         12    1    1    2    0    0  0.52673167705E+01  0.29299854653E+02 -0.31581588341E+02  0.43400723851E+02  0.00000000000E+00 0. -1.
         11    1    3    3    0    0  0.39717577214E+01 -0.49221951278E+01  0.22480032494E+01  0.67124051683E+01  0.51100000000E-03 0. -1.
        -11    1    3    3    0    0 -0.36164341456E+01 -0.82237071340E+01  0.19190022580E+02  0.21188792363E+02  0.51100000000E-03 0.  1.
         12    1    3    3    0    0 -0.56226403463E+01 -0.16153952391E+02  0.10143562512E+02  0.19886078617E+02  0.00000000000E+00 0. -1.
</event>
<event>
 7    1  0.1384886E-010  0.4778727E+02  0.7816164E-02  0.1312668E+00
        -11   -1    0    0    0    0  0.00000000000E+00  0.00000000000E+00  0.45593999997E+02  0.45594000000E+02  0.51100000000E-03 0. -1.
         11   -1    0    0    0    0 -0.00000000000E+00 -0.00000000000E+00 -0.45593999997E+02  0.45594000000E+02  0.51100000000E-03 0.  1.
    9900012    2    1    2    0    0  0.39354286407E+02  0.17601540748E+02 -0.50049394605E+01  0.47787268274E+02  0.19999987370E+02 0.  0.
         12    1    1    2    0    0 -0.39354286407E+02 -0.17601540748E+02  0.50049394605E+01  0.43400731726E+02  0.00000000000E+00 0. -1.
         11    1    3    3    0    0  0.23963992473E+02  0.11314890329E+02 -0.72742579972E+00  0.26510919014E+02  0.51100000000E-03 0. -1.
        -11    1    3    3    0    0  0.13357958230E+02  0.33290561841E+01 -0.81489099036E+01  0.15997574692E+02  0.51100000000E-03 0.  1.
         12    1    3    3    0    0  0.20323357037E+01  0.29575942350E+01  0.38713962429E+01  0.52787745681E+01  0.00000000000E+00 0. -1.
</event>
<event>
 7    1  0.1384886E-010  0.4778729E+02  0.7816164E-02  0.1312668E+00
        -11   -1    0    0    0    0  0.00000000000E+00  0.00000000000E+00  0.45593999997E+02  0.45594000000E+02  0.51100000000E-03 0. -1.
         11   -1    0    0    0    0 -0.00000000000E+00 -0.00000000000E+00 -0.45593999997E+02  0.45594000000E+02  0.51100000000E-03 0.  1.
    9900012    2    1    2    0    0 -0.43199576735E+02  0.41621476759E+01  0.30830049933E+00  0.47787286267E+02  0.20000069406E+02 0.  0.
         12    1    1    2    0    0  0.43199576735E+02 -0.41621476759E+01 -0.30830049933E+00  0.43400713733E+02  0.00000000000E+00 0. -1.
         11    1    3    3    0    0 -0.17288117322E+02 -0.35197404397E+01 -0.24562508029E+01  0.17812937477E+02  0.51100000000E-03 0. -1.
        -11    1    3    3    0    0 -0.11185479165E+02  0.38764404251E+00 -0.44272926598E+01  0.12036034754E+02  0.51100000000E-03 0.  1.
         12    1    3    3    0    0 -0.14725980248E+02  0.72942440731E+01  0.71918439620E+01  0.17938314036E+02  0.00000000000E+00 0. -1.
</event>
<event>
 7    1  0.1384886E-010  0.4778726E+02  0.7816164E-02  0.1312668E+00
        -11   -1    0    0    0    0  0.00000000000E+00  0.00000000000E+00  0.45593999997E+02  0.45594000000E+02  0.51100000000E-03 0.  1.
         11   -1    0    0    0    0 -0.00000000000E+00 -0.00000000000E+00 -0.45593999997E+02  0.45594000000E+02  0.51100000000E-03 0. -1.
    9900012    2    1    2    0    0 -0.84760601928E+01  0.82856366730E+01  0.41750789594E+02  0.47787264947E+02  0.19999972197E+02 0.  0.
         12    1    1    2    0    0  0.84760601928E+01 -0.82856366730E+01 -0.41750789594E+02  0.43400735053E+02  0.00000000000E+00 0. -1.
         11    1    3    3    0    0  0.15342958185E+01  0.23672434610E+01  0.59715910636E+01  0.66043777416E+01  0.51100000000E-03 0.  1.
        -11    1    3    3    0    0 -0.66106175233E+00  0.99215444279E+01  0.21089468464E+02  0.23316083008E+02  0.51100000000E-03 0. -1.
         12    1    3    3    0    0 -0.93492942589E+01 -0.40031512159E+01  0.14689730066E+02  0.17866804197E+02  0.00000000000E+00 0. -1.
</event>
<event>
 7    1  0.1384886E-010  0.4778727E+02  0.7816164E-02  0.1312668E+00
        -11   -1    0    0    0    0  0.00000000000E+00  0.00000000000E+00  0.45593999997E+02  0.45594000000E+02  0.51100000000E-03 0.  1.
         11   -1    0    0    0    0 -0.00000000000E+00 -0.00000000000E+00 -0.45593999997E+02  0.45594000000E+02  0.51100000000E-03 0. -1.
    9900012    2    1    2    0    0 -0.29132884285E+02 -0.16916291469E+01  0.32125332481E+02  0.47787267944E+02  0.19999985866E+02 0.  0.
         12    1    1    2    0    0  0.29132884285E+02  0.16916291469E+01 -0.32125332481E+02  0.43400732056E+02  0.00000000000E+00 0. -1.
         11    1    3    3    0    0 -0.21414675907E+02  0.60369958595E+01  0.17671619420E+02  0.28413373549E+02  0.51100000000E-03 0. -1.
        -11    1    3    3    0    0  0.10983618660E+01 -0.93904342423E+00  0.33752414776E+01  0.36715741358E+01  0.51100000000E-03 0.  1.
        -12    1    3    3    0    0 -0.88165702439E+01 -0.67895815821E+01  0.11078471583E+02  0.15702320260E+02  0.00000000000E+00 0.  1.
</event>
<event>
 7    1  0.1384886E-010  0.4778727E+02  0.7816164E-02  0.1312668E+00
        -11   -1    0    0    0    0  0.00000000000E+00  0.00000000000E+00  0.45593999997E+02  0.45594000000E+02  0.51100000000E-03 0.  1.
         11   -1    0    0    0    0 -0.00000000000E+00 -0.00000000000E+00 -0.45593999997E+02  0.45594000000E+02  0.51100000000E-03 0. -1.
    9900012    2    1    2    0    0  0.42349539043E+02  0.81675030809E-01 -0.94938331758E+01  0.47787274242E+02  0.20000014579E+02 0.  0.
         12    1    1    2    0    0 -0.42349539043E+02 -0.81675030809E-01  0.94938331758E+01  0.43400725758E+02  0.00000000000E+00 0. -1.
         11    1    3    3    0    0  0.11901635516E+02 -0.34055371605E+01 -0.12278095536E+01  0.12440021216E+02  0.51100000000E-03 0. -1.
        -11    1    3    3    0    0  0.89383586633E-01  0.37695171412E+01 -0.22694664762E+01  0.44008780091E+01  0.51100000000E-03 0.  1.
        -12    1    3    3    0    0  0.30358519940E+02 -0.28230494991E+00 -0.59965571461E+01  0.30946375017E+02  0.00000000000E+00 0.  1.
</event>
<event>
 7    1  0.1384886E-010  0.4778726E+02  0.7816164E-02  0.1312668E+00
        -11   -1    0    0    0    0  0.00000000000E+00  0.00000000000E+00  0.45593999997E+02  0.45594000000E+02  0.51100000000E-03 0. -1.
         11   -1    0    0    0    0 -0.00000000000E+00 -0.00000000000E+00 -0.45593999997E+02  0.45594000000E+02  0.51100000000E-03 0.  1.
    9900012    2    1    2    0    0 -0.40235201611E+02 -0.14064835487E+02  0.81812513105E+01  0.47787263613E+02  0.19999966116E+02 0.  0.
         12    1    1    2    0    0  0.40235201611E+02  0.14064835487E+02 -0.81812513105E+01  0.43400736387E+02  0.00000000000E+00 0. -1.
         11    1    3    3    0    0 -0.57261756816E+01 -0.55550389710E+01 -0.12390026825E+01  0.80735787489E+01  0.51100000000E-03 0. -1.
        -11    1    3    3    0    0 -0.24713956577E+02 -0.12854420128E+02  0.71606207428E+01  0.28762653845E+02  0.51100000000E-03 0.  1.
        -12    1    3    3    0    0 -0.97950693526E+01  0.43446236121E+01  0.22596332502E+01  0.10951031019E+02  0.00000000000E+00 0.  1.
</event>
<event>
 7    1  0.1384886E-010  0.4778727E+02  0.7816164E-02  0.1312668E+00
        -11   -1    0    0    0    0  0.00000000000E+00  0.00000000000E+00  0.45593999997E+02  0.45594000000E+02  0.51100000000E-03 0.  1.
         11   -1    0    0    0    0 -0.00000000000E+00 -0.00000000000E+00 -0.45593999997E+02  0.45594000000E+02  0.51100000000E-03 0. -1.
    9900012    2    1    2    0    0 -0.25590585409E+02  0.23143604584E+02  0.26327155143E+02  0.47787267372E+02  0.19999983256E+02 0.  0.
         12    1    1    2    0    0  0.25590585409E+02 -0.23143604584E+02 -0.26327155143E+02  0.43400732628E+02  0.00000000000E+00 0. -1.
         11    1    3    3    0    0 -0.48238966978E+01  0.89053266741E+01  0.13678898107E+02  0.17020196127E+02  0.51100000000E-03 0.  1.
        -11    1    3    3    0    0 -0.18154428339E+01  0.42082264631E+01 -0.17866846360E+01  0.49190695154E+01  0.51100000000E-03 0. -1.
        -12    1    3    3    0    0 -0.18951245877E+02  0.10030051447E+02  0.14434941672E+02  0.25848001729E+02  0.00000000000E+00 0.  1.
</event>
<event>
 7    1  0.1384886E-010  0.4778727E+02  0.7816164E-02  0.1312668E+00
        -11   -1    0    0    0    0  0.00000000000E+00  0.00000000000E+00  0.45593999997E+02  0.45594000000E+02  0.51100000000E-03 0. -1.
         11   -1    0    0    0    0 -0.00000000000E+00 -0.00000000000E+00 -0.45593999997E+02  0.45594000000E+02  0.51100000000E-03 0.  1.
    9900012    2    1    2    0    0 -0.26792520889E+02  0.13595911850E+02 -0.31319888529E+02  0.47787269452E+02  0.19999992738E+02 0.  0.
         12    1    1    2    0    0  0.26792520889E+02 -0.13595911850E+02  0.31319888529E+02  0.43400730548E+02  0.00000000000E+00 0. -1.
         11    1    3    3    0    0 -0.48343690319E+01  0.57749845341E+01 -0.16858667225E+02  0.18464458594E+02  0.51100000000E-03 0. -1.
        -11    1    3    3    0    0 -0.45809008172E+01 -0.25180382201E+01 -0.21703363707E+01  0.56599937278E+01  0.51100000000E-03 0.  1.
        -12    1    3    3    0    0 -0.17377251040E+02  0.10338965536E+02 -0.12290884933E+02  0.23662817130E+02  0.00000000000E+00 0.  1.
</event>
<event>
 7    1  0.1384886E-010  0.4778727E+02  0.7816164E-02  0.1312668E+00
        -11   -1    0    0    0    0  0.00000000000E+00  0.00000000000E+00  0.45593999997E+02  0.45594000000E+02  0.51100000000E-03 0.  1.
         11   -1    0    0    0    0 -0.00000000000E+00 -0.00000000000E+00 -0.45593999997E+02  0.45594000000E+02  0.51100000000E-03 0. -1.
    9900012    2    1    2    0    0 -0.25200436451E+02  0.26245866110E+02 -0.23658320283E+02  0.47787267243E+02  0.19999982670E+02 0.  0.
         12    1    1    2    0    0  0.25200436451E+02 -0.26245866110E+02  0.23658320283E+02  0.43400732757E+02  0.00000000000E+00 0. -1.
         11    1    3    3    0    0 -0.20342464531E+02  0.18426123406E+02 -0.19505139990E+02  0.33671774133E+02  0.51100000000E-03 0. -1.
        -11    1    3    3    0    0 -0.46811474124E+00  0.78907856569E+01 -0.53740750110E+01  0.95584680874E+01  0.51100000000E-03 0.  1.
         12    1    3    3    0    0 -0.43898571782E+01 -0.71042952470E-01  0.12208947181E+01  0.45570250228E+01  0.00000000000E+00 0. -1.
</event>
<event>
 7    1  0.1384886E-010  0.4778727E+02  0.7816164E-02  0.1312668E+00
        -11   -1    0    0    0    0  0.00000000000E+00  0.00000000000E+00  0.45593999997E+02  0.45594000000E+02  0.51100000000E-03 0.  1.
         11   -1    0    0    0    0 -0.00000000000E+00 -0.00000000000E+00 -0.45593999997E+02  0.45594000000E+02  0.51100000000E-03 0. -1.
    9900012    2    1    2    0    0  0.31130225811E+02  0.16187348856E+02  0.25544125176E+02  0.47787267829E+02  0.19999985339E+02 0.  0.
         12    1    1    2    0    0 -0.31130225811E+02 -0.16187348856E+02 -0.25544125176E+02  0.43400732171E+02  0.00000000000E+00 0. -1.
         11    1    3    3    0    0  0.10294351930E+02  0.92089602080E+01  0.68432341920E+01  0.15414554299E+02  0.51100000000E-03 0. -1.
        -11    1    3    3    0    0  0.13128393162E+02  0.44370309412E-01  0.17585230341E+02  0.21945318457E+02  0.51100000000E-03 0.  1.
         12    1    3    3    0    0  0.77074807180E+01  0.69340183384E+01  0.11156606424E+01  0.10427395073E+02  0.00000000000E+00 0. -1.
</event>
<event>
 7    1  0.1384886E-010  0.4778727E+02  0.7816164E-02  0.1312668E+00
        -11   -1    0    0    0    0  0.00000000000E+00  0.00000000000E+00  0.45593999997E+02  0.45594000000E+02  0.51100000000E-03 0. -1.
         11   -1    0    0    0    0 -0.00000000000E+00 -0.00000000000E+00 -0.45593999997E+02  0.45594000000E+02  0.51100000000E-03 0.  1.
    9900012    2    1    2    0    0  0.21767924618E+02  0.18892377314E+02 -0.32447791065E+02  0.47787267198E+02  0.19999982464E+02 0.  0.
         12    1    1    2    0    0 -0.21767924618E+02 -0.18892377314E+02  0.32447791065E+02  0.43400732802E+02  0.00000000000E+00 0. -1.
         11    1    3    3    0    0  0.44696195973E+00  0.68366187127E+00 -0.46816813442E+01  0.47524003427E+01  0.51100000000E-03 0. -1.
        -11    1    3    3    0    0  0.28765073544E+01  0.89965468574E+01 -0.17765730375E+02  0.20120470321E+02  0.51100000000E-03 0.  1.
         12    1    3    3    0    0  0.18444455304E+02  0.92121685854E+01 -0.10000379346E+02  0.22914396535E+02  0.00000000000E+00 0. -1.
</event>
<event>
 7    1  0.1624608E-010  0.4778727E+02  0.7816164E-02  0.1312668E+00
        -11   -1    0    0    0    0  0.00000000000E+00  0.00000000000E+00  0.45593999997E+02  0.45594000000E+02  0.51100000000E-03 0.  1.
         11   -1    0    0    0    0 -0.00000000000E+00 -0.00000000000E+00 -0.45593999997E+02  0.45594000000E+02  0.51100000000E-03 0. -1.
    9900012    2    1    2    0    0  0.30299483374E+02  0.30980463408E+02  0.24032492872E+01  0.47787269444E+02  0.19999992701E+02 0.  0.
         12    1    1    2    0    0 -0.30299483374E+02 -0.30980463408E+02 -0.24032492872E+01  0.43400730556E+02  0.00000000000E+00 0. -1.
         11    1    3    3    0    0 -0.18583659284E+01  0.24401107260E+01  0.10505403211E+01  0.32421134321E+01  0.51100000000E-03 0. -1.
        -11    1    3    3    0    0  0.14417440140E+02  0.16354652584E+02 -0.44554427623E+01  0.22252824805E+02  0.51100000000E-03 0.  1.
        -12    1    3    3    0    0  0.17740409163E+02  0.12185700097E+02  0.58081517284E+01  0.22292331206E+02  0.00000000000E+00 0.  1.
</event>
<event>
 7    1  0.1384886E-010  0.4778727E+02  0.7816164E-02  0.1312668E+00
        -11   -1    0    0    0    0  0.00000000000E+00  0.00000000000E+00  0.45593999997E+02  0.45594000000E+02  0.51100000000E-03 0. -1.
         11   -1    0    0    0    0 -0.00000000000E+00 -0.00000000000E+00 -0.45593999997E+02  0.45594000000E+02  0.51100000000E-03 0.  1.
    9900012    2    1    2    0    0 -0.24365760976E+02 -0.11394756319E+02 -0.34060130772E+02  0.47787270885E+02  0.19999999272E+02 0.  0.
         12    1    1    2    0    0  0.24365760976E+02  0.11394756319E+02  0.34060130772E+02  0.43400729115E+02  0.00000000000E+00 0. -1.
         11    1    3    3    0    0 -0.17475438500E+02 -0.54916207009E+01 -0.17400323950E+02  0.25264997972E+02  0.51100000000E-03 0. -1.
        -11    1    3    3    0    0 -0.38463812335E+01  0.23104281918E+01 -0.11527571085E+02  0.12370029199E+02  0.51100000000E-03 0.  1.
         12    1    3    3    0    0 -0.30439412427E+01 -0.82135638102E+01 -0.51322357371E+01  0.10152243713E+02  0.00000000000E+00 0. -1.
</event>
<event>
 7    1  0.1384886E-010  0.4778727E+02  0.7816164E-02  0.1312668E+00
        -11   -1    0    0    0    0  0.00000000000E+00  0.00000000000E+00  0.45593999997E+02  0.45594000000E+02  0.51100000000E-03 0.  1.
         11   -1    0    0    0    0 -0.00000000000E+00 -0.00000000000E+00 -0.45593999997E+02  0.45594000000E+02  0.51100000000E-03 0. -1.
    9900012    2    1    2    0    0  0.62907230043E+01  0.42694406212E+02  0.46084522580E+01  0.47787270168E+02  0.19999996004E+02 0.  0.
         12    1    1    2    0    0 -0.62907230043E+01 -0.42694406212E+02 -0.46084522580E+01  0.43400729832E+02  0.00000000000E+00 0. -1.
         11    1    3    3    0    0  0.36768009895E+01  0.53213045997E+01  0.31517419228E+01  0.71950417350E+01  0.51100000000E-03 0. -1.
        -11    1    3    3    0    0 -0.58181319208E+01  0.10298119566E+02 -0.20981578989E+01  0.12012668000E+02  0.51100000000E-03 0.  1.
        -12    1    3    3    0    0  0.84320539355E+01  0.27074982046E+02  0.35548682342E+01  0.28579560433E+02  0.00000000000E+00 0.  1.
</event>
<event>
 7    1  0.1384886E-010  0.4778727E+02  0.7816164E-02  0.1312668E+00
        -11   -1    0    0    0    0  0.00000000000E+00  0.00000000000E+00  0.45593999997E+02  0.45594000000E+02  0.51100000000E-03 0. -1.
         11   -1    0    0    0    0 -0.00000000000E+00 -0.00000000000E+00 -0.45593999997E+02  0.45594000000E+02  0.51100000000E-03 0.  1.
    9900012    2    1    2    0    0  0.42008262570E+02  0.78248350311E+01 -0.75961275428E+01  0.47787270501E+02  0.19999997522E+02 0.  0.
         12    1    1    2    0    0 -0.42008262570E+02 -0.78248350311E+01  0.75961275428E+01  0.43400729499E+02  0.00000000000E+00 0. -1.
         11    1    3    3    0    0  0.20382290048E+02  0.71801035295E+01  0.29769891967E+01  0.21814080298E+02  0.51100000000E-03 0. -1.
        -11    1    3    3    0    0  0.17722727193E+02 -0.13582437897E+01 -0.42475939894E+01  0.18275172784E+02  0.51100000000E-03 0.  1.
        -12    1    3    3    0    0  0.39032453288E+01  0.20029752913E+01 -0.63255227502E+01  0.76980174186E+01  0.00000000000E+00 0.  1.
</event>
<event>
 7    1  0.1384886E-010  0.4778726E+02  0.7816164E-02  0.1312668E+00
        -11   -1    0    0    0    0  0.00000000000E+00  0.00000000000E+00  0.45593999997E+02  0.45594000000E+02  0.51100000000E-03 0. -1.
         11   -1    0    0    0    0 -0.00000000000E+00 -0.00000000000E+00 -0.45593999997E+02  0.45594000000E+02  0.51100000000E-03 0.  1.
    9900012    2    1    2    0    0  0.19355531015E+02 -0.26873831347E+02 -0.28049686730E+02  0.47787259018E+02  0.19999945166E+02 0.  0.
         12    1    1    2    0    0 -0.19355531015E+02  0.26873831347E+02  0.28049686730E+02  0.43400740982E+02  0.00000000000E+00 0. -1.
         11    1    3    3    0    0 -0.10264497159E+00 -0.32701696547E+01 -0.90209163289E+01  0.95959094011E+01  0.51100000000E-03 0. -1.
        -11    1    3    3    0    0  0.17731999327E+02 -0.24013401832E+02 -0.20220040877E+02  0.36054366186E+02  0.51100000000E-03 0.  1.
         12    1    3    3    0    0  0.17261766587E+01  0.40974013994E+00  0.11912704757E+01  0.21369834312E+01  0.00000000000E+00 0. -1.
</event>
<event>
 7    1  0.1384886E-010  0.4778727E+02  0.7816164E-02  0.1312668E+00
        -11   -1    0    0    0    0  0.00000000000E+00  0.00000000000E+00  0.45593999997E+02  0.45594000000E+02  0.51100000000E-03 0.  1.
         11   -1    0    0    0    0 -0.00000000000E+00 -0.00000000000E+00 -0.45593999997E+02  0.45594000000E+02  0.51100000000E-03 0. -1.
    9900012    2    1    2    0    0  0.23547383987E+02  0.56093641829E+01  0.36023312497E+02  0.47787270716E+02  0.19999998503E+02 0.  0.
         12    1    1    2    0    0 -0.23547383987E+02 -0.56093641829E+01 -0.36023312497E+02  0.43400729284E+02  0.00000000000E+00 0. -1.
         11    1    3    3    0    0  0.40285275838E+01  0.55081028348E+01  0.40286550693E+01  0.79245374162E+01  0.51100000000E-03 0. -1.
        -11    1    3    3    0    0  0.14453563910E+02 -0.49127834990E+01  0.14856165400E+02  0.21301328645E+02  0.51100000000E-03 0.  1.
         12    1    3    3    0    0  0.50652924929E+01  0.50140448471E+01  0.17138492028E+02  0.18561404655E+02  0.00000000000E+00 0. -1.
</event>
<event>
 7    1  0.1384886E-010  0.4778727E+02  0.7816164E-02  0.1312668E+00
        -11   -1    0    0    0    0  0.00000000000E+00  0.00000000000E+00  0.45593999997E+02  0.45594000000E+02  0.51100000000E-03 0.  1.
         11   -1    0    0    0    0 -0.00000000000E+00 -0.00000000000E+00 -0.45593999997E+02  0.45594000000E+02  0.51100000000E-03 0. -1.
    9900012    2    1    2    0    0 -0.23509330495E+02  0.23752858273E+02  0.27690013457E+02  0.47787265654E+02  0.19999975425E+02 0.  0.
         12    1    1    2    0    0  0.23509330495E+02 -0.23752858273E+02 -0.27690013457E+02  0.43400734346E+02  0.00000000000E+00 0. -1.
         11    1    3    3    0    0  0.32247712924E+00  0.12290109999E-01 -0.45963669911E+00  0.56161259065E+00  0.51100000000E-03 0. -1.
        -11    1    3    3    0    0 -0.22129285567E+02  0.14256276702E+02  0.13221433824E+02  0.29457647865E+02  0.51100000000E-03 0.  1.
         12    1    3    3    0    0 -0.17025220575E+01  0.94842914611E+01  0.14928216333E+02  0.17768005199E+02  0.00000000000E+00 0. -1.
</event>
<event>
 7    1  0.1384886E-010  0.4778727E+02  0.7816164E-02  0.1312668E+00
        -11   -1    0    0    0    0  0.00000000000E+00  0.00000000000E+00  0.45593999997E+02  0.45594000000E+02  0.51100000000E-03 0.  1.
         11   -1    0    0    0    0 -0.00000000000E+00 -0.00000000000E+00 -0.45593999997E+02  0.45594000000E+02  0.51100000000E-03 0. -1.
    9900012    2    1    2    0    0  0.23873578600E+02 -0.16865600046E+02  0.32081573826E+02  0.47787267296E+02  0.19999982909E+02 0.  0.
         12    1    1    2    0    0 -0.23873578600E+02  0.16865600046E+02 -0.32081573826E+02  0.43400732704E+02  0.00000000000E+00 0. -1.
         11    1    3    3    0    0  0.14657133750E+01 -0.43421987365E+00  0.88637398932E+01  0.89945954746E+01  0.51100000000E-03 0. -1.
        -11    1    3    3    0    0  0.23269430607E+02 -0.12827178190E+02  0.22893074086E+02  0.35072720773E+02  0.51100000000E-03 0.  1.
         12    1    3    3    0    0 -0.86156538188E+00 -0.36042019829E+01  0.32475984680E+00  0.37199510479E+01  0.00000000000E+00 0. -1.
</event>
<event>
 7    1  0.1384886E-010  0.4778727E+02  0.7816164E-02  0.1312668E+00
        -11   -1    0    0    0    0  0.00000000000E+00  0.00000000000E+00  0.45593999997E+02  0.45594000000E+02  0.51100000000E-03 0.  1.
         11   -1    0    0    0    0 -0.00000000000E+00 -0.00000000000E+00 -0.45593999997E+02  0.45594000000E+02  0.51100000000E-03 0. -1.
    9900012    2    1    2    0    0  0.33092286984E+02 -0.21208121806E+02  0.18404866381E+02  0.47787274259E+02  0.20000014655E+02 0.  0.
         12    1    1    2    0    0 -0.33092286984E+02  0.21208121806E+02 -0.18404866381E+02  0.43400725741E+02  0.00000000000E+00 0. -1.
         11    1    3    3    0    0  0.19543448052E+02 -0.40331423127E+01  0.70163022816E+01  0.21152803517E+02  0.51100000000E-03 0. -1.
        -11    1    3    3    0    0  0.10945307130E+02 -0.10350289979E+02  0.12063212166E+02  0.19298946574E+02  0.51100000000E-03 0.  1.
         12    1    3    3    0    0  0.26035318019E+01 -0.68246895136E+01 -0.67464806679E+00  0.73355241677E+01  0.00000000000E+00 0. -1.
</event>
<event>
 7    1  0.1384886E-010  0.4778727E+02  0.7816164E-02  0.1312668E+00
        -11   -1    0    0    0    0  0.00000000000E+00  0.00000000000E+00  0.45593999997E+02  0.45594000000E+02  0.51100000000E-03 0.  1.
         11   -1    0    0    0    0 -0.00000000000E+00 -0.00000000000E+00 -0.45593999997E+02  0.45594000000E+02  0.51100000000E-03 0. -1.
    9900012    2    1    2    0    0  0.15094636104E+02  0.31118946198E+02  0.26218064726E+02  0.47787265333E+02  0.19999973960E+02 0.  0.
         12    1    1    2    0    0 -0.15094636104E+02 -0.31118946198E+02 -0.26218064726E+02  0.43400734667E+02  0.00000000000E+00 0. -1.
         11    1    3    3    0    0  0.89155791421E+01  0.11226660226E+02  0.21768532236E+02  0.26065196091E+02  0.51100000000E-03 0.  1.
        -11    1    3    3    0    0  0.56559610821E+01  0.11141878719E+02  0.26595218447E+01  0.12775148291E+02  0.51100000000E-03 0. -1.
        -12    1    3    3    0    0  0.52309587990E+00  0.87504072537E+01  0.17900106456E+01  0.89469209517E+01  0.00000000000E+00 0.  1.
</event>
<event>
 7    1  0.1384886E-010  0.4778727E+02  0.7816164E-02  0.1312668E+00
        -11   -1    0    0    0    0  0.00000000000E+00  0.00000000000E+00  0.45593999997E+02  0.45594000000E+02  0.51100000000E-03 0. -1.
         11   -1    0    0    0    0 -0.00000000000E+00 -0.00000000000E+00 -0.45593999997E+02  0.45594000000E+02  0.51100000000E-03 0.  1.
    9900012    2    1    2    0    0 -0.39917973808E+02 -0.12766245391E+02 -0.11278362782E+02  0.47787272801E+02  0.20000008010E+02 0.  0.
         12    1    1    2    0    0  0.39917973808E+02  0.12766245391E+02  0.11278362782E+02  0.43400727199E+02  0.00000000000E+00 0. -1.
         11    1    3    3    0    0 -0.12857469017E+02  0.58971652862E+00 -0.11974128350E+02  0.17579591153E+02  0.51100000000E-03 0. -1.
        -11    1    3    3    0    0 -0.83805533832E+01 -0.46472677198E+01 -0.72887400792E-01  0.95831145825E+01  0.51100000000E-03 0.  1.
         12    1    3    3    0    0 -0.18679951408E+02 -0.87086941998E+01  0.76865296820E+00  0.20624567066E+02  0.00000000000E+00 0. -1.
</event>
<event>
 7    1  0.1384886E-010  0.4778727E+02  0.7816164E-02  0.1312668E+00
        -11   -1    0    0    0    0  0.00000000000E+00  0.00000000000E+00  0.45593999997E+02  0.45594000000E+02  0.51100000000E-03 0. -1.
         11   -1    0    0    0    0 -0.00000000000E+00 -0.00000000000E+00 -0.45593999997E+02  0.45594000000E+02  0.51100000000E-03 0.  1.
    9900012    2    1    2    0    0  0.20941910212E+02  0.29177322945E+02 -0.24366852218E+02  0.47787271151E+02  0.20000000486E+02 0.  0.
         12    1    1    2    0    0 -0.20941910212E+02 -0.29177322945E+02  0.24366852218E+02  0.43400728849E+02  0.00000000000E+00 0. -1.
         11    1    3    3    0    0  0.97892153085E+01  0.15191796786E+02 -0.81339646457E+01  0.19818698420E+02  0.51100000000E-03 0.  1.
        -11    1    3    3    0    0 -0.20328648220E+00 -0.15162254170E+01  0.12606503763E+01  0.19822977933E+01  0.51100000000E-03 0. -1.
         12    1    3    3    0    0  0.11355981386E+02  0.15501751577E+02 -0.17493537949E+02  0.25986274938E+02  0.00000000000E+00 0. -1.
</event>
<event>
 7    1  0.1384886E-010  0.4778728E+02  0.7816164E-02  0.1312668E+00
        -11   -1    0    0    0    0  0.00000000000E+00  0.00000000000E+00  0.45593999997E+02  0.45594000000E+02  0.51100000000E-03 0.  1.
         11   -1    0    0    0    0 -0.00000000000E+00 -0.00000000000E+00 -0.45593999997E+02  0.45594000000E+02  0.51100000000E-03 0. -1.
    9900012    2    1    2    0    0 -0.31585598238E+02 -0.12307433165E+02  0.27101658036E+02  0.47787276556E+02  0.20000025130E+02 0.  0.
         12    1    1    2    0    0  0.31585598238E+02  0.12307433165E+02 -0.27101658036E+02  0.43400723444E+02  0.00000000000E+00 0. -1.
         11    1    3    3    0    0 -0.17476355055E+01 -0.10457525608E+01 -0.19683723765E+00  0.20461117853E+01  0.51100000000E-03 0. -1.
        -11    1    3    3    0    0 -0.29489834839E+02 -0.13683734109E+02  0.28295332360E+02  0.43098964856E+02  0.51100000000E-03 0.  1.
         12    1    3    3    0    0 -0.34812789339E+00  0.24220535052E+01 -0.99683708696E+00  0.26421999148E+01  0.00000000000E+00 0. -1.
</event>
<event>
 7    1  0.1384886E-010  0.4778726E+02  0.7816164E-02  0.1312668E+00
        -11   -1    0    0    0    0  0.00000000000E+00  0.00000000000E+00  0.45593999997E+02  0.45594000000E+02  0.51100000000E-03 0. -1.
         11   -1    0    0    0    0 -0.00000000000E+00 -0.00000000000E+00 -0.45593999997E+02  0.45594000000E+02  0.51100000000E-03 0.  1.
    9900012    2    1    2    0    0 -0.40703174318E+02  0.14904205533E+02 -0.21771884800E+01  0.47787263925E+02  0.19999967541E+02 0.  0.
         12    1    1    2    0    0  0.40703174318E+02 -0.14904205533E+02  0.21771884800E+01  0.43400736075E+02  0.00000000000E+00 0. -1.
         11    1    3    3    0    0 -0.92043112090E+01  0.53665534825E+01  0.47539289263E+01  0.11667008254E+02  0.51100000000E-03 0. -1.
        -11    1    3    3    0    0  0.53596272331E+00  0.26218161666E+01 -0.54986786435E+00  0.27319463724E+01  0.51100000000E-03 0.  1.
        -12    1    3    3    0    0 -0.32034825832E+02  0.69158358843E+01 -0.63812495420E+01  0.33388309298E+02  0.00000000000E+00 0.  1.
</event>
<event>
 7    1  0.1384886E-010  0.4778726E+02  0.7816164E-02  0.1312668E+00
        -11   -1    0    0    0    0  0.00000000000E+00  0.00000000000E+00  0.45593999997E+02  0.45594000000E+02  0.51100000000E-03 0. -1.
         11   -1    0    0    0    0 -0.00000000000E+00 -0.00000000000E+00 -0.45593999997E+02  0.45594000000E+02  0.51100000000E-03 0.  1.
    9900012    2    1    2    0    0 -0.37445788327E+02 -0.15664543284E+02 -0.15364214934E+02  0.47787261754E+02  0.19999957642E+02 0.  0.
         12    1    1    2    0    0  0.37445788327E+02  0.15664543284E+02  0.15364214934E+02  0.43400738246E+02  0.00000000000E+00 0. -1.
         11    1    3    3    0    0 -0.24606787105E+02 -0.67957951625E+01 -0.10310887078E+02  0.27531639910E+02  0.51100000000E-03 0. -1.
        -11    1    3    3    0    0 -0.13564181191E+02 -0.49487419122E+01 -0.85185382650E+00  0.14463841575E+02  0.51100000000E-03 0.  1.
         12    1    3    3    0    0  0.72517996897E+00 -0.39200062096E+01 -0.42014740293E+01  0.57917802695E+01  0.00000000000E+00 0. -1.
</event>
<event>
 7    1  0.1384886E-010  0.4778727E+02  0.7816164E-02  0.1312668E+00
        -11   -1    0    0    0    0  0.00000000000E+00  0.00000000000E+00  0.45593999997E+02  0.45594000000E+02  0.51100000000E-03 0.  1.
         11   -1    0    0    0    0 -0.00000000000E+00 -0.00000000000E+00 -0.45593999997E+02  0.45594000000E+02  0.51100000000E-03 0. -1.
    9900012    2    1    2    0    0  0.37557199350E+02  0.17612298142E+02 -0.12762737795E+02  0.47787265618E+02  0.19999975260E+02 0.  0.
         12    1    1    2    0    0 -0.37557199350E+02 -0.17612298142E+02  0.12762737795E+02  0.43400734382E+02  0.00000000000E+00 0. -1.
         11    1    3    3    0    0  0.14070085213E+02  0.91775287315E+01 -0.10928675168E+01  0.16834152524E+02  0.51100000000E-03 0. -1.
        -11    1    3    3    0    0  0.90876850762E+01  0.19166668664E+01  0.26147581251E+01  0.96486575353E+01  0.51100000000E-03 0.  1.
         12    1    3    3    0    0  0.14399429060E+02  0.65181025444E+01 -0.14284628403E+02  0.21304455559E+02  0.00000000000E+00 0. -1.
</event>
<event>
 7    1  0.1384886E-010  0.4778727E+02  0.7816164E-02  0.1312668E+00
        -11   -1    0    0    0    0  0.00000000000E+00  0.00000000000E+00  0.45593999997E+02  0.45594000000E+02  0.51100000000E-03 0.  1.
         11   -1    0    0    0    0 -0.00000000000E+00 -0.00000000000E+00 -0.45593999997E+02  0.45594000000E+02  0.51100000000E-03 0. -1.
    9900012    2    1    2    0    0 -0.14317362635E+02 -0.40955486376E+02 -0.11334170057E+01  0.47787269923E+02  0.19999994886E+02 0.  0.
         12    1    1    2    0    0  0.14317362635E+02  0.40955486376E+02  0.11334170057E+01  0.43400730077E+02  0.00000000000E+00 0. -1.
         11    1    3    3    0    0 -0.41262908252E+01 -0.32211896472E+01  0.26820397286E+01  0.58818089126E+01  0.51100000000E-03 0. -1.
        -11    1    3    3    0    0 -0.90022057178E+00 -0.26712818984E+02 -0.58126722987E+01  0.27352737608E+02  0.51100000000E-03 0.  1.
        -12    1    3    3    0    0 -0.92908512382E+01 -0.11021477745E+02  0.19972155644E+01  0.14552723403E+02  0.00000000000E+00 0.  1.
</event>
<event>
 7    1  0.2185891E-010  0.4778727E+02  0.7816164E-02  0.1312668E+00
        -11   -1    0    0    0    0  0.00000000000E+00  0.00000000000E+00  0.45593999997E+02  0.45594000000E+02  0.51100000000E-03 0. -1.
         11   -1    0    0    0    0 -0.00000000000E+00 -0.00000000000E+00 -0.45593999997E+02  0.45594000000E+02  0.51100000000E-03 0.  1.
    9900012    2    1    2    0    0  0.18474768141E+02  0.34425019828E+02 -0.18900375583E+02  0.47787271374E+02  0.20000001504E+02 0.  0.
         12    1    1    2    0    0 -0.18474768141E+02 -0.34425019828E+02  0.18900375583E+02  0.43400728626E+02  0.00000000000E+00 0. -1.
         11    1    3    3    0    0 -0.59248317073E+00 -0.15131364070E+01  0.33049786356E+00  0.16582663215E+01  0.51100000000E-03 0. -1.
        -11    1    3    3    0    0  0.76408091316E+01  0.11780895886E+02 -0.11932286910E+02  0.18426908130E+02  0.51100000000E-03 0.  1.
        -12    1    3    3    0    0  0.11426442181E+02  0.24157260349E+02 -0.72985865362E+01  0.27702096922E+02  0.00000000000E+00 0.  1.
</event>
<event>
 7    1  0.1384886E-010  0.4778726E+02  0.7816164E-02  0.1312668E+00
        -11   -1    0    0    0    0  0.00000000000E+00  0.00000000000E+00  0.45593999997E+02  0.45594000000E+02  0.51100000000E-03 0.  1.
         11   -1    0    0    0    0 -0.00000000000E+00 -0.00000000000E+00 -0.45593999997E+02  0.45594000000E+02  0.51100000000E-03 0. -1.
    9900012    2    1    2    0    0 -0.18119251782E+02 -0.18970545266E+02  0.34575062671E+02  0.47787264620E+02  0.19999970709E+02 0.  0.
         12    1    1    2    0    0  0.18119251782E+02  0.18970545266E+02 -0.34575062671E+02  0.43400735380E+02  0.00000000000E+00 0. -1.
         11    1    3    3    0    0 -0.11210816650E+02 -0.18239915732E+02  0.33458951825E+02  0.39722517460E+02  0.51100000000E-03 0.  1.
        -11    1    3    3    0    0 -0.55891144087E+01 -0.20103645411E+01  0.16242908579E+01  0.61577663576E+01  0.51100000000E-03 0. -1.
        -12    1    3    3    0    0 -0.13193207228E+01  0.12797350070E+01 -0.50818001167E+00  0.19069808028E+01  0.00000000000E+00 0.  1.
</event>
<event>
 7    1  0.1384886E-010  0.4778727E+02  0.7816164E-02  0.1312668E+00
        -11   -1    0    0    0    0  0.00000000000E+00  0.00000000000E+00  0.45593999997E+02  0.45594000000E+02  0.51100000000E-03 0.  1.
         11   -1    0    0    0    0 -0.00000000000E+00 -0.00000000000E+00 -0.45593999997E+02  0.45594000000E+02  0.51100000000E-03 0. -1.
    9900012    2    1    2    0    0 -0.24266018057E+02  0.32013283302E+02  0.16429650839E+02  0.47787269973E+02  0.19999995117E+02 0.  0.
         12    1    1    2    0    0  0.24266018057E+02 -0.32013283302E+02 -0.16429650839E+02  0.43400730027E+02  0.00000000000E+00 0. -1.
         11    1    3    3    0    0 -0.35172749514E+01  0.59248580398E+01 -0.20811624283E+01  0.71976665101E+01  0.51100000000E-03 0. -1.
        -11    1    3    3    0    0 -0.22057696393E+01  0.11201852897E+02  0.18774694062E+01  0.11570299030E+02  0.51100000000E-03 0.  1.
         12    1    3    3    0    0 -0.18542973467E+02  0.14886572366E+02  0.16633343861E+02  0.29019304433E+02  0.00000000000E+00 0. -1.
</event>
<event>
 7    1  0.1384886E-010  0.4778727E+02  0.7816164E-02  0.1312668E+00
        -11   -1    0    0    0    0  0.00000000000E+00  0.00000000000E+00  0.45593999997E+02  0.45594000000E+02  0.51100000000E-03 0.  1.
         11   -1    0    0    0    0 -0.00000000000E+00 -0.00000000000E+00 -0.45593999997E+02  0.45594000000E+02  0.51100000000E-03 0. -1.
    9900012    2    1    2    0    0  0.12605467647E+02 -0.34644913501E+02 -0.22900992424E+02  0.47787270742E+02  0.19999998622E+02 0.  0.
         12    1    1    2    0    0 -0.12605467647E+02  0.34644913501E+02  0.22900992424E+02  0.43400729258E+02  0.00000000000E+00 0. -1.
         11    1    3    3    0    0 -0.25970806166E+01 -0.15811116091E+02 -0.12500543063E+02  0.20322396436E+02  0.51100000000E-03 0. -1.
        -11    1    3    3    0    0  0.76778144871E+01 -0.13387550041E+02 -0.95231632309E+01  0.18134662103E+02  0.51100000000E-03 0.  1.
         12    1    3    3    0    0  0.75247337765E+01 -0.54462473690E+01 -0.87728613100E+00  0.93302122038E+01  0.00000000000E+00 0. -1.
</event>
<event>
 7    1  0.1384886E-010  0.4778727E+02  0.7816164E-02  0.1312668E+00
        -11   -1    0    0    0    0  0.00000000000E+00  0.00000000000E+00  0.45593999997E+02  0.45594000000E+02  0.51100000000E-03 0.  1.
         11   -1    0    0    0    0 -0.00000000000E+00 -0.00000000000E+00 -0.45593999997E+02  0.45594000000E+02  0.51100000000E-03 0. -1.
    9900012    2    1    2    0    0 -0.19493913363E+02  0.28754304057E+02  0.26015391175E+02  0.47787271458E+02  0.20000001884E+02 0.  0.
         12    1    1    2    0    0  0.19493913363E+02 -0.28754304057E+02 -0.26015391175E+02  0.43400728542E+02  0.00000000000E+00 0. -1.
         11    1    3    3    0    0 -0.43514409653E+01 -0.25359576841E+01  0.47576675751E+01  0.69283129884E+01  0.51100000000E-03 0. -1.
        -11    1    3    3    0    0 -0.49249977850E+01  0.12310701579E+02  0.94443005694E+01  0.16278937006E+02  0.51100000000E-03 0.  1.
         12    1    3    3    0    0 -0.10217474613E+02  0.18979560162E+02  0.11813423031E+02  0.24580021463E+02  0.00000000000E+00 0. -1.
</event>
<event>
 7    1  0.1384886E-010  0.4778727E+02  0.7816164E-02  0.1312668E+00
        -11   -1    0    0    0    0  0.00000000000E+00  0.00000000000E+00  0.45593999997E+02  0.45594000000E+02  0.51100000000E-03 0. -1.
         11   -1    0    0    0    0 -0.00000000000E+00 -0.00000000000E+00 -0.45593999997E+02  0.45594000000E+02  0.51100000000E-03 0.  1.
    9900012    2    1    2    0    0  0.24988801712E+02  0.23474417912E+02 -0.26610802638E+02  0.47787270463E+02  0.19999997350E+02 0.  0.
         12    1    1    2    0    0 -0.24988801712E+02 -0.23474417912E+02  0.26610802638E+02  0.43400729537E+02  0.00000000000E+00 0. -1.
         11    1    3    3    0    0  0.10922955993E+02  0.34326314229E+01 -0.12226432548E+02  0.16750509820E+02  0.51100000000E-03 0. -1.
        -11    1    3    3    0    0  0.10006675682E+02  0.17984428987E+02 -0.16144387546E+02  0.26157494026E+02  0.51100000000E-03 0.  1.
        -12    1    3    3    0    0  0.40591700369E+01  0.20573575014E+01  0.17600174563E+01  0.48792666174E+01  0.00000000000E+00 0.  1.
</event>
<event>
 7    1  0.1384886E-010  0.4778728E+02  0.7816164E-02  0.1312668E+00
        -11   -1    0    0    0    0  0.00000000000E+00  0.00000000000E+00  0.45593999997E+02  0.45594000000E+02  0.51100000000E-03 0. -1.
         11   -1    0    0    0    0 -0.00000000000E+00 -0.00000000000E+00 -0.45593999997E+02  0.45594000000E+02  0.51100000000E-03 0.  1.
    9900012    2    1    2    0    0 -0.19447622902E+02 -0.34006551923E+02 -0.18680645178E+02  0.47787284402E+02  0.20000060900E+02 0.  0.
         12    1    1    2    0    0  0.19447622902E+02  0.34006551923E+02  0.18680645178E+02  0.43400715598E+02  0.00000000000E+00 0. -1.
         11    1    3    3    0    0  0.25548957070E+01 -0.66188218522E+01 -0.34199539308E+01  0.78760637336E+01  0.51100000000E-03 0. -1.
        -11    1    3    3    0    0 -0.81156358358E+01 -0.31466081188E+01 -0.56041847365E+01  0.10352370477E+02  0.51100000000E-03 0.  1.
         12    1    3    3    0    0 -0.13886882773E+02 -0.24241121952E+02 -0.96565065103E+01  0.29558850191E+02  0.00000000000E+00 0. -1.
</event>
<event>
 7    1  0.1384886E-010  0.4778727E+02  0.7816164E-02  0.1312668E+00
        -11   -1    0    0    0    0  0.00000000000E+00  0.00000000000E+00  0.45593999997E+02  0.45594000000E+02  0.51100000000E-03 0.  1.
         11   -1    0    0    0    0 -0.00000000000E+00 -0.00000000000E+00 -0.45593999997E+02  0.45594000000E+02  0.51100000000E-03 0. -1.
    9900012    2    1    2    0    0  0.12703157917E+02  0.51995701430E+01  0.41173019905E+02  0.47787270527E+02  0.19999997640E+02 0.  0.
         12    1    1    2    0    0 -0.12703157917E+02 -0.51995701430E+01 -0.41173019905E+02  0.43400729473E+02  0.00000000000E+00 0. -1.
         11    1    3    3    0    0 -0.62089809755E+00  0.50221646792E+01  0.11135025136E+01  0.51814612439E+01  0.51100000000E-03 0. -1.
        -11    1    3    3    0    0  0.39973399173E+01  0.44122265458E+00  0.21040296331E+02  0.21421192166E+02  0.51100000000E-03 0.  1.
        -12    1    3    3    0    0  0.93267160970E+01 -0.26381719083E+00  0.19019221060E+02  0.21184617117E+02  0.00000000000E+00 0.  1.
</event>
<event>
 7    1  0.1384886E-010  0.4778727E+02  0.7816164E-02  0.1312668E+00
        -11   -1    0    0    0    0  0.00000000000E+00  0.00000000000E+00  0.45593999997E+02  0.45594000000E+02  0.51100000000E-03 0.  1.
         11   -1    0    0    0    0 -0.00000000000E+00 -0.00000000000E+00 -0.45593999997E+02  0.45594000000E+02  0.51100000000E-03 0. -1.
    9900012    2    1    2    0    0  0.67081688255E+01  0.40588389497E+02  0.13827735822E+02  0.47787272253E+02  0.20000005511E+02 0.  0.
         12    1    1    2    0    0 -0.67081688255E+01 -0.40588389497E+02 -0.13827735822E+02  0.43400727747E+02  0.00000000000E+00 0. -1.
         11    1    3    3    0    0  0.66595955974E+01  0.23303516733E+01  0.10258791319E+01  0.71297391745E+01  0.51100000000E-03 0. -1.
        -11    1    3    3    0    0  0.14521055486E+01  0.14044063026E+02  0.68011953021E+01  0.15671648752E+02  0.51100000000E-03 0.  1.
        -12    1    3    3    0    0 -0.14035323205E+01  0.24213974799E+02  0.60006613880E+01  0.24985884327E+02  0.00000000000E+00 0.  1.
</event>
<event>
 7    1  0.1384886E-010  0.4778728E+02  0.7816164E-02  0.1312668E+00
        -11   -1    0    0    0    0  0.00000000000E+00  0.00000000000E+00  0.45593999997E+02  0.45594000000E+02  0.51100000000E-03 0.  1.
         11   -1    0    0    0    0 -0.00000000000E+00 -0.00000000000E+00 -0.45593999997E+02  0.45594000000E+02  0.51100000000E-03 0. -1.
    9900012    2    1    2    0    0 -0.18353314210E+02 -0.17438561783E+02  0.35251600202E+02  0.47787275394E+02  0.20000019829E+02 0.  0.
         12    1    1    2    0    0  0.18353314210E+02  0.17438561783E+02 -0.35251600202E+02  0.43400724606E+02  0.00000000000E+00 0. -1.
         11    1    3    3    0    0  0.62197450966E+00  0.15668408145E+01  0.23490605793E+01  0.28913540591E+01  0.51100000000E-03 0. -1.
        -11    1    3    3    0    0 -0.14613816951E+02 -0.14339548437E+02  0.13638517964E+02  0.24600720879E+02  0.51100000000E-03 0.  1.
         12    1    3    3    0    0 -0.43614717678E+01 -0.46658541606E+01  0.19264021659E+02  0.20295200455E+02  0.00000000000E+00 0. -1.
</event>
<event>
 7    1  0.1384886E-010  0.4778727E+02  0.7816164E-02  0.1312668E+00
        -11   -1    0    0    0    0  0.00000000000E+00  0.00000000000E+00  0.45593999997E+02  0.45594000000E+02  0.51100000000E-03 0.  1.
         11   -1    0    0    0    0 -0.00000000000E+00 -0.00000000000E+00 -0.45593999997E+02  0.45594000000E+02  0.51100000000E-03 0. -1.
    9900012    2    1    2    0    0 -0.29736571808E+02  0.10696830660E+02  0.29747901579E+02  0.47787268008E+02  0.19999986156E+02 0.  0.
         12    1    1    2    0    0  0.29736571808E+02 -0.10696830660E+02 -0.29747901579E+02  0.43400731992E+02  0.00000000000E+00 0. -1.
         11    1    3    3    0    0 -0.17626138783E+02  0.36875558545E+01  0.71294736239E+01  0.19367711041E+02  0.51100000000E-03 0. -1.
        -11    1    3    3    0    0  0.13417652604E+01 -0.88652605390E+00  0.21764605468E+01  0.27061491517E+01  0.51100000000E-03 0.  1.
         12    1    3    3    0    0 -0.13452198286E+02  0.78958008593E+01  0.20441967409E+02  0.25713407815E+02  0.00000000000E+00 0. -1.
</event>
<event>
 7    1  0.1384886E-010  0.4778727E+02  0.7816164E-02  0.1312668E+00
        -11   -1    0    0    0    0  0.00000000000E+00  0.00000000000E+00  0.45593999997E+02  0.45594000000E+02  0.51100000000E-03 0.  1.
         11   -1    0    0    0    0 -0.00000000000E+00 -0.00000000000E+00 -0.45593999997E+02  0.45594000000E+02  0.51100000000E-03 0. -1.
    9900012    2    1    2    0    0  0.12684750237E+02  0.19438157260E+02  0.36672590677E+02  0.47787265522E+02  0.19999974822E+02 0.  0.
         12    1    1    2    0    0 -0.12684750237E+02 -0.19438157260E+02 -0.36672590677E+02  0.43400734478E+02  0.00000000000E+00 0. -1.
         11    1    3    3    0    0  0.74881251854E+01  0.50840290693E+01  0.25908434935E+02  0.27443876757E+02  0.51100000000E-03 0. -1.
        -11    1    3    3    0    0  0.45642784612E+00  0.11851820165E+02  0.80572931932E+01  0.14338547397E+02  0.51100000000E-03 0.  1.
         12    1    3    3    0    0  0.47401972058E+01  0.25023080254E+01  0.27068625485E+01  0.60048413684E+01  0.00000000000E+00 0. -1.
</event>
<event>
 7    1  0.1384886E-010  0.4778725E+02  0.7816164E-02  0.1312668E+00
        -11   -1    0    0    0    0  0.00000000000E+00  0.00000000000E+00  0.45593999997E+02  0.45594000000E+02  0.51100000000E-03 0.  1.
         11   -1    0    0    0    0 -0.00000000000E+00 -0.00000000000E+00 -0.45593999997E+02  0.45594000000E+02  0.51100000000E-03 0. -1.
    9900012    2    1    2    0    0 -0.59961900752E+01  0.37378050462E+02  0.21226209230E+02  0.47787252195E+02  0.19999914058E+02 0.  0.
         12    1    1    2    0    0  0.59961900752E+01 -0.37378050462E+02 -0.21226209230E+02  0.43400747805E+02  0.00000000000E+00 0. -1.
         11    1    3    3    0    0 -0.26465675579E+01  0.15732121766E+02  0.22121156400E+01  0.16105819786E+02  0.51100000000E-03 0. -1.
        -11    1    3    3    0    0 -0.63951927496E+01  0.21341364350E+02  0.16604485835E+02  0.27785990584E+02  0.51100000000E-03 0.  1.
         12    1    3    3    0    0  0.30455702323E+01  0.30456434552E+00  0.24096077549E+01  0.38954418252E+01  0.00000000000E+00 0. -1.
</event>
<event>
 7    1  0.1384886E-010  0.4778727E+02  0.7816164E-02  0.1312668E+00
        -11   -1    0    0    0    0  0.00000000000E+00  0.00000000000E+00  0.45593999997E+02  0.45594000000E+02  0.51100000000E-03 0.  1.
         11   -1    0    0    0    0 -0.00000000000E+00 -0.00000000000E+00 -0.45593999997E+02  0.45594000000E+02  0.51100000000E-03 0. -1.
    9900012    2    1    2    0    0  0.11080162067E+02 -0.23772647700E+02  0.34579110512E+02  0.47787266666E+02  0.19999980039E+02 0.  0.
         12    1    1    2    0    0 -0.11080162067E+02  0.23772647700E+02 -0.34579110512E+02  0.43400733334E+02  0.00000000000E+00 0. -1.
         11    1    3    3    0    0  0.59848883810E+01 -0.18365298635E+01  0.16554360527E+01  0.64755076757E+01  0.51100000000E-03 0. -1.
        -11    1    3    3    0    0  0.73304098215E+01 -0.16621727407E+02  0.19229961603E+02  0.26453887307E+02  0.51100000000E-03 0.  1.
        -12    1    3    3    0    0 -0.22351361353E+01 -0.53143904292E+01  0.13693712856E+02  0.14857871683E+02  0.00000000000E+00 0.  1.
</event>
<event>
 7    1  0.1384886E-010  0.4778726E+02  0.7816164E-02  0.1312668E+00
        -11   -1    0    0    0    0  0.00000000000E+00  0.00000000000E+00  0.45593999997E+02  0.45594000000E+02  0.51100000000E-03 0. -1.
         11   -1    0    0    0    0 -0.00000000000E+00 -0.00000000000E+00 -0.45593999997E+02  0.45594000000E+02  0.51100000000E-03 0.  1.
    9900012    2    1    2    0    0 -0.41511199785E+01 -0.23863241718E+02 -0.36013024897E+02  0.47787261935E+02  0.19999958465E+02 0.  0.
         12    1    1    2    0    0  0.41511199785E+01  0.23863241718E+02  0.36013024897E+02  0.43400738065E+02  0.00000000000E+00 0. -1.
         11    1    3    3    0    0  0.30285235293E+01 -0.81498217217E+01 -0.12509626905E+02  0.15234248075E+02  0.51100000000E-03 0. -1.
        -11    1    3    3    0    0  0.33114564224E+01  0.17774042415E+00 -0.50146323650E+01  0.60119774878E+01  0.51100000000E-03 0.  1.
        -12    1    3    3    0    0 -0.10491099930E+02 -0.15891160421E+02 -0.18488765627E+02  0.26541036372E+02  0.00000000000E+00 0.  1.
</event>
<event>
 7    1  0.1384886E-010  0.4778727E+02  0.7816164E-02  0.1312668E+00
        -11   -1    0    0    0    0  0.00000000000E+00  0.00000000000E+00  0.45593999997E+02  0.45594000000E+02  0.51100000000E-03 0. -1.
         11   -1    0    0    0    0 -0.00000000000E+00 -0.00000000000E+00 -0.45593999997E+02  0.45594000000E+02  0.51100000000E-03 0.  1.
    9900012    2    1    2    0    0 -0.18415202490E+02  0.34866891338E+02 -0.18132939461E+02  0.47787270884E+02  0.19999999266E+02 0.  0.
         12    1    1    2    0    0  0.18415202490E+02 -0.34866891338E+02  0.18132939461E+02  0.43400729116E+02  0.00000000000E+00 0. -1.
         11    1    3    3    0    0  0.58410020466E+00  0.11533200738E+02 -0.36341504250E+01  0.12106318263E+02  0.51100000000E-03 0. -1.
        -11    1    3    3    0    0 -0.88524995965E+01  0.18378811473E+02 -0.51973791953E+01  0.21051370764E+02  0.51100000000E-03 0.  1.
        -12    1    3    3    0    0 -0.10146803099E+02  0.49548791270E+01 -0.93014098403E+01  0.14629581857E+02  0.00000000000E+00 0.  1.
</event>
<event>
 7    1  0.1384886E-010  0.4778727E+02  0.7816164E-02  0.1312668E+00
        -11   -1    0    0    0    0  0.00000000000E+00  0.00000000000E+00  0.45593999997E+02  0.45594000000E+02  0.51100000000E-03 0. -1.
         11   -1    0    0    0    0 -0.00000000000E+00 -0.00000000000E+00 -0.45593999997E+02  0.45594000000E+02  0.51100000000E-03 0.  1.
    9900012    2    1    2    0    0  0.15138475204E+02  0.35600291339E+02 -0.19674073395E+02  0.47787270295E+02  0.19999996584E+02 0.  0.
         12    1    1    2    0    0 -0.15138475204E+02 -0.35600291339E+02  0.19674073395E+02  0.43400729705E+02  0.00000000000E+00 0. -1.
         11    1    3    3    0    0 -0.15284986168E+01  0.92697024544E+01 -0.33610735858E+01  0.99780011789E+01  0.51100000000E-03 0. -1.
        -11    1    3    3    0    0  0.79452936335E+01  0.20070761119E+01 -0.28792809333E+01  0.86859832141E+01  0.51100000000E-03 0.  1.
        -12    1    3    3    0    0  0.87216801871E+01  0.24323512773E+02 -0.13433718876E+02  0.29123285902E+02  0.00000000000E+00 0.  1.
</event>
<event>
 7    1  0.1384886E-010  0.4778727E+02  0.7816164E-02  0.1312668E+00
        -11   -1    0    0    0    0  0.00000000000E+00  0.00000000000E+00  0.45593999997E+02  0.45594000000E+02  0.51100000000E-03 0. -1.
         11   -1    0    0    0    0 -0.00000000000E+00 -0.00000000000E+00 -0.45593999997E+02  0.45594000000E+02  0.51100000000E-03 0.  1.
    9900012    2    1    2    0    0 -0.34205455370E+02 -0.26391279078E+02 -0.41364822540E+01  0.47787271044E+02  0.19999999999E+02 0.  0.
         12    1    1    2    0    0  0.34205455370E+02  0.26391279078E+02  0.41364822540E+01  0.43400728956E+02  0.00000000000E+00 0. -1.
         11    1    3    3    0    0 -0.10096664730E+02 -0.12868174317E+02  0.23416841399E+00  0.16358098424E+02  0.51100000000E-03 0. -1.
        -11    1    3    3    0    0 -0.15921468714E+02 -0.15446935607E+02 -0.54603577131E+00  0.22190068522E+02  0.51100000000E-03 0.  1.
         12    1    3    3    0    0 -0.81873219260E+01  0.19238308464E+01 -0.38246148967E+01  0.92391040991E+01  0.00000000000E+00 0. -1.
</event>
<event>
 7    1  0.1384886E-010  0.4778727E+02  0.7816164E-02  0.1312668E+00
        -11   -1    0    0    0    0  0.00000000000E+00  0.00000000000E+00  0.45593999997E+02  0.45594000000E+02  0.51100000000E-03 0. -1.
         11   -1    0    0    0    0 -0.00000000000E+00 -0.00000000000E+00 -0.45593999997E+02  0.45594000000E+02  0.51100000000E-03 0.  1.
    9900012    2    1    2    0    0  0.40839139352E+02  0.13990722518E+02  0.44774566066E+01  0.47787271467E+02  0.20000001925E+02 0.  0.
         12    1    1    2    0    0 -0.40839139352E+02 -0.13990722518E+02 -0.44774566066E+01  0.43400728533E+02  0.00000000000E+00 0. -1.
         11    1    3    3    0    0  0.18435865124E+02  0.14746309933E+02 -0.18991342882E+01  0.23684203402E+02  0.51100000000E-03 0. -1.
        -11    1    3    3    0    0  0.44723979234E+01 -0.15499124260E+01  0.35873696089E+01  0.59391744111E+01  0.51100000000E-03 0.  1.
        -12    1    3    3    0    0  0.17930876305E+02  0.79432501157E+00  0.27892212858E+01  0.18163893654E+02  0.00000000000E+00 0.  1.
</event>
<event>
 7    1  0.1384886E-010  0.4778726E+02  0.7816164E-02  0.1312668E+00
        -11   -1    0    0    0    0  0.00000000000E+00  0.00000000000E+00  0.45593999997E+02  0.45594000000E+02  0.51100000000E-03 0. -1.
         11   -1    0    0    0    0 -0.00000000000E+00 -0.00000000000E+00 -0.45593999997E+02  0.45594000000E+02  0.51100000000E-03 0.  1.
    9900012    2    1    2    0    0  0.34532882207E+02  0.71630324679E+01 -0.25294176677E+02  0.47787258515E+02  0.19999942873E+02 0.  0.
         12    1    1    2    0    0 -0.34532882207E+02 -0.71630324679E+01  0.25294176677E+02  0.43400741485E+02  0.00000000000E+00 0. -1.
         11    1    3    3    0    0  0.14877351854E+02 -0.39841839701E+01 -0.13696260370E+02  0.20610600877E+02  0.51100000000E-03 0.  1.
        -11    1    3    3    0    0  0.16655851690E+01 -0.16009168107E+01 -0.10591490284E+00  0.23126449831E+01  0.51100000000E-03 0. -1.
        -12    1    3    3    0    0  0.17989945184E+02  0.12748133249E+02 -0.11492001404E+02  0.24864012655E+02  0.00000000000E+00 0.  1.
</event>
<event>
 7    1  0.1384886E-010  0.4778727E+02  0.7816164E-02  0.1312668E+00
        -11   -1    0    0    0    0  0.00000000000E+00  0.00000000000E+00  0.45593999997E+02  0.45594000000E+02  0.51100000000E-03 0. -1.
         11   -1    0    0    0    0 -0.00000000000E+00 -0.00000000000E+00 -0.45593999997E+02  0.45594000000E+02  0.51100000000E-03 0.  1.
    9900012    2    1    2    0    0 -0.20508863425E+02  0.31826241405E+02 -0.21215565177E+02  0.47787270435E+02  0.19999997224E+02 0.  0.
         12    1    1    2    0    0  0.20508863425E+02 -0.31826241405E+02  0.21215565177E+02  0.43400729565E+02  0.00000000000E+00 0. -1.
         11    1    3    3    0    0 -0.42649105038E+01 -0.70159305019E+00 -0.12094519897E+01  0.44882589932E+01  0.51100000000E-03 0. -1.
        -11    1    3    3    0    0 -0.17241574560E+01  0.17763093467E+01 -0.60550366915E+01  0.65415184342E+01  0.51100000000E-03 0.  1.
        -12    1    3    3    0    0 -0.14519795465E+02  0.30751525109E+02 -0.13951076496E+02  0.36757493008E+02  0.00000000000E+00 0.  1.
</event>
<event>
 7    1  0.1384886E-010  0.4778727E+02  0.7816164E-02  0.1312668E+00
        -11   -1    0    0    0    0  0.00000000000E+00  0.00000000000E+00  0.45593999997E+02  0.45594000000E+02  0.51100000000E-03 0. -1.
         11   -1    0    0    0    0 -0.00000000000E+00 -0.00000000000E+00 -0.45593999997E+02  0.45594000000E+02  0.51100000000E-03 0.  1.
    9900012    2    1    2    0    0  0.23183890545E+02  0.36479716369E+02 -0.39192749796E+01  0.47787271855E+02  0.20000003694E+02 0.  0.
         12    1    1    2    0    0 -0.23183890545E+02 -0.36479716369E+02  0.39192749796E+01  0.43400728145E+02  0.00000000000E+00 0. -1.
         11    1    3    3    0    0  0.13439355380E+02  0.23465862536E+02 -0.10352698496E+02  0.28955851637E+02  0.51100000000E-03 0. -1.
        -11    1    3    3    0    0  0.86687816148E+01  0.62193353595E+01  0.27038474123E+01  0.11006302653E+02  0.51100000000E-03 0.  1.
        -12    1    3    3    0    0  0.10757535505E+01  0.67945184734E+01  0.37295761045E+01  0.78251175650E+01  0.00000000000E+00 0.  1.
</event>
<event>
 7    1  0.1384886E-010  0.4778727E+02  0.7816164E-02  0.1312668E+00
        -11   -1    0    0    0    0  0.00000000000E+00  0.00000000000E+00  0.45593999997E+02  0.45594000000E+02  0.51100000000E-03 0. -1.
         11   -1    0    0    0    0 -0.00000000000E+00 -0.00000000000E+00 -0.45593999997E+02  0.45594000000E+02  0.51100000000E-03 0.  1.
    9900012    2    1    2    0    0 -0.73567305260E+01  0.40525847587E+02 -0.13680550818E+02  0.47787271004E+02  0.19999999818E+02 0.  0.
         12    1    1    2    0    0  0.73567305260E+01 -0.40525847587E+02  0.13680550818E+02  0.43400728996E+02  0.00000000000E+00 0. -1.
         11    1    3    3    0    0  0.71502231782E+00  0.14745798796E+02  0.16200213988E+01  0.14851744296E+02  0.51100000000E-03 0. -1.
        -11    1    3    3    0    0 -0.35892196976E+00  0.32995410328E+01 -0.70242621377E+01  0.77689159378E+01  0.51100000000E-03 0.  1.
        -12    1    3    3    0    0 -0.77128308740E+01  0.22480507758E+02 -0.82763100787E+01  0.25166610771E+02  0.00000000000E+00 0.  1.
</event>
<event>
 7    1  0.1384886E-010  0.4778727E+02  0.7816164E-02  0.1312668E+00
        -11   -1    0    0    0    0  0.00000000000E+00  0.00000000000E+00  0.45593999997E+02  0.45594000000E+02  0.51100000000E-03 0. -1.
         11   -1    0    0    0    0 -0.00000000000E+00 -0.00000000000E+00 -0.45593999997E+02  0.45594000000E+02  0.51100000000E-03 0.  1.
    9900012    2    1    2    0    0 -0.13358047268E+02  0.35900194458E+02 -0.20404951676E+02  0.47787269109E+02  0.19999991176E+02 0.  0.
         12    1    1    2    0    0  0.13358047268E+02 -0.35900194458E+02  0.20404951676E+02  0.43400730891E+02  0.00000000000E+00 0. -1.
         11    1    3    3    0    0 -0.17593316295E+01  0.66713988951E+01 -0.13277263572E+02  0.14962905441E+02  0.51100000000E-03 0. -1.
        -11    1    3    3    0    0 -0.21131930111E+01  0.13293936937E+02 -0.37658756550E+01  0.13977702375E+02  0.51100000000E-03 0.  1.
         12    1    3    3    0    0 -0.94855226279E+01  0.15934858626E+02 -0.33618124492E+01  0.18846661293E+02  0.00000000000E+00 0. -1.
</event>
<event>
 7    1  0.1384886E-010  0.4778727E+02  0.7816164E-02  0.1312668E+00
        -11   -1    0    0    0    0  0.00000000000E+00  0.00000000000E+00  0.45593999997E+02  0.45594000000E+02  0.51100000000E-03 0.  1.
         11   -1    0    0    0    0 -0.00000000000E+00 -0.00000000000E+00 -0.45593999997E+02  0.45594000000E+02  0.51100000000E-03 0. -1.
    9900012    2    1    2    0    0  0.58655663189E+01  0.32507174292E+02  0.28151410601E+02  0.47787272270E+02  0.20000005587E+02 0.  0.
         12    1    1    2    0    0 -0.58655663189E+01 -0.32507174292E+02 -0.28151410601E+02  0.43400727730E+02  0.00000000000E+00 0. -1.
         11    1    3    3    0    0  0.11938296165E+01 -0.13747948556E+01  0.16631795029E+01  0.24660609012E+01  0.51100000000E-03 0. -1.
        -11    1    3    3    0    0  0.26944477013E+01  0.57698301597E+01 -0.38631755848E+00  0.63796731894E+01  0.51100000000E-03 0.  1.
         12    1    3    3    0    0  0.19772890012E+01  0.28112138987E+02  0.26874548657E+02  0.38941538179E+02  0.00000000000E+00 0. -1.
</event>
<event>
 7    1  0.1384886E-010  0.4778727E+02  0.7816164E-02  0.1312668E+00
        -11   -1    0    0    0    0  0.00000000000E+00  0.00000000000E+00  0.45593999997E+02  0.45594000000E+02  0.51100000000E-03 0.  1.
         11   -1    0    0    0    0 -0.00000000000E+00 -0.00000000000E+00 -0.45593999997E+02  0.45594000000E+02  0.51100000000E-03 0. -1.
    9900012    2    1    2    0    0 -0.28222793567E+02 -0.16939351374E+02  0.28287025082E+02  0.47787268558E+02  0.19999988663E+02 0.  0.
         12    1    1    2    0    0  0.28222793567E+02  0.16939351374E+02 -0.28287025082E+02  0.43400731442E+02  0.00000000000E+00 0. -1.
         11    1    3    3    0    0 -0.32288265190E+01 -0.46921911478E+01 -0.71049108164E+00  0.57399282483E+01  0.51100000000E-03 0. -1.
        -11    1    3    3    0    0 -0.72544159696E+01 -0.91475856508E+01  0.16140647870E+02  0.19920476606E+02  0.51100000000E-03 0.  1.
        -12    1    3    3    0    0 -0.17739551079E+02 -0.30995745753E+01  0.12856868294E+02  0.22126863703E+02  0.00000000000E+00 0.  1.
</event>
<event>
 7    1  0.1384886E-010  0.4778727E+02  0.7816164E-02  0.1312668E+00
        -11   -1    0    0    0    0  0.00000000000E+00  0.00000000000E+00  0.45593999997E+02  0.45594000000E+02  0.51100000000E-03 0.  1.
         11   -1    0    0    0    0 -0.00000000000E+00 -0.00000000000E+00 -0.45593999997E+02  0.45594000000E+02  0.51100000000E-03 0. -1.
    9900012    2    1    2    0    0 -0.14181171758E+02 -0.19165182404E+02  0.36265870167E+02  0.47787272033E+02  0.20000004509E+02 0.  0.
         12    1    1    2    0    0  0.14181171758E+02  0.19165182404E+02 -0.36265870167E+02  0.43400727967E+02  0.00000000000E+00 0. -1.
         11    1    3    3    0    0 -0.13221322157E+02 -0.15558495786E+02  0.20784043318E+02  0.29134972243E+02  0.51100000000E-03 0. -1.
        -11    1    3    3    0    0 -0.14571348457E+01 -0.30298689385E+01  0.21759352269E+00  0.33690792429E+01  0.51100000000E-03 0.  1.
        -12    1    3    3    0    0  0.49728524425E+00 -0.57681767985E+00  0.15264233327E+02  0.15283220548E+02  0.00000000000E+00 0.  1.
</event>
<event>
 7    1  0.1384886E-010  0.4778727E+02  0.7816164E-02  0.1312668E+00
        -11   -1    0    0    0    0  0.00000000000E+00  0.00000000000E+00  0.45593999997E+02  0.45594000000E+02  0.51100000000E-03 0. -1.
         11   -1    0    0    0    0 -0.00000000000E+00 -0.00000000000E+00 -0.45593999997E+02  0.45594000000E+02  0.51100000000E-03 0.  1.
    9900012    2    1    2    0    0  0.36081350541E+01  0.36652514875E+02 -0.22960785115E+02  0.47787272606E+02  0.20000007119E+02 0.  0.
         12    1    1    2    0    0 -0.36081350541E+01 -0.36652514875E+02  0.22960785115E+02  0.43400727394E+02  0.00000000000E+00 0. -1.
         11    1    3    3    0    0 -0.60026185812E+01  0.13606260963E+02 -0.12803219757E+02  0.19623562460E+02  0.51100000000E-03 0. -1.
        -11    1    3    3    0    0  0.39481856054E+01  0.20761664418E+01 -0.26120292481E+01  0.51692681999E+01  0.51100000000E-03 0.  1.
        -12    1    3    3    0    0  0.56625680299E+01  0.20970087470E+02 -0.75455361094E+01  0.22994441946E+02  0.00000000000E+00 0.  1.
</event>
<event>
 7    1  0.1384886E-010  0.4778727E+02  0.7816164E-02  0.1312668E+00
        -11   -1    0    0    0    0  0.00000000000E+00  0.00000000000E+00  0.45593999997E+02  0.45594000000E+02  0.51100000000E-03 0.  1.
         11   -1    0    0    0    0 -0.00000000000E+00 -0.00000000000E+00 -0.45593999997E+02  0.45594000000E+02  0.51100000000E-03 0. -1.
    9900012    2    1    2    0    0  0.40095806311E+02  0.99616740216E+01  0.13293406320E+02  0.47787270920E+02  0.19999999435E+02 0.  0.
         12    1    1    2    0    0 -0.40095806311E+02 -0.99616740216E+01 -0.13293406320E+02  0.43400729080E+02  0.00000000000E+00 0. -1.
         11    1    3    3    0    0  0.75001786592E+01  0.78608759169E+01  0.93593387906E+00  0.10905137440E+02  0.51100000000E-03 0. -1.
        -11    1    3    3    0    0  0.21560757251E+02  0.48555776686E+01  0.12725646648E+02  0.25502646345E+02  0.51100000000E-03 0.  1.
         12    1    3    3    0    0  0.11034870401E+02 -0.27547795639E+01 -0.36817420771E+00  0.11379487135E+02  0.00000000000E+00 0. -1.
</event>
<event>
 7    1  0.1384886E-010  0.4778727E+02  0.7816164E-02  0.1312668E+00
        -11   -1    0    0    0    0  0.00000000000E+00  0.00000000000E+00  0.45593999997E+02  0.45594000000E+02  0.51100000000E-03 0.  1.
         11   -1    0    0    0    0 -0.00000000000E+00 -0.00000000000E+00 -0.45593999997E+02  0.45594000000E+02  0.51100000000E-03 0. -1.
    9900012    2    1    2    0    0 -0.34344488382E+01  0.46568110114E+01  0.43013275483E+02  0.47787271949E+02  0.20000004123E+02 0.  0.
         12    1    1    2    0    0  0.34344488382E+01 -0.46568110114E+01 -0.43013275483E+02  0.43400728051E+02  0.00000000000E+00 0. -1.
         11    1    3    3    0    0  0.20546651759E+01 -0.36861334238E+00  0.11938881782E+01  0.24047648584E+01  0.51100000000E-03 0. -1.
        -11    1    3    3    0    0 -0.68044488677E+01  0.62367628105E+01  0.42483779331E+02  0.43474926581E+02  0.51100000000E-03 0.  1.
        -12    1    3    3    0    0  0.13153348535E+01 -0.12113384568E+01 -0.66439202629E+00  0.19075805090E+01  0.00000000000E+00 0.  1.
</event>
<event>
 7    1  0.1384886E-010  0.4778724E+02  0.7816164E-02  0.1312668E+00
        -11   -1    0    0    0    0  0.00000000000E+00  0.00000000000E+00  0.45593999997E+02  0.45594000000E+02  0.51100000000E-03 0. -1.
         11   -1    0    0    0    0 -0.00000000000E+00 -0.00000000000E+00 -0.45593999997E+02  0.45594000000E+02  0.51100000000E-03 0.  1.
    9900012    2    1    2    0    0 -0.35732543813E+02 -0.18540393419E+01 -0.24563660489E+02  0.47787244640E+02  0.19999879610E+02 0.  0.
         12    1    1    2    0    0  0.35732543813E+02  0.18540393419E+01  0.24563660489E+02  0.43400755360E+02  0.00000000000E+00 0. -1.
         11    1    3    3    0    0 -0.28395293088E+02 -0.31907164232E+01 -0.19546447736E+02  0.34619892550E+02  0.51100000000E-03 0. -1.
        -11    1    3    3    0    0 -0.87050826814E+01  0.34340002733E+01 -0.51089757496E+01  0.10661728558E+02  0.51100000000E-03 0.  1.
         12    1    3    3    0    0  0.13678319569E+01 -0.20973231919E+01  0.91762996028E-01  0.25056235314E+01  0.00000000000E+00 0. -1.
</event>
<event>
 7    1  0.1384886E-010  0.4778728E+02  0.7816164E-02  0.1312668E+00
        -11   -1    0    0    0    0  0.00000000000E+00  0.00000000000E+00  0.45593999997E+02  0.45594000000E+02  0.51100000000E-03 0.  1.
         11   -1    0    0    0    0 -0.00000000000E+00 -0.00000000000E+00 -0.45593999997E+02  0.45594000000E+02  0.51100000000E-03 0. -1.
    9900012    2    1    2    0    0 -0.75883835084E+01 -0.97433694966E+01  0.41606561260E+02  0.47787277042E+02  0.20000027345E+02 0.  0.
         12    1    1    2    0    0  0.75883835084E+01  0.97433694966E+01 -0.41606561260E+02  0.43400722958E+02  0.00000000000E+00 0. -1.
         11    1    3    3    0    0 -0.65418153476E+00 -0.56138274501E+01  0.13071526834E+02  0.14241061272E+02  0.51100000000E-03 0.  1.
        -11    1    3    3    0    0 -0.35862402273E+01 -0.92487004434E+01  0.23883964958E+02  0.25862006134E+02  0.51100000000E-03 0. -1.
         12    1    3    3    0    0 -0.33479617463E+01  0.51191583969E+01  0.46510694675E+01  0.76842096366E+01  0.00000000000E+00 0. -1.
</event>
<event>
 7    1  0.1384886E-010  0.4778727E+02  0.7816164E-02  0.1312668E+00
        -11   -1    0    0    0    0  0.00000000000E+00  0.00000000000E+00  0.45593999997E+02  0.45594000000E+02  0.51100000000E-03 0.  1.
         11   -1    0    0    0    0 -0.00000000000E+00 -0.00000000000E+00 -0.45593999997E+02  0.45594000000E+02  0.51100000000E-03 0. -1.
    9900012    2    1    2    0    0 -0.34328379039E+02 -0.17131874525E+02 -0.20290015397E+02  0.47787268935E+02  0.19999990380E+02 0.  0.
         12    1    1    2    0    0  0.34328379039E+02  0.17131874525E+02  0.20290015397E+02  0.43400731065E+02  0.00000000000E+00 0. -1.
         11    1    3    3    0    0 -0.27101046691E+00  0.13735766669E+01 -0.14052454808E+01  0.19836518484E+01  0.51100000000E-03 0. -1.
        -11    1    3    3    0    0 -0.32943471040E+02 -0.16049839454E+02 -0.21124840371E+02  0.42298091111E+02  0.51100000000E-03 0.  1.
        -12    1    3    3    0    0 -0.11138975321E+01 -0.24556117384E+01  0.22400704547E+01  0.35055259754E+01  0.00000000000E+00 0.  1.
</event>
<event>
 7    1  0.1384886E-010  0.4778728E+02  0.7816164E-02  0.1312668E+00
        -11   -1    0    0    0    0  0.00000000000E+00  0.00000000000E+00  0.45593999997E+02  0.45594000000E+02  0.51100000000E-03 0. -1.
         11   -1    0    0    0    0 -0.00000000000E+00 -0.00000000000E+00 -0.45593999997E+02  0.45594000000E+02  0.51100000000E-03 0.  1.
    9900012    2    1    2    0    0  0.11556041608E+02 -0.29674213183E+02  0.29487644523E+02  0.47787283357E+02  0.20000056137E+02 0.  0.
         12    1    1    2    0    0 -0.11556041608E+02  0.29674213183E+02 -0.29487644523E+02  0.43400716643E+02  0.00000000000E+00 0. -1.
         11    1    3    3    0    0 -0.68519652280E+00  0.77557541064E+00 -0.20522365166E+00  0.10550490514E+01  0.51100000000E-03 0. -1.
        -11    1    3    3    0    0  0.99024511041E+01 -0.24682670439E+02  0.30488926155E+02  0.40458217660E+02  0.51100000000E-03 0.  1.
         12    1    3    3    0    0  0.23387870268E+01 -0.57671181545E+01 -0.79605798069E+00  0.62740166459E+01  0.00000000000E+00 0. -1.
</event>
<event>
 7    1  0.1384886E-010  0.4778727E+02  0.7816164E-02  0.1312668E+00
        -11   -1    0    0    0    0  0.00000000000E+00  0.00000000000E+00  0.45593999997E+02  0.45594000000E+02  0.51100000000E-03 0. -1.
         11   -1    0    0    0    0 -0.00000000000E+00 -0.00000000000E+00 -0.45593999997E+02  0.45594000000E+02  0.51100000000E-03 0.  1.
    9900012    2    1    2    0    0  0.22082648485E+02  0.24662143897E+02 -0.28067032256E+02  0.47787274138E+02  0.20000014104E+02 0.  0.
         12    1    1    2    0    0 -0.22082648485E+02 -0.24662143897E+02  0.28067032256E+02  0.43400725862E+02  0.00000000000E+00 0. -1.
         11    1    3    3    0    0  0.82313756380E+01  0.12693702656E+02 -0.68609519826E+01  0.16611992487E+02  0.51100000000E-03 0. -1.
        -11    1    3    3    0    0  0.12679751091E+02  0.21230021738E+01 -0.13259806576E+02  0.18469046988E+02  0.51100000000E-03 0.  1.
        -12    1    3    3    0    0  0.11715217569E+01  0.98454390668E+01 -0.79462736969E+01  0.12706234663E+02  0.00000000000E+00 0.  1.
</event>
<event>
 7    1  0.1384886E-010  0.4778727E+02  0.7816164E-02  0.1312668E+00
        -11   -1    0    0    0    0  0.00000000000E+00  0.00000000000E+00  0.45593999997E+02  0.45594000000E+02  0.51100000000E-03 0.  1.
         11   -1    0    0    0    0 -0.00000000000E+00 -0.00000000000E+00 -0.45593999997E+02  0.45594000000E+02  0.51100000000E-03 0. -1.
    9900012    2    1    2    0    0  0.32002296165E+02  0.14769729670E+02  0.25324522318E+02  0.47787270686E+02  0.19999998365E+02 0.  0.
         12    1    1    2    0    0 -0.32002296165E+02 -0.14769729670E+02 -0.25324522318E+02  0.43400729314E+02  0.00000000000E+00 0. -1.
         11    1    3    3    0    0  0.19650326123E+00  0.26300904965E+01 -0.14562123315E+01  0.30127303509E+01  0.51100000000E-03 0. -1.
        -11    1    3    3    0    0  0.23532620403E+02  0.11573096226E+02  0.14528897965E+02  0.29980154363E+02  0.51100000000E-03 0.  1.
         12    1    3    3    0    0  0.82731725014E+01  0.56654294754E+00  0.12251836684E+02  0.14794385972E+02  0.00000000000E+00 0. -1.
</event>
<event>
 7    1  0.1384886E-010  0.4778728E+02  0.7816164E-02  0.1312668E+00
        -11   -1    0    0    0    0  0.00000000000E+00  0.00000000000E+00  0.45593999997E+02  0.45594000000E+02  0.51100000000E-03 0. -1.
         11   -1    0    0    0    0 -0.00000000000E+00 -0.00000000000E+00 -0.45593999997E+02  0.45594000000E+02  0.51100000000E-03 0.  1.
    9900012    2    1    2    0    0  0.30430501208E+02  0.30896636647E+02 -0.17335417016E+01  0.47787277348E+02  0.20000028739E+02 0.  0.
         12    1    1    2    0    0 -0.30430501208E+02 -0.30896636647E+02  0.17335417016E+01  0.43400722652E+02  0.00000000000E+00 0. -1.
         11    1    3    3    0    0  0.22144506138E+01  0.10820950784E+01  0.47876269434E+01  0.53848020660E+01  0.51100000000E-03 0. -1.
        -11    1    3    3    0    0  0.14154657895E+02  0.89909303693E+01 -0.28450057199E+01  0.17008386956E+02  0.51100000000E-03 0.  1.
        -12    1    3    3    0    0  0.14061392700E+02  0.20823611200E+02 -0.36761629252E+01  0.25394088326E+02  0.00000000000E+00 0.  1.
</event>
<event>
 7    1  0.1384886E-010  0.4778729E+02  0.7816164E-02  0.1312668E+00
        -11   -1    0    0    0    0  0.00000000000E+00  0.00000000000E+00  0.45593999997E+02  0.45594000000E+02  0.51100000000E-03 0.  1.
         11   -1    0    0    0    0 -0.00000000000E+00 -0.00000000000E+00 -0.45593999997E+02  0.45594000000E+02  0.51100000000E-03 0. -1.
    9900012    2    1    2    0    0 -0.30246279510E+02 -0.20905184264E+02  0.23059861920E+02  0.47787292805E+02  0.20000099213E+02 0.  0.
         12    1    1    2    0    0  0.30246279510E+02  0.20905184264E+02 -0.23059861920E+02  0.43400707195E+02  0.00000000000E+00 0. -1.
         11    1    3    3    0    0 -0.92419013013E+01 -0.10441927883E+02  0.14259225951E+01  0.14017127134E+02  0.51100000000E-03 0. -1.
        -11    1    3    3    0    0 -0.77865202998E+01 -0.94539606861E+01  0.13450811795E+02  0.18191525753E+02  0.51100000000E-03 0.  1.
        -12    1    3    3    0    0 -0.13217857909E+02 -0.10092956943E+01  0.81831275301E+01  0.15578639917E+02  0.00000000000E+00 0.  1.
</event>
<event>
 7    1  0.1384886E-010  0.4778727E+02  0.7816164E-02  0.1312668E+00
        -11   -1    0    0    0    0  0.00000000000E+00  0.00000000000E+00  0.45593999997E+02  0.45594000000E+02  0.51100000000E-03 0.  1.
         11   -1    0    0    0    0 -0.00000000000E+00 -0.00000000000E+00 -0.45593999997E+02  0.45594000000E+02  0.51100000000E-03 0. -1.
    9900012    2    1    2    0    0 -0.18573938148E+02 -0.33147635865E+02  0.20972999735E+02  0.47787266601E+02  0.19999979739E+02 0.  0.
         12    1    1    2    0    0  0.18573938148E+02  0.33147635865E+02 -0.20972999735E+02  0.43400733399E+02  0.00000000000E+00 0. -1.
         11    1    3    3    0    0 -0.10888463429E+02 -0.21797286077E+02  0.17452941660E+02  0.29971411195E+02  0.51100000000E-03 0.  1.
        -11    1    3    3    0    0  0.27493825713E+01 -0.31046724245E+01  0.11835660937E+01  0.43126470231E+01  0.51100000000E-03 0. -1.
         12    1    3    3    0    0 -0.10434857290E+02 -0.82456773625E+01  0.23364919811E+01  0.13503208382E+02  0.00000000000E+00 0. -1.
</event>
<event>
 7    1  0.1384886E-010  0.4778728E+02  0.7816164E-02  0.1312668E+00
        -11   -1    0    0    0    0  0.00000000000E+00  0.00000000000E+00  0.45593999997E+02  0.45594000000E+02  0.51100000000E-03 0. -1.
         11   -1    0    0    0    0 -0.00000000000E+00 -0.00000000000E+00 -0.45593999997E+02  0.45594000000E+02  0.51100000000E-03 0.  1.
    9900012    2    1    2    0    0  0.14615099671E+02  0.37334503673E+02 -0.16617959394E+02  0.47787275613E+02  0.20000020829E+02 0.  0.
         12    1    1    2    0    0 -0.14615099671E+02 -0.37334503673E+02  0.16617959394E+02  0.43400724387E+02  0.00000000000E+00 0. -1.
         11    1    3    3    0    0 -0.12632995277E+01  0.50789917823E+01  0.14400158944E+01  0.54282344513E+01  0.51100000000E-03 0. -1.
        -11    1    3    3    0    0  0.33385289688E+01  0.58251260626E+01 -0.99475133493E+01  0.12001287073E+02  0.51100000000E-03 0.  1.
        -12    1    3    3    0    0  0.12539870230E+02  0.26430385828E+02 -0.81104619395E+01  0.30357754088E+02  0.00000000000E+00 0.  1.
</event>
<event>
 7    1  0.1384886E-010  0.4778727E+02  0.7816164E-02  0.1312668E+00
        -11   -1    0    0    0    0  0.00000000000E+00  0.00000000000E+00  0.45593999997E+02  0.45594000000E+02  0.51100000000E-03 0. -1.
         11   -1    0    0    0    0 -0.00000000000E+00 -0.00000000000E+00 -0.45593999997E+02  0.45594000000E+02  0.51100000000E-03 0.  1.
    9900012    2    1    2    0    0  0.35551095870E+02 -0.10767986788E+02 -0.22445341863E+02  0.47787270417E+02  0.19999997140E+02 0.  0.
         12    1    1    2    0    0 -0.35551095870E+02  0.10767986788E+02  0.22445341863E+02  0.43400729583E+02  0.00000000000E+00 0. -1.
         11    1    3    3    0    0  0.81506193612E+01 -0.22560174057E+01  0.18960771222E-01  0.84571017658E+01  0.51100000000E-03 0. -1.
        -11    1    3    3    0    0  0.27672332407E+02 -0.76734539825E+01 -0.24088664314E+02  0.37482044042E+02  0.51100000000E-03 0.  1.
        -12    1    3    3    0    0 -0.27185589854E+00 -0.83851539936E+00  0.16243616799E+01  0.18481246093E+01  0.00000000000E+00 0.  1.
</event>
<event>
 7    1  0.1384886E-010  0.4778727E+02  0.7816164E-02  0.1312668E+00
        -11   -1    0    0    0    0  0.00000000000E+00  0.00000000000E+00  0.45593999997E+02  0.45594000000E+02  0.51100000000E-03 0.  1.
         11   -1    0    0    0    0 -0.00000000000E+00 -0.00000000000E+00 -0.45593999997E+02  0.45594000000E+02  0.51100000000E-03 0. -1.
    9900012    2    1    2    0    0  0.25698767802E+02  0.45405550041E+01  0.34678231321E+02  0.47787273810E+02  0.20000012608E+02 0.  0.
         12    1    1    2    0    0 -0.25698767802E+02 -0.45405550041E+01 -0.34678231321E+02  0.43400726190E+02  0.00000000000E+00 0. -1.
         11    1    3    3    0    0  0.59483177345E+01 -0.48682007623E+01  0.37614494590E+01  0.85574742084E+01  0.51100000000E-03 0. -1.
        -11    1    3    3    0    0  0.15755066138E+02  0.24511516274E+01  0.22751536462E+02  0.27782416471E+02  0.51100000000E-03 0.  1.
        -12    1    3    3    0    0  0.39953839298E+01  0.69576041390E+01  0.81652453998E+01  0.11447383131E+02  0.00000000000E+00 0.  1.
</event>
<event>
 7    1  0.1384886E-010  0.4778726E+02  0.7816164E-02  0.1312668E+00
        -11   -1    0    0    0    0  0.00000000000E+00  0.00000000000E+00  0.45593999997E+02  0.45594000000E+02  0.51100000000E-03 0. -1.
         11   -1    0    0    0    0 -0.00000000000E+00 -0.00000000000E+00 -0.45593999997E+02  0.45594000000E+02  0.51100000000E-03 0.  1.
    9900012    2    1    2    0    0  0.39953413031E+02  0.15871344767E+02  0.59539150247E+01  0.47787263812E+02  0.19999967023E+02 0.  0.
         12    1    1    2    0    0 -0.39953413031E+02 -0.15871344767E+02 -0.59539150247E+01  0.43400736188E+02  0.00000000000E+00 0. -1.
         11    1    3    3    0    0 -0.60373421700E-01 -0.10025763111E+01  0.94075706403E+00  0.13761643522E+01  0.51100000000E-03 0. -1.
        -11    1    3    3    0    0  0.11714551228E+01  0.33153115598E+01 -0.28493653871E+01  0.45257575292E+01  0.51100000000E-03 0.  1.
        -12    1    3    3    0    0  0.38842331330E+02  0.13558609518E+02  0.78625233477E+01  0.41885341930E+02  0.00000000000E+00 0.  1.
</event>
<event>
 7    1  0.1384886E-010  0.4778727E+02  0.7816164E-02  0.1312668E+00
        -11   -1    0    0    0    0  0.00000000000E+00  0.00000000000E+00  0.45593999997E+02  0.45594000000E+02  0.51100000000E-03 0.  1.
         11   -1    0    0    0    0 -0.00000000000E+00 -0.00000000000E+00 -0.45593999997E+02  0.45594000000E+02  0.51100000000E-03 0. -1.
    9900012    2    1    2    0    0 -0.17120743208E+02 -0.10367115965E+02  0.38510080726E+02  0.47787271217E+02  0.20000000785E+02 0.  0.
         12    1    1    2    0    0  0.17120743208E+02  0.10367115965E+02 -0.38510080726E+02  0.43400728783E+02  0.00000000000E+00 0. -1.
         11    1    3    3    0    0 -0.11406870015E+02 -0.18007465612E+01  0.10472373179E+02  0.15589418590E+02  0.51100000000E-03 0.  1.
        -11    1    3    3    0    0 -0.26148927188E+01  0.64689735244E+00  0.18089818441E+02  0.18289277504E+02  0.51100000000E-03 0. -1.
         12    1    3    3    0    0 -0.30989804748E+01 -0.92132667558E+01  0.99478891057E+01  0.13908575123E+02  0.00000000000E+00 0. -1.
</event>
<event>
 7    1  0.1384886E-010  0.4778728E+02  0.7816164E-02  0.1312668E+00
        -11   -1    0    0    0    0  0.00000000000E+00  0.00000000000E+00  0.45593999997E+02  0.45594000000E+02  0.51100000000E-03 0.  1.
         11   -1    0    0    0    0 -0.00000000000E+00 -0.00000000000E+00 -0.45593999997E+02  0.45594000000E+02  0.51100000000E-03 0. -1.
    9900012    2    1    2    0    0 -0.30938932478E+02 -0.25978827838E+02  0.15858935076E+02  0.47787275807E+02  0.20000021716E+02 0.  0.
         12    1    1    2    0    0  0.30938932478E+02  0.25978827838E+02 -0.15858935076E+02  0.43400724193E+02  0.00000000000E+00 0. -1.
         11    1    3    3    0    0  0.11539774027E+01 -0.11281489392E+01  0.11567059999E+01  0.19855359242E+01  0.51100000000E-03 0. -1.
        -11    1    3    3    0    0 -0.25153436409E+02 -0.24658249389E+02  0.79343085503E+01  0.36106479731E+02  0.51100000000E-03 0.  1.
         12    1    3    3    0    0 -0.69394734711E+01 -0.19242950972E+00  0.67679205262E+01  0.96952601523E+01  0.00000000000E+00 0. -1.
</event>
<event>
 7    1  0.1384886E-010  0.4778725E+02  0.7816164E-02  0.1312668E+00
        -11   -1    0    0    0    0  0.00000000000E+00  0.00000000000E+00  0.45593999997E+02  0.45594000000E+02  0.51100000000E-03 0. -1.
         11   -1    0    0    0    0 -0.00000000000E+00 -0.00000000000E+00 -0.45593999997E+02  0.45594000000E+02  0.51100000000E-03 0.  1.
    9900012    2    1    2    0    0  0.34077844175E+02 -0.26823151970E+02 -0.16864399283E+01  0.47787250872E+02  0.19999908027E+02 0.  0.
         12    1    1    2    0    0 -0.34077844175E+02  0.26823151970E+02  0.16864399283E+01  0.43400749128E+02  0.00000000000E+00 0. -1.
         11    1    3    3    0    0  0.16446480238E+02 -0.13841113358E+02  0.23589546939E+01  0.21624703437E+02  0.51100000000E-03 0. -1.
        -11    1    3    3    0    0  0.47752600867E+01 -0.96256725700E+01 -0.66308145816E+01  0.12626336903E+02  0.51100000000E-03 0.  1.
         12    1    3    3    0    0  0.12856103850E+02 -0.33563660421E+01  0.25854199594E+01  0.13536210532E+02  0.00000000000E+00 0. -1.
</event>
<event>
 7    1  0.1384886E-010  0.4778726E+02  0.7816164E-02  0.1312668E+00
        -11   -1    0    0    0    0  0.00000000000E+00  0.00000000000E+00  0.45593999997E+02  0.45594000000E+02  0.51100000000E-03 0. -1.
         11   -1    0    0    0    0 -0.00000000000E+00 -0.00000000000E+00 -0.45593999997E+02  0.45594000000E+02  0.51100000000E-03 0.  1.
    9900012    2    1    2    0    0 -0.20626543092E+02 -0.26863037980E+02 -0.27139395562E+02  0.47787264051E+02  0.19999968114E+02 0.  0.
         12    1    1    2    0    0  0.20626543092E+02  0.26863037980E+02  0.27139395562E+02  0.43400735949E+02  0.00000000000E+00 0. -1.
         11    1    3    3    0    0 -0.22451217435E+01 -0.10065498223E+01  0.18012801390E+01  0.30493154295E+01  0.51100000000E-03 0. -1.
        -11    1    3    3    0    0 -0.27226600983E+01 -0.70073185875E+01 -0.10162060821E+01  0.75860442169E+01  0.51100000000E-03 0.  1.
        -12    1    3    3    0    0 -0.15658761250E+02 -0.18849169570E+02 -0.27924469619E+02  0.37151904405E+02  0.00000000000E+00 0.  1.
</event>
<event>
 7    1  0.1384886E-010  0.4778729E+02  0.7816164E-02  0.1312668E+00
        -11   -1    0    0    0    0  0.00000000000E+00  0.00000000000E+00  0.45593999997E+02  0.45594000000E+02  0.51100000000E-03 0.  1.
         11   -1    0    0    0    0 -0.00000000000E+00 -0.00000000000E+00 -0.45593999997E+02  0.45594000000E+02  0.51100000000E-03 0. -1.
    9900012    2    1    2    0    0 -0.29604763072E+02  0.75910133635E+01  0.30814875852E+02  0.47787285096E+02  0.20000064065E+02 0.  0.
         12    1    1    2    0    0  0.29604763072E+02 -0.75910133635E+01 -0.30814875852E+02  0.43400714904E+02  0.00000000000E+00 0. -1.
         11    1    3    3    0    0 -0.49143135113E+01 -0.54437132466E+01  0.80329004651E+01  0.10877131117E+02  0.51100000000E-03 0. -1.
        -11    1    3    3    0    0 -0.18158031181E+02  0.53020110342E+01  0.15015499888E+02  0.24151411026E+02  0.51100000000E-03 0.  1.
        -12    1    3    3    0    0 -0.65324183792E+01  0.77327155759E+01  0.77664754987E+01  0.12758742953E+02  0.00000000000E+00 0.  1.
</event>
<event>
 7    1  0.1384886E-010  0.4778727E+02  0.7816164E-02  0.1312668E+00
        -11   -1    0    0    0    0  0.00000000000E+00  0.00000000000E+00  0.45593999997E+02  0.45594000000E+02  0.51100000000E-03 0.  1.
         11   -1    0    0    0    0 -0.00000000000E+00 -0.00000000000E+00 -0.45593999997E+02  0.45594000000E+02  0.51100000000E-03 0. -1.
    9900012    2    1    2    0    0 -0.41796168983E+02  0.89953685365E+01  0.74690641383E+01  0.47787270561E+02  0.19999997796E+02 0.  0.
         12    1    1    2    0    0  0.41796168983E+02 -0.89953685365E+01 -0.74690641383E+01  0.43400729439E+02  0.00000000000E+00 0. -1.
         11    1    3    3    0    0 -0.14937693796E+02  0.43631569511E+01  0.49145594884E+01  0.16319458623E+02  0.51100000000E-03 0. -1.
        -11    1    3    3    0    0 -0.28222870636E+02  0.64529550195E+01  0.31329321255E+01  0.29120204659E+02  0.51100000000E-03 0.  1.
        -12    1    3    3    0    0  0.13643954488E+01 -0.18207434341E+01 -0.57842747554E+00  0.23476072793E+01  0.00000000000E+00 0.  1.
</event>
<event>
 7    1  0.1384886E-010  0.4778727E+02  0.7816164E-02  0.1312668E+00
        -11   -1    0    0    0    0  0.00000000000E+00  0.00000000000E+00  0.45593999997E+02  0.45594000000E+02  0.51100000000E-03 0. -1.
         11   -1    0    0    0    0 -0.00000000000E+00 -0.00000000000E+00 -0.45593999997E+02  0.45594000000E+02  0.51100000000E-03 0.  1.
    9900012    2    1    2    0    0 -0.21651731525E+02  0.37311712467E+02  0.47604736506E+01  0.47787268731E+02  0.19999989453E+02 0.  0.
         12    1    1    2    0    0  0.21651731525E+02 -0.37311712467E+02 -0.47604736506E+01  0.43400731269E+02  0.00000000000E+00 0. -1.
         11    1    3    3    0    0 -0.17477553578E+02  0.22514227175E+02  0.11653307567E+02  0.30792123699E+02  0.51100000000E-03 0.  1.
        -11    1    3    3    0    0 -0.36496382275E+00  0.43555572691E+01 -0.13489332574E+01  0.45742429877E+01  0.51100000000E-03 0. -1.
        -12    1    3    3    0    0 -0.38092141242E+01  0.10441928023E+02 -0.55439006592E+01  0.12420902045E+02  0.00000000000E+00 0.  1.
</event>
<event>
 7    1  0.1384886E-010  0.4778728E+02  0.7816164E-02  0.1312668E+00
        -11   -1    0    0    0    0  0.00000000000E+00  0.00000000000E+00  0.45593999997E+02  0.45594000000E+02  0.51100000000E-03 0. -1.
         11   -1    0    0    0    0 -0.00000000000E+00 -0.00000000000E+00 -0.45593999997E+02  0.45594000000E+02  0.51100000000E-03 0.  1.
    9900012    2    1    2    0    0 -0.40657357333E+02  0.11612913285E+02 -0.97847959804E+01  0.47787277740E+02  0.20000030530E+02 0.  0.
         12    1    1    2    0    0  0.40657357333E+02 -0.11612913285E+02  0.97847959804E+01  0.43400722260E+02  0.00000000000E+00 0. -1.
         11    1    3    3    0    0 -0.25387034414E+02  0.79452124892E+01 -0.59941291303E+01  0.27268250808E+02  0.51100000000E-03 0. -1.
        -11    1    3    3    0    0 -0.14394736079E+02  0.74041643456E+01 -0.20911182867E+01  0.16321851990E+02  0.51100000000E-03 0.  1.
         12    1    3    3    0    0 -0.87558683967E+00 -0.37364635499E+01 -0.16995485634E+01  0.41971749419E+01  0.00000000000E+00 0. -1.
</event>
<event>
 7    1  0.1384886E-010  0.4778727E+02  0.7816164E-02  0.1312668E+00
        -11   -1    0    0    0    0  0.00000000000E+00  0.00000000000E+00  0.45593999997E+02  0.45594000000E+02  0.51100000000E-03 0.  1.
         11   -1    0    0    0    0 -0.00000000000E+00 -0.00000000000E+00 -0.45593999997E+02  0.45594000000E+02  0.51100000000E-03 0. -1.
    9900012    2    1    2    0    0  0.21835068718E+02 -0.26530719747E+02  0.26513655946E+02  0.47787271114E+02  0.20000000319E+02 0.  0.
         12    1    1    2    0    0 -0.21835068718E+02  0.26530719747E+02 -0.26513655946E+02  0.43400728886E+02  0.00000000000E+00 0. -1.
         11    1    3    3    0    0  0.24890288272E+01  0.95939759281E+00  0.21009161180E+01  0.33955201427E+01  0.51100000000E-03 0. -1.
        -11    1    3    3    0    0  0.12244732401E+02 -0.19954484707E+02  0.24701223338E+02  0.34033297903E+02  0.51100000000E-03 0.  1.
         12    1    3    3    0    0  0.71013074901E+01 -0.75356326330E+01 -0.28848351058E+00  0.10358453069E+02  0.00000000000E+00 0. -1.
</event>
<event>
 7    1  0.1384886E-010  0.4778729E+02  0.7816164E-02  0.1312668E+00
        -11   -1    0    0    0    0  0.00000000000E+00  0.00000000000E+00  0.45593999997E+02  0.45594000000E+02  0.51100000000E-03 0.  1.
         11   -1    0    0    0    0 -0.00000000000E+00 -0.00000000000E+00 -0.45593999997E+02  0.45594000000E+02  0.51100000000E-03 0. -1.
    9900012    2    1    2    0    0  0.27854758517E+02 -0.31712201469E+02  0.10103001560E+02  0.47787286474E+02  0.20000070349E+02 0.  0.
         12    1    1    2    0    0 -0.27854758517E+02  0.31712201469E+02 -0.10103001560E+02  0.43400713526E+02  0.00000000000E+00 0. -1.
         11    1    3    3    0    0 -0.19369918442E+01 -0.13700513641E+01  0.33487043923E+01  0.41039979914E+01  0.51100000000E-03 0. -1.
        -11    1    3    3    0    0  0.16557169583E+02 -0.21668713925E+02  0.54189343259E+01  0.27803558716E+02  0.51100000000E-03 0.  1.
        -12    1    3    3    0    0  0.13234580778E+02 -0.86734361796E+01  0.13353628415E+01  0.15879729766E+02  0.00000000000E+00 0.  1.
</event>
<event>
 7    1  0.1574446E-010  0.4778727E+02  0.7816164E-02  0.1312668E+00
        -11   -1    0    0    0    0  0.00000000000E+00  0.00000000000E+00  0.45593999997E+02  0.45594000000E+02  0.51100000000E-03 0. -1.
         11   -1    0    0    0    0 -0.00000000000E+00 -0.00000000000E+00 -0.45593999997E+02  0.45594000000E+02  0.51100000000E-03 0.  1.
    9900012    2    1    2    0    0 -0.42265109590E+02  0.87979078179E+01  0.44588032423E+01  0.47787267322E+02  0.19999983027E+02 0.  0.
         12    1    1    2    0    0  0.42265109590E+02 -0.87979078179E+01 -0.44588032423E+01  0.43400732678E+02  0.00000000000E+00 0. -1.
         11    1    3    3    0    0 -0.21732231420E+01 -0.27796523780E+01 -0.15826047906E+01  0.38670407746E+01  0.51100000000E-03 0. -1.
        -11    1    3    3    0    0 -0.30245733577E+02  0.38851074883E+01  0.11925665228E+01  0.30517547001E+02  0.51100000000E-03 0.  1.
        -12    1    3    3    0    0 -0.98461528716E+01  0.76924527076E+01  0.48488415102E+01  0.13402679546E+02  0.00000000000E+00 0.  1.
</event>
<event>
 7    1  0.1384886E-010  0.4778731E+02  0.7816164E-02  0.1312668E+00
        -11   -1    0    0    0    0  0.00000000000E+00  0.00000000000E+00  0.45593999997E+02  0.45594000000E+02  0.51100000000E-03 0.  1.
         11   -1    0    0    0    0 -0.00000000000E+00 -0.00000000000E+00 -0.45593999997E+02  0.45594000000E+02  0.51100000000E-03 0. -1.
    9900012    2    1    2    0    0  0.43254144299E+02  0.34449701909E+01  0.91183087391E+00  0.47787305833E+02  0.20000158615E+02 0.  0.
         12    1    1    2    0    0 -0.43254144299E+02 -0.34449701909E+01 -0.91183087391E+00  0.43400694167E+02  0.00000000000E+00 0. -1.
         11    1    3    3    0    0  0.54830318699E+01 -0.51165376120E+01  0.27883783459E+00  0.75046882960E+01  0.51100000000E-03 0. -1.
        -11    1    3    3    0    0  0.28209280836E+02  0.12437781793E+01  0.51304188737E+00  0.28241347732E+02  0.51100000000E-03 0.  1.
        -12    1    3    3    0    0  0.95618315924E+01  0.73177296237E+01  0.11995115194E+00  0.12041269805E+02  0.00000000000E+00 0.  1.
</event>
<event>
 7    1  0.1384886E-010  0.4778727E+02  0.7816164E-02  0.1312668E+00
        -11   -1    0    0    0    0  0.00000000000E+00  0.00000000000E+00  0.45593999997E+02  0.45594000000E+02  0.51100000000E-03 0.  1.
         11   -1    0    0    0    0 -0.00000000000E+00 -0.00000000000E+00 -0.45593999997E+02  0.45594000000E+02  0.51100000000E-03 0. -1.
    9900012    2    1    2    0    0 -0.13287645483E+02 -0.27245833856E+02  0.31060050171E+02  0.47787266117E+02  0.19999977532E+02 0.  0.
         12    1    1    2    0    0  0.13287645483E+02  0.27245833856E+02 -0.31060050171E+02  0.43400733883E+02  0.00000000000E+00 0. -1.
         11    1    3    3    0    0 -0.89949363966E+01 -0.10456746766E+02  0.63592785939E+01  0.15188576569E+02  0.51100000000E-03 0. -1.
        -11    1    3    3    0    0  0.36609395782E+01 -0.27364026632E+01  0.27011721598E+01  0.53091156918E+01  0.51100000000E-03 0.  1.
        -12    1    3    3    0    0 -0.79536486648E+01 -0.14052684426E+02  0.21999599418E+02  0.27289573855E+02  0.00000000000E+00 0.  1.
</event>
<event>
 7    1  0.1384886E-010  0.4778727E+02  0.7816164E-02  0.1312668E+00
        -11   -1    0    0    0    0  0.00000000000E+00  0.00000000000E+00  0.45593999997E+02  0.45594000000E+02  0.51100000000E-03 0. -1.
         11   -1    0    0    0    0 -0.00000000000E+00 -0.00000000000E+00 -0.45593999997E+02  0.45594000000E+02  0.51100000000E-03 0.  1.
    9900012    2    1    2    0    0 -0.52422191327E-01  0.38842907830E+02  0.19361019084E+02  0.47787270781E+02  0.19999998801E+02 0.  0.
         12    1    1    2    0    0  0.52422191327E-01 -0.38842907830E+02 -0.19361019084E+02  0.43400729219E+02  0.00000000000E+00 0. -1.
         11    1    3    3    0    0 -0.64751593934E+01  0.69575974890E+01  0.76404714516E+01  0.12194779877E+02  0.51100000000E-03 0. -1.
        -11    1    3    3    0    0  0.52744321062E+01  0.12225450407E+02  0.80527982452E+01  0.15560489438E+02  0.51100000000E-03 0.  1.
        -12    1    3    3    0    0  0.11483050959E+01  0.19659859933E+02  0.36677493869E+01  0.20032001466E+02  0.00000000000E+00 0.  1.
</event>
<event>
 7    1  0.1384886E-010  0.4778727E+02  0.7816164E-02  0.1312668E+00
        -11   -1    0    0    0    0  0.00000000000E+00  0.00000000000E+00  0.45593999997E+02  0.45594000000E+02  0.51100000000E-03 0. -1.
         11   -1    0    0    0    0 -0.00000000000E+00 -0.00000000000E+00 -0.45593999997E+02  0.45594000000E+02  0.51100000000E-03 0.  1.
    9900012    2    1    2    0    0 -0.64674536641E+01  0.14533349230E+01 -0.42891527089E+02  0.47787271488E+02  0.20000002023E+02 0.  0.
         12    1    1    2    0    0  0.64674536641E+01 -0.14533349230E+01  0.42891527089E+02  0.43400728512E+02  0.00000000000E+00 0. -1.
         11    1    3    3    0    0 -0.10958451001E+01 -0.45926676418E+01 -0.27706470468E+01  0.54744824295E+01  0.51100000000E-03 0. -1.
        -11    1    3    3    0    0  0.30050928552E+00 -0.28253814222E+01 -0.10428216470E+02  0.10808366436E+02  0.51100000000E-03 0.  1.
        -12    1    3    3    0    0 -0.56721178495E+01  0.88713839870E+01 -0.29692663572E+02  0.31504422622E+02  0.00000000000E+00 0.  1.
</event>
<event>
 7    1  0.1384886E-010  0.4778727E+02  0.7816164E-02  0.1312668E+00
        -11   -1    0    0    0    0  0.00000000000E+00  0.00000000000E+00  0.45593999997E+02  0.45594000000E+02  0.51100000000E-03 0.  1.
         11   -1    0    0    0    0 -0.00000000000E+00 -0.00000000000E+00 -0.45593999997E+02  0.45594000000E+02  0.51100000000E-03 0. -1.
    9900012    2    1    2    0    0 -0.37654594889E+02 -0.16187033036E+02 -0.14273579167E+02  0.47787267092E+02  0.19999981978E+02 0.  0.
         12    1    1    2    0    0  0.37654594889E+02  0.16187033036E+02  0.14273579167E+02  0.43400732908E+02  0.00000000000E+00 0. -1.
         11    1    3    3    0    0  0.19663096681E+01 -0.22326907354E+01 -0.52340605943E+00  0.30208005222E+01  0.51100000000E-03 0. -1.
        -11    1    3    3    0    0 -0.16048268854E+02 -0.39540834214E+01 -0.21931995134E+01  0.16673087095E+02  0.51100000000E-03 0.  1.
        -12    1    3    3    0    0 -0.23572635703E+02 -0.10000258879E+02 -0.11556973594E+02  0.28093379475E+02  0.00000000000E+00 0.  1.
</event>
<event>
 7    1  0.1384886E-010  0.4778727E+02  0.7816164E-02  0.1312668E+00
        -11   -1    0    0    0    0  0.00000000000E+00  0.00000000000E+00  0.45593999997E+02  0.45594000000E+02  0.51100000000E-03 0. -1.
         11   -1    0    0    0    0 -0.00000000000E+00 -0.00000000000E+00 -0.45593999997E+02  0.45594000000E+02  0.51100000000E-03 0.  1.
    9900012    2    1    2    0    0 -0.24335793410E+02 -0.23470020410E+02 -0.27213059248E+02  0.47787270829E+02  0.19999999016E+02 0.  0.
         12    1    1    2    0    0  0.24335793410E+02  0.23470020410E+02  0.27213059248E+02  0.43400729171E+02  0.00000000000E+00 0. -1.
         11    1    3    3    0    0 -0.58234303750E+01 -0.14765332689E+01  0.83479908547E+00  0.60654250965E+01  0.51100000000E-03 0. -1.
        -11    1    3    3    0    0 -0.45624713143E+00 -0.39124874818E+01 -0.90828485241E+01  0.99001948118E+01  0.51100000000E-03 0.  1.
        -12    1    3    3    0    0 -0.18056115904E+02 -0.18080999659E+02 -0.18965009810E+02  0.31821650920E+02  0.00000000000E+00 0.  1.
</event>
<event>
 7    1  0.1384886E-010  0.4778727E+02  0.7816164E-02  0.1312668E+00
        -11   -1    0    0    0    0  0.00000000000E+00  0.00000000000E+00  0.45593999997E+02  0.45594000000E+02  0.51100000000E-03 0. -1.
         11   -1    0    0    0    0 -0.00000000000E+00 -0.00000000000E+00 -0.45593999997E+02  0.45594000000E+02  0.51100000000E-03 0.  1.
    9900012    2    1    2    0    0 -0.16038535020E+02 -0.39741798912E+02 -0.68540604650E+01  0.47787270384E+02  0.19999996991E+02 0.  0.
         12    1    1    2    0    0  0.16038535020E+02  0.39741798912E+02  0.68540604650E+01  0.43400729616E+02  0.00000000000E+00 0. -1.
         11    1    3    3    0    0  0.18066414549E+01  0.40290466542E+00  0.20940746941E+01  0.27948943812E+01  0.51100000000E-03 0. -1.
        -11    1    3    3    0    0 -0.97113984451E+01 -0.22734657383E+02 -0.69022245275E+01  0.25667423123E+02  0.51100000000E-03 0.  1.
         12    1    3    3    0    0 -0.81337780297E+01 -0.17410046194E+02 -0.20459106316E+01  0.19324952880E+02  0.00000000000E+00 0. -1.
</event>
<event>
 7    1  0.1384886E-010  0.4778726E+02  0.7816164E-02  0.1312668E+00
        -11   -1    0    0    0    0  0.00000000000E+00  0.00000000000E+00  0.45593999997E+02  0.45594000000E+02  0.51100000000E-03 0.  1.
         11   -1    0    0    0    0 -0.00000000000E+00 -0.00000000000E+00 -0.45593999997E+02  0.45594000000E+02  0.51100000000E-03 0. -1.
    9900012    2    1    2    0    0 -0.12956015338E+01  0.42314954906E+02 -0.95598277502E+01  0.47787259238E+02  0.19999946171E+02 0.  0.
         12    1    1    2    0    0  0.12956015338E+01 -0.42314954906E+02  0.95598277502E+01  0.43400740762E+02  0.00000000000E+00 0. -1.
         11    1    3    3    0    0  0.77492627862E+00  0.10917978714E+01 -0.37427901240E+01  0.39750486164E+01  0.51100000000E-03 0. -1.
        -11    1    3    3    0    0 -0.15130676144E+01  0.44661434186E+00  0.17279115878E+01  0.23397685126E+01  0.51100000000E-03 0.  1.
        -12    1    3    3    0    0 -0.55746019806E+00  0.40776542693E+02 -0.75449492140E+01  0.41472442109E+02  0.00000000000E+00 0.  1.
</event>
<event>
 7    1  0.1384886E-010  0.4778727E+02  0.7816164E-02  0.1312668E+00
        -11   -1    0    0    0    0  0.00000000000E+00  0.00000000000E+00  0.45593999997E+02  0.45594000000E+02  0.51100000000E-03 0.  1.
         11   -1    0    0    0    0 -0.00000000000E+00 -0.00000000000E+00 -0.45593999997E+02  0.45594000000E+02  0.51100000000E-03 0. -1.
    9900012    2    1    2    0    0  0.33355976214E+02 -0.27381786007E+02  0.46086773249E+01  0.47787271195E+02  0.20000000687E+02 0.  0.
         12    1    1    2    0    0 -0.33355976214E+02  0.27381786007E+02 -0.46086773249E+01  0.43400728805E+02  0.00000000000E+00 0. -1.
         11    1    3    3    0    0  0.24147740774E+02 -0.10815538881E+02 -0.72866912493E+00  0.26469231661E+02  0.51100000000E-03 0.  1.
        -11    1    3    3    0    0  0.96496636904E+01 -0.13940358609E+02  0.20351796019E+01  0.17076052347E+02  0.51100000000E-03 0. -1.
        -12    1    3    3    0    0 -0.44142825053E+00 -0.26258885171E+01  0.33021668479E+01  0.42419871871E+01  0.00000000000E+00 0.  1.
</event>
<event>
 7    1  0.1384886E-010  0.4778727E+02  0.7816164E-02  0.1312668E+00
        -11   -1    0    0    0    0  0.00000000000E+00  0.00000000000E+00  0.45593999997E+02  0.45594000000E+02  0.51100000000E-03 0.  1.
         11   -1    0    0    0    0 -0.00000000000E+00 -0.00000000000E+00 -0.45593999997E+02  0.45594000000E+02  0.51100000000E-03 0. -1.
    9900012    2    1    2    0    0 -0.30683099221E+02  0.26354156475E+02  0.15736252041E+02  0.47787265334E+02  0.19999973963E+02 0.  0.
         12    1    1    2    0    0  0.30683099221E+02 -0.26354156475E+02 -0.15736252041E+02  0.43400734666E+02  0.00000000000E+00 0. -1.
         11    1    3    3    0    0 -0.15072568841E+01  0.44099395097E+00 -0.18090179369E+01  0.23955886826E+01  0.51100000000E-03 0. -1.
        -11    1    3    3    0    0 -0.29477437005E+02  0.19381784011E+02  0.15568886251E+02  0.38561160034E+02  0.51100000000E-03 0.  1.
         12    1    3    3    0    0  0.30159466808E+00  0.65313785127E+01  0.19763837266E+01  0.68305166169E+01  0.00000000000E+00 0. -1.
</event>
<event>
 7    1  0.1384886E-010  0.4778727E+02  0.7816164E-02  0.1312668E+00
        -11   -1    0    0    0    0  0.00000000000E+00  0.00000000000E+00  0.45593999997E+02  0.45594000000E+02  0.51100000000E-03 0.  1.
         11   -1    0    0    0    0 -0.00000000000E+00 -0.00000000000E+00 -0.45593999997E+02  0.45594000000E+02  0.51100000000E-03 0. -1.
    9900012    2    1    2    0    0  0.19755168750E+02 -0.38441194368E+02 -0.39536097359E+01  0.47787272510E+02  0.20000006680E+02 0.  0.
         12    1    1    2    0    0 -0.19755168750E+02  0.38441194368E+02  0.39536097359E+01  0.43400727490E+02  0.00000000000E+00 0. -1.
         11    1    3    3    0    0  0.44028561566E+01 -0.65548961992E+01 -0.60995953016E+01  0.99778188810E+01  0.51100000000E-03 0. -1.
        -11    1    3    3    0    0  0.16657040517E+02 -0.21864240137E+02  0.43406795616E-01  0.27486430834E+02  0.51100000000E-03 0.  1.
         12    1    3    3    0    0 -0.13047279236E+01 -0.10022058031E+02  0.21025787701E+01  0.10323022795E+02  0.00000000000E+00 0. -1.
</event>
<event>
 7    1  0.1384886E-010  0.4778727E+02  0.7816164E-02  0.1312668E+00
        -11   -1    0    0    0    0  0.00000000000E+00  0.00000000000E+00  0.45593999997E+02  0.45594000000E+02  0.51100000000E-03 0.  1.
         11   -1    0    0    0    0 -0.00000000000E+00 -0.00000000000E+00 -0.45593999997E+02  0.45594000000E+02  0.51100000000E-03 0. -1.
    9900012    2    1    2    0    0 -0.77758408469E+01  0.27043174672E+02  0.33042796693E+02  0.47787269470E+02  0.19999992822E+02 0.  0.
         12    1    1    2    0    0  0.77758408469E+01 -0.27043174672E+02 -0.33042796693E+02  0.43400730530E+02  0.00000000000E+00 0. -1.
         11    1    3    3    0    0 -0.15234564867E+01  0.30515784195E+01 -0.91059627771E+00  0.35301892809E+01  0.51100000000E-03 0. -1.
        -11    1    3    3    0    0 -0.43013383144E+01  0.10505464219E+02  0.26260244499E+02  0.28608857565E+02  0.51100000000E-03 0.  1.
         12    1    3    3    0    0 -0.19510460458E+01  0.13486132033E+02  0.76931484721E+01  0.15648222624E+02  0.00000000000E+00 0. -1.
</event>
<event>
 7    1  0.1384886E-010  0.4778727E+02  0.7816164E-02  0.1312668E+00
        -11   -1    0    0    0    0  0.00000000000E+00  0.00000000000E+00  0.45593999997E+02  0.45594000000E+02  0.51100000000E-03 0. -1.
         11   -1    0    0    0    0 -0.00000000000E+00 -0.00000000000E+00 -0.45593999997E+02  0.45594000000E+02  0.51100000000E-03 0.  1.
    9900012    2    1    2    0    0  0.72700173619E+01 -0.31723375256E+01 -0.42669735186E+02  0.47787272141E+02  0.20000005001E+02 0.  0.
         12    1    1    2    0    0 -0.72700173619E+01  0.31723375256E+01  0.42669735186E+02  0.43400727859E+02  0.00000000000E+00 0. -1.
         11    1    3    3    0    0 -0.30931022862E+01 -0.44702788268E+01 -0.11941441654E+02  0.13120545094E+02  0.51100000000E-03 0. -1.
        -11    1    3    3    0    0  0.33874618387E+01 -0.50577555147E+01 -0.79647845944E+01  0.10024648745E+02  0.51100000000E-03 0.  1.
        -12    1    3    3    0    0  0.69756578095E+01  0.63556968158E+01 -0.22763508938E+02  0.24642078302E+02  0.00000000000E+00 0.  1.
</event>
<event>
 7    1  0.1384886E-010  0.4778727E+02  0.7816164E-02  0.1312668E+00
        -11   -1    0    0    0    0  0.00000000000E+00  0.00000000000E+00  0.45593999997E+02  0.45594000000E+02  0.51100000000E-03 0.  1.
         11   -1    0    0    0    0 -0.00000000000E+00 -0.00000000000E+00 -0.45593999997E+02  0.45594000000E+02  0.51100000000E-03 0. -1.
    9900012    2    1    2    0    0 -0.14202774854E+01  0.10349848640E+02  0.42124656218E+02  0.47787271705E+02  0.20000003014E+02 0.  0.
         12    1    1    2    0    0  0.14202774854E+01 -0.10349848640E+02 -0.42124656218E+02  0.43400728295E+02  0.00000000000E+00 0. -1.
         11    1    3    3    0    0 -0.17213476967E+01  0.10820077360E+01  0.80954046179E+01  0.83468170474E+01  0.51100000000E-03 0. -1.
        -11    1    3    3    0    0 -0.68892967205E+01  0.93455543856E+01  0.26973571965E+02  0.29366228578E+02  0.51100000000E-03 0.  1.
         12    1    3    3    0    0  0.71903669318E+01 -0.77713481996E-01  0.70556796357E+01  0.10074226080E+02  0.00000000000E+00 0. -1.
</event>
<event>
 7    1  0.1384886E-010  0.4778727E+02  0.7816164E-02  0.1312668E+00
        -11   -1    0    0    0    0  0.00000000000E+00  0.00000000000E+00  0.45593999997E+02  0.45594000000E+02  0.51100000000E-03 0. -1.
         11   -1    0    0    0    0 -0.00000000000E+00 -0.00000000000E+00 -0.45593999997E+02  0.45594000000E+02  0.51100000000E-03 0.  1.
    9900012    2    1    2    0    0 -0.24928731808E+02  0.35524330859E+02 -0.45126625657E+00  0.47787269663E+02  0.19999993701E+02 0.  0.
         12    1    1    2    0    0  0.24928731808E+02 -0.35524330859E+02  0.45126625657E+00  0.43400730337E+02  0.00000000000E+00 0. -1.
         11    1    3    3    0    0 -0.68876082271E+01  0.22227140099E+02 -0.24447327327E+01  0.23397897821E+02  0.51100000000E-03 0.  1.
        -11    1    3    3    0    0 -0.19076020878E+01 -0.12076916527E+01 -0.10352215275E+01  0.24837771087E+01  0.51100000000E-03 0. -1.
        -12    1    3    3    0    0 -0.16133521493E+02  0.14504882414E+02  0.30286880037E+01  0.21905594733E+02  0.00000000000E+00 0.  1.
</event>
<event>
 7    1  0.1384886E-010  0.4778727E+02  0.7816164E-02  0.1312668E+00
        -11   -1    0    0    0    0  0.00000000000E+00  0.00000000000E+00  0.45593999997E+02  0.45594000000E+02  0.51100000000E-03 0.  1.
         11   -1    0    0    0    0 -0.00000000000E+00 -0.00000000000E+00 -0.45593999997E+02  0.45594000000E+02  0.51100000000E-03 0. -1.
    9900012    2    1    2    0    0  0.24453030096E+02  0.25753234404E+00  0.35855358651E+02  0.47787265584E+02  0.19999975106E+02 0.  0.
         12    1    1    2    0    0 -0.24453030096E+02 -0.25753234404E+00 -0.35855358651E+02  0.43400734416E+02  0.00000000000E+00 0. -1.
         11    1    3    3    0    0  0.11200837394E+02 -0.18445399671E+01  0.22724824341E+02  0.25402337050E+02  0.51100000000E-03 0.  1.
        -11    1    3    3    0    0  0.92136435727E+01 -0.43825320859E+01  0.55145947927E+01  0.11597783036E+02  0.51100000000E-03 0. -1.
        -12    1    3    3    0    0  0.40385491293E+01  0.64846043970E+01  0.76159395172E+01  0.10787145498E+02  0.00000000000E+00 0.  1.
</event>
<event>
 7    1  0.1488306E-010  0.4778726E+02  0.7816164E-02  0.1312668E+00
        -11   -1    0    0    0    0  0.00000000000E+00  0.00000000000E+00  0.45593999997E+02  0.45594000000E+02  0.51100000000E-03 0. -1.
         11   -1    0    0    0    0 -0.00000000000E+00 -0.00000000000E+00 -0.45593999997E+02  0.45594000000E+02  0.51100000000E-03 0.  1.
    9900012    2    1    2    0    0 -0.20750223851E+02  0.37469666790E+02  0.70054463513E+01  0.47787262705E+02  0.19999961975E+02 0.  0.
         12    1    1    2    0    0  0.20750223851E+02 -0.37469666790E+02 -0.70054463513E+01  0.43400737295E+02  0.00000000000E+00 0. -1.
         11    1    3    3    0    0 -0.10163342514E+02  0.68835096528E+01 -0.11415826949E+01  0.12327994464E+02  0.51100000000E-03 0.  1.
        -11    1    3    3    0    0 -0.42386829706E+01  0.77940240931E+01  0.77748124658E+01  0.11796650119E+02  0.51100000000E-03 0. -1.
        -12    1    3    3    0    0 -0.63481983662E+01  0.22792133044E+02  0.37221658044E+00  0.23662618122E+02  0.00000000000E+00 0.  1.
</event>
<event>
 7    1  0.1384886E-010  0.4778727E+02  0.7816164E-02  0.1312668E+00
        -11   -1    0    0    0    0  0.00000000000E+00  0.00000000000E+00  0.45593999997E+02  0.45594000000E+02  0.51100000000E-03 0. -1.
         11   -1    0    0    0    0 -0.00000000000E+00 -0.00000000000E+00 -0.45593999997E+02  0.45594000000E+02  0.51100000000E-03 0.  1.
    9900012    2    1    2    0    0  0.13957815530E+02 -0.21263495626E+02 -0.35166265869E+02  0.47787272866E+02  0.20000008305E+02 0.  0.
         12    1    1    2    0    0 -0.13957815530E+02  0.21263495626E+02  0.35166265869E+02  0.43400727134E+02  0.00000000000E+00 0. -1.
         11    1    3    3    0    0 -0.12927209565E+01 -0.34819882555E+01 -0.94260726034E+01  0.10131446820E+02  0.51100000000E-03 0. -1.
        -11    1    3    3    0    0  0.13992377331E+02 -0.82429638906E+01 -0.95986551709E+01  0.18864444292E+02  0.51100000000E-03 0.  1.
         12    1    3    3    0    0  0.12581591555E+01 -0.95385434798E+01 -0.16141538095E+02  0.18791381754E+02  0.00000000000E+00 0. -1.
</event>
<event>
 7    1  0.1384886E-010  0.4778727E+02  0.7816164E-02  0.1312668E+00
        -11   -1    0    0    0    0  0.00000000000E+00  0.00000000000E+00  0.45593999997E+02  0.45594000000E+02  0.51100000000E-03 0.  1.
         11   -1    0    0    0    0 -0.00000000000E+00 -0.00000000000E+00 -0.45593999997E+02  0.45594000000E+02  0.51100000000E-03 0. -1.
    9900012    2    1    2    0    0  0.95680063943E+01  0.41900547349E+02  0.60349256684E+01  0.47787274864E+02  0.20000017414E+02 0.  0.
         12    1    1    2    0    0 -0.95680063943E+01 -0.41900547349E+02 -0.60349256684E+01  0.43400725136E+02  0.00000000000E+00 0. -1.
         11    1    3    3    0    0  0.32930444849E+01  0.44784207511E+00 -0.21753160863E+01  0.39719900353E+01  0.51100000000E-03 0. -1.
        -11    1    3    3    0    0  0.50447246791E+01  0.18710803540E+02 -0.61841707468E+00  0.19388807497E+02  0.51100000000E-03 0.  1.
         12    1    3    3    0    0  0.12302372304E+01  0.22741901734E+02  0.88286588294E+01  0.24426477332E+02  0.00000000000E+00 0. -1.
</event>
<event>
 7    1  0.1384886E-010  0.4778727E+02  0.7816164E-02  0.1312668E+00
        -11   -1    0    0    0    0  0.00000000000E+00  0.00000000000E+00  0.45593999997E+02  0.45594000000E+02  0.51100000000E-03 0. -1.
         11   -1    0    0    0    0 -0.00000000000E+00 -0.00000000000E+00 -0.45593999997E+02  0.45594000000E+02  0.51100000000E-03 0.  1.
    9900012    2    1    2    0    0  0.36268643595E+02 -0.19377305275E+02 -0.13882687388E+02  0.47787268703E+02  0.19999989324E+02 0.  0.
         12    1    1    2    0    0 -0.36268643595E+02  0.19377305275E+02  0.13882687388E+02  0.43400731297E+02  0.00000000000E+00 0. -1.
         11    1    3    3    0    0  0.21965922105E+02 -0.65350150710E+01 -0.15389588479E+02  0.27605209467E+02  0.51100000000E-03 0.  1.
        -11    1    3    3    0    0  0.18659522283E+01 -0.32581618465E+01 -0.17566142711E+01  0.41452491234E+01  0.51100000000E-03 0. -1.
        -12    1    3    3    0    0  0.12436769262E+02 -0.95841283580E+01  0.32635153622E+01  0.16036810112E+02  0.00000000000E+00 0.  1.
</event>
<event>
 7    1  0.1384886E-010  0.4778727E+02  0.7816164E-02  0.1312668E+00
        -11   -1    0    0    0    0  0.00000000000E+00  0.00000000000E+00  0.45593999997E+02  0.45594000000E+02  0.51100000000E-03 0. -1.
         11   -1    0    0    0    0 -0.00000000000E+00 -0.00000000000E+00 -0.45593999997E+02  0.45594000000E+02  0.51100000000E-03 0.  1.
    9900012    2    1    2    0    0  0.39000217427E+02 -0.17083751854E+02  0.84114337708E+01  0.47787265504E+02  0.19999974738E+02 0.  0.
         12    1    1    2    0    0 -0.39000217427E+02  0.17083751854E+02 -0.84114337708E+01  0.43400734496E+02  0.00000000000E+00 0. -1.
         11    1    3    3    0    0  0.22050665845E+02 -0.54591108776E+01 -0.22096897955E-02  0.22716376492E+02  0.51100000000E-03 0. -1.
        -11    1    3    3    0    0  0.11303091760E+01 -0.56672896034E+01 -0.77574226699E+00  0.58307415144E+01  0.51100000000E-03 0.  1.
         12    1    3    3    0    0  0.15819242406E+02 -0.59573513725E+01  0.91893857276E+01  0.19240147498E+02  0.00000000000E+00 0. -1.
</event>
<event>
 7    1  0.1384886E-010  0.4778727E+02  0.7816164E-02  0.1312668E+00
        -11   -1    0    0    0    0  0.00000000000E+00  0.00000000000E+00  0.45593999997E+02  0.45594000000E+02  0.51100000000E-03 0.  1.
         11   -1    0    0    0    0 -0.00000000000E+00 -0.00000000000E+00 -0.45593999997E+02  0.45594000000E+02  0.51100000000E-03 0. -1.
    9900012    2    1    2    0    0 -0.61495045361E+01  0.25802382762E+01  0.42885305109E+02  0.47787269247E+02  0.19999991806E+02 0.  0.
         12    1    1    2    0    0  0.61495045361E+01 -0.25802382762E+01 -0.42885305109E+02  0.43400730753E+02  0.00000000000E+00 0. -1.
         11    1    3    3    0    0 -0.52710548034E+01  0.42056705449E+00  0.33321226663E+02  0.33738183738E+02  0.51100000000E-03 0. -1.
        -11    1    3    3    0    0 -0.33163671754E+01 -0.27648412964E+01  0.63633656631E+01  0.76899324743E+01  0.51100000000E-03 0.  1.
         12    1    3    3    0    0  0.24379174427E+01  0.49245125181E+01  0.32007127829E+01  0.63591530345E+01  0.00000000000E+00 0. -1.
</event>
<event>
 7    1  0.1384886E-010  0.4778727E+02  0.7816164E-02  0.1312668E+00
        -11   -1    0    0    0    0  0.00000000000E+00  0.00000000000E+00  0.45593999997E+02  0.45594000000E+02  0.51100000000E-03 0.  1.
         11   -1    0    0    0    0 -0.00000000000E+00 -0.00000000000E+00 -0.45593999997E+02  0.45594000000E+02  0.51100000000E-03 0. -1.
    9900012    2    1    2    0    0 -0.23077185327E+02 -0.61381956217E+01  0.36240711472E+02  0.47787273092E+02  0.20000009336E+02 0.  0.
         12    1    1    2    0    0  0.23077185327E+02  0.61381956217E+01 -0.36240711472E+02  0.43400726908E+02  0.00000000000E+00 0. -1.
         11    1    3    3    0    0 -0.16704467153E+02 -0.60395238887E+01  0.16122535477E+02  0.23988564403E+02  0.51100000000E-03 0. -1.
        -11    1    3    3    0    0 -0.48556749351E+01 -0.36005734418E+01  0.18820928008E+02  0.19767878984E+02  0.51100000000E-03 0.  1.
        -12    1    3    3    0    0 -0.15170432393E+01  0.35019017088E+01  0.12972479871E+01  0.40308297047E+01  0.00000000000E+00 0.  1.
</event>
<event>
 7    1  0.1384886E-010  0.4778727E+02  0.7816164E-02  0.1312668E+00
        -11   -1    0    0    0    0  0.00000000000E+00  0.00000000000E+00  0.45593999997E+02  0.45594000000E+02  0.51100000000E-03 0.  1.
         11   -1    0    0    0    0 -0.00000000000E+00 -0.00000000000E+00 -0.45593999997E+02  0.45594000000E+02  0.51100000000E-03 0. -1.
    9900012    2    1    2    0    0  0.18771224982E+02 -0.28651426986E+02  0.26652587923E+02  0.47787267303E+02  0.19999982939E+02 0.  0.
         12    1    1    2    0    0 -0.18771224982E+02  0.28651426986E+02 -0.26652587923E+02  0.43400732697E+02  0.00000000000E+00 0. -1.
         11    1    3    3    0    0 -0.11204497270E+01 -0.88586908587E-01  0.36314373980E+01  0.38013935692E+01  0.51100000000E-03 0. -1.
        -11    1    3    3    0    0  0.17131414159E+02 -0.15341726895E+02  0.19176494924E+02  0.29943144342E+02  0.51100000000E-03 0.  1.
         12    1    3    3    0    0  0.27602605493E+01 -0.13221113182E+02  0.38446556015E+01  0.14042729392E+02  0.00000000000E+00 0. -1.
</event>
<event>
 7    1  0.1384886E-010  0.4778727E+02  0.7816164E-02  0.1312668E+00
        -11   -1    0    0    0    0  0.00000000000E+00  0.00000000000E+00  0.45593999997E+02  0.45594000000E+02  0.51100000000E-03 0.  1.
         11   -1    0    0    0    0 -0.00000000000E+00 -0.00000000000E+00 -0.45593999997E+02  0.45594000000E+02  0.51100000000E-03 0. -1.
    9900012    2    1    2    0    0  0.22244946861E+01 -0.12908720271E+02  0.41376806061E+02  0.47787268261E+02  0.19999987308E+02 0.  0.
         12    1    1    2    0    0 -0.22244946861E+01  0.12908720271E+02 -0.41376806061E+02  0.43400731739E+02  0.00000000000E+00 0. -1.
         11    1    3    3    0    0 -0.21572326081E+01 -0.52544004666E+01  0.28073786687E+01  0.63359097247E+01  0.51100000000E-03 0. -1.
        -11    1    3    3    0    0  0.26553593587E+01 -0.11800209785E+01  0.69356314796E+00  0.29873755932E+01  0.51100000000E-03 0.  1.
        -12    1    3    3    0    0  0.17263679355E+01 -0.64742988262E+01  0.37875864245E+02  0.38463982943E+02  0.00000000000E+00 0.  1.
</event>
<event>
 7    1  0.1384886E-010  0.4778727E+02  0.7816164E-02  0.1312668E+00
        -11   -1    0    0    0    0  0.00000000000E+00  0.00000000000E+00  0.45593999997E+02  0.45594000000E+02  0.51100000000E-03 0.  1.
         11   -1    0    0    0    0 -0.00000000000E+00 -0.00000000000E+00 -0.45593999997E+02  0.45594000000E+02  0.51100000000E-03 0. -1.
    9900012    2    1    2    0    0 -0.27162524167E+02 -0.25483862927E+02  0.22279882574E+02  0.47787272398E+02  0.20000006173E+02 0.  0.
         12    1    1    2    0    0  0.27162524167E+02  0.25483862927E+02 -0.22279882574E+02  0.43400727602E+02  0.00000000000E+00 0. -1.
         11    1    3    3    0    0 -0.76152712348E+01 -0.10690696037E+02 -0.83275057436E+00  0.13152064915E+02  0.51100000000E-03 0. -1.
        -11    1    3    3    0    0 -0.10609083939E+02 -0.31979599223E+01  0.86636945461E+01  0.14065532807E+02  0.51100000000E-03 0.  1.
        -12    1    3    3    0    0 -0.89381689936E+01 -0.11595206967E+02  0.14448938603E+02  0.20569674677E+02  0.00000000000E+00 0.  1.
</event>
<event>
 7    1  0.1384886E-010  0.4778727E+02  0.7816164E-02  0.1312668E+00
        -11   -1    0    0    0    0  0.00000000000E+00  0.00000000000E+00  0.45593999997E+02  0.45594000000E+02  0.51100000000E-03 0.  1.
         11   -1    0    0    0    0 -0.00000000000E+00 -0.00000000000E+00 -0.45593999997E+02  0.45594000000E+02  0.51100000000E-03 0. -1.
    9900012    2    1    2    0    0 -0.47715789517E+01 -0.16774928316E+02  0.39742382760E+02  0.47787272205E+02  0.20000005292E+02 0.  0.
         12    1    1    2    0    0  0.47715789517E+01  0.16774928316E+02 -0.39742382760E+02  0.43400727795E+02  0.00000000000E+00 0. -1.
         11    1    3    3    0    0 -0.27200773046E+01 -0.77155147757E+01  0.41338144464E+01  0.91660466361E+01  0.51100000000E-03 0. -1.
        -11    1    3    3    0    0  0.36356185884E+01 -0.83171829178E+01  0.19159222963E+02  0.21200685815E+02  0.51100000000E-03 0.  1.
         12    1    3    3    0    0 -0.56871202355E+01 -0.74223062230E+00  0.16449345350E+02  0.17420539754E+02  0.00000000000E+00 0. -1.
</event>
<event>
 7    1  0.1384886E-010  0.4778726E+02  0.7816164E-02  0.1312668E+00
        -11   -1    0    0    0    0  0.00000000000E+00  0.00000000000E+00  0.45593999997E+02  0.45594000000E+02  0.51100000000E-03 0.  1.
         11   -1    0    0    0    0 -0.00000000000E+00 -0.00000000000E+00 -0.45593999997E+02  0.45594000000E+02  0.51100000000E-03 0. -1.
    9900012    2    1    2    0    0  0.23168504431E+02  0.35748300426E+02  0.83008091023E+01  0.47787262533E+02  0.19999961193E+02 0.  0.
         12    1    1    2    0    0 -0.23168504431E+02 -0.35748300426E+02 -0.83008091023E+01  0.43400737467E+02  0.00000000000E+00 0. -1.
         11    1    3    3    0    0  0.11599361996E+02  0.29898548096E+02  0.81963649491E+01  0.33100585729E+02  0.51100000000E-03 0. -1.
        -11    1    3    3    0    0  0.66063243710E+01  0.67189218135E+01  0.12903175103E+01  0.95106441196E+01  0.51100000000E-03 0.  1.
         12    1    3    3    0    0  0.49628180642E+01 -0.86916948362E+00 -0.11858733570E+01  0.51760326843E+01  0.00000000000E+00 0. -1.
</event>
<event>
 7    1  0.1384886E-010  0.4778728E+02  0.7816164E-02  0.1312668E+00
        -11   -1    0    0    0    0  0.00000000000E+00  0.00000000000E+00  0.45593999997E+02  0.45594000000E+02  0.51100000000E-03 0.  1.
         11   -1    0    0    0    0 -0.00000000000E+00 -0.00000000000E+00 -0.45593999997E+02  0.45594000000E+02  0.51100000000E-03 0. -1.
    9900012    2    1    2    0    0  0.63239291256E+01 -0.15822474302E+02  0.39915913247E+02  0.47787275318E+02  0.20000019483E+02 0.  0.
         12    1    1    2    0    0 -0.63239291256E+01  0.15822474302E+02 -0.39915913247E+02  0.43400724682E+02  0.00000000000E+00 0. -1.
         11    1    3    3    0    0  0.36003979797E+01 -0.38535449220E+01  0.26856116113E+01  0.59182078424E+01  0.51100000000E-03 0. -1.
        -11    1    3    3    0    0  0.11188124298E+00 -0.16011490200E+01  0.27077029351E+02  0.27124559247E+02  0.51100000000E-03 0.  1.
        -12    1    3    3    0    0  0.26116499030E+01 -0.10367780360E+02  0.10153272284E+02  0.14744508228E+02  0.00000000000E+00 0.  1.
</event>
<event>
 7    1  0.1384886E-010  0.4778727E+02  0.7816164E-02  0.1312668E+00
        -11   -1    0    0    0    0  0.00000000000E+00  0.00000000000E+00  0.45593999997E+02  0.45594000000E+02  0.51100000000E-03 0.  1.
         11   -1    0    0    0    0 -0.00000000000E+00 -0.00000000000E+00 -0.45593999997E+02  0.45594000000E+02  0.51100000000E-03 0. -1.
    9900012    2    1    2    0    0  0.12357660194E+02  0.63841216426E+01  0.41111487851E+02  0.47787271804E+02  0.20000003464E+02 0.  0.
         12    1    1    2    0    0 -0.12357660194E+02 -0.63841216426E+01 -0.41111487851E+02  0.43400728196E+02  0.00000000000E+00 0. -1.
         11    1    3    3    0    0  0.11810136962E+02 -0.18510605773E+00  0.94388537669E+01  0.15119707669E+02  0.51100000000E-03 0.  1.
        -11    1    3    3    0    0  0.17646920831E+01  0.62762568989E+01  0.23041653373E+02  0.23946259190E+02  0.51100000000E-03 0. -1.
        -12    1    3    3    0    0 -0.12171688506E+01  0.29297080143E+00  0.86309807113E+01  0.87213049448E+01  0.00000000000E+00 0.  1.
</event>
<event>
 7    1  0.1384886E-010  0.4778727E+02  0.7816164E-02  0.1312668E+00
        -11   -1    0    0    0    0  0.00000000000E+00  0.00000000000E+00  0.45593999997E+02  0.45594000000E+02  0.51100000000E-03 0.  1.
         11   -1    0    0    0    0 -0.00000000000E+00 -0.00000000000E+00 -0.45593999997E+02  0.45594000000E+02  0.51100000000E-03 0. -1.
    9900012    2    1    2    0    0  0.41225662381E+02  0.60825486980E+00  0.13553529994E+02  0.47787269729E+02  0.19999994004E+02 0.  0.
         12    1    1    2    0    0 -0.41225662381E+02 -0.60825486980E+00 -0.13553529994E+02  0.43400730271E+02  0.00000000000E+00 0. -1.
         11    1    3    3    0    0 -0.18758627446E+01  0.27059507905E+00  0.17732502887E+01  0.25954767541E+01  0.51100000000E-03 0. -1.
        -11    1    3    3    0    0  0.27522470403E+02 -0.85536061316E+00  0.10659473138E+02  0.29526977270E+02  0.51100000000E-03 0.  1.
        -12    1    3    3    0    0  0.15579054723E+02  0.11930204039E+01  0.11208065681E+01  0.15664815706E+02  0.00000000000E+00 0.  1.
</event>
<event>
 7    1  0.1384886E-010  0.4778728E+02  0.7816164E-02  0.1312668E+00
        -11   -1    0    0    0    0  0.00000000000E+00  0.00000000000E+00  0.45593999997E+02  0.45594000000E+02  0.51100000000E-03 0. -1.
         11   -1    0    0    0    0 -0.00000000000E+00 -0.00000000000E+00 -0.45593999997E+02  0.45594000000E+02  0.51100000000E-03 0.  1.
    9900012    2    1    2    0    0 -0.19424768310E+02 -0.13437615418E+02 -0.36410599892E+02  0.47787275161E+02  0.20000018769E+02 0.  0.
         12    1    1    2    0    0  0.19424768310E+02  0.13437615418E+02  0.36410599892E+02  0.43400724839E+02  0.00000000000E+00 0. -1.
         11    1    3    3    0    0  0.21254617229E+01  0.70017181800E+00 -0.16170827099E+00  0.22436528110E+01  0.51100000000E-03 0. -1.
        -11    1    3    3    0    0 -0.11226795433E+02 -0.78485958213E+01 -0.11065687899E+02  0.17609396384E+02  0.51100000000E-03 0.  1.
         12    1    3    3    0    0 -0.10323434600E+02 -0.62891914148E+01 -0.25183203723E+02  0.27934225966E+02  0.00000000000E+00 0. -1.
</event>
<event>
 7    1  0.1384886E-010  0.4778727E+02  0.7816164E-02  0.1312668E+00
        -11   -1    0    0    0    0  0.00000000000E+00  0.00000000000E+00  0.45593999997E+02  0.45594000000E+02  0.51100000000E-03 0.  1.
         11   -1    0    0    0    0 -0.00000000000E+00 -0.00000000000E+00 -0.45593999997E+02  0.45594000000E+02  0.51100000000E-03 0. -1.
    9900012    2    1    2    0    0 -0.28151612276E+02  0.31183572905E+02  0.10894712250E+02  0.47787271344E+02  0.20000001366E+02 0.  0.
         12    1    1    2    0    0  0.28151612276E+02 -0.31183572905E+02 -0.10894712250E+02  0.43400728656E+02  0.00000000000E+00 0. -1.
         11    1    3    3    0    0 -0.17438775520E+01 -0.38693414397E+00 -0.20593741791E+01  0.27261418192E+01  0.51100000000E-03 0. -1.
        -11    1    3    3    0    0 -0.73308943208E+01  0.18845548383E+02  0.64561125830E+01  0.21226824901E+02  0.51100000000E-03 0.  1.
        -12    1    3    3    0    0 -0.19076840403E+02  0.12724958666E+02  0.64979738462E+01  0.23834304624E+02  0.00000000000E+00 0.  1.
</event>
<event>
 7    1  0.1384886E-010  0.4778727E+02  0.7816164E-02  0.1312668E+00
        -11   -1    0    0    0    0  0.00000000000E+00  0.00000000000E+00  0.45593999997E+02  0.45594000000E+02  0.51100000000E-03 0.  1.
         11   -1    0    0    0    0 -0.00000000000E+00 -0.00000000000E+00 -0.45593999997E+02  0.45594000000E+02  0.51100000000E-03 0. -1.
    9900012    2    1    2    0    0 -0.36379409421E+02 -0.83404525515E+01  0.22149465546E+02  0.47787269562E+02  0.19999993241E+02 0.  0.
         12    1    1    2    0    0  0.36379409421E+02  0.83404525515E+01 -0.22149465546E+02  0.43400730438E+02  0.00000000000E+00 0. -1.
         11    1    3    3    0    0 -0.29699261061E+01 -0.51499526756E+01  0.52102330229E+01  0.79049985484E+01  0.51100000000E-03 0. -1.
        -11    1    3    3    0    0 -0.18424374487E+02 -0.51165168317E+01  0.30569085158E+01  0.19364426397E+02  0.51100000000E-03 0.  1.
         12    1    3    3    0    0 -0.14985108828E+02  0.19260169558E+01  0.13882324007E+02  0.20517844617E+02  0.00000000000E+00 0. -1.
</event>
<event>
 7    1  0.1384886E-010  0.4778727E+02  0.7816164E-02  0.1312668E+00
        -11   -1    0    0    0    0  0.00000000000E+00  0.00000000000E+00  0.45593999997E+02  0.45594000000E+02  0.51100000000E-03 0. -1.
         11   -1    0    0    0    0 -0.00000000000E+00 -0.00000000000E+00 -0.45593999997E+02  0.45594000000E+02  0.51100000000E-03 0.  1.
    9900012    2    1    2    0    0  0.31254096851E+01 -0.28192744669E+02 -0.32848506703E+02  0.47787269242E+02  0.19999991784E+02 0.  0.
         12    1    1    2    0    0 -0.31254096851E+01  0.28192744669E+02  0.32848506703E+02  0.43400730758E+02  0.00000000000E+00 0. -1.
         11    1    3    3    0    0  0.59621719487E+00 -0.27254411301E+00  0.11436114664E+01  0.13181815824E+01  0.51100000000E-03 0. -1.
        -11    1    3    3    0    0 -0.41007021685E+01 -0.22656995257E+02 -0.22475717548E+02  0.32176281201E+02  0.51100000000E-03 0.  1.
         12    1    3    3    0    0  0.66298946588E+01 -0.52632052989E+01 -0.11516400622E+02  0.14292806459E+02  0.00000000000E+00 0. -1.
</event>
<event>
 7    1  0.1384886E-010  0.4778727E+02  0.7816164E-02  0.1312668E+00
        -11   -1    0    0    0    0  0.00000000000E+00  0.00000000000E+00  0.45593999997E+02  0.45594000000E+02  0.51100000000E-03 0. -1.
         11   -1    0    0    0    0 -0.00000000000E+00 -0.00000000000E+00 -0.45593999997E+02  0.45594000000E+02  0.51100000000E-03 0.  1.
    9900012    2    1    2    0    0 -0.40970230686E+02 -0.78742198823E+01 -0.11960777177E+02  0.47787270376E+02  0.19999996954E+02 0.  0.
         12    1    1    2    0    0  0.40970230686E+02  0.78742198823E+01  0.11960777177E+02  0.43400729624E+02  0.00000000000E+00 0. -1.
         11    1    3    3    0    0 -0.50867602802E+01 -0.36485396076E+00 -0.78889794992E+01  0.93938408737E+01  0.51100000000E-03 0. -1.
        -11    1    3    3    0    0 -0.78028822291E+01 -0.30803197984E+01 -0.53281786203E+01  0.99379489239E+01  0.51100000000E-03 0.  1.
        -12    1    3    3    0    0 -0.28080588176E+02 -0.44290461231E+01  0.12563809430E+01  0.28455480579E+02  0.00000000000E+00 0.  1.
</event>
<event>
 7    1  0.1384886E-010  0.4778727E+02  0.7816164E-02  0.1312668E+00
        -11   -1    0    0    0    0  0.00000000000E+00  0.00000000000E+00  0.45593999997E+02  0.45594000000E+02  0.51100000000E-03 0. -1.
         11   -1    0    0    0    0 -0.00000000000E+00 -0.00000000000E+00 -0.45593999997E+02  0.45594000000E+02  0.51100000000E-03 0.  1.
    9900012    2    1    2    0    0  0.38944090959E+02 -0.19128296560E+02  0.10436156437E+01  0.47787273238E+02  0.20000010000E+02 0.  0.
         12    1    1    2    0    0 -0.38944090959E+02  0.19128296560E+02 -0.10436156437E+01  0.43400726762E+02  0.00000000000E+00 0. -1.
         11    1    3    3    0    0  0.36708116185E+00 -0.73528807247E+01 -0.47943310972E+00  0.73776324047E+01  0.51100000000E-03 0. -1.
        -11    1    3    3    0    0  0.14092628481E+02 -0.33999599629E+01  0.19394946140E+00  0.14498259272E+02  0.51100000000E-03 0.  1.
         12    1    3    3    0    0  0.24484381316E+02 -0.83754558724E+01  0.13290992921E+01  0.25911381561E+02  0.00000000000E+00 0. -1.
</event>
<event>
 7    1  0.1384886E-010  0.4778730E+02  0.7816164E-02  0.1312668E+00
        -11   -1    0    0    0    0  0.00000000000E+00  0.00000000000E+00  0.45593999997E+02  0.45594000000E+02  0.51100000000E-03 0.  1.
         11   -1    0    0    0    0 -0.00000000000E+00 -0.00000000000E+00 -0.45593999997E+02  0.45594000000E+02  0.51100000000E-03 0. -1.
    9900012    2    1    2    0    0 -0.30307617971E+02 -0.13032783084E+02  0.28199565328E+02  0.47787301542E+02  0.20000139048E+02 0.  0.
         12    1    1    2    0    0  0.30307617971E+02  0.13032783084E+02 -0.28199565328E+02  0.43400698458E+02  0.00000000000E+00 0. -1.
         11    1    3    3    0    0 -0.71045922555E+01 -0.95980138913E+01  0.47779448415E+01  0.12861798433E+02  0.51100000000E-03 0. -1.
        -11    1    3    3    0    0 -0.20590436143E+02 -0.60698994286E+01  0.16511524894E+02  0.27082100994E+02  0.51100000000E-03 0.  1.
         12    1    3    3    0    0 -0.26125895723E+01  0.26351302359E+01  0.69100955924E+01  0.78434021145E+01  0.00000000000E+00 0. -1.
</event>
<event>
 7    1  0.1384886E-010  0.4778727E+02  0.7816164E-02  0.1312668E+00
        -11   -1    0    0    0    0  0.00000000000E+00  0.00000000000E+00  0.45593999997E+02  0.45594000000E+02  0.51100000000E-03 0.  1.
         11   -1    0    0    0    0 -0.00000000000E+00 -0.00000000000E+00 -0.45593999997E+02  0.45594000000E+02  0.51100000000E-03 0. -1.
    9900012    2    1    2    0    0  0.14620585579E+01  0.15522086215E+02  0.40503713943E+02  0.47787267069E+02  0.19999981876E+02 0.  0.
         12    1    1    2    0    0 -0.14620585579E+01 -0.15522086215E+02 -0.40503713943E+02  0.43400732931E+02  0.00000000000E+00 0. -1.
         11    1    3    3    0    0 -0.75069002256E+00  0.13961924643E+00 -0.14580648859E+01  0.16458986957E+01  0.51100000000E-03 0. -1.
        -11    1    3    3    0    0  0.21583199017E+01  0.12291894628E+02  0.17551239442E+02  0.21535900830E+02  0.51100000000E-03 0.  1.
        -12    1    3    3    0    0  0.54428678831E-01  0.30905723412E+01  0.24410539387E+02  0.24605467544E+02  0.00000000000E+00 0.  1.
</event>
<event>
 7    1  0.1384886E-010  0.4778727E+02  0.7816164E-02  0.1312668E+00
        -11   -1    0    0    0    0  0.00000000000E+00  0.00000000000E+00  0.45593999997E+02  0.45594000000E+02  0.51100000000E-03 0.  1.
         11   -1    0    0    0    0 -0.00000000000E+00 -0.00000000000E+00 -0.45593999997E+02  0.45594000000E+02  0.51100000000E-03 0. -1.
    9900012    2    1    2    0    0 -0.64763693149E+01  0.26453323389E+02  0.33792039430E+02  0.47787267210E+02  0.19999982518E+02 0.  0.
         12    1    1    2    0    0  0.64763693149E+01 -0.26453323389E+02 -0.33792039430E+02  0.43400732790E+02  0.00000000000E+00 0. -1.
         11    1    3    3    0    0  0.10724111538E+01  0.11344965014E+02  0.27317820170E+01  0.11718401346E+02  0.51100000000E-03 0. -1.
        -11    1    3    3    0    0 -0.34588464703E+01  0.12782308838E+02  0.19335748192E+02  0.23435490107E+02  0.51100000000E-03 0.  1.
        -12    1    3    3    0    0 -0.40899339984E+01  0.23260495374E+01  0.11724509221E+02  0.12633375758E+02  0.00000000000E+00 0.  1.
</event>
<event>
 7    1  0.1384886E-010  0.4778727E+02  0.7816164E-02  0.1312668E+00
        -11   -1    0    0    0    0  0.00000000000E+00  0.00000000000E+00  0.45593999997E+02  0.45594000000E+02  0.51100000000E-03 0.  1.
         11   -1    0    0    0    0 -0.00000000000E+00 -0.00000000000E+00 -0.45593999997E+02  0.45594000000E+02  0.51100000000E-03 0. -1.
    9900012    2    1    2    0    0 -0.19867858056E+02  0.12946644793E+02  0.36349361316E+02  0.47787268863E+02  0.19999990056E+02 0.  0.
         12    1    1    2    0    0  0.19867858056E+02 -0.12946644793E+02 -0.36349361316E+02  0.43400731137E+02  0.00000000000E+00 0. -1.
         11    1    3    3    0    0  0.57971552474E+00 -0.24075086296E+01  0.89283504027E+01  0.92653984839E+01  0.51100000000E-03 0. -1.
        -11    1    3    3    0    0 -0.95937730584E+01  0.86809543134E+01  0.19870465722E+02  0.23711492099E+02  0.51100000000E-03 0.  1.
        -12    1    3    3    0    0 -0.10853800522E+02  0.66731991094E+01  0.75505451908E+01  0.14810378280E+02  0.00000000000E+00 0.  1.
</event>
<event>
 7    1  0.1384886E-010  0.4778727E+02  0.7816164E-02  0.1312668E+00
        -11   -1    0    0    0    0  0.00000000000E+00  0.00000000000E+00  0.45593999997E+02  0.45594000000E+02  0.51100000000E-03 0.  1.
         11   -1    0    0    0    0 -0.00000000000E+00 -0.00000000000E+00 -0.45593999997E+02  0.45594000000E+02  0.51100000000E-03 0. -1.
    9900012    2    1    2    0    0 -0.28689848204E+02  0.21999636681E+01  0.32491172390E+02  0.47787268285E+02  0.19999987419E+02 0.  0.
         12    1    1    2    0    0  0.28689848204E+02 -0.21999636681E+01 -0.32491172390E+02  0.43400731715E+02  0.00000000000E+00 0. -1.
         11    1    3    3    0    0 -0.33668962694E+01  0.19392751362E-01  0.17680587175E+02  0.17998320190E+02  0.51100000000E-03 0. -1.
        -11    1    3    3    0    0 -0.11039154193E+02 -0.11506599897E+01  0.75471482088E+01  0.13421862391E+02  0.51100000000E-03 0.  1.
         12    1    3    3    0    0 -0.14283797742E+02  0.33312309064E+01  0.72634370065E+01  0.16367085704E+02  0.00000000000E+00 0. -1.
</event>
<event>
 7    1  0.1384886E-010  0.4778727E+02  0.7816164E-02  0.1312668E+00
        -11   -1    0    0    0    0  0.00000000000E+00  0.00000000000E+00  0.45593999997E+02  0.45594000000E+02  0.51100000000E-03 0.  1.
         11   -1    0    0    0    0 -0.00000000000E+00 -0.00000000000E+00 -0.45593999997E+02  0.45594000000E+02  0.51100000000E-03 0. -1.
    9900012    2    1    2    0    0 -0.63942665590E+01  0.35274841872E+01  0.42781931100E+02  0.47787269382E+02  0.19999992420E+02 0.  0.
         12    1    1    2    0    0  0.63942665590E+01 -0.35274841872E+01 -0.42781931100E+02  0.43400730618E+02  0.00000000000E+00 0. -1.
         11    1    3    3    0    0 -0.32658137494E+01 -0.53186974910E+01  0.87411450031E+01  0.10740656343E+02  0.51100000000E-03 0. -1.
        -11    1    3    3    0    0 -0.73023504334E+01  0.44893377856E+01  0.19228951177E+02  0.21053052967E+02  0.51100000000E-03 0.  1.
        -12    1    3    3    0    0  0.41738976239E+01  0.43568438926E+01  0.14811834920E+02  0.15993560072E+02  0.00000000000E+00 0.  1.
</event>
<event>
 7    1  0.1384886E-010  0.4778727E+02  0.7816164E-02  0.1312668E+00
        -11   -1    0    0    0    0  0.00000000000E+00  0.00000000000E+00  0.45593999997E+02  0.45594000000E+02  0.51100000000E-03 0.  1.
         11   -1    0    0    0    0 -0.00000000000E+00 -0.00000000000E+00 -0.45593999997E+02  0.45594000000E+02  0.51100000000E-03 0. -1.
    9900012    2    1    2    0    0  0.18457083120E+02 -0.18046608425E+02  0.34889528601E+02  0.47787271908E+02  0.20000003935E+02 0.  0.
         12    1    1    2    0    0 -0.18457083120E+02  0.18046608425E+02 -0.34889528601E+02  0.43400728092E+02  0.00000000000E+00 0. -1.
         11    1    3    3    0    0  0.25334087824E+01 -0.39889885256E+00 -0.21519764452E+01  0.33478774223E+01  0.51100000000E-03 0. -1.
        -11    1    3    3    0    0  0.34802545345E+01 -0.82630107813E+01  0.13582992608E+02  0.16275355826E+02  0.51100000000E-03 0.  1.
         12    1    3    3    0    0  0.12443419803E+02 -0.93846987908E+01  0.23458512439E+02  0.28164038660E+02  0.00000000000E+00 0. -1.
</event>
<event>
 7    1  0.1384886E-010  0.4778728E+02  0.7816164E-02  0.1312668E+00
        -11   -1    0    0    0    0  0.00000000000E+00  0.00000000000E+00  0.45593999997E+02  0.45594000000E+02  0.51100000000E-03 0.  1.
         11   -1    0    0    0    0 -0.00000000000E+00 -0.00000000000E+00 -0.45593999997E+02  0.45594000000E+02  0.51100000000E-03 0. -1.
    9900012    2    1    2    0    0 -0.28384229723E+02  0.25860768994E+02  0.20228161032E+02  0.47787281473E+02  0.20000047549E+02 0.  0.
         12    1    1    2    0    0  0.28384229723E+02 -0.25860768994E+02 -0.20228161032E+02  0.43400718527E+02  0.00000000000E+00 0. -1.
         11    1    3    3    0    0 -0.18037163425E+02  0.56854882509E+01  0.12705108152E+02  0.22783410950E+02  0.51100000000E-03 0. -1.
        -11    1    3    3    0    0 -0.94541769016E+01  0.13221246764E+02  0.77113661112E+01  0.17990219410E+02  0.51100000000E-03 0.  1.
         12    1    3    3    0    0 -0.89288939595E+00  0.69540339795E+01 -0.18831323189E+00  0.70136511130E+01  0.00000000000E+00 0. -1.
</event>
<event>
 7    1  0.1384886E-010  0.4778727E+02  0.7816164E-02  0.1312668E+00
        -11   -1    0    0    0    0  0.00000000000E+00  0.00000000000E+00  0.45593999997E+02  0.45594000000E+02  0.51100000000E-03 0.  1.
         11   -1    0    0    0    0 -0.00000000000E+00 -0.00000000000E+00 -0.45593999997E+02  0.45594000000E+02  0.51100000000E-03 0. -1.
    9900012    2    1    2    0    0  0.13198895480E+02 -0.21138441546E+01  0.41290969490E+02  0.47787270277E+02  0.19999996503E+02 0.  0.
         12    1    1    2    0    0 -0.13198895480E+02  0.21138441546E+01 -0.41290969490E+02  0.43400729723E+02  0.00000000000E+00 0. -1.
         11    1    3    3    0    0  0.37066297326E+01 -0.13718014128E-02 -0.33240909664E-01  0.37067790703E+01  0.51100000000E-03 0. -1.
        -11    1    3    3    0    0  0.79369686887E+01  0.41033895422E+01  0.23930893162E+02  0.25544489141E+02  0.51100000000E-03 0.  1.
         12    1    3    3    0    0  0.15552970590E+01 -0.62158618954E+01  0.17393317238E+02  0.18536002066E+02  0.00000000000E+00 0. -1.
</event>
<event>
 7    1  0.1384886E-010  0.4778727E+02  0.7816164E-02  0.1312668E+00
        -11   -1    0    0    0    0  0.00000000000E+00  0.00000000000E+00  0.45593999997E+02  0.45594000000E+02  0.51100000000E-03 0. -1.
         11   -1    0    0    0    0 -0.00000000000E+00 -0.00000000000E+00 -0.45593999997E+02  0.45594000000E+02  0.51100000000E-03 0.  1.
    9900012    2    1    2    0    0 -0.10170136935E+02  0.33058380997E+02 -0.26217076639E+02  0.47787270203E+02  0.19999996165E+02 0.  0.
         12    1    1    2    0    0  0.10170136935E+02 -0.33058380997E+02  0.26217076639E+02  0.43400729797E+02  0.00000000000E+00 0. -1.
         11    1    3    3    0    0 -0.12019190434E+02  0.10612602938E+02 -0.54232938256E+01  0.16926322577E+02  0.51100000000E-03 0. -1.
        -11    1    3    3    0    0 -0.50759257300E+00  0.96165434220E+01 -0.10476341970E+02  0.14229873469E+02  0.51100000000E-03 0.  1.
         12    1    3    3    0    0  0.23566460722E+01  0.12829234637E+02 -0.10317440844E+02  0.16631074158E+02  0.00000000000E+00 0. -1.
</event>
<event>
 7    1  0.1384886E-010  0.4778727E+02  0.7816164E-02  0.1312668E+00
        -11   -1    0    0    0    0  0.00000000000E+00  0.00000000000E+00  0.45593999997E+02  0.45594000000E+02  0.51100000000E-03 0.  1.
         11   -1    0    0    0    0 -0.00000000000E+00 -0.00000000000E+00 -0.45593999997E+02  0.45594000000E+02  0.51100000000E-03 0. -1.
    9900012    2    1    2    0    0  0.17432450453E+02  0.26678539660E+02  0.29461647166E+02  0.47787268889E+02  0.19999990174E+02 0.  0.
         12    1    1    2    0    0 -0.17432450453E+02 -0.26678539660E+02 -0.29461647166E+02  0.43400731111E+02  0.00000000000E+00 0. -1.
         11    1    3    3    0    0  0.17406653129E+00 -0.10935004413E+01  0.71165665263E+01  0.72021914551E+01  0.51100000000E-03 0. -1.
        -11    1    3    3    0    0  0.50589133611E+01  0.15608695394E+02  0.13338169343E+02  0.21145466133E+02  0.51100000000E-03 0.  1.
        -12    1    3    3    0    0  0.12199470561E+02  0.12163344707E+02  0.90069112969E+01  0.19439611301E+02  0.00000000000E+00 0.  1.
</event>
<event>
 7    1  0.1384886E-010  0.4778727E+02  0.7816164E-02  0.1312668E+00
        -11   -1    0    0    0    0  0.00000000000E+00  0.00000000000E+00  0.45593999997E+02  0.45594000000E+02  0.51100000000E-03 0.  1.
         11   -1    0    0    0    0 -0.00000000000E+00 -0.00000000000E+00 -0.45593999997E+02  0.45594000000E+02  0.51100000000E-03 0. -1.
    9900012    2    1    2    0    0  0.12491989331E+02 -0.19177374048E+02  0.36875490691E+02  0.47787270898E+02  0.19999999334E+02 0.  0.
         12    1    1    2    0    0 -0.12491989331E+02  0.19177374048E+02 -0.36875490691E+02  0.43400729102E+02  0.00000000000E+00 0. -1.
         11    1    3    3    0    0 -0.94487474023E-01 -0.61401948489E+01  0.37654386032E+00  0.61524552989E+01  0.51100000000E-03 0. -1.
        -11    1    3    3    0    0  0.88249058119E+01 -0.55262725713E+01  0.12854803157E+02  0.16542811598E+02  0.51100000000E-03 0.  1.
        -12    1    3    3    0    0  0.37615709927E+01 -0.75109066281E+01  0.23644143674E+02  0.25092004001E+02  0.00000000000E+00 0.  1.
</event>
<event>
 7    1  0.1898882E-010  0.4778727E+02  0.7816164E-02  0.1312668E+00
        -11   -1    0    0    0    0  0.00000000000E+00  0.00000000000E+00  0.45593999997E+02  0.45594000000E+02  0.51100000000E-03 0. -1.
         11   -1    0    0    0    0 -0.00000000000E+00 -0.00000000000E+00 -0.45593999997E+02  0.45594000000E+02  0.51100000000E-03 0.  1.
    9900012    2    1    2    0    0  0.25899599016E+02  0.33312586840E+02 -0.10154112767E+02  0.47787266398E+02  0.19999978814E+02 0.  0.
         12    1    1    2    0    0 -0.25899599016E+02 -0.33312586840E+02  0.10154112767E+02  0.43400733602E+02  0.00000000000E+00 0. -1.
         11    1    3    3    0    0 -0.52468894544E+00 -0.36084435862E+00 -0.88138474147E+00  0.10873575604E+01  0.51100000000E-03 0. -1.
        -11    1    3    3    0    0  0.27902144210E+02  0.33411135751E+02 -0.10480236556E+02  0.44773530151E+02  0.51100000000E-03 0.  1.
        -12    1    3    3    0    0 -0.14778562483E+01  0.26229544745E+00  0.12075085303E+01  0.19263786863E+01  0.00000000000E+00 0.  1.
</event>
<event>
 7    1  0.1384886E-010  0.4778727E+02  0.7816164E-02  0.1312668E+00
        -11   -1    0    0    0    0  0.00000000000E+00  0.00000000000E+00  0.45593999997E+02  0.45594000000E+02  0.51100000000E-03 0.  1.
         11   -1    0    0    0    0 -0.00000000000E+00 -0.00000000000E+00 -0.45593999997E+02  0.45594000000E+02  0.51100000000E-03 0. -1.
    9900012    2    1    2    0    0  0.37769915980E+01 -0.41161690482E+02  0.13231504276E+02  0.47787272652E+02  0.20000007331E+02 0.  0.
         12    1    1    2    0    0 -0.37769915980E+01  0.41161690482E+02 -0.13231504276E+02  0.43400727348E+02  0.00000000000E+00 0. -1.
         11    1    3    3    0    0 -0.25152452954E+01 -0.67610341520E+01  0.73932436783E+01  0.10329476949E+02  0.51100000000E-03 0. -1.
        -11    1    3    3    0    0  0.81885809978E+01 -0.12104805463E+02  0.27178144396E+01  0.14864914721E+02  0.51100000000E-03 0.  1.
         12    1    3    3    0    0 -0.18963441045E+01 -0.22295850867E+02  0.31204461581E+01  0.22592880982E+02  0.00000000000E+00 0. -1.
</event>
<event>
 7    1  0.1384886E-010  0.4778727E+02  0.7816164E-02  0.1312668E+00
        -11   -1    0    0    0    0  0.00000000000E+00  0.00000000000E+00  0.45593999997E+02  0.45594000000E+02  0.51100000000E-03 0.  1.
         11   -1    0    0    0    0 -0.00000000000E+00 -0.00000000000E+00 -0.45593999997E+02  0.45594000000E+02  0.51100000000E-03 0. -1.
    9900012    2    1    2    0    0 -0.40904354452E+02 -0.34987428812E+01  0.14078910191E+02  0.47787272736E+02  0.20000007712E+02 0.  0.
         12    1    1    2    0    0  0.40904354452E+02  0.34987428812E+01 -0.14078910191E+02  0.43400727264E+02  0.00000000000E+00 0. -1.
         11    1    3    3    0    0 -0.22343845225E+02  0.86113989033E+00  0.56684505853E+01  0.23067733171E+02  0.51100000000E-03 0. -1.
        -11    1    3    3    0    0 -0.12921773913E+02 -0.54773123715E+00 -0.11492065497E+01  0.12984333889E+02  0.51100000000E-03 0.  1.
         12    1    3    3    0    0 -0.56387353140E+01 -0.38121515344E+01  0.95596661559E+01  0.11735205677E+02  0.00000000000E+00 0. -1.
</event>
<event>
 7    1  0.1384886E-010  0.4778727E+02  0.7816164E-02  0.1312668E+00
        -11   -1    0    0    0    0  0.00000000000E+00  0.00000000000E+00  0.45593999997E+02  0.45594000000E+02  0.51100000000E-03 0.  1.
         11   -1    0    0    0    0 -0.00000000000E+00 -0.00000000000E+00 -0.45593999997E+02  0.45594000000E+02  0.51100000000E-03 0. -1.
    9900012    2    1    2    0    0  0.59326251780E+01 -0.13259954784E+02  0.40897440774E+02  0.47787272999E+02  0.20000008912E+02 0.  0.
         12    1    1    2    0    0 -0.59326251780E+01  0.13259954784E+02 -0.40897440774E+02  0.43400727001E+02  0.00000000000E+00 0. -1.
         11    1    3    3    0    0  0.13750862857E+01 -0.14938775727E+01  0.16784091046E+02  0.16906455719E+02  0.51100000000E-03 0. -1.
        -11    1    3    3    0    0  0.94339642619E+01 -0.10584288331E+02  0.16401185399E+02  0.21680076659E+02  0.51100000000E-03 0.  1.
         12    1    3    3    0    0 -0.48764253696E+01 -0.11817888805E+01  0.77121643285E+01  0.92007406209E+01  0.00000000000E+00 0. -1.
</event>
<event>
 7    1  0.1384886E-010  0.4778727E+02  0.7816164E-02  0.1312668E+00
        -11   -1    0    0    0    0  0.00000000000E+00  0.00000000000E+00  0.45593999997E+02  0.45594000000E+02  0.51100000000E-03 0.  1.
         11   -1    0    0    0    0 -0.00000000000E+00 -0.00000000000E+00 -0.45593999997E+02  0.45594000000E+02  0.51100000000E-03 0. -1.
    9900012    2    1    2    0    0  0.39314254074E+02 -0.15517547659E+02  0.98599603515E+01  0.47787266401E+02  0.19999978830E+02 0.  0.
         12    1    1    2    0    0 -0.39314254074E+02  0.15517547659E+02 -0.98599603515E+01  0.43400733599E+02  0.00000000000E+00 0. -1.
         11    1    3    3    0    0  0.38915836211E+01 -0.77863053039E+01  0.69747468610E+00  0.87325508624E+01  0.51100000000E-03 0. -1.
        -11    1    3    3    0    0  0.14962210405E+02 -0.17987757491E+01  0.93795084487E+01  0.17750451076E+02  0.51100000000E-03 0.  1.
         12    1    3    3    0    0  0.20460460048E+02 -0.59324666059E+01 -0.21702278333E+00  0.21304264463E+02  0.00000000000E+00 0. -1.
</event>
<event>
 7    1  0.1384886E-010  0.4778727E+02  0.7816164E-02  0.1312668E+00
        -11   -1    0    0    0    0  0.00000000000E+00  0.00000000000E+00  0.45593999997E+02  0.45594000000E+02  0.51100000000E-03 0.  1.
         11   -1    0    0    0    0 -0.00000000000E+00 -0.00000000000E+00 -0.45593999997E+02  0.45594000000E+02  0.51100000000E-03 0. -1.
    9900012    2    1    2    0    0  0.34229017620E+01 -0.24504461135E+02  0.35657235175E+02  0.47787270832E+02  0.19999999030E+02 0.  0.
         12    1    1    2    0    0 -0.34229017620E+01  0.24504461135E+02 -0.35657235175E+02  0.43400729168E+02  0.00000000000E+00 0. -1.
         11    1    3    3    0    0  0.47125597806E+01 -0.31461375487E+01  0.86477425091E+01  0.10338754854E+02  0.51100000000E-03 0. -1.
        -11    1    3    3    0    0 -0.27400163557E+01 -0.78382231406E+01  0.13549625322E+01  0.84131655966E+01  0.51100000000E-03 0.  1.
         12    1    3    3    0    0  0.14503583371E+01 -0.13520100446E+02  0.25654530134E+02  0.29035350381E+02  0.00000000000E+00 0. -1.
</event>
<event>
 7    1  0.1384886E-010  0.4778729E+02  0.7816164E-02  0.1312668E+00
        -11   -1    0    0    0    0  0.00000000000E+00  0.00000000000E+00  0.45593999997E+02  0.45594000000E+02  0.51100000000E-03 0.  1.
         11   -1    0    0    0    0 -0.00000000000E+00 -0.00000000000E+00 -0.45593999997E+02  0.45594000000E+02  0.51100000000E-03 0. -1.
    9900012    2    1    2    0    0 -0.29902780026E+02  0.10162620112E+01  0.31439023604E+02  0.47787294396E+02  0.20000106467E+02 0.  0.
         12    1    1    2    0    0  0.29902780026E+02 -0.10162620112E+01 -0.31439023604E+02  0.43400705604E+02  0.00000000000E+00 0. -1.
         11    1    3    3    0    0 -0.86799742884E+01  0.85486806973E+01  0.11282401096E+02  0.16604652061E+02  0.51100000000E-03 0. -1.
        -11    1    3    3    0    0 -0.93106608116E+01 -0.28202247598E+01  0.38897949343E+01  0.10477240922E+02  0.51100000000E-03 0.  1.
        -12    1    3    3    0    0 -0.11912144926E+02 -0.47121939263E+01  0.16266827574E+02  0.20705401413E+02  0.00000000000E+00 0.  1.
</event>
<event>
 7    1  0.1384886E-010  0.4778727E+02  0.7816164E-02  0.1312668E+00
        -11   -1    0    0    0    0  0.00000000000E+00  0.00000000000E+00  0.45593999997E+02  0.45594000000E+02  0.51100000000E-03 0.  1.
         11   -1    0    0    0    0 -0.00000000000E+00 -0.00000000000E+00 -0.45593999997E+02  0.45594000000E+02  0.51100000000E-03 0. -1.
    9900012    2    1    2    0    0  0.17505835094E+02 -0.24267984593E+02  0.31436191913E+02  0.47787268433E+02  0.19999988093E+02 0.  0.
         12    1    1    2    0    0 -0.17505835094E+02  0.24267984593E+02 -0.31436191913E+02  0.43400731567E+02  0.00000000000E+00 0. -1.
         11    1    3    3    0    0 -0.24399662528E+01 -0.30286015514E+01  0.30202079896E+01  0.49241770108E+01  0.51100000000E-03 0. -1.
        -11    1    3    3    0    0  0.14406360606E+02 -0.12568172599E+02  0.26036923542E+02  0.32302067677E+02  0.51100000000E-03 0.  1.
         12    1    3    3    0    0  0.55394407416E+01 -0.86712104419E+01  0.23790603818E+01  0.10561023746E+02  0.00000000000E+00 0. -1.
</event>
<event>
 7    1  0.1384886E-010  0.4778727E+02  0.7816164E-02  0.1312668E+00
        -11   -1    0    0    0    0  0.00000000000E+00  0.00000000000E+00  0.45593999997E+02  0.45594000000E+02  0.51100000000E-03 0. -1.
         11   -1    0    0    0    0 -0.00000000000E+00 -0.00000000000E+00 -0.45593999997E+02  0.45594000000E+02  0.51100000000E-03 0.  1.
    9900012    2    1    2    0    0 -0.86947687549E+01 -0.38386351029E+02 -0.18289678355E+02  0.47787270936E+02  0.19999999504E+02 0.  0.
         12    1    1    2    0    0  0.86947687549E+01  0.38386351029E+02  0.18289678355E+02  0.43400729064E+02  0.00000000000E+00 0. -1.
         11    1    3    3    0    0 -0.31407719743E+01 -0.18433130262E+02 -0.43995049346E+01  0.19209382702E+02  0.51100000000E-03 0. -1.
        -11    1    3    3    0    0 -0.10417408939E+01 -0.15983134900E+02 -0.15569725338E+02  0.22337461196E+02  0.51100000000E-03 0.  1.
        -12    1    3    3    0    0 -0.45122558867E+01 -0.39700858667E+01  0.16795519175E+01  0.62404270383E+01  0.00000000000E+00 0.  1.
</event>
<event>
 7    1  0.1384886E-010  0.4778726E+02  0.7816164E-02  0.1312668E+00
        -11   -1    0    0    0    0  0.00000000000E+00  0.00000000000E+00  0.45593999997E+02  0.45594000000E+02  0.51100000000E-03 0.  1.
         11   -1    0    0    0    0 -0.00000000000E+00 -0.00000000000E+00 -0.45593999997E+02  0.45594000000E+02  0.51100000000E-03 0. -1.
    9900012    2    1    2    0    0  0.42667385809E+02 -0.24160772049E+01 -0.75683971362E+01  0.47787264107E+02  0.19999968369E+02 0.  0.
         12    1    1    2    0    0 -0.42667385809E+02  0.24160772049E+01  0.75683971362E+01  0.43400735893E+02  0.00000000000E+00 0. -1.
         11    1    3    3    0    0  0.55728358480E+01  0.10269796495E+01  0.31219603031E+01  0.64697622046E+01  0.51100000000E-03 0. -1.
        -11    1    3    3    0    0  0.34362934443E+02 -0.49713510758E+00 -0.12929385770E+02  0.36718216507E+02  0.51100000000E-03 0.  1.
        -12    1    3    3    0    0  0.27316155184E+01 -0.29459217468E+01  0.22390283308E+01  0.45992853950E+01  0.00000000000E+00 0.  1.
</event>
<event>
 7    1  0.1384886E-010  0.4778728E+02  0.7816164E-02  0.1312668E+00
        -11   -1    0    0    0    0  0.00000000000E+00  0.00000000000E+00  0.45593999997E+02  0.45594000000E+02  0.51100000000E-03 0.  1.
         11   -1    0    0    0    0 -0.00000000000E+00 -0.00000000000E+00 -0.45593999997E+02  0.45594000000E+02  0.51100000000E-03 0. -1.
    9900012    2    1    2    0    0  0.12025526547E+02  0.32806639391E+02  0.25743605875E+02  0.47787284334E+02  0.20000060592E+02 0.  0.
         12    1    1    2    0    0 -0.12025526547E+02 -0.32806639391E+02 -0.25743605875E+02  0.43400715666E+02  0.00000000000E+00 0. -1.
         11    1    3    3    0    0  0.25082381982E+01  0.15468063042E+01 -0.10442784145E+01  0.31264014889E+01  0.51100000000E-03 0. -1.
        -11    1    3    3    0    0  0.12173415419E+02  0.16168481375E+02  0.13053617833E+02  0.24083371270E+02  0.51100000000E-03 0.  1.
        -12    1    3    3    0    0 -0.26561270706E+01  0.15091351712E+02  0.13734266456E+02  0.20577511575E+02  0.00000000000E+00 0.  1.
</event>
<event>
 7    1  0.1384886E-010  0.4778728E+02  0.7816164E-02  0.1312668E+00
        -11   -1    0    0    0    0  0.00000000000E+00  0.00000000000E+00  0.45593999997E+02  0.45594000000E+02  0.51100000000E-03 0. -1.
         11   -1    0    0    0    0 -0.00000000000E+00 -0.00000000000E+00 -0.45593999997E+02  0.45594000000E+02  0.51100000000E-03 0.  1.
    9900012    2    1    2    0    0  0.31203518790E+02 -0.13535226643E+02 -0.26958501940E+02  0.47787276826E+02  0.20000026362E+02 0.  0.
         12    1    1    2    0    0 -0.31203518790E+02  0.13535226643E+02  0.26958501940E+02  0.43400723174E+02  0.00000000000E+00 0. -1.
         11    1    3    3    0    0  0.86030257572E+01 -0.18004220362E+01 -0.14385964888E+01  0.89063534517E+01  0.51100000000E-03 0. -1.
        -11    1    3    3    0    0  0.19995144070E+02 -0.54854156080E+01 -0.12512657442E+02  0.24216980970E+02  0.51100000000E-03 0.  1.
        -12    1    3    3    0    0  0.26053489627E+01 -0.62493889992E+01 -0.13007248009E+02  0.14663942405E+02  0.00000000000E+00 0.  1.
</event>
<event>
 7    1  0.1384886E-010  0.4778727E+02  0.7816164E-02  0.1312668E+00
        -11   -1    0    0    0    0  0.00000000000E+00  0.00000000000E+00  0.45593999997E+02  0.45594000000E+02  0.51100000000E-03 0.  1.
         11   -1    0    0    0    0 -0.00000000000E+00 -0.00000000000E+00 -0.45593999997E+02  0.45594000000E+02  0.51100000000E-03 0. -1.
    9900012    2    1    2    0    0 -0.34486242084E+02 -0.13314760627E+02  0.22738506889E+02  0.47787269140E+02  0.19999991317E+02 0.  0.
         12    1    1    2    0    0  0.34486242084E+02  0.13314760627E+02 -0.22738506889E+02  0.43400730860E+02  0.00000000000E+00 0. -1.
         11    1    3    3    0    0 -0.50542153129E+01  0.21773210714E+01  0.31355571340E+01  0.63338407210E+01  0.51100000000E-03 0. -1.
        -11    1    3    3    0    0 -0.29608552592E+02 -0.17205674331E+02  0.20038268698E+02  0.39676615638E+02  0.51100000000E-03 0.  1.
        -12    1    3    3    0    0  0.17652582093E+00  0.17135926329E+01 -0.43531894323E+00  0.17768127812E+01  0.00000000000E+00 0.  1.
</event>
<event>
 7    1  0.1384886E-010  0.4778727E+02  0.7816164E-02  0.1312668E+00
        -11   -1    0    0    0    0  0.00000000000E+00  0.00000000000E+00  0.45593999997E+02  0.45594000000E+02  0.51100000000E-03 0.  1.
         11   -1    0    0    0    0 -0.00000000000E+00 -0.00000000000E+00 -0.45593999997E+02  0.45594000000E+02  0.51100000000E-03 0. -1.
    9900012    2    1    2    0    0  0.81298234020E+01  0.22383324494E+02  0.36283825224E+02  0.47787271702E+02  0.20000002998E+02 0.  0.
         12    1    1    2    0    0 -0.81298234020E+01 -0.22383324494E+02 -0.36283825224E+02  0.43400728298E+02  0.00000000000E+00 0. -1.
         11    1    3    3    0    0  0.11570799445E+02  0.45348523571E+01  0.12685751283E+02  0.17758844883E+02  0.51100000000E-03 0. -1.
        -11    1    3    3    0    0  0.26057800201E+00  0.77551296590E+01  0.11090964815E+02  0.13535857480E+02  0.51100000000E-03 0.  1.
         12    1    3    3    0    0 -0.37015540454E+01  0.10093342478E+02  0.12507109125E+02  0.16492569339E+02  0.00000000000E+00 0. -1.
</event>
<event>
 7    1  0.1384886E-010  0.4778727E+02  0.7816164E-02  0.1312668E+00
        -11   -1    0    0    0    0  0.00000000000E+00  0.00000000000E+00  0.45593999997E+02  0.45594000000E+02  0.51100000000E-03 0. -1.
         11   -1    0    0    0    0 -0.00000000000E+00 -0.00000000000E+00 -0.45593999997E+02  0.45594000000E+02  0.51100000000E-03 0.  1.
    9900012    2    1    2    0    0 -0.14745553811E+02  0.28859399533E+02 -0.28867401966E+02  0.47787271954E+02  0.20000004148E+02 0.  0.
         12    1    1    2    0    0  0.14745553811E+02 -0.28859399533E+02  0.28867401966E+02  0.43400728046E+02  0.00000000000E+00 0. -1.
         11    1    3    3    0    0  0.40588204416E+00 -0.21014866821E+01 -0.61961344144E+00  0.22282072585E+01  0.51100000000E-03 0. -1.
        -11    1    3    3    0    0 -0.15215413679E+01  0.13464891856E+02 -0.10059883854E+02  0.16876601087E+02  0.51100000000E-03 0.  1.
        -12    1    3    3    0    0 -0.13629894488E+02  0.17495994359E+02 -0.18187904671E+02  0.28682463609E+02  0.00000000000E+00 0.  1.
</event>
<event>
 7    1  0.1384886E-010  0.4778727E+02  0.7816164E-02  0.1312668E+00
        -11   -1    0    0    0    0  0.00000000000E+00  0.00000000000E+00  0.45593999997E+02  0.45594000000E+02  0.51100000000E-03 0.  1.
         11   -1    0    0    0    0 -0.00000000000E+00 -0.00000000000E+00 -0.45593999997E+02  0.45594000000E+02  0.51100000000E-03 0. -1.
    9900012    2    1    2    0    0  0.17489953533E+02 -0.18639029845E+02  0.35075797342E+02  0.47787268815E+02  0.19999989837E+02 0.  0.
         12    1    1    2    0    0 -0.17489953533E+02  0.18639029845E+02 -0.35075797342E+02  0.43400731185E+02  0.00000000000E+00 0. -1.
         11    1    3    3    0    0  0.13920451919E+02 -0.12331965980E+02  0.10183412515E+02  0.21202788904E+02  0.51100000000E-03 0. -1.
        -11    1    3    3    0    0  0.48308358739E+01 -0.61286077965E+01  0.18709223921E+02  0.20271454530E+02  0.51100000000E-03 0.  1.
        -12    1    3    3    0    0 -0.12613342600E+01 -0.17845606846E+00  0.61831609059E+01  0.63130253818E+01  0.00000000000E+00 0.  1.
</event>
<event>
 7    1  0.1384886E-010  0.4778727E+02  0.7816164E-02  0.1312668E+00
        -11   -1    0    0    0    0  0.00000000000E+00  0.00000000000E+00  0.45593999997E+02  0.45594000000E+02  0.51100000000E-03 0.  1.
         11   -1    0    0    0    0 -0.00000000000E+00 -0.00000000000E+00 -0.45593999997E+02  0.45594000000E+02  0.51100000000E-03 0. -1.
    9900012    2    1    2    0    0  0.83595697829E+01 -0.20845749493E+02  0.37137527542E+02  0.47787266932E+02  0.19999981250E+02 0.  0.
         12    1    1    2    0    0 -0.83595697829E+01  0.20845749493E+02 -0.37137527542E+02  0.43400733068E+02  0.00000000000E+00 0. -1.
         11    1    3    3    0    0 -0.28219296208E+01  0.80114831896E+00  0.27552675547E+01  0.40245030715E+01  0.51100000000E-03 0. -1.
        -11    1    3    3    0    0  0.96983121076E+00 -0.11606869140E+02  0.21725119983E+02  0.24650371647E+02  0.51100000000E-03 0.  1.
         12    1    3    3    0    0  0.10211668193E+02 -0.10040028672E+02  0.12657140004E+02  0.19112392213E+02  0.00000000000E+00 0. -1.
</event>
<event>
 7    1  0.1384886E-010  0.4778727E+02  0.7816164E-02  0.1312668E+00
        -11   -1    0    0    0    0  0.00000000000E+00  0.00000000000E+00  0.45593999997E+02  0.45594000000E+02  0.51100000000E-03 0. -1.
         11   -1    0    0    0    0 -0.00000000000E+00 -0.00000000000E+00 -0.45593999997E+02  0.45594000000E+02  0.51100000000E-03 0.  1.
    9900012    2    1    2    0    0  0.25581427368E+02 -0.33209820729E+02 -0.11239293629E+02  0.47787270279E+02  0.19999996511E+02 0.  0.
         12    1    1    2    0    0 -0.25581427368E+02  0.33209820729E+02  0.11239293629E+02  0.43400729721E+02  0.00000000000E+00 0. -1.
         11    1    3    3    0    0  0.29613024910E+01 -0.10713234175E+02 -0.40744133723E+01  0.11838223833E+02  0.51100000000E-03 0. -1.
        -11    1    3    3    0    0 -0.20819188632E+01 -0.47822116508E+00 -0.37344670602E+00  0.21685350675E+01  0.51100000000E-03 0.  1.
         12    1    3    3    0    0  0.24702043740E+02 -0.22018365389E+02 -0.67914335511E+01  0.33780511379E+02  0.00000000000E+00 0. -1.
</event>
<event>
 7    1  0.1384886E-010  0.4778727E+02  0.7816164E-02  0.1312668E+00
        -11   -1    0    0    0    0  0.00000000000E+00  0.00000000000E+00  0.45593999997E+02  0.45594000000E+02  0.51100000000E-03 0.  1.
         11   -1    0    0    0    0 -0.00000000000E+00 -0.00000000000E+00 -0.45593999997E+02  0.45594000000E+02  0.51100000000E-03 0. -1.
    9900012    2    1    2    0    0 -0.25358316109E+01 -0.17925954293E+02  0.39444305492E+02  0.47787268267E+02  0.19999987336E+02 0.  0.
         12    1    1    2    0    0  0.25358316109E+01  0.17925954293E+02 -0.39444305492E+02  0.43400731733E+02  0.00000000000E+00 0. -1.
         11    1    3    3    0    0 -0.21970856949E+01 -0.86495043075E+01  0.46093101936E+01  0.10044244672E+02  0.51100000000E-03 0. -1.
        -11    1    3    3    0    0  0.38926510598E+01 -0.93268692135E+01  0.21589828536E+02  0.23838286811E+02  0.51100000000E-03 0.  1.
         12    1    3    3    0    0 -0.42313969759E+01  0.50419228438E-01  0.13245166762E+02  0.13904736784E+02  0.00000000000E+00 0. -1.
</event>
<event>
 7    1  0.1384886E-010  0.4778727E+02  0.7816164E-02  0.1312668E+00
        -11   -1    0    0    0    0  0.00000000000E+00  0.00000000000E+00  0.45593999997E+02  0.45594000000E+02  0.51100000000E-03 0. -1.
         11   -1    0    0    0    0 -0.00000000000E+00 -0.00000000000E+00 -0.45593999997E+02  0.45594000000E+02  0.51100000000E-03 0.  1.
    9900012    2    1    2    0    0 -0.35565771621E+02 -0.37839953925E+01 -0.24584158348E+02  0.47787267589E+02  0.19999984245E+02 0.  0.
         12    1    1    2    0    0  0.35565771621E+02  0.37839953925E+01  0.24584158348E+02  0.43400732411E+02  0.00000000000E+00 0. -1.
         11    1    3    3    0    0 -0.20336644822E+00 -0.86658437389E-01  0.17156852184E+01  0.17298680952E+01  0.51100000000E-03 0. -1.
        -11    1    3    3    0    0 -0.21650624794E+02  0.40651910449E+01 -0.14511948105E+02  0.26379385328E+02  0.51100000000E-03 0.  1.
         12    1    3    3    0    0 -0.13711780379E+02 -0.77625280000E+01 -0.11787895461E+02  0.19678014166E+02  0.00000000000E+00 0. -1.
</event>
<event>
 7    1  0.1384886E-010  0.4778726E+02  0.7816164E-02  0.1312668E+00
        -11   -1    0    0    0    0  0.00000000000E+00  0.00000000000E+00  0.45593999997E+02  0.45594000000E+02  0.51100000000E-03 0. -1.
         11   -1    0    0    0    0 -0.00000000000E+00 -0.00000000000E+00 -0.45593999997E+02  0.45594000000E+02  0.51100000000E-03 0.  1.
    9900012    2    1    2    0    0  0.13432187762E+01 -0.84903218689E+01 -0.42540974612E+02  0.47787258957E+02  0.19999944889E+02 0.  0.
         12    1    1    2    0    0 -0.13432187762E+01  0.84903218689E+01  0.42540974612E+02  0.43400741043E+02  0.00000000000E+00 0. -1.
         11    1    3    3    0    0 -0.33107150106E+00 -0.21554117174E+01  0.10793716777E+01  0.24331977909E+01  0.51100000000E-03 0. -1.
        -11    1    3    3    0    0 -0.46105066053E+00 -0.30363594077E+00  0.51643276872E+00  0.75595341247E+00  0.51100000000E-03 0.  1.
        -12    1    3    3    0    0  0.21353409378E+01 -0.60312742108E+01 -0.44136779059E+02  0.44598107754E+02  0.00000000000E+00 0.  1.
</event>
<event>
 7    1  0.1384886E-010  0.4778727E+02  0.7816164E-02  0.1312668E+00
        -11   -1    0    0    0    0  0.00000000000E+00  0.00000000000E+00  0.45593999997E+02  0.45594000000E+02  0.51100000000E-03 0.  1.
         11   -1    0    0    0    0 -0.00000000000E+00 -0.00000000000E+00 -0.45593999997E+02  0.45594000000E+02  0.51100000000E-03 0. -1.
    9900012    2    1    2    0    0  0.34209297257E+02  0.55014764863E+01  0.26135823030E+02  0.47787268350E+02  0.19999987714E+02 0.  0.
         12    1    1    2    0    0 -0.34209297257E+02 -0.55014764863E+01 -0.26135823030E+02  0.43400731650E+02  0.00000000000E+00 0. -1.
         11    1    3    3    0    0  0.30317179522E+00  0.19543721729E+01 -0.28314557790E-01  0.19779498737E+01  0.51100000000E-03 0. -1.
        -11    1    3    3    0    0  0.13396508369E+02  0.71376770142E+01  0.46644777885E+01  0.15879868480E+02  0.51100000000E-03 0.  1.
         12    1    3    3    0    0  0.20509617092E+02 -0.35905727008E+01  0.21499659799E+02  0.29929449996E+02  0.00000000000E+00 0. -1.
</event>
<event>
 7    1  0.1384886E-010  0.4778727E+02  0.7816164E-02  0.1312668E+00
        -11   -1    0    0    0    0  0.00000000000E+00  0.00000000000E+00  0.45593999997E+02  0.45594000000E+02  0.51100000000E-03 0.  1.
         11   -1    0    0    0    0 -0.00000000000E+00 -0.00000000000E+00 -0.45593999997E+02  0.45594000000E+02  0.51100000000E-03 0. -1.
    9900012    2    1    2    0    0 -0.40870572017E+02  0.14043182054E+02  0.40010924649E+01  0.47787270051E+02  0.19999995472E+02 0.  0.
         12    1    1    2    0    0  0.40870572017E+02 -0.14043182054E+02 -0.40010924649E+01  0.43400729949E+02  0.00000000000E+00 0. -1.
         11    1    3    3    0    0 -0.14589705513E+01 -0.23562647259E+01  0.10288787885E+01  0.29562087799E+01  0.51100000000E-03 0. -1.
        -11    1    3    3    0    0 -0.14813523538E+02  0.93600402953E+00  0.51090913775E+01  0.15697751372E+02  0.51100000000E-03 0.  1.
        -12    1    3    3    0    0 -0.24598077927E+02  0.15463442750E+02 -0.21368777012E+01  0.29133309900E+02  0.00000000000E+00 0.  1.
</event>
<event>
 7    1  0.1384886E-010  0.4778727E+02  0.7816164E-02  0.1312668E+00
        -11   -1    0    0    0    0  0.00000000000E+00  0.00000000000E+00  0.45593999997E+02  0.45594000000E+02  0.51100000000E-03 0. -1.
         11   -1    0    0    0    0 -0.00000000000E+00 -0.00000000000E+00 -0.45593999997E+02  0.45594000000E+02  0.51100000000E-03 0.  1.
    9900012    2    1    2    0    0  0.28216959315E+02  0.20687477162E+02 -0.25679850366E+02  0.47787271675E+02  0.20000002876E+02 0.  0.
         12    1    1    2    0    0 -0.28216959315E+02 -0.20687477162E+02  0.25679850366E+02  0.43400728325E+02  0.00000000000E+00 0. -1.
         11    1    3    3    0    0  0.72422140258E+01  0.12553245477E+02 -0.11186222040E+02  0.18307517576E+02  0.51100000000E-03 0.  1.
        -11    1    3    3    0    0  0.34289817608E+01 -0.86820651438E+00 -0.79509487331E+01  0.87022574361E+01  0.51100000000E-03 0. -1.
         12    1    3    3    0    0  0.17545763529E+02  0.90024381988E+01 -0.65426795931E+01  0.20777496663E+02  0.00000000000E+00 0. -1.
</event>
<event>
 7    1  0.1384886E-010  0.4778727E+02  0.7816164E-02  0.1312668E+00
        -11   -1    0    0    0    0  0.00000000000E+00  0.00000000000E+00  0.45593999997E+02  0.45594000000E+02  0.51100000000E-03 0. -1.
         11   -1    0    0    0    0 -0.00000000000E+00 -0.00000000000E+00 -0.45593999997E+02  0.45594000000E+02  0.51100000000E-03 0.  1.
    9900012    2    1    2    0    0  0.12751089076E+02  0.39512341931E+02 -0.12641515116E+02  0.47787270260E+02  0.19999996423E+02 0.  0.
         12    1    1    2    0    0 -0.12751089076E+02 -0.39512341931E+02  0.12641515116E+02  0.43400729740E+02  0.00000000000E+00 0. -1.
         11    1    3    3    0    0  0.53671971981E+01  0.85509954544E+00 -0.78450372591E+00  0.54912154714E+01  0.51100000000E-03 0. -1.
        -11    1    3    3    0    0  0.58082959018E+01  0.84650548444E+01 -0.43161333191E+01  0.11136537249E+02  0.51100000000E-03 0.  1.
        -12    1    3    3    0    0  0.15755959763E+01  0.30192187542E+02 -0.75408780715E+01  0.31159517540E+02  0.00000000000E+00 0.  1.
</event>
<event>
 7    1  0.1384886E-010  0.4778728E+02  0.7816164E-02  0.1312668E+00
        -11   -1    0    0    0    0  0.00000000000E+00  0.00000000000E+00  0.45593999997E+02  0.45594000000E+02  0.51100000000E-03 0.  1.
         11   -1    0    0    0    0 -0.00000000000E+00 -0.00000000000E+00 -0.45593999997E+02  0.45594000000E+02  0.51100000000E-03 0. -1.
    9900012    2    1    2    0    0 -0.41847183446E+02 -0.79966263356E+01  0.82758513067E+01  0.47787279845E+02  0.20000040126E+02 0.  0.
         12    1    1    2    0    0  0.41847183446E+02  0.79966263356E+01 -0.82758513067E+01  0.43400720155E+02  0.00000000000E+00 0. -1.
         11    1    3    3    0    0 -0.28677026349E+01  0.34017283500E+01 -0.25178824978E+00  0.44563294036E+01  0.51100000000E-03 0.  1.
        -11    1    3    3    0    0 -0.21136404848E+02 -0.12111804045E+02  0.73023532385E+01  0.25431629326E+02  0.51100000000E-03 0. -1.
         12    1    3    3    0    0 -0.17843075963E+02  0.71344935986E+00  0.12252863179E+01  0.17899321115E+02  0.00000000000E+00 0. -1.
</event>
<event>
 7    1  0.1384886E-010  0.4778727E+02  0.7816164E-02  0.1312668E+00
        -11   -1    0    0    0    0  0.00000000000E+00  0.00000000000E+00  0.45593999997E+02  0.45594000000E+02  0.51100000000E-03 0.  1.
         11   -1    0    0    0    0 -0.00000000000E+00 -0.00000000000E+00 -0.45593999997E+02  0.45594000000E+02  0.51100000000E-03 0. -1.
    9900012    2    1    2    0    0  0.24923838107E+00  0.10517600144E+02  0.42106310693E+02  0.47787269214E+02  0.19999991655E+02 0.  0.
         12    1    1    2    0    0 -0.24923838107E+00 -0.10517600144E+02 -0.42106310693E+02  0.43400730786E+02  0.00000000000E+00 0. -1.
         11    1    3    3    0    0 -0.52562532107E+01  0.44814325509E+01  0.83348016619E+01  0.10824987507E+02  0.51100000000E-03 0. -1.
        -11    1    3    3    0    0  0.31728951454E+01  0.99625859994E+01  0.23642146259E+02  0.25850947050E+02  0.51100000000E-03 0.  1.
        -12    1    3    3    0    0  0.23325964464E+01 -0.39264184068E+01  0.10129362773E+02  0.11111334657E+02  0.00000000000E+00 0.  1.
</event>
<event>
 7    1  0.1384886E-010  0.4778726E+02  0.7816164E-02  0.1312668E+00
        -11   -1    0    0    0    0  0.00000000000E+00  0.00000000000E+00  0.45593999997E+02  0.45594000000E+02  0.51100000000E-03 0.  1.
         11   -1    0    0    0    0 -0.00000000000E+00 -0.00000000000E+00 -0.45593999997E+02  0.45594000000E+02  0.51100000000E-03 0. -1.
    9900012    2    1    2    0    0 -0.21858371271E+02 -0.30092518598E+02  0.22366850116E+02  0.47787262054E+02  0.19999959008E+02 0.  0.
         12    1    1    2    0    0  0.21858371271E+02  0.30092518598E+02 -0.22366850116E+02  0.43400737946E+02  0.00000000000E+00 0. -1.
         11    1    3    3    0    0 -0.61546769943E+01 -0.58721868793E+01 -0.40971847266E+00  0.85164838482E+01  0.51100000000E-03 0. -1.
        -11    1    3    3    0    0 -0.52967920746E+01 -0.94276033615E+00  0.48393423652E+00  0.54017585969E+01  0.51100000000E-03 0.  1.
        -12    1    3    3    0    0 -0.10406902202E+02 -0.23277571382E+02  0.22292634352E+02  0.33869019609E+02  0.00000000000E+00 0.  1.
</event>
<event>
 7    1  0.1384886E-010  0.4778727E+02  0.7816164E-02  0.1312668E+00
        -11   -1    0    0    0    0  0.00000000000E+00  0.00000000000E+00  0.45593999997E+02  0.45594000000E+02  0.51100000000E-03 0. -1.
         11   -1    0    0    0    0 -0.00000000000E+00 -0.00000000000E+00 -0.45593999997E+02  0.45594000000E+02  0.51100000000E-03 0.  1.
    9900012    2    1    2    0    0  0.41729921408E+02  0.52429227279E+01 -0.10712068613E+02  0.47787274276E+02  0.20000014732E+02 0.  0.
         12    1    1    2    0    0 -0.41729921408E+02 -0.52429227279E+01  0.10712068613E+02  0.43400725724E+02  0.00000000000E+00 0. -1.
         11    1    3    3    0    0  0.21663670086E+02 -0.36227714971E+01 -0.41527557706E+01  0.22353622876E+02  0.51100000000E-03 0. -1.
        -11    1    3    3    0    0  0.80837889156E+01  0.31213097908E+01 -0.83396994685E+01  0.12026670592E+02  0.51100000000E-03 0.  1.
         12    1    3    3    0    0  0.11982462406E+02  0.57443844342E+01  0.17803866258E+01  0.13406980808E+02  0.00000000000E+00 0. -1.
</event>
<event>
 7    1  0.2030790E-010  0.4778727E+02  0.7816164E-02  0.1312668E+00
        -11   -1    0    0    0    0  0.00000000000E+00  0.00000000000E+00  0.45593999997E+02  0.45594000000E+02  0.51100000000E-03 0. -1.
         11   -1    0    0    0    0 -0.00000000000E+00 -0.00000000000E+00 -0.45593999997E+02  0.45594000000E+02  0.51100000000E-03 0.  1.
    9900012    2    1    2    0    0  0.10466039568E+02 -0.37176926962E+02 -0.19798011127E+02  0.47787272735E+02  0.20000007708E+02 0.  0.
         12    1    1    2    0    0 -0.10466039568E+02  0.37176926962E+02  0.19798011127E+02  0.43400727265E+02  0.00000000000E+00 0. -1.
         11    1    3    3    0    0 -0.41183691258E+01 -0.61317211351E+01 -0.13244584902E+01  0.75042094112E+01  0.51100000000E-03 0. -1.
        -11    1    3    3    0    0  0.85478958536E+01 -0.15235002099E+02 -0.37856164229E+01  0.17874638582E+02  0.51100000000E-03 0.  1.
        -12    1    3    3    0    0  0.60365128401E+01 -0.15810203727E+02 -0.14687936214E+02  0.22408424741E+02  0.00000000000E+00 0.  1.
</event>
<event>
 7    1  0.1384886E-010  0.4778727E+02  0.7816164E-02  0.1312668E+00
        -11   -1    0    0    0    0  0.00000000000E+00  0.00000000000E+00  0.45593999997E+02  0.45594000000E+02  0.51100000000E-03 0.  1.
         11   -1    0    0    0    0 -0.00000000000E+00 -0.00000000000E+00 -0.45593999997E+02  0.45594000000E+02  0.51100000000E-03 0. -1.
    9900012    2    1    2    0    0 -0.28330191020E+02 -0.18175839779E+02  0.27398217489E+02  0.47787271936E+02  0.20000004065E+02 0.  0.
         12    1    1    2    0    0  0.28330191020E+02  0.18175839779E+02 -0.27398217489E+02  0.43400728064E+02  0.00000000000E+00 0. -1.
         11    1    3    3    0    0 -0.61060374606E+01  0.11603192219E+01  0.72077799781E+00  0.62569605521E+01  0.51100000000E-03 0. -1.
        -11    1    3    3    0    0 -0.15221446432E+02 -0.60110719292E+01  0.10560328612E+02  0.19476805638E+02  0.51100000000E-03 0.  1.
         12    1    3    3    0    0 -0.70027071279E+01 -0.13325087072E+02  0.16117110879E+02  0.22053505746E+02  0.00000000000E+00 0. -1.
</event>
<event>
 7    1  0.1384886E-010  0.4778727E+02  0.7816164E-02  0.1312668E+00
        -11   -1    0    0    0    0  0.00000000000E+00  0.00000000000E+00  0.45593999997E+02  0.45594000000E+02  0.51100000000E-03 0. -1.
         11   -1    0    0    0    0 -0.00000000000E+00 -0.00000000000E+00 -0.45593999997E+02  0.45594000000E+02  0.51100000000E-03 0.  1.
    9900012    2    1    2    0    0  0.66846646405E+01 -0.32395398850E+02  0.28097629268E+02  0.47787269839E+02  0.19999994505E+02 0.  0.
         12    1    1    2    0    0 -0.66846646405E+01  0.32395398850E+02 -0.28097629268E+02  0.43400730161E+02  0.00000000000E+00 0. -1.
         11    1    3    3    0    0 -0.20483934991E+01 -0.11207938788E+02  0.18836610965E+02  0.22014352608E+02  0.51100000000E-03 0. -1.
        -11    1    3    3    0    0  0.88756904274E+00 -0.11725024186E+02  0.44028471514E+01  0.12555836661E+02  0.51100000000E-03 0.  1.
         12    1    3    3    0    0  0.78454890969E+01 -0.94624358760E+01  0.48581711511E+01  0.13217080571E+02  0.00000000000E+00 0. -1.
</event>
<event>
 7    1  0.1384886E-010  0.4778727E+02  0.7816164E-02  0.1312668E+00
        -11   -1    0    0    0    0  0.00000000000E+00  0.00000000000E+00  0.45593999997E+02  0.45594000000E+02  0.51100000000E-03 0.  1.
         11   -1    0    0    0    0 -0.00000000000E+00 -0.00000000000E+00 -0.45593999997E+02  0.45594000000E+02  0.51100000000E-03 0. -1.
    9900012    2    1    2    0    0  0.60151539821E+01 -0.39307814770E+02  0.17387838739E+02  0.47787270565E+02  0.19999997816E+02 0.  0.
         12    1    1    2    0    0 -0.60151539821E+01  0.39307814770E+02 -0.17387838739E+02  0.43400729435E+02  0.00000000000E+00 0. -1.
         11    1    3    3    0    0 -0.21745790229E+01  0.48891672915E+00  0.20936513666E-01  0.22289621113E+01  0.51100000000E-03 0. -1.
        -11    1    3    3    0    0  0.76947354967E+01 -0.11883316171E+02  0.68267905896E+01  0.15717099847E+02  0.51100000000E-03 0.  1.
         12    1    3    3    0    0  0.49499750831E+00 -0.27913415329E+02  0.10540111636E+02  0.29841208607E+02  0.00000000000E+00 0. -1.
</event>
<event>
 7    1  0.1501910E-010  0.4778727E+02  0.7816164E-02  0.1312668E+00
        -11   -1    0    0    0    0  0.00000000000E+00  0.00000000000E+00  0.45593999997E+02  0.45594000000E+02  0.51100000000E-03 0.  1.
         11   -1    0    0    0    0 -0.00000000000E+00 -0.00000000000E+00 -0.45593999997E+02  0.45594000000E+02  0.51100000000E-03 0. -1.
    9900012    2    1    2    0    0 -0.10292647024E+02 -0.41520358457E+02 -0.73310696921E+01  0.47787270375E+02  0.19999996947E+02 0.  0.
         12    1    1    2    0    0  0.10292647024E+02  0.41520358457E+02  0.73310696921E+01  0.43400729625E+02  0.00000000000E+00 0. -1.
         11    1    3    3    0    0 -0.61727014354E+01 -0.36291368903E+01 -0.39271713070E+01  0.81667344951E+01  0.51100000000E-03 0. -1.
        -11    1    3    3    0    0  0.11760238877E+01 -0.87107711633E+01  0.29853982064E+01  0.92829504553E+01  0.51100000000E-03 0.  1.
        -12    1    3    3    0    0 -0.52959694761E+01 -0.29180450404E+02 -0.63892965915E+01  0.30337585424E+02  0.00000000000E+00 0.  1.
</event>
<event>
 7    1  0.1384886E-010  0.4778727E+02  0.7816164E-02  0.1312668E+00
        -11   -1    0    0    0    0  0.00000000000E+00  0.00000000000E+00  0.45593999997E+02  0.45594000000E+02  0.51100000000E-03 0. -1.
         11   -1    0    0    0    0 -0.00000000000E+00 -0.00000000000E+00 -0.45593999997E+02  0.45594000000E+02  0.51100000000E-03 0.  1.
    9900012    2    1    2    0    0  0.37130450729E+02  0.22398638265E+02  0.18037691690E+01  0.47787274768E+02  0.20000016975E+02 0.  0.
         12    1    1    2    0    0 -0.37130450729E+02 -0.22398638265E+02 -0.18037691690E+01  0.43400725232E+02  0.00000000000E+00 0. -1.
         11    1    3    3    0    0  0.69326980990E+01 -0.23621065229E+01 -0.37241854328E+01  0.82165325750E+01  0.51100000000E-03 0. -1.
        -11    1    3    3    0    0  0.10946627467E+02  0.75747434501E+01  0.29602629135E+01  0.13637028562E+02  0.51100000000E-03 0.  1.
         12    1    3    3    0    0  0.19251125163E+02  0.17186001338E+02  0.25676916883E+01  0.25933713630E+02  0.00000000000E+00 0. -1.
</event>
<event>
 7    1  0.1384886E-010  0.4778727E+02  0.7816164E-02  0.1312668E+00
        -11   -1    0    0    0    0  0.00000000000E+00  0.00000000000E+00  0.45593999997E+02  0.45594000000E+02  0.51100000000E-03 0.  1.
         11   -1    0    0    0    0 -0.00000000000E+00 -0.00000000000E+00 -0.45593999997E+02  0.45594000000E+02  0.51100000000E-03 0. -1.
    9900012    2    1    2    0    0 -0.21886584317E+02 -0.25941475970E+01  0.37388111019E+02  0.47787273964E+02  0.20000013314E+02 0.  0.
         12    1    1    2    0    0  0.21886584317E+02  0.25941475970E+01 -0.37388111019E+02  0.43400726036E+02  0.00000000000E+00 0. -1.
         11    1    3    3    0    0 -0.12035557641E+01  0.50687766116E+01  0.81016378857E+01  0.96321118924E+01  0.51100000000E-03 0. -1.
        -11    1    3    3    0    0 -0.14297101609E+02 -0.31134467826E+00  0.20779337941E+02  0.25224689006E+02  0.51100000000E-03 0.  1.
         12    1    3    3    0    0 -0.63859269440E+01 -0.73515795303E+01  0.85071351922E+01  0.12930473066E+02  0.00000000000E+00 0. -1.
</event>
<event>
 7    1  0.1384886E-010  0.4778727E+02  0.7816164E-02  0.1312668E+00
        -11   -1    0    0    0    0  0.00000000000E+00  0.00000000000E+00  0.45593999997E+02  0.45594000000E+02  0.51100000000E-03 0. -1.
         11   -1    0    0    0    0 -0.00000000000E+00 -0.00000000000E+00 -0.45593999997E+02  0.45594000000E+02  0.51100000000E-03 0.  1.
    9900012    2    1    2    0    0 -0.29054986338E+01 -0.10122010226E+02 -0.42103755376E+02  0.47787271549E+02  0.20000002302E+02 0.  0.
         12    1    1    2    0    0  0.29054986338E+01  0.10122010226E+02  0.42103755376E+02  0.43400728451E+02  0.00000000000E+00 0. -1.
         11    1    3    3    0    0  0.78086618029E+01 -0.48159535975E+01 -0.12153461841E+02  0.15227450318E+02  0.51100000000E-03 0.  1.
        -11    1    3    3    0    0 -0.57042134279E+01 -0.48233905680E+01 -0.14512122426E+02  0.16321913031E+02  0.51100000000E-03 0. -1.
        -12    1    3    3    0    0 -0.50099470088E+01 -0.48266606004E+00 -0.15438171109E+02  0.16237908201E+02  0.00000000000E+00 0.  1.
</event>
<event>
 7    1  0.1384886E-010  0.4778727E+02  0.7816164E-02  0.1312668E+00
        -11   -1    0    0    0    0  0.00000000000E+00  0.00000000000E+00  0.45593999997E+02  0.45594000000E+02  0.51100000000E-03 0.  1.
         11   -1    0    0    0    0 -0.00000000000E+00 -0.00000000000E+00 -0.45593999997E+02  0.45594000000E+02  0.51100000000E-03 0. -1.
    9900012    2    1    2    0    0 -0.39738976466E+02 -0.14913427830E+01  0.17384273538E+02  0.47787270509E+02  0.19999997560E+02 0.  0.
         12    1    1    2    0    0  0.39738976466E+02  0.14913427830E+01 -0.17384273538E+02  0.43400729491E+02  0.00000000000E+00 0. -1.
         11    1    3    3    0    0 -0.38265871433E+01 -0.23207079286E+01  0.35613378355E+01  0.57194039807E+01  0.51100000000E-03 0. -1.
        -11    1    3    3    0    0 -0.34143939707E+02 -0.39976570864E+01  0.13446294561E+02  0.36913313568E+02  0.51100000000E-03 0.  1.
        -12    1    3    3    0    0 -0.17684496157E+01  0.48270222319E+01  0.37664114171E+00  0.51545529603E+01  0.00000000000E+00 0.  1.
</event>
<event>
 7    1  0.1384886E-010  0.4778727E+02  0.7816164E-02  0.1312668E+00
        -11   -1    0    0    0    0  0.00000000000E+00  0.00000000000E+00  0.45593999997E+02  0.45594000000E+02  0.51100000000E-03 0. -1.
         11   -1    0    0    0    0 -0.00000000000E+00 -0.00000000000E+00 -0.45593999997E+02  0.45594000000E+02  0.51100000000E-03 0.  1.
    9900012    2    1    2    0    0  0.38689271464E+02  0.18501194294E+02  0.66685358604E+01  0.47787270890E+02  0.19999999297E+02 0.  0.
         12    1    1    2    0    0 -0.38689271464E+02 -0.18501194294E+02 -0.66685358604E+01  0.43400729110E+02  0.00000000000E+00 0. -1.
         11    1    3    3    0    0 -0.12580126304E+01  0.36933530468E+01  0.77566185336E+00  0.39780779377E+01  0.51100000000E-03 0. -1.
        -11    1    3    3    0    0  0.15101881509E+02  0.18585571104E+01  0.39733979630E+01  0.15726059623E+02  0.51100000000E-03 0.  1.
        -12    1    3    3    0    0  0.24845402586E+02  0.12949284137E+02  0.19194760440E+01  0.28083133330E+02  0.00000000000E+00 0.  1.
</event>
<event>
 7    1  0.1384886E-010  0.4778727E+02  0.7816164E-02  0.1312668E+00
        -11   -1    0    0    0    0  0.00000000000E+00  0.00000000000E+00  0.45593999997E+02  0.45594000000E+02  0.51100000000E-03 0.  1.
         11   -1    0    0    0    0 -0.00000000000E+00 -0.00000000000E+00 -0.45593999997E+02  0.45594000000E+02  0.51100000000E-03 0. -1.
    9900012    2    1    2    0    0 -0.65835025023E+01 -0.27825594107E+02  0.32649915856E+02  0.47787271919E+02  0.20000003986E+02 0.  0.
         12    1    1    2    0    0  0.65835025023E+01  0.27825594107E+02 -0.32649915856E+02  0.43400728081E+02  0.00000000000E+00 0. -1.
         11    1    3    3    0    0 -0.13828544379E+01  0.18339378889E+01  0.10465293918E+01  0.25240520212E+01  0.51100000000E-03 0. -1.
        -11    1    3    3    0    0  0.18354072342E+01  0.27709992837E-01  0.12122383661E+01  0.21997749149E+01  0.51100000000E-03 0.  1.
        -12    1    3    3    0    0 -0.70360552986E+01 -0.29687241988E+02  0.30391148098E+02  0.43063444983E+02  0.00000000000E+00 0.  1.
</event>
<event>
 7    1  0.1384886E-010  0.4778728E+02  0.7816164E-02  0.1312668E+00
        -11   -1    0    0    0    0  0.00000000000E+00  0.00000000000E+00  0.45593999997E+02  0.45594000000E+02  0.51100000000E-03 0. -1.
         11   -1    0    0    0    0 -0.00000000000E+00 -0.00000000000E+00 -0.45593999997E+02  0.45594000000E+02  0.51100000000E-03 0.  1.
    9900012    2    1    2    0    0 -0.55996481167E+01 -0.34622091500E+02 -0.25565161178E+02  0.47787277138E+02  0.20000027784E+02 0.  0.
         12    1    1    2    0    0  0.55996481167E+01  0.34622091500E+02  0.25565161178E+02  0.43400722862E+02  0.00000000000E+00 0. -1.
         11    1    3    3    0    0 -0.36409401648E+00 -0.50871369348E+01 -0.13204006905E+02  0.14154763342E+02  0.51100000000E-03 0. -1.
        -11    1    3    3    0    0 -0.57428549784E+01 -0.15856585391E+02 -0.10377839672E+02  0.19801798910E+02  0.51100000000E-03 0.  1.
        -12    1    3    3    0    0  0.50730087823E+00 -0.13678369175E+02 -0.19833146007E+01  0.13830714887E+02  0.00000000000E+00 0.  1.
</event>
<event>
 7    1  0.1384886E-010  0.4778726E+02  0.7816164E-02  0.1312668E+00
        -11   -1    0    0    0    0  0.00000000000E+00  0.00000000000E+00  0.45593999997E+02  0.45594000000E+02  0.51100000000E-03 0.  1.
         11   -1    0    0    0    0 -0.00000000000E+00 -0.00000000000E+00 -0.45593999997E+02  0.45594000000E+02  0.51100000000E-03 0. -1.
    9900012    2    1    2    0    0 -0.36205568255E+02  0.14888628820E+02  0.18737918129E+02  0.47787262487E+02  0.19999960985E+02 0.  0.
         12    1    1    2    0    0  0.36205568255E+02 -0.14888628820E+02 -0.18737918129E+02  0.43400737513E+02  0.00000000000E+00 0. -1.
         11    1    3    3    0    0 -0.19415387994E+02  0.92267522853E+01  0.54127256735E+01  0.22167269750E+02  0.51100000000E-03 0. -1.
        -11    1    3    3    0    0 -0.45840530143E+00  0.55304841953E+01  0.34356568534E+01  0.65268774411E+01  0.51100000000E-03 0.  1.
        -12    1    3    3    0    0 -0.16331774960E+02  0.13139233883E+00  0.98895356023E+01  0.19093115296E+02  0.00000000000E+00 0.  1.
</event>
<event>
 7    1  0.1384886E-010  0.4778727E+02  0.7816164E-02  0.1312668E+00
        -11   -1    0    0    0    0  0.00000000000E+00  0.00000000000E+00  0.45593999997E+02  0.45594000000E+02  0.51100000000E-03 0.  1.
         11   -1    0    0    0    0 -0.00000000000E+00 -0.00000000000E+00 -0.45593999997E+02  0.45594000000E+02  0.51100000000E-03 0. -1.
    9900012    2    1    2    0    0 -0.34841838563E+01 -0.32774642970E+02  0.28236614447E+02  0.47787272421E+02  0.20000006279E+02 0.  0.
         12    1    1    2    0    0  0.34841838563E+01  0.32774642970E+02 -0.28236614447E+02  0.43400727579E+02  0.00000000000E+00 0. -1.
         11    1    3    3    0    0 -0.35428152619E+01 -0.21660428125E+01  0.55068366094E+01  0.68969943562E+01  0.51100000000E-03 0. -1.
        -11    1    3    3    0    0 -0.16175102826E+01  0.30835047354E+00 -0.95881468460E+00  0.19054514923E+01  0.51100000000E-03 0.  1.
        -12    1    3    3    0    0  0.16761416882E+01 -0.30916950631E+02  0.23688592522E+02  0.38984826573E+02  0.00000000000E+00 0.  1.
</event>
<event>
 7    1  0.1384886E-010  0.4778727E+02  0.7816164E-02  0.1312668E+00
        -11   -1    0    0    0    0  0.00000000000E+00  0.00000000000E+00  0.45593999997E+02  0.45594000000E+02  0.51100000000E-03 0.  1.
         11   -1    0    0    0    0 -0.00000000000E+00 -0.00000000000E+00 -0.45593999997E+02  0.45594000000E+02  0.51100000000E-03 0. -1.
    9900012    2    1    2    0    0 -0.22549970679E+02  0.13597888575E+02  0.34499559948E+02  0.47787269730E+02  0.19999994008E+02 0.  0.
         12    1    1    2    0    0  0.22549970679E+02 -0.13597888575E+02 -0.34499559948E+02  0.43400730270E+02  0.00000000000E+00 0. -1.
         11    1    3    3    0    0  0.22207568053E+01  0.28939509951E+00  0.38359571492E+01  0.44418552231E+01  0.51100000000E-03 0. -1.
        -11    1    3    3    0    0 -0.12572393359E+02  0.45212111719E+00  0.15928441324E+02  0.20297407016E+02  0.51100000000E-03 0.  1.
         12    1    3    3    0    0 -0.12198334126E+02  0.12856372358E+02  0.14735161475E+02  0.23048007492E+02  0.00000000000E+00 0. -1.
</event>
<event>
 7    1  0.1384886E-010  0.4778727E+02  0.7816164E-02  0.1312668E+00
        -11   -1    0    0    0    0  0.00000000000E+00  0.00000000000E+00  0.45593999997E+02  0.45594000000E+02  0.51100000000E-03 0.  1.
         11   -1    0    0    0    0 -0.00000000000E+00 -0.00000000000E+00 -0.45593999997E+02  0.45594000000E+02  0.51100000000E-03 0. -1.
    9900012    2    1    2    0    0 -0.36549537711E+02 -0.15990923148E+02  0.17089324782E+02  0.47787270150E+02  0.19999995920E+02 0.  0.
         12    1    1    2    0    0  0.36549537711E+02  0.15990923148E+02 -0.17089324782E+02  0.43400729850E+02  0.00000000000E+00 0. -1.
         11    1    3    3    0    0 -0.46878893304E+01 -0.90057958516E+01  0.49270148048E+01  0.11285217784E+02  0.51100000000E-03 0. -1.
        -11    1    3    3    0    0 -0.13263017695E+02 -0.48538988948E+01 -0.99061236872E-01  0.14123660512E+02  0.51100000000E-03 0.  1.
         12    1    3    3    0    0 -0.18598630686E+02 -0.21312284018E+01  0.12261371214E+02  0.22378391853E+02  0.00000000000E+00 0. -1.
</event>
<event>
 7    1  0.1384886E-010  0.4778727E+02  0.7816164E-02  0.1312668E+00
        -11   -1    0    0    0    0  0.00000000000E+00  0.00000000000E+00  0.45593999997E+02  0.45594000000E+02  0.51100000000E-03 0. -1.
         11   -1    0    0    0    0 -0.00000000000E+00 -0.00000000000E+00 -0.45593999997E+02  0.45594000000E+02  0.51100000000E-03 0.  1.
    9900012    2    1    2    0    0  0.20223257834E+01  0.31979580768E+02 -0.29271825567E+02  0.47787272360E+02  0.20000005997E+02 0.  0.
         12    1    1    2    0    0 -0.20223257834E+01 -0.31979580768E+02  0.29271825567E+02  0.43400727640E+02  0.00000000000E+00 0. -1.
         11    1    3    3    0    0  0.54286711331E+01  0.50066179773E+01 -0.58574379667E+01  0.94258301298E+01  0.51100000000E-03 0. -1.
        -11    1    3    3    0    0 -0.62543595297E+00  0.26127886831E+02 -0.16622046023E+02  0.30973376545E+02  0.51100000000E-03 0.  1.
        -12    1    3    3    0    0 -0.27809093967E+01  0.84507595973E+00 -0.67923415780E+01  0.73880656848E+01  0.00000000000E+00 0.  1.
</event>
<event>
 7    1  0.1384886E-010  0.4778727E+02  0.7816164E-02  0.1312668E+00
        -11   -1    0    0    0    0  0.00000000000E+00  0.00000000000E+00  0.45593999997E+02  0.45594000000E+02  0.51100000000E-03 0. -1.
         11   -1    0    0    0    0 -0.00000000000E+00 -0.00000000000E+00 -0.45593999997E+02  0.45594000000E+02  0.51100000000E-03 0.  1.
    9900012    2    1    2    0    0  0.16609564564E+02 -0.82455124024E+00 -0.40088224834E+02  0.47787270858E+02  0.19999999150E+02 0.  0.
         12    1    1    2    0    0 -0.16609564564E+02  0.82455124024E+00  0.40088224834E+02  0.43400729142E+02  0.00000000000E+00 0. -1.
         11    1    3    3    0    0  0.71214358906E+01  0.46923043215E+01 -0.12124431345E+02  0.14823441055E+02  0.51100000000E-03 0. -1.
        -11    1    3    3    0    0  0.91933912966E+01 -0.75363365252E+01 -0.28477684013E+02  0.30859249809E+02  0.51100000000E-03 0.  1.
        -12    1    3    3    0    0  0.29473737662E+00  0.20194809634E+01  0.51389052452E+00  0.21045799947E+01  0.00000000000E+00 0.  1.
</event>
<event>
 7    1  0.1384886E-010  0.4778727E+02  0.7816164E-02  0.1312668E+00
        -11   -1    0    0    0    0  0.00000000000E+00  0.00000000000E+00  0.45593999997E+02  0.45594000000E+02  0.51100000000E-03 0.  1.
         11   -1    0    0    0    0 -0.00000000000E+00 -0.00000000000E+00 -0.45593999997E+02  0.45594000000E+02  0.51100000000E-03 0. -1.
    9900012    2    1    2    0    0 -0.40499457761E+02  0.43067164941E+01  0.14995651128E+02  0.47787269146E+02  0.19999991345E+02 0.  0.
         12    1    1    2    0    0  0.40499457761E+02 -0.43067164941E+01 -0.14995651128E+02  0.43400730854E+02  0.00000000000E+00 0. -1.
         11    1    3    3    0    0 -0.36722874322E+02  0.45019474247E+01  0.10898764028E+02  0.38569678333E+02  0.51100000000E-03 0.  1.
        -11    1    3    3    0    0 -0.44020850088E+01 -0.18982464039E+01  0.52172431573E+01  0.70852888620E+01  0.51100000000E-03 0. -1.
         12    1    3    3    0    0  0.62550156978E+00  0.17030154732E+01 -0.11203560579E+01  0.21323019515E+01  0.00000000000E+00 0. -1.
</event>
<event>
 7    1  0.1384886E-010  0.4778727E+02  0.7816164E-02  0.1312668E+00
        -11   -1    0    0    0    0  0.00000000000E+00  0.00000000000E+00  0.45593999997E+02  0.45594000000E+02  0.51100000000E-03 0. -1.
         11   -1    0    0    0    0 -0.00000000000E+00 -0.00000000000E+00 -0.45593999997E+02  0.45594000000E+02  0.51100000000E-03 0.  1.
    9900012    2    1    2    0    0 -0.97290854439E+01  0.42216583838E+02 -0.25938245189E+01  0.47787274428E+02  0.20000015429E+02 0.  0.
         12    1    1    2    0    0  0.97290854439E+01 -0.42216583838E+02  0.25938245189E+01  0.43400725572E+02  0.00000000000E+00 0. -1.
         11    1    3    3    0    0 -0.33439102313E+00  0.67455685077E+01 -0.63959948645E+01  0.93017881300E+01  0.51100000000E-03 0. -1.
        -11    1    3    3    0    0 -0.68296097563E+01  0.16706095730E+02 -0.31293826946E+01  0.18317484551E+02  0.51100000000E-03 0.  1.
         12    1    3    3    0    0 -0.25650846645E+01  0.18764919600E+02  0.69315530402E+01  0.20168001747E+02  0.00000000000E+00 0. -1.
</event>
<event>
 7    1  0.1384886E-010  0.4778727E+02  0.7816164E-02  0.1312668E+00
        -11   -1    0    0    0    0  0.00000000000E+00  0.00000000000E+00  0.45593999997E+02  0.45594000000E+02  0.51100000000E-03 0.  1.
         11   -1    0    0    0    0 -0.00000000000E+00 -0.00000000000E+00 -0.45593999997E+02  0.45594000000E+02  0.51100000000E-03 0. -1.
    9900012    2    1    2    0    0  0.25771556065E+02 -0.34889303040E+02  0.14787711664E+01  0.47787270366E+02  0.19999996906E+02 0.  0.
         12    1    1    2    0    0 -0.25771556065E+02  0.34889303040E+02 -0.14787711664E+01  0.43400729634E+02  0.00000000000E+00 0. -1.
         11    1    3    3    0    0  0.11148623348E+02 -0.11799383145E+02 -0.66725301670E+01  0.17551065616E+02  0.51100000000E-03 0. -1.
        -11    1    3    3    0    0  0.72083621675E+01 -0.18651392007E+02  0.31232483680E+01  0.20238319830E+02  0.51100000000E-03 0.  1.
        -12    1    3    3    0    0  0.74145705492E+01 -0.44385278887E+01  0.50280529655E+01  0.99978849198E+01  0.00000000000E+00 0.  1.
</event>
<event>
 7    1  0.1384886E-010  0.4778727E+02  0.7816164E-02  0.1312668E+00
        -11   -1    0    0    0    0  0.00000000000E+00  0.00000000000E+00  0.45593999997E+02  0.45594000000E+02  0.51100000000E-03 0.  1.
         11   -1    0    0    0    0 -0.00000000000E+00 -0.00000000000E+00 -0.45593999997E+02  0.45594000000E+02  0.51100000000E-03 0. -1.
    9900012    2    1    2    0    0 -0.85007243931E+01 -0.46584251840E+01  0.42304377885E+02  0.47787266957E+02  0.19999981363E+02 0.  0.
         12    1    1    2    0    0  0.85007243931E+01  0.46584251840E+01 -0.42304377885E+02  0.43400733043E+02  0.00000000000E+00 0. -1.
         11    1    3    3    0    0  0.16587277749E+01 -0.13884190428E+01  0.25329186486E+02  0.25421384179E+02  0.51100000000E-03 0. -1.
        -11    1    3    3    0    0 -0.15555056228E+01  0.48702604373E+00 -0.11216854424E+01  0.19786284650E+01  0.51100000000E-03 0.  1.
        -12    1    3    3    0    0 -0.86039465452E+01 -0.37570321849E+01  0.18096876842E+02  0.20387254313E+02  0.00000000000E+00 0.  1.
</event>
<event>
 7    1  0.1384886E-010  0.4778727E+02  0.7816164E-02  0.1312668E+00
        -11   -1    0    0    0    0  0.00000000000E+00  0.00000000000E+00  0.45593999997E+02  0.45594000000E+02  0.51100000000E-03 0.  1.
         11   -1    0    0    0    0 -0.00000000000E+00 -0.00000000000E+00 -0.45593999997E+02  0.45594000000E+02  0.51100000000E-03 0. -1.
    9900012    2    1    2    0    0 -0.14193370782E+02  0.39314865000E+01  0.40825421000E+02  0.47787270052E+02  0.19999995473E+02 0.  0.
         12    1    1    2    0    0  0.14193370782E+02 -0.39314865000E+01 -0.40825421000E+02  0.43400729948E+02  0.00000000000E+00 0. -1.
         11    1    3    3    0    0 -0.72133247340E+01  0.10920294855E+01  0.30357462199E+01  0.79019198609E+01  0.51100000000E-03 0. -1.
        -11    1    3    3    0    0 -0.93442227741E+01  0.43656978427E+00  0.26462374051E+02  0.28067104109E+02  0.51100000000E-03 0.  1.
        -12    1    3    3    0    0  0.23641767258E+01  0.24028872303E+01  0.11327300729E+02  0.11818246081E+02  0.00000000000E+00 0.  1.
</event>
<event>
 7    1  0.1384886E-010  0.4778727E+02  0.7816164E-02  0.1312668E+00
        -11   -1    0    0    0    0  0.00000000000E+00  0.00000000000E+00  0.45593999997E+02  0.45594000000E+02  0.51100000000E-03 0.  1.
         11   -1    0    0    0    0 -0.00000000000E+00 -0.00000000000E+00 -0.45593999997E+02  0.45594000000E+02  0.51100000000E-03 0. -1.
    9900012    2    1    2    0    0  0.33971514862E+02 -0.24998741235E+02  0.10228520428E+02  0.47787268261E+02  0.19999987308E+02 0.  0.
         12    1    1    2    0    0 -0.33971514862E+02  0.24998741235E+02 -0.10228520428E+02  0.43400731739E+02  0.00000000000E+00 0. -1.
         11    1    3    3    0    0  0.31214316709E+00 -0.76974558833E+01  0.47711214149E+01  0.90615594822E+01  0.51100000000E-03 0. -1.
        -11    1    3    3    0    0  0.14218600815E+02 -0.10698443784E+02  0.30521902123E+01  0.18053840973E+02  0.51100000000E-03 0.  1.
         12    1    3    3    0    0  0.19440770881E+02 -0.66028415679E+01  0.24052088006E+01  0.20671867806E+02  0.00000000000E+00 0. -1.
</event>
<event>
 7    1  0.1427689E-010  0.4778729E+02  0.7816164E-02  0.1312668E+00
        -11   -1    0    0    0    0  0.00000000000E+00  0.00000000000E+00  0.45593999997E+02  0.45594000000E+02  0.51100000000E-03 0.  1.
         11   -1    0    0    0    0 -0.00000000000E+00 -0.00000000000E+00 -0.45593999997E+02  0.45594000000E+02  0.51100000000E-03 0. -1.
    9900012    2    1    2    0    0  0.23906803166E+02  0.35756328872E+02  0.57940846373E+01  0.47787289074E+02  0.20000082206E+02 0.  0.
         12    1    1    2    0    0 -0.23906803166E+02 -0.35756328872E+02 -0.57940846373E+01  0.43400710926E+02  0.00000000000E+00 0. -1.
         11    1    3    3    0    0 -0.17310257109E+01  0.21429040225E+01 -0.10405112221E+01  0.29446819058E+01  0.51100000000E-03 0. -1.
        -11    1    3    3    0    0  0.14910085608E+02  0.25896791376E+02 -0.17702949244E+00  0.29882867936E+02  0.51100000000E-03 0.  1.
        -12    1    3    3    0    0  0.10727743269E+02  0.77166334742E+01  0.70116253519E+01  0.14959739232E+02  0.00000000000E+00 0.  1.
</event>
<event>
 7    1  0.1384886E-010  0.4778727E+02  0.7816164E-02  0.1312668E+00
        -11   -1    0    0    0    0  0.00000000000E+00  0.00000000000E+00  0.45593999997E+02  0.45594000000E+02  0.51100000000E-03 0.  1.
         11   -1    0    0    0    0 -0.00000000000E+00 -0.00000000000E+00 -0.45593999997E+02  0.45594000000E+02  0.51100000000E-03 0. -1.
    9900012    2    1    2    0    0  0.10826173075E+02  0.16748751822E+02  0.38547331636E+02  0.47787268585E+02  0.19999988787E+02 0.  0.
         12    1    1    2    0    0 -0.10826173075E+02 -0.16748751822E+02 -0.38547331636E+02  0.43400731415E+02  0.00000000000E+00 0. -1.
         11    1    3    3    0    0 -0.23529143670E+00  0.10274536713E+02  0.89566968390E+01  0.13632457051E+02  0.51100000000E-03 0. -1.
        -11    1    3    3    0    0  0.10706042002E+02  0.85236809131E+01  0.28877426843E+02  0.31955879787E+02  0.51100000000E-03 0.  1.
         12    1    3    3    0    0  0.35542250995E+00 -0.20494658037E+01  0.71320795457E+00  0.21989317470E+01  0.00000000000E+00 0. -1.
</event>
<event>
 7    1  0.1384886E-010  0.4778727E+02  0.7816164E-02  0.1312668E+00
        -11   -1    0    0    0    0  0.00000000000E+00  0.00000000000E+00  0.45593999997E+02  0.45594000000E+02  0.51100000000E-03 0. -1.
         11   -1    0    0    0    0 -0.00000000000E+00 -0.00000000000E+00 -0.45593999997E+02  0.45594000000E+02  0.51100000000E-03 0.  1.
    9900012    2    1    2    0    0 -0.12167115997E+02  0.30571953153E+02 -0.28300887912E+02  0.47787270883E+02  0.19999999265E+02 0.  0.
         12    1    1    2    0    0  0.12167115997E+02 -0.30571953153E+02  0.28300887912E+02  0.43400729117E+02  0.00000000000E+00 0. -1.
         11    1    3    3    0    0  0.19148649222E+01  0.24174531493E+01 -0.57255632697E+01  0.65032962731E+01  0.51100000000E-03 0. -1.
        -11    1    3    3    0    0 -0.17820706503E+01  0.90817250200E+00 -0.75807613735E+01  0.78401847147E+01  0.51100000000E-03 0.  1.
         12    1    3    3    0    0 -0.12299910268E+02  0.27246327502E+02 -0.14994563269E+02  0.33443789895E+02  0.00000000000E+00 0. -1.
</event>
<event>
 7    1  0.1384886E-010  0.4778727E+02  0.7816164E-02  0.1312668E+00
        -11   -1    0    0    0    0  0.00000000000E+00  0.00000000000E+00  0.45593999997E+02  0.45594000000E+02  0.51100000000E-03 0. -1.
         11   -1    0    0    0    0 -0.00000000000E+00 -0.00000000000E+00 -0.45593999997E+02  0.45594000000E+02  0.51100000000E-03 0.  1.
    9900012    2    1    2    0    0 -0.15071992279E+02  0.37400503643E+02  0.16051817032E+02  0.47787268968E+02  0.19999990535E+02 0.  0.
         12    1    1    2    0    0  0.15071992279E+02 -0.37400503643E+02 -0.16051817032E+02  0.43400731032E+02  0.00000000000E+00 0. -1.
         11    1    3    3    0    0  0.11111784710E+01  0.89385098486E+01  0.31536529528E+01  0.95434376990E+01  0.51100000000E-03 0. -1.
        -11    1    3    3    0    0 -0.17720135214E+02  0.26620648586E+02  0.14746900637E+02  0.35215525010E+02  0.51100000000E-03 0.  1.
         12    1    3    3    0    0  0.15369644633E+01  0.18413452090E+01 -0.18487365572E+01  0.30283062590E+01  0.00000000000E+00 0. -1.
</event>
<event>
 7    1  0.1384886E-010  0.4778727E+02  0.7816164E-02  0.1312668E+00
        -11   -1    0    0    0    0  0.00000000000E+00  0.00000000000E+00  0.45593999997E+02  0.45594000000E+02  0.51100000000E-03 0.  1.
         11   -1    0    0    0    0 -0.00000000000E+00 -0.00000000000E+00 -0.45593999997E+02  0.45594000000E+02  0.51100000000E-03 0. -1.
    9900012    2    1    2    0    0 -0.13063651609E+02  0.30099245713E+02  0.28407739551E+02  0.47787271293E+02  0.20000001135E+02 0.  0.
         12    1    1    2    0    0  0.13063651609E+02 -0.30099245713E+02 -0.28407739551E+02  0.43400728707E+02  0.00000000000E+00 0. -1.
         11    1    3    3    0    0  0.35299910989E+01  0.28709673899E+01  0.11949563211E+01  0.47043821892E+01  0.51100000000E-03 0. -1.
        -11    1    3    3    0    0 -0.68375039563E+01  0.20047529338E+02  0.15643894489E+02  0.26332229833E+02  0.51100000000E-03 0.  1.
         12    1    3    3    0    0 -0.97561387519E+01  0.71807489857E+01  0.11568888740E+02  0.16750659271E+02  0.00000000000E+00 0. -1.
</event>
<event>
 7    1  0.1384886E-010  0.4778727E+02  0.7816164E-02  0.1312668E+00
        -11   -1    0    0    0    0  0.00000000000E+00  0.00000000000E+00  0.45593999997E+02  0.45594000000E+02  0.51100000000E-03 0. -1.
         11   -1    0    0    0    0 -0.00000000000E+00 -0.00000000000E+00 -0.45593999997E+02  0.45594000000E+02  0.51100000000E-03 0.  1.
    9900012    2    1    2    0    0  0.40678949559E+02 -0.14231940681E+02 -0.51281900819E+01  0.47787269519E+02  0.19999993046E+02 0.  0.
         12    1    1    2    0    0 -0.40678949559E+02  0.14231940681E+02  0.51281900819E+01  0.43400730481E+02  0.00000000000E+00 0. -1.
         11    1    3    3    0    0  0.12716926630E+02 -0.64538373852E+01 -0.37746266482E+01  0.14751950600E+02  0.51100000000E-03 0.  1.
        -11    1    3    3    0    0  0.23236193256E+02 -0.14917871916E+01  0.38569280457E+01  0.23601313528E+02  0.51100000000E-03 0. -1.
         12    1    3    3    0    0  0.47258296728E+01 -0.62863161046E+01 -0.52104914793E+01  0.94340053911E+01  0.00000000000E+00 0. -1.
</event>
<event>
 7    1  0.1384886E-010  0.4778727E+02  0.7816164E-02  0.1312668E+00
        -11   -1    0    0    0    0  0.00000000000E+00  0.00000000000E+00  0.45593999997E+02  0.45594000000E+02  0.51100000000E-03 0. -1.
         11   -1    0    0    0    0 -0.00000000000E+00 -0.00000000000E+00 -0.45593999997E+02  0.45594000000E+02  0.51100000000E-03 0.  1.
    9900012    2    1    2    0    0 -0.16275673097E+02  0.46613917042E+01 -0.39962446591E+02  0.47787271378E+02  0.20000001520E+02 0.  0.
         12    1    1    2    0    0  0.16275673097E+02 -0.46613917042E+01  0.39962446591E+02  0.43400728622E+02  0.00000000000E+00 0. -1.
         11    1    3    3    0    0 -0.76300379926E+01 -0.16942591322E+01 -0.20593620198E+02  0.22026919596E+02  0.51100000000E-03 0. -1.
        -11    1    3    3    0    0 -0.27798584992E+01 -0.33141571060E+01 -0.10602274536E+02  0.11450741294E+02  0.51100000000E-03 0.  1.
         12    1    3    3    0    0 -0.58657766050E+01  0.96698079424E+01 -0.87665518574E+01  0.14309610487E+02  0.00000000000E+00 0. -1.
</event>
<event>
 7    1  0.1384886E-010  0.4778727E+02  0.7816164E-02  0.1312668E+00
        -11   -1    0    0    0    0  0.00000000000E+00  0.00000000000E+00  0.45593999997E+02  0.45594000000E+02  0.51100000000E-03 0.  1.
         11   -1    0    0    0    0 -0.00000000000E+00 -0.00000000000E+00 -0.45593999997E+02  0.45594000000E+02  0.51100000000E-03 0. -1.
    9900012    2    1    2    0    0  0.41152760487E+02  0.96540539023E+01  0.98423921533E+01  0.47787272636E+02  0.20000007257E+02 0.  0.
         12    1    1    2    0    0 -0.41152760487E+02 -0.96540539023E+01 -0.98423921533E+01  0.43400727364E+02  0.00000000000E+00 0. -1.
         11    1    3    3    0    0  0.44186260589E+01  0.29169742550E+01  0.32095151468E+01  0.61914443219E+01  0.51100000000E-03 0. -1.
        -11    1    3    3    0    0  0.12756607468E+02 -0.97788253533E+00  0.99264597573E+01  0.16193266870E+02  0.51100000000E-03 0.  1.
         12    1    3    3    0    0  0.23977526960E+02  0.77149621826E+01 -0.32935827508E+01  0.25402561444E+02  0.00000000000E+00 0. -1.
</event>
<event>
 7    1  0.1384886E-010  0.4778727E+02  0.7816164E-02  0.1312668E+00
        -11   -1    0    0    0    0  0.00000000000E+00  0.00000000000E+00  0.45593999997E+02  0.45594000000E+02  0.51100000000E-03 0.  1.
         11   -1    0    0    0    0 -0.00000000000E+00 -0.00000000000E+00 -0.45593999997E+02  0.45594000000E+02  0.51100000000E-03 0. -1.
    9900012    2    1    2    0    0  0.22056634583E+02  0.36260244860E+02 -0.90732072509E+01  0.47787267560E+02  0.19999984115E+02 0.  0.
         12    1    1    2    0    0 -0.22056634583E+02 -0.36260244860E+02  0.90732072509E+01  0.43400732440E+02  0.00000000000E+00 0. -1.
         11    1    3    3    0    0  0.85963978276E+01  0.13964150341E+02 -0.12801856852E+02  0.20803439366E+02  0.51100000000E-03 0. -1.
        -11    1    3    3    0    0  0.87918796537E+01  0.12770911414E+02 -0.62565295962E+00  0.15517240994E+02  0.51100000000E-03 0.  1.
         12    1    3    3    0    0  0.46683571019E+01  0.95251831053E+01  0.43543025604E+01  0.11466587200E+02  0.00000000000E+00 0. -1.
</event>
<event>
 7    1  0.1384886E-010  0.4778727E+02  0.7816164E-02  0.1312668E+00
        -11   -1    0    0    0    0  0.00000000000E+00  0.00000000000E+00  0.45593999997E+02  0.45594000000E+02  0.51100000000E-03 0.  1.
         11   -1    0    0    0    0 -0.00000000000E+00 -0.00000000000E+00 -0.45593999997E+02  0.45594000000E+02  0.51100000000E-03 0. -1.
    9900012    2    1    2    0    0  0.31868807028E+02 -0.27031794838E+02  0.11716839753E+02  0.47787272732E+02  0.20000007696E+02 0.  0.
         12    1    1    2    0    0 -0.31868807028E+02  0.27031794838E+02 -0.11716839753E+02  0.43400727268E+02  0.00000000000E+00 0. -1.
         11    1    3    3    0    0  0.65422139351E+00 -0.20959935023E+01  0.67637798183E+00  0.22975382105E+01  0.51100000000E-03 0. -1.
        -11    1    3    3    0    0  0.38400179498E+01 -0.55496977726E+01  0.98305261892E+01  0.11924098651E+02  0.51100000000E-03 0.  1.
         12    1    3    3    0    0  0.27374567685E+02 -0.19386103563E+02  0.12099355819E+01  0.33565635871E+02  0.00000000000E+00 0. -1.
</event>
<event>
 7    1  0.1384886E-010  0.4778727E+02  0.7816164E-02  0.1312668E+00
        -11   -1    0    0    0    0  0.00000000000E+00  0.00000000000E+00  0.45593999997E+02  0.45594000000E+02  0.51100000000E-03 0.  1.
         11   -1    0    0    0    0 -0.00000000000E+00 -0.00000000000E+00 -0.45593999997E+02  0.45594000000E+02  0.51100000000E-03 0. -1.
    9900012    2    1    2    0    0  0.16756681432E+02 -0.18153128795E+02  0.35683343210E+02  0.47787269127E+02  0.19999991259E+02 0.  0.
         12    1    1    2    0    0 -0.16756681432E+02  0.18153128795E+02 -0.35683343210E+02  0.43400730873E+02  0.00000000000E+00 0. -1.
         11    1    3    3    0    0  0.75135951676E+01  0.24588126932E+01  0.11890433690E+02  0.14278735441E+02  0.51100000000E-03 0. -1.
        -11    1    3    3    0    0  0.91825235570E+01 -0.12646153776E+02  0.15648953465E+02  0.22116366994E+02  0.51100000000E-03 0.  1.
        -12    1    3    3    0    0  0.60562707704E-01 -0.79657877123E+01  0.81439560547E+01  0.11392166692E+02  0.00000000000E+00 0.  1.
</event>
<event>
 7    1 -0.1384886E-010  0.4778727E+02  0.7816164E-02  0.1312668E+00
        -11   -1    0    0    0    0  0.00000000000E+00  0.00000000000E+00  0.45593999997E+02  0.45594000000E+02  0.51100000000E-03 0. -1.
         11   -1    0    0    0    0 -0.00000000000E+00 -0.00000000000E+00 -0.45593999997E+02  0.45594000000E+02  0.51100000000E-03 0.  1.
    9900012    2    1    2    0    0 -0.29007453851E+02 -0.32236166095E+02 -0.17379052585E+01  0.47787273069E+02  0.20000009230E+02 0.  0.
         12    1    1    2    0    0  0.29007453851E+02  0.32236166095E+02  0.17379052585E+01  0.43400726931E+02  0.00000000000E+00 0. -1.
         11    1    3    3    0    0 -0.59785898623E+00  0.10104199953E+01 -0.16268259893E+01  0.20062270547E+01  0.51100000000E-03 0. -1.
        -11    1    3    3    0    0 -0.11401033911E+02 -0.19213826464E+02  0.55397439193E+01  0.23018328883E+02  0.51100000000E-03 0.  1.
        -12    1    3    3    0    0 -0.17008560954E+02 -0.14032759627E+02 -0.56508231886E+01  0.22762717131E+02  0.00000000000E+00 0.  1.
</event>
<event>
 7    1  0.1436826E-010  0.4778733E+02  0.7816164E-02  0.1312668E+00
        -11   -1    0    0    0    0  0.00000000000E+00  0.00000000000E+00  0.45593999997E+02  0.45594000000E+02  0.51100000000E-03 0.  1.
         11   -1    0    0    0    0 -0.00000000000E+00 -0.00000000000E+00 -0.45593999997E+02  0.45594000000E+02  0.51100000000E-03 0. -1.
    9900012    2    1    2    0    0  0.43024098818E+02  0.48017053393E+01 -0.30803977472E+01  0.47787328306E+02  0.20000261076E+02 0.  0.
         12    1    1    2    0    0 -0.43024098818E+02 -0.48017053393E+01  0.30803977472E+01  0.43400671694E+02  0.00000000000E+00 0. -1.
         11    1    3    3    0    0  0.10894647239E+02 -0.85932646418E+00 -0.74710093295E+01  0.13238117732E+02  0.51100000000E-03 0. -1.
        -11    1    3    3    0    0  0.75491230569E+01  0.52892760918E+01  0.37682816837E+01  0.99581949977E+01  0.51100000000E-03 0.  1.
        -12    1    3    3    0    0  0.24580328522E+02  0.37175571166E+00  0.62232989862E+00  0.24591015576E+02  0.00000000000E+00 0.  1.
</event>
<event>
 7    1  0.1384886E-010  0.4778728E+02  0.7816164E-02  0.1312668E+00
        -11   -1    0    0    0    0  0.00000000000E+00  0.00000000000E+00  0.45593999997E+02  0.45594000000E+02  0.51100000000E-03 0. -1.
         11   -1    0    0    0    0 -0.00000000000E+00 -0.00000000000E+00 -0.45593999997E+02  0.45594000000E+02  0.51100000000E-03 0.  1.
    9900012    2    1    2    0    0  0.20243917770E+02 -0.38274729857E+02 -0.29751867099E+01  0.47787275487E+02  0.20000020253E+02 0.  0.
         12    1    1    2    0    0 -0.20243917770E+02  0.38274729857E+02  0.29751867099E+01  0.43400724513E+02  0.00000000000E+00 0. -1.
         11    1    3    3    0    0  0.95347173687E+01 -0.94530194347E+01 -0.53528021577E+01  0.14454165591E+02  0.51100000000E-03 0. -1.
        -11    1    3    3    0    0  0.12436891861E+02 -0.22868942214E+02  0.51606211779E+01  0.26538590927E+02  0.51100000000E-03 0.  1.
         12    1    3    3    0    0 -0.17276914601E+01 -0.59527682084E+01 -0.27830057301E+01  0.67945189688E+01  0.00000000000E+00 0. -1.
</event>
<event>
 7    1  0.1384886E-010  0.4778727E+02  0.7816164E-02  0.1312668E+00
        -11   -1    0    0    0    0  0.00000000000E+00  0.00000000000E+00  0.45593999997E+02  0.45594000000E+02  0.51100000000E-03 0. -1.
         11   -1    0    0    0    0 -0.00000000000E+00 -0.00000000000E+00 -0.45593999997E+02  0.45594000000E+02  0.51100000000E-03 0.  1.
    9900012    2    1    2    0    0 -0.21177615327E+02  0.28838739000E+02 -0.24565411111E+02  0.47787266353E+02  0.19999978611E+02 0.  0.
         12    1    1    2    0    0  0.21177615327E+02 -0.28838739000E+02  0.24565411111E+02  0.43400733647E+02  0.00000000000E+00 0. -1.
         11    1    3    3    0    0 -0.53066193407E+01 -0.17605539496E+00 -0.35035567118E+00  0.53210857620E+01  0.51100000000E-03 0. -1.
        -11    1    3    3    0    0  0.28014053220E+00  0.96247702181E+01 -0.73570940752E+01  0.12117818036E+02  0.51100000000E-03 0.  1.
        -12    1    3    3    0    0 -0.16151136518E+02  0.19390024177E+02 -0.16857961365E+02  0.30348362555E+02  0.00000000000E+00 0.  1.
</event>
<event>
 7    1  0.1384886E-010  0.4778727E+02  0.7816164E-02  0.1312668E+00
        -11   -1    0    0    0    0  0.00000000000E+00  0.00000000000E+00  0.45593999997E+02  0.45594000000E+02  0.51100000000E-03 0.  1.
         11   -1    0    0    0    0 -0.00000000000E+00 -0.00000000000E+00 -0.45593999997E+02  0.45594000000E+02  0.51100000000E-03 0. -1.
    9900012    2    1    2    0    0  0.26903712893E+01  0.30300402637E+02  0.30955948693E+02  0.47787271238E+02  0.20000000882E+02 0.  0.
         12    1    1    2    0    0 -0.26903712893E+01 -0.30300402637E+02 -0.30955948693E+02  0.43400728762E+02  0.00000000000E+00 0. -1.
         11    1    3    3    0    0  0.38872971078E+00 -0.37113699604E+00 -0.13889430245E+01  0.14893006561E+01  0.51100000000E-03 0. -1.
        -11    1    3    3    0    0  0.70298756884E+01  0.16052881831E+02  0.19976214047E+02  0.26573733181E+02  0.51100000000E-03 0.  1.
         12    1    3    3    0    0 -0.47282341099E+01  0.14618657801E+02  0.12368677671E+02  0.19724237401E+02  0.00000000000E+00 0. -1.
</event>
<event>
 7    1  0.1384886E-010  0.4778728E+02  0.7816164E-02  0.1312668E+00
        -11   -1    0    0    0    0  0.00000000000E+00  0.00000000000E+00  0.45593999997E+02  0.45594000000E+02  0.51100000000E-03 0.  1.
         11   -1    0    0    0    0 -0.00000000000E+00 -0.00000000000E+00 -0.45593999997E+02  0.45594000000E+02  0.51100000000E-03 0. -1.
    9900012    2    1    2    0    0  0.14919519623E+02  0.35867373961E+02  0.19353608523E+02  0.47787277154E+02  0.20000027858E+02 0.  0.
         12    1    1    2    0    0 -0.14919519623E+02 -0.35867373961E+02 -0.19353608523E+02  0.43400722846E+02  0.00000000000E+00 0. -1.
         11    1    3    3    0    0  0.11267362427E+02  0.25573707281E+02  0.39090963281E+01  0.28217884302E+02  0.51100000000E-03 0. -1.
        -11    1    3    3    0    0 -0.11102428996E+01  0.83719272077E+00  0.23407239708E+01  0.27225943357E+01  0.51100000000E-03 0.  1.
         12    1    3    3    0    0  0.47624000955E+01  0.94564739598E+01  0.13103788224E+02  0.16846798516E+02  0.00000000000E+00 0. -1.
</event>
<event>
 7    1  0.1384886E-010  0.4778728E+02  0.7816164E-02  0.1312668E+00
        -11   -1    0    0    0    0  0.00000000000E+00  0.00000000000E+00  0.45593999997E+02  0.45594000000E+02  0.51100000000E-03 0.  1.
         11   -1    0    0    0    0 -0.00000000000E+00 -0.00000000000E+00 -0.45593999997E+02  0.45594000000E+02  0.51100000000E-03 0. -1.
    9900012    2    1    2    0    0 -0.10052842933E+02 -0.50634872932E+01  0.41915671900E+02  0.47787284505E+02  0.20000061373E+02 0.  0.
         12    1    1    2    0    0  0.10052842933E+02  0.50634872932E+01 -0.41915671900E+02  0.43400715495E+02  0.00000000000E+00 0. -1.
         11    1    3    3    0    0 -0.90605926004E+01  0.57483743537E+01  0.25616759751E+02  0.27773306004E+02  0.51100000000E-03 0. -1.
        -11    1    3    3    0    0 -0.17731400455E+00 -0.30522906435E+01  0.17970153476E+01  0.35464324115E+01  0.51100000000E-03 0.  1.
         12    1    3    3    0    0 -0.81493632755E+00 -0.77595710034E+01  0.14501896802E+02  0.16467546090E+02  0.00000000000E+00 0. -1.
</event>
<event>
 7    1  0.1384886E-010  0.4778727E+02  0.7816164E-02  0.1312668E+00
        -11   -1    0    0    0    0  0.00000000000E+00  0.00000000000E+00  0.45593999997E+02  0.45594000000E+02  0.51100000000E-03 0.  1.
         11   -1    0    0    0    0 -0.00000000000E+00 -0.00000000000E+00 -0.45593999997E+02  0.45594000000E+02  0.51100000000E-03 0. -1.
    9900012    2    1    2    0    0  0.19398147468E+02 -0.49619693797E+01  0.38506025295E+02  0.47787271327E+02  0.20000001288E+02 0.  0.
         12    1    1    2    0    0 -0.19398147468E+02  0.49619693797E+01 -0.38506025295E+02  0.43400728673E+02  0.00000000000E+00 0. -1.
         11    1    3    3    0    0  0.12170831768E+02 -0.38114858716E+01  0.79069641967E+01  0.15005887296E+02  0.51100000000E-03 0. -1.
        -11    1    3    3    0    0  0.84645180002E+01 -0.32505615062E+01  0.20925972093E+02  0.22805931758E+02  0.51100000000E-03 0.  1.
        -12    1    3    3    0    0 -0.12372023002E+01  0.21000779982E+01  0.96730890058E+01  0.99754522727E+01  0.00000000000E+00 0.  1.
</event>
<event>
 7    1  0.1384886E-010  0.4778727E+02  0.7816164E-02  0.1312668E+00
        -11   -1    0    0    0    0  0.00000000000E+00  0.00000000000E+00  0.45593999997E+02  0.45594000000E+02  0.51100000000E-03 0. -1.
         11   -1    0    0    0    0 -0.00000000000E+00 -0.00000000000E+00 -0.45593999997E+02  0.45594000000E+02  0.51100000000E-03 0.  1.
    9900012    2    1    2    0    0  0.37433241568E+02  0.55177423561E+01  0.21258653959E+02  0.47787269324E+02  0.19999992156E+02 0.  0.
         12    1    1    2    0    0 -0.37433241568E+02 -0.55177423561E+01 -0.21258653959E+02  0.43400730676E+02  0.00000000000E+00 0. -1.
         11    1    3    3    0    0 -0.79223278805E+00  0.11341539159E+01  0.28825103651E+01  0.31973120212E+01  0.51100000000E-03 0. -1.
        -11    1    3    3    0    0  0.30646614578E+02  0.49643298836E+01  0.86166290563E+01  0.32219650104E+02  0.51100000000E-03 0.  1.
         12    1    3    3    0    0  0.75788597785E+01 -0.58074144346E+00  0.97595145381E+01  0.12370307199E+02  0.00000000000E+00 0. -1.
</event>
<event>
 7    1  0.1384886E-010  0.4778727E+02  0.7816164E-02  0.1312668E+00
        -11   -1    0    0    0    0  0.00000000000E+00  0.00000000000E+00  0.45593999997E+02  0.45594000000E+02  0.51100000000E-03 0.  1.
         11   -1    0    0    0    0 -0.00000000000E+00 -0.00000000000E+00 -0.45593999997E+02  0.45594000000E+02  0.51100000000E-03 0. -1.
    9900012    2    1    2    0    0  0.74241531475E+01 -0.22757972186E+02  0.36201933044E+02  0.47787270696E+02  0.19999998411E+02 0.  0.
         12    1    1    2    0    0 -0.74241531475E+01  0.22757972186E+02 -0.36201933044E+02  0.43400729304E+02  0.00000000000E+00 0. -1.
         11    1    3    3    0    0  0.30799247825E+01 -0.14245815152E+02  0.20424092292E+02  0.25091287975E+02  0.51100000000E-03 0. -1.
        -11    1    3    3    0    0 -0.37484412050E+01 -0.29902561472E+00  0.78471312836E+01  0.87015916606E+01  0.51100000000E-03 0.  1.
         12    1    3    3    0    0  0.80926695700E+01 -0.82131314191E+01  0.79307094692E+01  0.13994391061E+02  0.00000000000E+00 0. -1.
</event>
<event>
 7    1  0.1384886E-010  0.4778727E+02  0.7816164E-02  0.1312668E+00
        -11   -1    0    0    0    0  0.00000000000E+00  0.00000000000E+00  0.45593999997E+02  0.45594000000E+02  0.51100000000E-03 0. -1.
         11   -1    0    0    0    0 -0.00000000000E+00 -0.00000000000E+00 -0.45593999997E+02  0.45594000000E+02  0.51100000000E-03 0.  1.
    9900012    2    1    2    0    0  0.33286025891E+01 -0.43072636306E+02  0.41583284255E+01  0.47787270872E+02  0.19999999214E+02 0.  0.
         12    1    1    2    0    0 -0.33286025891E+01  0.43072636306E+02 -0.41583284255E+01  0.43400729128E+02  0.00000000000E+00 0. -1.
         11    1    3    3    0    0  0.47821073585E+00 -0.49392644437E+00  0.36095490220E+01  0.36744378133E+01  0.51100000000E-03 0. -1.
        -11    1    3    3    0    0  0.20848429969E+01 -0.26195676330E+02  0.57629943839E+01  0.26903013460E+02  0.51100000000E-03 0.  1.
         12    1    3    3    0    0  0.76554885635E+00 -0.16383033532E+02 -0.52142149804E+01  0.17209819598E+02  0.00000000000E+00 0. -1.
</event>
<event>
 7    1  0.1384886E-010  0.4778729E+02  0.7816164E-02  0.1312668E+00
        -11   -1    0    0    0    0  0.00000000000E+00  0.00000000000E+00  0.45593999997E+02  0.45594000000E+02  0.51100000000E-03 0.  1.
         11   -1    0    0    0    0 -0.00000000000E+00 -0.00000000000E+00 -0.45593999997E+02  0.45594000000E+02  0.51100000000E-03 0. -1.
    9900012    2    1    2    0    0 -0.38900325685E+02 -0.15420810047E+02  0.11514549840E+02  0.47787290571E+02  0.20000089031E+02 0.  0.
         12    1    1    2    0    0  0.38900325685E+02  0.15420810047E+02 -0.11514549840E+02  0.43400709429E+02  0.00000000000E+00 0. -1.
         11    1    3    3    0    0 -0.13296200991E+01 -0.24181153011E+01  0.23820457554E+01  0.36454510639E+01  0.51100000000E-03 0. -1.
        -11    1    3    3    0    0 -0.22009611174E+02  0.89740629739E+00  0.21200511016E+01  0.22129684567E+02  0.51100000000E-03 0.  1.
        -12    1    3    3    0    0 -0.15561094412E+02 -0.13900101043E+02  0.70124529827E+01  0.22012154941E+02  0.00000000000E+00 0.  1.
</event>
<event>
 7    1  0.1384886E-010  0.4778726E+02  0.7816164E-02  0.1312668E+00
        -11   -1    0    0    0    0  0.00000000000E+00  0.00000000000E+00  0.45593999997E+02  0.45594000000E+02  0.51100000000E-03 0.  1.
         11   -1    0    0    0    0 -0.00000000000E+00 -0.00000000000E+00 -0.45593999997E+02  0.45594000000E+02  0.51100000000E-03 0. -1.
    9900012    2    1    2    0    0  0.27018067187E+02 -0.31845642786E+02  0.11811149490E+02  0.47787260706E+02  0.19999952865E+02 0.  0.
         12    1    1    2    0    0 -0.27018067187E+02  0.31845642786E+02 -0.11811149490E+02  0.43400739294E+02  0.00000000000E+00 0. -1.
         11    1    3    3    0    0  0.42450356848E+01 -0.11732962134E+02  0.60407217894E+01  0.13862649400E+02  0.51100000000E-03 0. -1.
        -11    1    3    3    0    0  0.22854082454E+02 -0.21672569826E+02  0.43163614787E+01  0.31790570053E+02  0.51100000000E-03 0.  1.
         12    1    3    3    0    0 -0.81050951644E-01  0.15598891736E+01  0.14540662216E+01  0.21340412525E+01  0.00000000000E+00 0. -1.
</event>
<event>
 7    1  0.1384886E-010  0.4778727E+02  0.7816164E-02  0.1312668E+00
        -11   -1    0    0    0    0  0.00000000000E+00  0.00000000000E+00  0.45593999997E+02  0.45594000000E+02  0.51100000000E-03 0.  1.
         11   -1    0    0    0    0 -0.00000000000E+00 -0.00000000000E+00 -0.45593999997E+02  0.45594000000E+02  0.51100000000E-03 0. -1.
    9900012    2    1    2    0    0 -0.40037472351E+01 -0.22623974962E+02  0.36820497805E+02  0.47787270817E+02  0.19999998964E+02 0.  0.
         12    1    1    2    0    0  0.40037472351E+01  0.22623974962E+02 -0.36820497805E+02  0.43400729183E+02  0.00000000000E+00 0. -1.
         11    1    3    3    0    0  0.47941616977E-01 -0.84389294992E+00 -0.14032766940E+01  0.16381817514E+01  0.51100000000E-03 0. -1.
        -11    1    3    3    0    0 -0.81746773619E+01 -0.15013852287E+02  0.20214769389E+02  0.26474100782E+02  0.51100000000E-03 0.  1.
        -12    1    3    3    0    0  0.41229885098E+01 -0.67662297248E+01  0.18009005110E+02  0.19674988284E+02  0.00000000000E+00 0.  1.
</event>
<event>
 7    1  0.1384886E-010  0.4778725E+02  0.7816164E-02  0.1312668E+00
        -11   -1    0    0    0    0  0.00000000000E+00  0.00000000000E+00  0.45593999997E+02  0.45594000000E+02  0.51100000000E-03 0.  1.
         11   -1    0    0    0    0 -0.00000000000E+00 -0.00000000000E+00 -0.45593999997E+02  0.45594000000E+02  0.51100000000E-03 0. -1.
    9900012    2    1    2    0    0  0.36359280668E+02  0.19261673916E+02  0.13806370684E+02  0.47787248345E+02  0.19999896504E+02 0.  0.
         12    1    1    2    0    0 -0.36359280668E+02 -0.19261673916E+02 -0.13806370684E+02  0.43400751655E+02  0.00000000000E+00 0. -1.
         11    1    3    3    0    0  0.22930676326E+02  0.12713344143E+02  0.27609645460E+01  0.26364141586E+02  0.51100000000E-03 0. -1.
        -11    1    3    3    0    0  0.14725288681E+02  0.36363527394E+01  0.92067302893E+01  0.17743197876E+02  0.51100000000E-03 0.  1.
         12    1    3    3    0    0 -0.12966843384E+01  0.29119770329E+01  0.18386758488E+01  0.36799088835E+01  0.00000000000E+00 0. -1.
</event>
<event>
 7    1  0.1384886E-010  0.4778727E+02  0.7816164E-02  0.1312668E+00
        -11   -1    0    0    0    0  0.00000000000E+00  0.00000000000E+00  0.45593999997E+02  0.45594000000E+02  0.51100000000E-03 0.  1.
         11   -1    0    0    0    0 -0.00000000000E+00 -0.00000000000E+00 -0.45593999997E+02  0.45594000000E+02  0.51100000000E-03 0. -1.
    9900012    2    1    2    0    0 -0.23201251987E+02 -0.21014437361E+02  0.30061909045E+02  0.47787273660E+02  0.20000011928E+02 0.  0.
         12    1    1    2    0    0  0.23201251987E+02  0.21014437361E+02 -0.30061909045E+02  0.43400726340E+02  0.00000000000E+00 0. -1.
         11    1    3    3    0    0 -0.90166093903E+01 -0.17820550929E+02  0.98223544306E+01  0.22256458100E+02  0.51100000000E-03 0. -1.
        -11    1    3    3    0    0 -0.86439742946E+01 -0.39675917696E+01  0.96207046348E+01  0.13528415797E+02  0.51100000000E-03 0.  1.
         12    1    3    3    0    0 -0.55406683023E+01  0.77370533834E+00  0.10618849980E+02  0.12002399763E+02  0.00000000000E+00 0. -1.
</event>
<event>
 7    1  0.1384886E-010  0.4778727E+02  0.7816164E-02  0.1312668E+00
        -11   -1    0    0    0    0  0.00000000000E+00  0.00000000000E+00  0.45593999997E+02  0.45594000000E+02  0.51100000000E-03 0.  1.
         11   -1    0    0    0    0 -0.00000000000E+00 -0.00000000000E+00 -0.45593999997E+02  0.45594000000E+02  0.51100000000E-03 0. -1.
    9900012    2    1    2    0    0 -0.32226349900E+02 -0.21911781020E+02  0.19103909213E+02  0.47787272787E+02  0.20000007946E+02 0.  0.
         12    1    1    2    0    0  0.32226349900E+02  0.21911781020E+02 -0.19103909213E+02  0.43400727213E+02  0.00000000000E+00 0. -1.
         11    1    3    3    0    0 -0.13079813471E+02 -0.12835867633E+02  0.30771447315E+01  0.18582514315E+02  0.51100000000E-03 0. -1.
        -11    1    3    3    0    0 -0.15090986480E+02 -0.11640733370E+02  0.15104253205E+02  0.24318367780E+02  0.51100000000E-03 0.  1.
         12    1    3    3    0    0 -0.40555499498E+01  0.25648199832E+01  0.92251127669E+00  0.48863906923E+01  0.00000000000E+00 0. -1.
</event>
<event>
 7    1  0.1384886E-010  0.4778727E+02  0.7816164E-02  0.1312668E+00
        -11   -1    0    0    0    0  0.00000000000E+00  0.00000000000E+00  0.45593999997E+02  0.45594000000E+02  0.51100000000E-03 0.  1.
         11   -1    0    0    0    0 -0.00000000000E+00 -0.00000000000E+00 -0.45593999997E+02  0.45594000000E+02  0.51100000000E-03 0. -1.
    9900012    2    1    2    0    0 -0.77954043538E+01 -0.41330771393E+02  0.10706180192E+02  0.47787270890E+02  0.19999999297E+02 0.  0.
         12    1    1    2    0    0  0.77954043538E+01  0.41330771393E+02 -0.10706180192E+02  0.43400729110E+02  0.00000000000E+00 0. -1.
         11    1    3    3    0    0  0.16550806599E+01 -0.28154198120E+01 -0.25260654902E+01  0.41287876950E+01  0.51100000000E-03 0. -1.
        -11    1    3    3    0    0 -0.11358629478E+00 -0.25925931868E+02  0.85695030379E+01  0.27305736168E+02  0.51100000000E-03 0.  1.
        -12    1    3    3    0    0 -0.93368987188E+01 -0.12589419712E+02  0.46627426444E+01  0.16352747027E+02  0.00000000000E+00 0.  1.
</event>
<event>
 7    1  0.1384886E-010  0.4778727E+02  0.7816164E-02  0.1312668E+00
        -11   -1    0    0    0    0  0.00000000000E+00  0.00000000000E+00  0.45593999997E+02  0.45594000000E+02  0.51100000000E-03 0.  1.
         11   -1    0    0    0    0 -0.00000000000E+00 -0.00000000000E+00 -0.45593999997E+02  0.45594000000E+02  0.51100000000E-03 0. -1.
    9900012    2    1    2    0    0 -0.98267144655E+01  0.32302260827E+02  0.27269444665E+02  0.47787274384E+02  0.20000015226E+02 0.  0.
         12    1    1    2    0    0  0.98267144655E+01 -0.32302260827E+02 -0.27269444665E+02  0.43400725616E+02  0.00000000000E+00 0. -1.
         11    1    3    3    0    0 -0.16891185152E+01 -0.12031961248E+01 -0.11423914967E+01  0.23676699234E+01  0.51100000000E-03 0. -1.
        -11    1    3    3    0    0 -0.13540969217E+01  0.97813933821E+01  0.38346393515E+01  0.10593096534E+02  0.51100000000E-03 0.  1.
        -12    1    3    3    0    0 -0.67834990286E+01  0.23724063569E+02  0.24577196810E+02  0.34826507926E+02  0.00000000000E+00 0.  1.
</event>
<event>
 7    1  0.1384886E-010  0.4778728E+02  0.7816164E-02  0.1312668E+00
        -11   -1    0    0    0    0  0.00000000000E+00  0.00000000000E+00  0.45593999997E+02  0.45594000000E+02  0.51100000000E-03 0. -1.
         11   -1    0    0    0    0 -0.00000000000E+00 -0.00000000000E+00 -0.45593999997E+02  0.45594000000E+02  0.51100000000E-03 0.  1.
    9900012    2    1    2    0    0  0.41851733587E+02 -0.92101553917E+01 -0.68722633215E+01  0.47787279157E+02  0.20000036986E+02 0.  0.
         12    1    1    2    0    0 -0.41851733587E+02  0.92101553917E+01  0.68722633215E+01  0.43400720843E+02  0.00000000000E+00 0. -1.
         11    1    3    3    0    0  0.12328128744E+01 -0.32169488091E+01 -0.32517290604E+00  0.34603937498E+01  0.51100000000E-03 0. -1.
        -11    1    3    3    0    0  0.37019010692E+02 -0.42469280566E+00 -0.70125768447E+01  0.37679752532E+02  0.51100000000E-03 0.  1.
        -12    1    3    3    0    0  0.35999100203E+01 -0.55685137769E+01  0.46548642920E+00  0.66471328746E+01  0.00000000000E+00 0.  1.
</event>
<event>
 7    1  0.1384886E-010  0.4778727E+02  0.7816164E-02  0.1312668E+00
        -11   -1    0    0    0    0  0.00000000000E+00  0.00000000000E+00  0.45593999997E+02  0.45594000000E+02  0.51100000000E-03 0.  1.
         11   -1    0    0    0    0 -0.00000000000E+00 -0.00000000000E+00 -0.45593999997E+02  0.45594000000E+02  0.51100000000E-03 0. -1.
    9900012    2    1    2    0    0 -0.15022225345E+02 -0.27575408717E+01  0.40624524184E+02  0.47787271306E+02  0.20000001193E+02 0.  0.
         12    1    1    2    0    0  0.15022225345E+02  0.27575408717E+01 -0.40624524184E+02  0.43400728694E+02  0.00000000000E+00 0. -1.
         11    1    3    3    0    0  0.40047292363E+00 -0.61919041709E+00 -0.16929324476E+01  0.18465632587E+01  0.51100000000E-03 0. -1.
        -11    1    3    3    0    0 -0.92180569397E+01 -0.18932862565E+01  0.13464299548E+02  0.16426943391E+02  0.51100000000E-03 0.  1.
        -12    1    3    3    0    0 -0.62046413285E+01 -0.24506419809E+00  0.28853157084E+02  0.29513764657E+02  0.00000000000E+00 0.  1.
</event>
<event>
 7    1  0.1384886E-010  0.4778727E+02  0.7816164E-02  0.1312668E+00
        -11   -1    0    0    0    0  0.00000000000E+00  0.00000000000E+00  0.45593999997E+02  0.45594000000E+02  0.51100000000E-03 0.  1.
         11   -1    0    0    0    0 -0.00000000000E+00 -0.00000000000E+00 -0.45593999997E+02  0.45594000000E+02  0.51100000000E-03 0. -1.
    9900012    2    1    2    0    0  0.30093110228E+02  0.17009066912E+02  0.26243464645E+02  0.47787273313E+02  0.20000010342E+02 0.  0.
         12    1    1    2    0    0 -0.30093110228E+02 -0.17009066912E+02 -0.26243464645E+02  0.43400726687E+02  0.00000000000E+00 0. -1.
         11    1    3    3    0    0  0.61282398224E+01  0.72817542395E+01  0.10062698994E+01  0.95703629763E+01  0.51100000000E-03 0. -1.
        -11    1    3    3    0    0  0.52296445785E+01  0.54491818366E+01  0.15422413117E+01  0.77085195486E+01  0.51100000000E-03 0.  1.
        -12    1    3    3    0    0  0.18735225827E+02  0.42781308361E+01  0.23694953434E+02  0.30508390788E+02  0.00000000000E+00 0.  1.
</event>
<event>
 7    1  0.1384886E-010  0.4778728E+02  0.7816164E-02  0.1312668E+00
        -11   -1    0    0    0    0  0.00000000000E+00  0.00000000000E+00  0.45593999997E+02  0.45594000000E+02  0.51100000000E-03 0.  1.
         11   -1    0    0    0    0 -0.00000000000E+00 -0.00000000000E+00 -0.45593999997E+02  0.45594000000E+02  0.51100000000E-03 0. -1.
    9900012    2    1    2    0    0  0.38258896033E+02  0.20324858044E+02 -0.26038064753E+01  0.47787276638E+02  0.20000025503E+02 0.  0.
         12    1    1    2    0    0 -0.38258896033E+02 -0.20324858044E+02  0.26038064753E+01  0.43400723362E+02  0.00000000000E+00 0. -1.
         11    1    3    3    0    0  0.24236931929E+02  0.78106665909E+01 -0.81378299778E+01  0.26733119140E+02  0.51100000000E-03 0. -1.
        -11    1    3    3    0    0  0.13888586575E+02  0.10183851069E+02  0.27817765737E+01  0.17445398844E+02  0.51100000000E-03 0.  1.
         12    1    3    3    0    0  0.13337752931E+00  0.23303403839E+01  0.27522469289E+01  0.36087586547E+01  0.00000000000E+00 0. -1.
</event>
<event>
 7    1  0.1384886E-010  0.4778727E+02  0.7816164E-02  0.1312668E+00
        -11   -1    0    0    0    0  0.00000000000E+00  0.00000000000E+00  0.45593999997E+02  0.45594000000E+02  0.51100000000E-03 0.  1.
         11   -1    0    0    0    0 -0.00000000000E+00 -0.00000000000E+00 -0.45593999997E+02  0.45594000000E+02  0.51100000000E-03 0. -1.
    9900012    2    1    2    0    0  0.51046470239E+01  0.22182406065E+02  0.36952765631E+02  0.47787269040E+02  0.19999990862E+02 0.  0.
         12    1    1    2    0    0 -0.51046470239E+01 -0.22182406065E+02 -0.36952765631E+02  0.43400730960E+02  0.00000000000E+00 0. -1.
         11    1    3    3    0    0  0.48880613751E+01  0.57556199397E+01  0.21274937952E+02  0.22575280508E+02  0.51100000000E-03 0. -1.
        -11    1    3    3    0    0  0.21618734293E+01  0.16900538263E+02  0.15758176499E+02  0.23208231668E+02  0.51100000000E-03 0.  1.
        -12    1    3    3    0    0 -0.19452877805E+01 -0.47375213836E+00 -0.80348820091E-01  0.20037568641E+01  0.00000000000E+00 0.  1.
</event>
<event>
 7    1  0.1384886E-010  0.4778727E+02  0.7816164E-02  0.1312668E+00
        -11   -1    0    0    0    0  0.00000000000E+00  0.00000000000E+00  0.45593999997E+02  0.45594000000E+02  0.51100000000E-03 0. -1.
         11   -1    0    0    0    0 -0.00000000000E+00 -0.00000000000E+00 -0.45593999997E+02  0.45594000000E+02  0.51100000000E-03 0.  1.
    9900012    2    1    2    0    0 -0.32004494515E+02 -0.26802385221E+02  0.11872976373E+02  0.47787273155E+02  0.20000009624E+02 0.  0.
         12    1    1    2    0    0  0.32004494515E+02  0.26802385221E+02 -0.11872976373E+02  0.43400726845E+02  0.00000000000E+00 0. -1.
         11    1    3    3    0    0 -0.80986080961E+00 -0.24148969466E+01  0.71463885541E+01  0.75867299557E+01  0.51100000000E-03 0. -1.
        -11    1    3    3    0    0 -0.14098031822E+02 -0.12836839615E+02  0.43874422225E+01  0.19564984081E+02  0.51100000000E-03 0.  1.
         12    1    3    3    0    0 -0.17096601883E+02 -0.11550648659E+02  0.33914559667E+00  0.20635559118E+02  0.00000000000E+00 0. -1.
</event>
<event>
 7    1  0.1384886E-010  0.4778728E+02  0.7816164E-02  0.1312668E+00
        -11   -1    0    0    0    0  0.00000000000E+00  0.00000000000E+00  0.45593999997E+02  0.45594000000E+02  0.51100000000E-03 0.  1.
         11   -1    0    0    0    0 -0.00000000000E+00 -0.00000000000E+00 -0.45593999997E+02  0.45594000000E+02  0.51100000000E-03 0. -1.
    9900012    2    1    2    0    0 -0.17625378973E+01 -0.83704139212E+01  0.42549408914E+02  0.47787279177E+02  0.20000037080E+02 0.  0.
         12    1    1    2    0    0  0.17625378973E+01  0.83704139212E+01 -0.42549408914E+02  0.43400720823E+02  0.00000000000E+00 0. -1.
         11    1    3    3    0    0 -0.44106900926E+01  0.73831197979E+00  0.75214079953E+01  0.87504782821E+01  0.51100000000E-03 0. -1.
        -11    1    3    3    0    0  0.55581467816E+01 -0.28856578700E+01  0.29672319893E+02  0.30326005096E+02  0.51100000000E-03 0.  1.
        -12    1    3    3    0    0 -0.29099945862E+01 -0.62230680310E+01  0.53556810255E+01  0.87107957993E+01  0.00000000000E+00 0.  1.
</event>
<event>
 7    1  0.1384886E-010  0.4778727E+02  0.7816164E-02  0.1312668E+00
        -11   -1    0    0    0    0  0.00000000000E+00  0.00000000000E+00  0.45593999997E+02  0.45594000000E+02  0.51100000000E-03 0.  1.
         11   -1    0    0    0    0 -0.00000000000E+00 -0.00000000000E+00 -0.45593999997E+02  0.45594000000E+02  0.51100000000E-03 0. -1.
    9900012    2    1    2    0    0  0.31475983363E+02 -0.24077834761E+02 -0.17695859940E+02  0.47787272881E+02  0.20000008373E+02 0.  0.
         12    1    1    2    0    0 -0.31475983363E+02  0.24077834761E+02  0.17695859940E+02  0.43400727119E+02  0.00000000000E+00 0. -1.
         11    1    3    3    0    0  0.31396467103E+01 -0.12268127160E+02 -0.72934719124E+01  0.14613659989E+02  0.51100000000E-03 0.  1.
        -11    1    3    3    0    0  0.11730336411E+02 -0.27911598595E+01 -0.70922447281E+01  0.13988970699E+02  0.51100000000E-03 0. -1.
        -12    1    3    3    0    0  0.16606000241E+02 -0.90185477412E+01 -0.33101432998E+01  0.19184642192E+02  0.00000000000E+00 0.  1.
</event>
<event>
 7    1  0.1384886E-010  0.4778727E+02  0.7816164E-02  0.1312668E+00
        -11   -1    0    0    0    0  0.00000000000E+00  0.00000000000E+00  0.45593999997E+02  0.45594000000E+02  0.51100000000E-03 0.  1.
         11   -1    0    0    0    0 -0.00000000000E+00 -0.00000000000E+00 -0.45593999997E+02  0.45594000000E+02  0.51100000000E-03 0. -1.
    9900012    2    1    2    0    0  0.39633085366E+02 -0.30633569763E+01  0.17420034847E+02  0.47787271600E+02  0.20000002532E+02 0.  0.
         12    1    1    2    0    0 -0.39633085366E+02  0.30633569763E+01 -0.17420034847E+02  0.43400728400E+02  0.00000000000E+00 0. -1.
         11    1    3    3    0    0  0.51177228937E+01 -0.48031665306E+01  0.36887674918E+01  0.79289660238E+01  0.51100000000E-03 0. -1.
        -11    1    3    3    0    0  0.34888496622E+02  0.68897802845E+00  0.15159826141E+02  0.38046053884E+02  0.51100000000E-03 0.  1.
         12    1    3    3    0    0 -0.37313414980E+00  0.10508315259E+01 -0.14285587859E+01  0.18122516918E+01  0.00000000000E+00 0. -1.
</event>
<event>
 7    1  0.1384886E-010  0.4778727E+02  0.7816164E-02  0.1312668E+00
        -11   -1    0    0    0    0  0.00000000000E+00  0.00000000000E+00  0.45593999997E+02  0.45594000000E+02  0.51100000000E-03 0.  1.
         11   -1    0    0    0    0 -0.00000000000E+00 -0.00000000000E+00 -0.45593999997E+02  0.45594000000E+02  0.51100000000E-03 0. -1.
    9900012    2    1    2    0    0 -0.31233483763E+02 -0.17372025669E+02  0.24623272558E+02  0.47787270337E+02  0.19999996777E+02 0.  0.
         12    1    1    2    0    0  0.31233483763E+02  0.17372025669E+02 -0.24623272558E+02  0.43400729663E+02  0.00000000000E+00 0. -1.
         11    1    3    3    0    0 -0.12970213082E+02  0.20816711284E+01  0.94821284323E+01  0.16200942626E+02  0.51100000000E-03 0. -1.
        -11    1    3    3    0    0 -0.24011381548E+01 -0.65398562415E+01  0.59509284023E+01  0.91623541302E+01  0.51100000000E-03 0.  1.
        -12    1    3    3    0    0 -0.15862132526E+02 -0.12913840556E+02  0.91902157233E+01  0.22423973582E+02  0.00000000000E+00 0.  1.
</event>
<event>
 7    1  0.1384886E-010  0.4778728E+02  0.7816164E-02  0.1312668E+00
        -11   -1    0    0    0    0  0.00000000000E+00  0.00000000000E+00  0.45593999997E+02  0.45594000000E+02  0.51100000000E-03 0. -1.
         11   -1    0    0    0    0 -0.00000000000E+00 -0.00000000000E+00 -0.45593999997E+02  0.45594000000E+02  0.51100000000E-03 0.  1.
    9900012    2    1    2    0    0 -0.28930091926E+02  0.26947442138E+02 -0.17902732781E+02  0.47787277683E+02  0.20000030268E+02 0.  0.
         12    1    1    2    0    0  0.28930091926E+02 -0.26947442138E+02  0.17902732781E+02  0.43400722317E+02  0.00000000000E+00 0. -1.
         11    1    3    3    0    0 -0.71629171001E+01  0.10103560696E+02 -0.47283267463E+01  0.13256937587E+02  0.51100000000E-03 0. -1.
        -11    1    3    3    0    0 -0.16736881888E+02  0.15104286014E+02 -0.26028092642E+01  0.22694432966E+02  0.51100000000E-03 0.  1.
         12    1    3    3    0    0 -0.50302929380E+01  0.17395954278E+01 -0.10571596771E+02  0.11835907130E+02  0.00000000000E+00 0. -1.
</event>
<event>
 7    1  0.1384886E-010  0.4778728E+02  0.7816164E-02  0.1312668E+00
        -11   -1    0    0    0    0  0.00000000000E+00  0.00000000000E+00  0.45593999997E+02  0.45594000000E+02  0.51100000000E-03 0.  1.
         11   -1    0    0    0    0 -0.00000000000E+00 -0.00000000000E+00 -0.45593999997E+02  0.45594000000E+02  0.51100000000E-03 0. -1.
    9900012    2    1    2    0    0  0.19484701965E+02 -0.33462556131E+02  0.19601692991E+02  0.47787278329E+02  0.20000033212E+02 0.  0.
         12    1    1    2    0    0 -0.19484701965E+02  0.33462556131E+02 -0.19601692991E+02  0.43400721671E+02  0.00000000000E+00 0. -1.
         11    1    3    3    0    0 -0.22102502514E+01 -0.48861802430E+01  0.52109033077E+01  0.74775314833E+01  0.51100000000E-03 0. -1.
        -11    1    3    3    0    0  0.11915143561E+02 -0.19256644355E+02  0.34091600028E+01  0.22900029914E+02  0.51100000000E-03 0.  1.
         12    1    3    3    0    0  0.97798086556E+01 -0.93197315329E+01  0.10981629681E+02  0.17409716931E+02  0.00000000000E+00 0. -1.
</event>
<event>
 7    1  0.1384886E-010  0.4778727E+02  0.7816164E-02  0.1312668E+00
        -11   -1    0    0    0    0  0.00000000000E+00  0.00000000000E+00  0.45593999997E+02  0.45594000000E+02  0.51100000000E-03 0. -1.
         11   -1    0    0    0    0 -0.00000000000E+00 -0.00000000000E+00 -0.45593999997E+02  0.45594000000E+02  0.51100000000E-03 0.  1.
    9900012    2    1    2    0    0  0.14655763721E+02 -0.37190599105E+02  0.16902417097E+02  0.47787265263E+02  0.19999973640E+02 0.  0.
         12    1    1    2    0    0 -0.14655763721E+02  0.37190599105E+02 -0.16902417097E+02  0.43400734737E+02  0.00000000000E+00 0. -1.
         11    1    3    3    0    0  0.84615812347E-02 -0.24805853320E+02  0.12401060823E+02  0.27732954050E+02  0.51100000000E-03 0. -1.
        -11    1    3    3    0    0  0.68304151548E+01 -0.81230869855E+01  0.29656587888E+01  0.11019720762E+02  0.51100000000E-03 0.  1.
         12    1    3    3    0    0  0.78168869847E+01 -0.42616587990E+01  0.15356974844E+01  0.90345904508E+01  0.00000000000E+00 0. -1.
</event>
<event>
 7    1  0.1384886E-010  0.4778727E+02  0.7816164E-02  0.1312668E+00
        -11   -1    0    0    0    0  0.00000000000E+00  0.00000000000E+00  0.45593999997E+02  0.45594000000E+02  0.51100000000E-03 0.  1.
         11   -1    0    0    0    0 -0.00000000000E+00 -0.00000000000E+00 -0.45593999997E+02  0.45594000000E+02  0.51100000000E-03 0. -1.
    9900012    2    1    2    0    0  0.19757600730E+02  0.17510492439E+02  0.34447687622E+02  0.47787270576E+02  0.19999997862E+02 0.  0.
         12    1    1    2    0    0 -0.19757600730E+02 -0.17510492439E+02 -0.34447687622E+02  0.43400729424E+02  0.00000000000E+00 0. -1.
         11    1    3    3    0    0  0.69783928041E+01  0.18674486771E+01  0.36560353672E+01  0.80964143642E+01  0.51100000000E-03 0. -1.
        -11    1    3    3    0    0 -0.11007996138E+01  0.79089967345E+01  0.16452850574E+02  0.18288255286E+02  0.51100000000E-03 0.  1.
        -12    1    3    3    0    0  0.13880007539E+02  0.77340470276E+01  0.14338801681E+02  0.21402600925E+02  0.00000000000E+00 0.  1.
</event>
<event>
 7    1  0.1384886E-010  0.4778726E+02  0.7816164E-02  0.1312668E+00
        -11   -1    0    0    0    0  0.00000000000E+00  0.00000000000E+00  0.45593999997E+02  0.45594000000E+02  0.51100000000E-03 0.  1.
         11   -1    0    0    0    0 -0.00000000000E+00 -0.00000000000E+00 -0.45593999997E+02  0.45594000000E+02  0.51100000000E-03 0. -1.
    9900012    2    1    2    0    0 -0.61721355657E+01 -0.46026726091E+01  0.42712340220E+02  0.47787264296E+02  0.19999969232E+02 0.  0.
         12    1    1    2    0    0  0.61721355657E+01  0.46026726091E+01 -0.42712340220E+02  0.43400735704E+02  0.00000000000E+00 0. -1.
         11    1    3    3    0    0 -0.41416311267E+01  0.21891734376E+01  0.17661862550E+02  0.18272574469E+02  0.51100000000E-03 0. -1.
        -11    1    3    3    0    0 -0.47745705518E+01 -0.45523132617E+01  0.25120259917E+02  0.25972053029E+02  0.51100000000E-03 0.  1.
         12    1    3    3    0    0  0.27440661128E+01 -0.22395327849E+01 -0.69782246609E-01  0.35426367988E+01  0.00000000000E+00 0. -1.
</event>
<event>
 7    1  0.1384886E-010  0.4778728E+02  0.7816164E-02  0.1312668E+00
        -11   -1    0    0    0    0  0.00000000000E+00  0.00000000000E+00  0.45593999997E+02  0.45594000000E+02  0.51100000000E-03 0. -1.
         11   -1    0    0    0    0 -0.00000000000E+00 -0.00000000000E+00 -0.45593999997E+02  0.45594000000E+02  0.51100000000E-03 0.  1.
    9900012    2    1    2    0    0 -0.18043240894E+01 -0.27297186533E+02 -0.33693186583E+02  0.47787276503E+02  0.20000024886E+02 0.  0.
         12    1    1    2    0    0  0.18043240894E+01  0.27297186533E+02  0.33693186583E+02  0.43400723497E+02  0.00000000000E+00 0. -1.
         11    1    3    3    0    0  0.48170967884E+01 -0.60766302323E+01 -0.57737026286E+01  0.96677556214E+01  0.51100000000E-03 0. -1.
        -11    1    3    3    0    0 -0.95480907697E+01 -0.86484568512E+01 -0.11813690323E+02  0.17479276946E+02  0.51100000000E-03 0.  1.
        -12    1    3    3    0    0  0.29266698919E+01 -0.12572099449E+02 -0.16105793631E+02  0.20640243935E+02  0.00000000000E+00 0.  1.
</event>
<event>
 7    1  0.1384886E-010  0.4778727E+02  0.7816164E-02  0.1312668E+00
        -11   -1    0    0    0    0  0.00000000000E+00  0.00000000000E+00  0.45593999997E+02  0.45594000000E+02  0.51100000000E-03 0.  1.
         11   -1    0    0    0    0 -0.00000000000E+00 -0.00000000000E+00 -0.45593999997E+02  0.45594000000E+02  0.51100000000E-03 0. -1.
    9900012    2    1    2    0    0  0.19745173535E+02 -0.36762553216E+02  0.11927528091E+02  0.47787272780E+02  0.20000007912E+02 0.  0.
         12    1    1    2    0    0 -0.19745173535E+02  0.36762553216E+02 -0.11927528091E+02  0.43400727220E+02  0.00000000000E+00 0. -1.
         11    1    3    3    0    0  0.14151132350E+02 -0.22452940523E+02  0.95027693943E+01  0.28190276893E+02  0.51100000000E-03 0.  1.
        -11    1    3    3    0    0 -0.19490442640E+01 -0.52202807561E+01  0.50240731212E+01  0.75027605389E+01  0.51100000000E-03 0. -1.
        -12    1    3    3    0    0  0.75430854490E+01 -0.90893319376E+01 -0.25993144250E+01  0.12094235348E+02  0.00000000000E+00 0.  1.
</event>
<event>
 7    1  0.1384886E-010  0.4778727E+02  0.7816164E-02  0.1312668E+00
        -11   -1    0    0    0    0  0.00000000000E+00  0.00000000000E+00  0.45593999997E+02  0.45594000000E+02  0.51100000000E-03 0.  1.
         11   -1    0    0    0    0 -0.00000000000E+00 -0.00000000000E+00 -0.45593999997E+02  0.45594000000E+02  0.51100000000E-03 0. -1.
    9900012    2    1    2    0    0  0.20160540971E+02 -0.38433533714E+02 -0.19844051496E+00  0.47787270690E+02  0.19999998384E+02 0.  0.
         12    1    1    2    0    0 -0.20160540971E+02  0.38433533714E+02  0.19844051496E+00  0.43400729310E+02  0.00000000000E+00 0. -1.
         11    1    3    3    0    0  0.17925253991E+02 -0.25466067613E+02  0.17586352485E+01  0.31191795852E+02  0.51100000000E-03 0. -1.
        -11    1    3    3    0    0  0.51427973742E+01 -0.11235635444E+02  0.57313572411E+00  0.12369977910E+02  0.51100000000E-03 0.  1.
         12    1    3    3    0    0 -0.29075103944E+01 -0.17318306577E+01 -0.25302114876E+01  0.42254969284E+01  0.00000000000E+00 0. -1.
</event>
<event>
 7    1  0.1384886E-010  0.4778727E+02  0.7816164E-02  0.1312668E+00
        -11   -1    0    0    0    0  0.00000000000E+00  0.00000000000E+00  0.45593999997E+02  0.45594000000E+02  0.51100000000E-03 0.  1.
         11   -1    0    0    0    0 -0.00000000000E+00 -0.00000000000E+00 -0.45593999997E+02  0.45594000000E+02  0.51100000000E-03 0. -1.
    9900012    2    1    2    0    0 -0.42309979370E+01 -0.13250419474E+02  0.41111412592E+02  0.47787271836E+02  0.20000003611E+02 0.  0.
         12    1    1    2    0    0  0.42309979370E+01  0.13250419474E+02 -0.41111412592E+02  0.43400728164E+02  0.00000000000E+00 0. -1.
         11    1    3    3    0    0 -0.21089974433E+00 -0.10269783467E+02  0.11929424391E+02  0.15742429854E+02  0.51100000000E-03 0. -1.
        -11    1    3    3    0    0 -0.57335192444E+01 -0.67319671449E+01  0.16661378697E+02  0.18862506857E+02  0.51100000000E-03 0.  1.
         12    1    3    3    0    0  0.17134210517E+01  0.37513311372E+01  0.12520609505E+02  0.13182335126E+02  0.00000000000E+00 0. -1.
</event>
<event>
 7    1  0.1384886E-010  0.4778727E+02  0.7816164E-02  0.1312668E+00
        -11   -1    0    0    0    0  0.00000000000E+00  0.00000000000E+00  0.45593999997E+02  0.45594000000E+02  0.51100000000E-03 0. -1.
         11   -1    0    0    0    0 -0.00000000000E+00 -0.00000000000E+00 -0.45593999997E+02  0.45594000000E+02  0.51100000000E-03 0.  1.
    9900012    2    1    2    0    0 -0.14290147327E+02 -0.37661573915E+02 -0.16156138932E+02  0.47787270910E+02  0.19999999387E+02 0.  0.
         12    1    1    2    0    0  0.14290147327E+02  0.37661573915E+02  0.16156138932E+02  0.43400729090E+02  0.00000000000E+00 0. -1.
         11    1    3    3    0    0  0.51972281268E+00 -0.46532049706E+01 -0.21512533446E+01  0.51527002158E+01  0.51100000000E-03 0.  1.
        -11    1    3    3    0    0  0.31855538272E+01 -0.63992242701E+01 -0.64660842683E+01  0.96388832585E+01  0.51100000000E-03 0. -1.
         12    1    3    3    0    0 -0.17995423967E+02 -0.26609144674E+02 -0.75388013192E+01  0.32995687436E+02  0.00000000000E+00 0. -1.
</event>
<event>
 7    1  0.1384886E-010  0.4778729E+02  0.7816164E-02  0.1312668E+00
        -11   -1    0    0    0    0  0.00000000000E+00  0.00000000000E+00  0.45593999997E+02  0.45594000000E+02  0.51100000000E-03 0.  1.
         11   -1    0    0    0    0 -0.00000000000E+00 -0.00000000000E+00 -0.45593999997E+02  0.45594000000E+02  0.51100000000E-03 0. -1.
    9900012    2    1    2    0    0  0.56798511165E+01  0.96735128766E+01  0.41925932476E+02  0.47787292931E+02  0.20000099791E+02 0.  0.
         12    1    1    2    0    0 -0.56798511165E+01 -0.96735128766E+01 -0.41925932476E+02  0.43400707069E+02  0.00000000000E+00 0. -1.
         11    1    3    3    0    0  0.38839044557E+01  0.79530700468E+00  0.17002988827E+02  0.17459062299E+02  0.51100000000E-03 0. -1.
        -11    1    3    3    0    0  0.51467791033E+00  0.21902078037E+01  0.23193576481E+02  0.23302443945E+02  0.51100000000E-03 0.  1.
         12    1    3    3    0    0  0.12812687505E+01  0.66879980682E+01  0.17293671678E+01  0.70257866871E+01  0.00000000000E+00 0. -1.
</event>
<event>
 7    1  0.1384886E-010  0.4778727E+02  0.7816164E-02  0.1312668E+00
        -11   -1    0    0    0    0  0.00000000000E+00  0.00000000000E+00  0.45593999997E+02  0.45594000000E+02  0.51100000000E-03 0.  1.
         11   -1    0    0    0    0 -0.00000000000E+00 -0.00000000000E+00 -0.45593999997E+02  0.45594000000E+02  0.51100000000E-03 0. -1.
    9900012    2    1    2    0    0  0.25630798411E+02 -0.34885186343E+02 -0.31160410052E+01  0.47787265388E+02  0.19999974209E+02 0.  0.
         12    1    1    2    0    0 -0.25630798411E+02  0.34885186343E+02  0.31160410052E+01  0.43400734612E+02  0.00000000000E+00 0. -1.
         11    1    3    3    0    0  0.22999552957E+02 -0.28703906717E+02  0.37387779622E+01  0.36971234195E+02  0.51100000000E-03 0.  1.
        -11    1    3    3    0    0 -0.12244246863E+01 -0.18836835025E+01 -0.64634826064E+00  0.23377864926E+01  0.51100000000E-03 0. -1.
        -12    1    3    3    0    0  0.38556701406E+01 -0.42975961232E+01 -0.62084707067E+01  0.84782446997E+01  0.00000000000E+00 0.  1.
</event>
<event>
 7    1  0.1384886E-010  0.4778728E+02  0.7816164E-02  0.1312668E+00
        -11   -1    0    0    0    0  0.00000000000E+00  0.00000000000E+00  0.45593999997E+02  0.45594000000E+02  0.51100000000E-03 0.  1.
         11   -1    0    0    0    0 -0.00000000000E+00 -0.00000000000E+00 -0.45593999997E+02  0.45594000000E+02  0.51100000000E-03 0. -1.
    9900012    2    1    2    0    0  0.11668381618E+02  0.61361060816E+00  0.41798268013E+02  0.47787275853E+02  0.20000021925E+02 0.  0.
         12    1    1    2    0    0 -0.11668381618E+02 -0.61361060816E+00 -0.41798268013E+02  0.43400724147E+02  0.00000000000E+00 0. -1.
         11    1    3    3    0    0 -0.41150201571E+01 -0.10235138300E+01  0.12192860692E+02  0.12909175945E+02  0.51100000000E-03 0. -1.
        -11    1    3    3    0    0  0.75170628025E+01  0.47368022931E+01  0.19690761035E+02  0.21602536878E+02  0.51100000000E-03 0.  1.
        -12    1    3    3    0    0  0.82663389724E+01 -0.30996778549E+01  0.99146462856E+01  0.13275563031E+02  0.00000000000E+00 0.  1.
</event>
<event>
 7    1  0.1384886E-010  0.4778727E+02  0.7816164E-02  0.1312668E+00
        -11   -1    0    0    0    0  0.00000000000E+00  0.00000000000E+00  0.45593999997E+02  0.45594000000E+02  0.51100000000E-03 0. -1.
         11   -1    0    0    0    0 -0.00000000000E+00 -0.00000000000E+00 -0.45593999997E+02  0.45594000000E+02  0.51100000000E-03 0.  1.
    9900012    2    1    2    0    0 -0.81580862185E+01  0.16794651690E+02 -0.39179187340E+02  0.47787269398E+02  0.19999992493E+02 0.  0.
         12    1    1    2    0    0  0.81580862185E+01 -0.16794651690E+02  0.39179187340E+02  0.43400730602E+02  0.00000000000E+00 0. -1.
         11    1    3    3    0    0  0.15755415131E+01  0.12600920468E+01 -0.43489563949E+01  0.47941198370E+01  0.51100000000E-03 0. -1.
        -11    1    3    3    0    0  0.35809512986E+00  0.64520790586E+01 -0.26014680601E+02  0.26805245071E+02  0.51100000000E-03 0.  1.
         12    1    3    3    0    0 -0.10091722861E+02  0.90824805848E+01 -0.88155503443E+01  0.16187904489E+02  0.00000000000E+00 0. -1.
</event>
<event>
 7    1  0.1384886E-010  0.4778722E+02  0.7816164E-02  0.1312668E+00
        -11   -1    0    0    0    0  0.00000000000E+00  0.00000000000E+00  0.45593999997E+02  0.45594000000E+02  0.51100000000E-03 0.  1.
         11   -1    0    0    0    0 -0.00000000000E+00 -0.00000000000E+00 -0.45593999997E+02  0.45594000000E+02  0.51100000000E-03 0. -1.
    9900012    2    1    2    0    0 -0.26057936854E+02  0.25329327794E+02  0.23728405171E+02  0.47787215081E+02  0.19999744839E+02 0.  0.
         12    1    1    2    0    0  0.26057936854E+02 -0.25329327794E+02 -0.23728405171E+02  0.43400784919E+02  0.00000000000E+00 0. -1.
         11    1    3    3    0    0  0.50828450315E+00  0.70604059420E+00 -0.32581162767E+00  0.92897789783E+00  0.51100000000E-03 0. -1.
        -11    1    3    3    0    0 -0.17890810885E+02  0.25734331741E+02  0.17240279378E+02  0.35770996318E+02  0.51100000000E-03 0.  1.
         12    1    3    3    0    0 -0.86754104727E+01 -0.11110445407E+01  0.68139374204E+01  0.11087240866E+02  0.00000000000E+00 0. -1.
</event>
<event>
 7    1  0.1384886E-010  0.4778727E+02  0.7816164E-02  0.1312668E+00
        -11   -1    0    0    0    0  0.00000000000E+00  0.00000000000E+00  0.45593999997E+02  0.45594000000E+02  0.51100000000E-03 0. -1.
         11   -1    0    0    0    0 -0.00000000000E+00 -0.00000000000E+00 -0.45593999997E+02  0.45594000000E+02  0.51100000000E-03 0.  1.
    9900012    2    1    2    0    0 -0.35121610250E+01 -0.39956904761E+02 -0.16575100679E+02  0.47787268720E+02  0.19999989400E+02 0.  0.
         12    1    1    2    0    0  0.35121610250E+01  0.39956904761E+02  0.16575100679E+02  0.43400731280E+02  0.00000000000E+00 0. -1.
         11    1    3    3    0    0  0.32198699897E+01 -0.10665517153E+02 -0.75357786926E+01  0.13450233442E+02  0.51100000000E-03 0.  1.
        -11    1    3    3    0    0 -0.74666094548E+01 -0.29941830315E+02 -0.10483657518E+02  0.32590957866E+02  0.51100000000E-03 0. -1.
         12    1    3    3    0    0  0.73457844014E+00  0.65044270730E+00  0.14443355313E+01  0.17460774116E+01  0.00000000000E+00 0. -1.
</event>
<event>
 7    1  0.1384886E-010  0.4778727E+02  0.7816164E-02  0.1312668E+00
        -11   -1    0    0    0    0  0.00000000000E+00  0.00000000000E+00  0.45593999997E+02  0.45594000000E+02  0.51100000000E-03 0. -1.
         11   -1    0    0    0    0 -0.00000000000E+00 -0.00000000000E+00 -0.45593999997E+02  0.45594000000E+02  0.51100000000E-03 0.  1.
    9900012    2    1    2    0    0  0.11321320865E+02  0.35716162925E+02 -0.21904489477E+02  0.47787271210E+02  0.20000000756E+02 0.  0.
         12    1    1    2    0    0 -0.11321320865E+02 -0.35716162925E+02  0.21904489477E+02  0.43400728790E+02  0.00000000000E+00 0. -1.
         11    1    3    3    0    0  0.30083569975E+01 -0.11966516997E+01 -0.17258150924E+01  0.36688724575E+01  0.51100000000E-03 0. -1.
        -11    1    3    3    0    0  0.15306130117E+01  0.20504731282E+02 -0.60651939422E+01  0.21437662162E+02  0.51100000000E-03 0.  1.
        -12    1    3    3    0    0  0.67823508562E+01  0.16408083343E+02 -0.14113480443E+02  0.22680736591E+02  0.00000000000E+00 0.  1.
</event>
<event>
 7    1  0.1384886E-010  0.4778727E+02  0.7816164E-02  0.1312668E+00
        -11   -1    0    0    0    0  0.00000000000E+00  0.00000000000E+00  0.45593999997E+02  0.45594000000E+02  0.51100000000E-03 0.  1.
         11   -1    0    0    0    0 -0.00000000000E+00 -0.00000000000E+00 -0.45593999997E+02  0.45594000000E+02  0.51100000000E-03 0. -1.
    9900012    2    1    2    0    0 -0.20160651840E+02  0.26949005362E+01  0.38339392644E+02  0.47787269594E+02  0.19999993385E+02 0.  0.
         12    1    1    2    0    0  0.20160651840E+02 -0.26949005362E+01 -0.38339392644E+02  0.43400730406E+02  0.00000000000E+00 0. -1.
         11    1    3    3    0    0 -0.33339976878E+01 -0.60097163379E+00  0.35768851758E+00  0.34065596756E+01  0.51100000000E-03 0. -1.
        -11    1    3    3    0    0 -0.14129935256E+02  0.88638640873E+01  0.25885140848E+02  0.30793890204E+02  0.51100000000E-03 0.  1.
         12    1    3    3    0    0 -0.26967188955E+01 -0.55679919174E+01  0.12096563279E+02  0.13586819714E+02  0.00000000000E+00 0. -1.
</event>
<event>
 7    1  0.1384886E-010  0.4778727E+02  0.7816164E-02  0.1312668E+00
        -11   -1    0    0    0    0  0.00000000000E+00  0.00000000000E+00  0.45593999997E+02  0.45594000000E+02  0.51100000000E-03 0.  1.
         11   -1    0    0    0    0 -0.00000000000E+00 -0.00000000000E+00 -0.45593999997E+02  0.45594000000E+02  0.51100000000E-03 0. -1.
    9900012    2    1    2    0    0 -0.36848581895E+01  0.23511379473E+02  0.36294079819E+02  0.47787269885E+02  0.19999994714E+02 0.  0.
         12    1    1    2    0    0  0.36848581895E+01 -0.23511379473E+02 -0.36294079819E+02  0.43400730115E+02  0.00000000000E+00 0. -1.
         11    1    3    3    0    0  0.36563751974E+00  0.63013853385E+01  0.78538175374E+01  0.10075891928E+02  0.51100000000E-03 0. -1.
        -11    1    3    3    0    0 -0.21629638838E+00  0.12047730121E+02  0.28852703102E+02  0.31267763939E+02  0.51100000000E-03 0.  1.
         12    1    3    3    0    0 -0.38341993208E+01  0.51622640140E+01 -0.41244082050E+00  0.64436140179E+01  0.00000000000E+00 0. -1.
</event>
<event>
 7    1  0.1384886E-010  0.4778727E+02  0.7816164E-02  0.1312668E+00
        -11   -1    0    0    0    0  0.00000000000E+00  0.00000000000E+00  0.45593999997E+02  0.45594000000E+02  0.51100000000E-03 0. -1.
         11   -1    0    0    0    0 -0.00000000000E+00 -0.00000000000E+00 -0.45593999997E+02  0.45594000000E+02  0.51100000000E-03 0.  1.
    9900012    2    1    2    0    0 -0.31969792974E+02  0.24881613438E+02  0.15571156523E+02  0.47787271141E+02  0.20000000439E+02 0.  0.
         12    1    1    2    0    0  0.31969792974E+02 -0.24881613438E+02 -0.15571156523E+02  0.43400728859E+02  0.00000000000E+00 0. -1.
         11    1    3    3    0    0 -0.16148295146E+02  0.22867605621E+02  0.75070472866E+01  0.28983626105E+02  0.51100000000E-03 0. -1.
        -11    1    3    3    0    0 -0.11452907990E+02  0.38067196931E+01  0.44732048018E+01  0.12871277237E+02  0.51100000000E-03 0.  1.
         12    1    3    3    0    0 -0.43685898384E+01 -0.17927118767E+01  0.35909044344E+01  0.59323677993E+01  0.00000000000E+00 0. -1.
</event>
<event>
 7    1  0.1384886E-010  0.4778727E+02  0.7816164E-02  0.1312668E+00
        -11   -1    0    0    0    0  0.00000000000E+00  0.00000000000E+00  0.45593999997E+02  0.45594000000E+02  0.51100000000E-03 0.  1.
         11   -1    0    0    0    0 -0.00000000000E+00 -0.00000000000E+00 -0.45593999997E+02  0.45594000000E+02  0.51100000000E-03 0. -1.
    9900012    2    1    2    0    0  0.13178015787E+01 -0.38682149157E+02  0.19636143617E+02  0.47787269585E+02  0.19999993346E+02 0.  0.
         12    1    1    2    0    0 -0.13178015787E+01  0.38682149157E+02 -0.19636143617E+02  0.43400730415E+02  0.00000000000E+00 0. -1.
         11    1    3    3    0    0 -0.85771299584E-01 -0.38414765260E+01 -0.23229495719E+01  0.44900326937E+01  0.51100000000E-03 0. -1.
        -11    1    3    3    0    0  0.73421480934E+01 -0.18755934147E+02  0.11028692697E+02  0.22963542131E+02  0.51100000000E-03 0.  1.
         12    1    3    3    0    0 -0.59385752151E+01 -0.16084738484E+02  0.10930400492E+02  0.20333694760E+02  0.00000000000E+00 0. -1.
</event>
<event>
 7    1  0.1384886E-010  0.4778727E+02  0.7816164E-02  0.1312668E+00
        -11   -1    0    0    0    0  0.00000000000E+00  0.00000000000E+00  0.45593999997E+02  0.45594000000E+02  0.51100000000E-03 0.  1.
         11   -1    0    0    0    0 -0.00000000000E+00 -0.00000000000E+00 -0.45593999997E+02  0.45594000000E+02  0.51100000000E-03 0. -1.
    9900012    2    1    2    0    0 -0.10716193270E+02  0.14394690905E+02  0.39516824048E+02  0.47787270660E+02  0.19999998245E+02 0.  0.
         12    1    1    2    0    0  0.10716193270E+02 -0.14394690905E+02 -0.39516824048E+02  0.43400729340E+02  0.00000000000E+00 0. -1.
         11    1    3    3    0    0  0.44438217706E+01  0.39625685423E+01  0.36169554813E+01  0.69664817947E+01  0.51100000000E-03 0. -1.
        -11    1    3    3    0    0 -0.56170575289E+01  0.76363261852E+01  0.18049534188E+02  0.20387508371E+02  0.51100000000E-03 0.  1.
         12    1    3    3    0    0 -0.95429575117E+01  0.27957961771E+01  0.17850334379E+02  0.20433280494E+02  0.00000000000E+00 0. -1.
</event>
<event>
 7    1  0.1596492E-010  0.4778727E+02  0.7816164E-02  0.1312668E+00
        -11   -1    0    0    0    0  0.00000000000E+00  0.00000000000E+00  0.45593999997E+02  0.45594000000E+02  0.51100000000E-03 0. -1.
         11   -1    0    0    0    0 -0.00000000000E+00 -0.00000000000E+00 -0.45593999997E+02  0.45594000000E+02  0.51100000000E-03 0.  1.
    9900012    2    1    2    0    0  0.33878102300E+02  0.26624375654E+02  0.51999994237E+01  0.47787272029E+02  0.20000004490E+02 0.  0.
         12    1    1    2    0    0 -0.33878102300E+02 -0.26624375654E+02 -0.51999994237E+01  0.43400727971E+02  0.00000000000E+00 0. -1.
         11    1    3    3    0    0 -0.17496678756E-01  0.19062264034E+01  0.19235121698E+01  0.27081182698E+01  0.51100000000E-03 0. -1.
        -11    1    3    3    0    0  0.34530940297E+02  0.25986922250E+02  0.41453409090E+01  0.43415317773E+02  0.51100000000E-03 0.  1.
        -12    1    3    3    0    0 -0.63534131808E+00 -0.12687729998E+01 -0.86885365511E+00  0.16638359864E+01  0.00000000000E+00 0.  1.
</event>
<event>
 7    1  0.1384886E-010  0.4778727E+02  0.7816164E-02  0.1312668E+00
        -11   -1    0    0    0    0  0.00000000000E+00  0.00000000000E+00  0.45593999997E+02  0.45594000000E+02  0.51100000000E-03 0.  1.
         11   -1    0    0    0    0 -0.00000000000E+00 -0.00000000000E+00 -0.45593999997E+02  0.45594000000E+02  0.51100000000E-03 0. -1.
    9900012    2    1    2    0    0 -0.79151662479E+00 -0.23953547609E+02  0.36183202104E+02  0.47787273553E+02  0.20000011439E+02 0.  0.
         12    1    1    2    0    0  0.79151662479E+00  0.23953547609E+02 -0.36183202104E+02  0.43400726447E+02  0.00000000000E+00 0. -1.
         11    1    3    3    0    0  0.21157703560E+01 -0.59654812061E+01  0.15827351017E+01  0.65244540678E+01  0.51100000000E-03 0. -1.
        -11    1    3    3    0    0 -0.28028347018E+01 -0.12511485366E+02  0.10572450386E+02  0.16618359000E+02  0.51100000000E-03 0.  1.
         12    1    3    3    0    0 -0.10445227896E+00 -0.54765810374E+01  0.24028016616E+02  0.24644460485E+02  0.00000000000E+00 0. -1.
</event>
<event>
 7    1  0.1384886E-010  0.4778727E+02  0.7816164E-02  0.1312668E+00
        -11   -1    0    0    0    0  0.00000000000E+00  0.00000000000E+00  0.45593999997E+02  0.45594000000E+02  0.51100000000E-03 0.  1.
         11   -1    0    0    0    0 -0.00000000000E+00 -0.00000000000E+00 -0.45593999997E+02  0.45594000000E+02  0.51100000000E-03 0. -1.
    9900012    2    1    2    0    0 -0.41069426475E+02 -0.72431087183E+01  0.12019278075E+02  0.47787268897E+02  0.19999990207E+02 0.  0.
         12    1    1    2    0    0  0.41069426475E+02  0.72431087183E+01 -0.12019278075E+02  0.43400731103E+02  0.00000000000E+00 0. -1.
         11    1    3    3    0    0 -0.28030702308E+02 -0.27914078709E+01  0.11065608341E+02  0.30264829720E+02  0.51100000000E-03 0.  1.
        -11    1    3    3    0    0  0.11938107328E+00  0.13627981868E+01  0.27044272292E+01  0.30307420936E+01  0.51100000000E-03 0. -1.
         12    1    3    3    0    0 -0.13158105240E+02 -0.58144990343E+01 -0.17507574953E+01  0.14491697083E+02  0.00000000000E+00 0. -1.
</event>
<event>
 7    1  0.1384886E-010  0.4778727E+02  0.7816164E-02  0.1312668E+00
        -11   -1    0    0    0    0  0.00000000000E+00  0.00000000000E+00  0.45593999997E+02  0.45594000000E+02  0.51100000000E-03 0. -1.
         11   -1    0    0    0    0 -0.00000000000E+00 -0.00000000000E+00 -0.45593999997E+02  0.45594000000E+02  0.51100000000E-03 0.  1.
    9900012    2    1    2    0    0 -0.40395971630E+02 -0.83153060242E+01 -0.13514602330E+02  0.47787270578E+02  0.19999997873E+02 0.  0.
         12    1    1    2    0    0  0.40395971630E+02  0.83153060242E+01  0.13514602330E+02  0.43400729422E+02  0.00000000000E+00 0. -1.
         11    1    3    3    0    0 -0.93488831305E+01  0.36426535671E+01 -0.19887929473E+01  0.10228677258E+02  0.51100000000E-03 0. -1.
        -11    1    3    3    0    0 -0.96520276949E+01 -0.49154638358E+01 -0.10384490281E+02  0.15005367773E+02  0.51100000000E-03 0.  1.
        -12    1    3    3    0    0 -0.21395060805E+02 -0.70424957554E+01 -0.11413191022E+01  0.22553225547E+02  0.00000000000E+00 0.  1.
</event>
<event>
 7    1  0.1384886E-010  0.4778727E+02  0.7816164E-02  0.1312668E+00
        -11   -1    0    0    0    0  0.00000000000E+00  0.00000000000E+00  0.45593999997E+02  0.45594000000E+02  0.51100000000E-03 0. -1.
         11   -1    0    0    0    0 -0.00000000000E+00 -0.00000000000E+00 -0.45593999997E+02  0.45594000000E+02  0.51100000000E-03 0.  1.
    9900012    2    1    2    0    0 -0.15555592482E+02  0.35396944753E+02 -0.19715560138E+02  0.47787268822E+02  0.19999989866E+02 0.  0.
         12    1    1    2    0    0  0.15555592482E+02 -0.35396944753E+02  0.19715560138E+02  0.43400731178E+02  0.00000000000E+00 0. -1.
         11    1    3    3    0    0  0.18235959987E+01  0.62634766658E+01 -0.27740407670E+01  0.70888606100E+01  0.51100000000E-03 0. -1.
        -11    1    3    3    0    0 -0.77897220917E+00  0.59347006586E+01  0.21644464137E+01  0.63649271912E+01  0.51100000000E-03 0.  1.
         12    1    3    3    0    0 -0.16600216271E+02  0.23198767428E+02 -0.19105965784E+02  0.34333481021E+02  0.00000000000E+00 0. -1.
</event>
<event>
 7    1  0.1384886E-010  0.4778727E+02  0.7816164E-02  0.1312668E+00
        -11   -1    0    0    0    0  0.00000000000E+00  0.00000000000E+00  0.45593999997E+02  0.45594000000E+02  0.51100000000E-03 0.  1.
         11   -1    0    0    0    0 -0.00000000000E+00 -0.00000000000E+00 -0.45593999997E+02  0.45594000000E+02  0.51100000000E-03 0. -1.
    9900012    2    1    2    0    0 -0.29011950269E+01  0.37534345280E+02  0.21595821650E+02  0.47787268199E+02  0.19999987025E+02 0.  0.
         12    1    1    2    0    0  0.29011950269E+01 -0.37534345280E+02 -0.21595821650E+02  0.43400731801E+02  0.00000000000E+00 0. -1.
         11    1    3    3    0    0  0.15705395312E+01  0.37293427693E+01 -0.22758478857E+01  0.46426367261E+01  0.51100000000E-03 0. -1.
        -11    1    3    3    0    0  0.32605804902E+01  0.46090847246E+01  0.49183736255E+01  0.74876863257E+01  0.51100000000E-03 0.  1.
        -12    1    3    3    0    0 -0.77323150484E+01  0.29195917786E+02  0.18953295910E+02  0.35656945147E+02  0.00000000000E+00 0.  1.
</event>
<event>
 7    1  0.1889638E-010  0.4778727E+02  0.7816164E-02  0.1312668E+00
        -11   -1    0    0    0    0  0.00000000000E+00  0.00000000000E+00  0.45593999997E+02  0.45594000000E+02  0.51100000000E-03 0.  1.
         11   -1    0    0    0    0 -0.00000000000E+00 -0.00000000000E+00 -0.45593999997E+02  0.45594000000E+02  0.51100000000E-03 0. -1.
    9900012    2    1    2    0    0  0.32254647555E+02  0.28866204329E+02  0.31628525182E+01  0.47787266397E+02  0.19999978810E+02 0.  0.
         12    1    1    2    0    0 -0.32254647555E+02 -0.28866204329E+02 -0.31628525182E+01  0.43400733603E+02  0.00000000000E+00 0. -1.
         11    1    3    3    0    0  0.14914879795E+01  0.12276649227E+01  0.46304066015E+01  0.50172067041E+01  0.51100000000E-03 0. -1.
        -11    1    3    3    0    0  0.19604302096E+02  0.11100797798E+02  0.15976899006E+01  0.22585592437E+02  0.51100000000E-03 0.  1.
        -12    1    3    3    0    0  0.11158857479E+02  0.16537741608E+02 -0.30652439839E+01  0.20184467256E+02  0.00000000000E+00 0.  1.
</event>
<event>
 7    1  0.1384886E-010  0.4778729E+02  0.7816164E-02  0.1312668E+00
        -11   -1    0    0    0    0  0.00000000000E+00  0.00000000000E+00  0.45593999997E+02  0.45594000000E+02  0.51100000000E-03 0.  1.
         11   -1    0    0    0    0 -0.00000000000E+00 -0.00000000000E+00 -0.45593999997E+02  0.45594000000E+02  0.51100000000E-03 0. -1.
    9900012    2    1    2    0    0 -0.39098633086E+02  0.13260668602E+02  0.13381813350E+02  0.47787292983E+02  0.20000100028E+02 0.  0.
         12    1    1    2    0    0  0.39098633086E+02 -0.13260668602E+02 -0.13381813350E+02  0.43400707017E+02  0.00000000000E+00 0. -1.
         11    1    3    3    0    0 -0.62356143476E+01  0.47606004751E+01  0.10350722739E+02  0.12987827558E+02  0.51100000000E-03 0. -1.
        -11    1    3    3    0    0 -0.58316237088E+01  0.24251424393E+01 -0.20328261955E+01  0.66348725334E+01  0.51100000000E-03 0.  1.
         12    1    3    3    0    0 -0.27031395030E+02  0.60749256877E+01  0.50639168061E+01  0.28164592892E+02  0.00000000000E+00 0. -1.
</event>
<event>
 7    1  0.1384886E-010  0.4778727E+02  0.7816164E-02  0.1312668E+00
        -11   -1    0    0    0    0  0.00000000000E+00  0.00000000000E+00  0.45593999997E+02  0.45594000000E+02  0.51100000000E-03 0.  1.
         11   -1    0    0    0    0 -0.00000000000E+00 -0.00000000000E+00 -0.45593999997E+02  0.45594000000E+02  0.51100000000E-03 0. -1.
    9900012    2    1    2    0    0 -0.41620477195E+02 -0.10454589908E+02  0.64854262035E+01  0.47787270454E+02  0.19999997306E+02 0.  0.
         12    1    1    2    0    0  0.41620477195E+02  0.10454589908E+02 -0.64854262035E+01  0.43400729546E+02  0.00000000000E+00 0. -1.
         11    1    3    3    0    0 -0.28175271697E+02 -0.10043108956E+02  0.11746899657E+02  0.32135644143E+02  0.51100000000E-03 0. -1.
        -11    1    3    3    0    0 -0.10693758574E+02 -0.28346593377E+01 -0.42150395419E+01  0.11838848112E+02  0.51100000000E-03 0.  1.
        -12    1    3    3    0    0 -0.27514469243E+01  0.24231783852E+01 -0.10464339117E+01  0.38127781991E+01  0.00000000000E+00 0.  1.
</event>
<event>
 7    1  0.1384886E-010  0.4778725E+02  0.7816164E-02  0.1312668E+00
        -11   -1    0    0    0    0  0.00000000000E+00  0.00000000000E+00  0.45593999997E+02  0.45594000000E+02  0.51100000000E-03 0.  1.
         11   -1    0    0    0    0 -0.00000000000E+00 -0.00000000000E+00 -0.45593999997E+02  0.45594000000E+02  0.51100000000E-03 0. -1.
    9900012    2    1    2    0    0 -0.18841465275E+02 -0.23244936038E+02  0.31437191300E+02  0.47787252749E+02  0.19999916585E+02 0.  0.
         12    1    1    2    0    0  0.18841465275E+02  0.23244936038E+02 -0.31437191300E+02  0.43400747251E+02  0.00000000000E+00 0. -1.
         11    1    3    3    0    0 -0.28395722806E+01 -0.78871008325E+01  0.12485420033E+02  0.15038458828E+02  0.51100000000E-03 0. -1.
        -11    1    3    3    0    0 -0.93977706361E+01  0.48870561433E+00  0.82801958223E+01  0.12534694620E+02  0.51100000000E-03 0.  1.
         12    1    3    3    0    0 -0.66041223580E+01 -0.15846540820E+02  0.10671575445E+02  0.20214099301E+02  0.00000000000E+00 0. -1.
</event>
<event>
 7    1  0.1384886E-010  0.4778727E+02  0.7816164E-02  0.1312668E+00
        -11   -1    0    0    0    0  0.00000000000E+00  0.00000000000E+00  0.45593999997E+02  0.45594000000E+02  0.51100000000E-03 0.  1.
         11   -1    0    0    0    0 -0.00000000000E+00 -0.00000000000E+00 -0.45593999997E+02  0.45594000000E+02  0.51100000000E-03 0. -1.
    9900012    2    1    2    0    0  0.23294326008E+02 -0.34304046029E+02  0.12815221152E+02  0.47787273148E+02  0.20000009589E+02 0.  0.
         12    1    1    2    0    0 -0.23294326008E+02  0.34304046029E+02 -0.12815221152E+02  0.43400726852E+02  0.00000000000E+00 0. -1.
         11    1    3    3    0    0  0.11738504147E+02 -0.18877792699E+02  0.10030469138E+01  0.22252407514E+02  0.51100000000E-03 0. -1.
        -11    1    3    3    0    0  0.11808664932E+02 -0.61624417189E+01  0.61156274178E+01  0.14656778445E+02  0.51100000000E-03 0.  1.
         12    1    3    3    0    0 -0.25284307198E+00 -0.92638116115E+01  0.56965468207E+01  0.10878087188E+02  0.00000000000E+00 0. -1.
</event>
<event>
 7    1  0.1384886E-010  0.4778727E+02  0.7816164E-02  0.1312668E+00
        -11   -1    0    0    0    0  0.00000000000E+00  0.00000000000E+00  0.45593999997E+02  0.45594000000E+02  0.51100000000E-03 0.  1.
         11   -1    0    0    0    0 -0.00000000000E+00 -0.00000000000E+00 -0.45593999997E+02  0.45594000000E+02  0.51100000000E-03 0. -1.
    9900012    2    1    2    0    0  0.32369416380E+02 -0.28635547331E+02  0.39812030004E+01  0.47787266537E+02  0.19999979451E+02 0.  0.
         12    1    1    2    0    0 -0.32369416380E+02  0.28635547331E+02 -0.39812030004E+01  0.43400733463E+02  0.00000000000E+00 0. -1.
         11    1    3    3    0    0  0.11979339016E+02 -0.97590337792E+01 -0.62848285649E+01  0.16680598728E+02  0.51100000000E-03 0. -1.
        -11    1    3    3    0    0  0.52400526284E+01 -0.26323826908E+01  0.61838395243E+01  0.85221747050E+01  0.51100000000E-03 0.  1.
        -12    1    3    3    0    0  0.15150024736E+02 -0.16244130861E+02  0.40821920411E+01  0.22584493105E+02  0.00000000000E+00 0.  1.
</event>
<event>
 7    1  0.1384886E-010  0.4778727E+02  0.7816164E-02  0.1312668E+00
        -11   -1    0    0    0    0  0.00000000000E+00  0.00000000000E+00  0.45593999997E+02  0.45594000000E+02  0.51100000000E-03 0.  1.
         11   -1    0    0    0    0 -0.00000000000E+00 -0.00000000000E+00 -0.45593999997E+02  0.45594000000E+02  0.51100000000E-03 0. -1.
    9900012    2    1    2    0    0 -0.14398916872E+02 -0.33986818344E+02  0.22829594650E+02  0.47787273968E+02  0.20000013329E+02 0.  0.
         12    1    1    2    0    0  0.14398916872E+02  0.33986818344E+02 -0.22829594650E+02  0.43400726032E+02  0.00000000000E+00 0. -1.
         11    1    3    3    0    0 -0.16038522678E+02 -0.20688378108E+02  0.15733520840E+02  0.30541559828E+02  0.51100000000E-03 0. -1.
        -11    1    3    3    0    0 -0.12181888451E+01 -0.96580915613E+01  0.12883618782E+01  0.98195006624E+01  0.51100000000E-03 0.  1.
        -12    1    3    3    0    0  0.28577946508E+01 -0.36403486752E+01  0.58077119311E+01  0.74262134778E+01  0.00000000000E+00 0.  1.
</event>
<event>
 7    1  0.1384886E-010  0.4778727E+02  0.7816164E-02  0.1312668E+00
        -11   -1    0    0    0    0  0.00000000000E+00  0.00000000000E+00  0.45593999997E+02  0.45594000000E+02  0.51100000000E-03 0.  1.
         11   -1    0    0    0    0 -0.00000000000E+00 -0.00000000000E+00 -0.45593999997E+02  0.45594000000E+02  0.51100000000E-03 0. -1.
    9900012    2    1    2    0    0 -0.88151574843E+00  0.36295410104E+02  0.23780016395E+02  0.47787273689E+02  0.20000012056E+02 0.  0.
         12    1    1    2    0    0  0.88151574843E+00 -0.36295410104E+02 -0.23780016395E+02  0.43400726311E+02  0.00000000000E+00 0. -1.
         11    1    3    3    0    0  0.28241648454E+01  0.53359872462E+01 -0.10804222610E+01  0.61331867319E+01  0.51100000000E-03 0.  1.
        -11    1    3    3    0    0  0.12599772456E+01  0.55433225620E+01  0.10755414695E+02  0.12165315993E+02  0.51100000000E-03 0. -1.
        -12    1    3    3    0    0 -0.49656578394E+01  0.25416100295E+02  0.14105023961E+02  0.29488770964E+02  0.00000000000E+00 0.  1.
</event>
<event>
 7    1  0.1384886E-010  0.4778727E+02  0.7816164E-02  0.1312668E+00
        -11   -1    0    0    0    0  0.00000000000E+00  0.00000000000E+00  0.45593999997E+02  0.45594000000E+02  0.51100000000E-03 0.  1.
         11   -1    0    0    0    0 -0.00000000000E+00 -0.00000000000E+00 -0.45593999997E+02  0.45594000000E+02  0.51100000000E-03 0. -1.
    9900012    2    1    2    0    0 -0.16424072228E+02 -0.31757490447E+02  0.24603558613E+02  0.47787269079E+02  0.19999991038E+02 0.  0.
         12    1    1    2    0    0  0.16424072228E+02  0.31757490447E+02 -0.24603558613E+02  0.43400730921E+02  0.00000000000E+00 0. -1.
         11    1    3    3    0    0  0.16784188221E-02 -0.32818764177E+01 -0.15975450948E+01  0.36500501680E+01  0.51100000000E-03 0. -1.
        -11    1    3    3    0    0 -0.16498413895E+02 -0.18522452249E+02  0.14334198834E+02  0.28648702498E+02  0.51100000000E-03 0.  1.
        -12    1    3    3    0    0  0.72663247878E-01 -0.99531617805E+01  0.11866904874E+02  0.15488516413E+02  0.00000000000E+00 0.  1.
</event>
<event>
 7    1  0.1384886E-010  0.4778726E+02  0.7816164E-02  0.1312668E+00
        -11   -1    0    0    0    0  0.00000000000E+00  0.00000000000E+00  0.45593999997E+02  0.45594000000E+02  0.51100000000E-03 0.  1.
         11   -1    0    0    0    0 -0.00000000000E+00 -0.00000000000E+00 -0.45593999997E+02  0.45594000000E+02  0.51100000000E-03 0. -1.
    9900012    2    1    2    0    0 -0.18533693496E+02  0.30235232771E+02  0.25019136615E+02  0.47787259312E+02  0.19999946506E+02 0.  0.
         12    1    1    2    0    0  0.18533693496E+02 -0.30235232771E+02 -0.25019136615E+02  0.43400740688E+02  0.00000000000E+00 0. -1.
         11    1    3    3    0    0 -0.88877541428E+01  0.21367026255E+02  0.90913754693E+01  0.24863529373E+02  0.51100000000E-03 0. -1.
        -11    1    3    3    0    0 -0.33948109877E+01  0.89416564584E+01  0.12668622445E+02  0.15873624563E+02  0.51100000000E-03 0.  1.
         12    1    3    3    0    0 -0.62511283653E+01 -0.73449942658E-01  0.32591387013E+01  0.70501053756E+01  0.00000000000E+00 0. -1.
</event>
<event>
 7    1  0.1384886E-010  0.4778727E+02  0.7816164E-02  0.1312668E+00
        -11   -1    0    0    0    0  0.00000000000E+00  0.00000000000E+00  0.45593999997E+02  0.45594000000E+02  0.51100000000E-03 0.  1.
         11   -1    0    0    0    0 -0.00000000000E+00 -0.00000000000E+00 -0.45593999997E+02  0.45594000000E+02  0.51100000000E-03 0. -1.
    9900012    2    1    2    0    0  0.22178562520E+02 -0.36615495942E+02  0.71442203154E+01  0.47787273481E+02  0.20000011107E+02 0.  0.
         12    1    1    2    0    0 -0.22178562520E+02  0.36615495942E+02 -0.71442203154E+01  0.43400726519E+02  0.00000000000E+00 0. -1.
         11    1    3    3    0    0 -0.33164491520E+01 -0.54387640436E+01  0.33673840918E+01  0.72054330322E+01  0.51100000000E-03 0. -1.
        -11    1    3    3    0    0  0.69025639824E+01 -0.10054795360E+02  0.44321257869E-01  0.12196157752E+02  0.51100000000E-03 0.  1.
        -12    1    3    3    0    0  0.18592447689E+02 -0.21121936538E+02  0.37325149657E+01  0.28385682697E+02  0.00000000000E+00 0.  1.
</event>
<event>
 7    1  0.1384886E-010  0.4778727E+02  0.7816164E-02  0.1312668E+00
        -11   -1    0    0    0    0  0.00000000000E+00  0.00000000000E+00  0.45593999997E+02  0.45594000000E+02  0.51100000000E-03 0.  1.
         11   -1    0    0    0    0 -0.00000000000E+00 -0.00000000000E+00 -0.45593999997E+02  0.45594000000E+02  0.51100000000E-03 0. -1.
    9900012    2    1    2    0    0  0.70090317195E+01 -0.12507451941E+01  0.42812759496E+02  0.47787271149E+02  0.20000000475E+02 0.  0.
         12    1    1    2    0    0 -0.70090317195E+01  0.12507451941E+01 -0.42812759496E+02  0.43400728851E+02  0.00000000000E+00 0. -1.
         11    1    3    3    0    0 -0.24187599230E+01 -0.94344218952E+00  0.33327374015E+00  0.26175473973E+01  0.51100000000E-03 0. -1.
        -11    1    3    3    0    0 -0.21324346011E+00  0.15997784721E+01  0.25500764287E+02  0.25551785524E+02  0.51100000000E-03 0.  1.
        -12    1    3    3    0    0  0.96410351026E+01 -0.19070814767E+01  0.16978721468E+02  0.19617938228E+02  0.00000000000E+00 0.  1.
</event>
<event>
 7    1  0.1384886E-010  0.4778727E+02  0.7816164E-02  0.1312668E+00
        -11   -1    0    0    0    0  0.00000000000E+00  0.00000000000E+00  0.45593999997E+02  0.45594000000E+02  0.51100000000E-03 0. -1.
         11   -1    0    0    0    0 -0.00000000000E+00 -0.00000000000E+00 -0.45593999997E+02  0.45594000000E+02  0.51100000000E-03 0.  1.
    9900012    2    1    2    0    0  0.14225805670E+02 -0.32576015573E+02 -0.24900858112E+02  0.47787273367E+02  0.20000010588E+02 0.  0.
         12    1    1    2    0    0 -0.14225805670E+02  0.32576015573E+02  0.24900858112E+02  0.43400726633E+02  0.00000000000E+00 0. -1.
         11    1    3    3    0    0 -0.42488071099E-01 -0.39136011785E+01 -0.74279228425E+00  0.39836942728E+01  0.51100000000E-03 0. -1.
        -11    1    3    3    0    0  0.12986153751E+02 -0.28057451176E+02 -0.26727929861E+02  0.40868606419E+02  0.51100000000E-03 0.  1.
        -12    1    3    3    0    0  0.12821399907E+01 -0.60496321893E+00  0.25698640335E+01  0.29349726749E+01  0.00000000000E+00 0.  1.
</event>
<event>
 7    1  0.1384886E-010  0.4778727E+02  0.7816164E-02  0.1312668E+00
        -11   -1    0    0    0    0  0.00000000000E+00  0.00000000000E+00  0.45593999997E+02  0.45594000000E+02  0.51100000000E-03 0.  1.
         11   -1    0    0    0    0 -0.00000000000E+00 -0.00000000000E+00 -0.45593999997E+02  0.45594000000E+02  0.51100000000E-03 0. -1.
    9900012    2    1    2    0    0 -0.20242799410E+02  0.16615436585E+02  0.34608953787E+02  0.47787270247E+02  0.19999996363E+02 0.  0.
         12    1    1    2    0    0  0.20242799410E+02 -0.16615436585E+02 -0.34608953787E+02  0.43400729753E+02  0.00000000000E+00 0. -1.
         11    1    3    3    0    0 -0.55682187291E+00 -0.30305133113E+01  0.35433978760E+01  0.46957140348E+01  0.51100000000E-03 0.  1.
        -11    1    3    3    0    0 -0.14012084877E+01  0.25567024467E+01  0.98802527006E+01  0.10301432246E+02  0.51100000000E-03 0. -1.
         12    1    3    3    0    0 -0.18284769050E+02  0.17089247449E+02  0.21185303211E+02  0.32790123966E+02  0.00000000000E+00 0. -1.
</event>
<event>
 7    1  0.1384886E-010  0.4778727E+02  0.7816164E-02  0.1312668E+00
        -11   -1    0    0    0    0  0.00000000000E+00  0.00000000000E+00  0.45593999997E+02  0.45594000000E+02  0.51100000000E-03 0. -1.
         11   -1    0    0    0    0 -0.00000000000E+00 -0.00000000000E+00 -0.45593999997E+02  0.45594000000E+02  0.51100000000E-03 0.  1.
    9900012    2    1    2    0    0 -0.42447263398E+02  0.90226237426E+01 -0.66717397826E+00  0.47787273851E+02  0.20000012796E+02 0.  0.
         12    1    1    2    0    0  0.42447263398E+02 -0.90226237426E+01  0.66717397826E+00  0.43400726149E+02  0.00000000000E+00 0. -1.
         11    1    3    3    0    0 -0.10466254187E+02  0.56732110410E+01  0.54371653770E+01  0.13087802253E+02  0.51100000000E-03 0. -1.
        -11    1    3    3    0    0 -0.87034063893E+01 -0.40480862015E+01 -0.31197204918E+01  0.10093014460E+02  0.51100000000E-03 0.  1.
         12    1    3    3    0    0 -0.23277602821E+02  0.73974989030E+01 -0.29846188635E+01  0.24606457138E+02  0.00000000000E+00 0. -1.
</event>
<event>
 7    1  0.1384886E-010  0.4778726E+02  0.7816164E-02  0.1312668E+00
        -11   -1    0    0    0    0  0.00000000000E+00  0.00000000000E+00  0.45593999997E+02  0.45594000000E+02  0.51100000000E-03 0.  1.
         11   -1    0    0    0    0 -0.00000000000E+00 -0.00000000000E+00 -0.45593999997E+02  0.45594000000E+02  0.51100000000E-03 0. -1.
    9900012    2    1    2    0    0 -0.33423134285E+02 -0.91841020987E+01  0.26118397927E+02  0.47787258681E+02  0.19999943631E+02 0.  0.
         12    1    1    2    0    0  0.33423134285E+02  0.91841020987E+01 -0.26118397927E+02  0.43400741319E+02  0.00000000000E+00 0. -1.
         11    1    3    3    0    0 -0.10175697059E+01 -0.48433511158E+01  0.79285555237E+01  0.93464159489E+01  0.51100000000E-03 0. -1.
        -11    1    3    3    0    0 -0.63761397738E+01 -0.41264276981E+01  0.60935001000E+01  0.97372125217E+01  0.51100000000E-03 0.  1.
        -12    1    3    3    0    0 -0.26029424805E+02 -0.21432328476E+00  0.12096342303E+02  0.28703630210E+02  0.00000000000E+00 0.  1.
</event>
<event>
 7    1  0.1384886E-010  0.4778727E+02  0.7816164E-02  0.1312668E+00
        -11   -1    0    0    0    0  0.00000000000E+00  0.00000000000E+00  0.45593999997E+02  0.45594000000E+02  0.51100000000E-03 0.  1.
         11   -1    0    0    0    0 -0.00000000000E+00 -0.00000000000E+00 -0.45593999997E+02  0.45594000000E+02  0.51100000000E-03 0. -1.
    9900012    2    1    2    0    0 -0.24903358612E+02  0.23551494493E+02  0.26622795137E+02  0.47787269776E+02  0.19999994219E+02 0.  0.
         12    1    1    2    0    0  0.24903358612E+02 -0.23551494493E+02 -0.26622795137E+02  0.43400730224E+02  0.00000000000E+00 0. -1.
         11    1    3    3    0    0 -0.81751386943E+01  0.12086019643E+02  0.72073371472E+01  0.16274227247E+02  0.51100000000E-03 0. -1.
        -11    1    3    3    0    0 -0.15105243786E+02  0.14681886974E+02  0.17740632010E+02  0.27540083866E+02  0.51100000000E-03 0.  1.
         12    1    3    3    0    0 -0.16229761324E+01 -0.32164121243E+01  0.16748259799E+01  0.39729586636E+01  0.00000000000E+00 0. -1.
</event>
<event>
 7    1  0.1384886E-010  0.4778727E+02  0.7816164E-02  0.1312668E+00
        -11   -1    0    0    0    0  0.00000000000E+00  0.00000000000E+00  0.45593999997E+02  0.45594000000E+02  0.51100000000E-03 0. -1.
         11   -1    0    0    0    0 -0.00000000000E+00 -0.00000000000E+00 -0.45593999997E+02  0.45594000000E+02  0.51100000000E-03 0.  1.
    9900012    2    1    2    0    0 -0.19802794838E+02 -0.10545767830E+02 -0.37151841309E+02  0.47787271720E+02  0.20000003081E+02 0.  0.
         12    1    1    2    0    0  0.19802794838E+02  0.10545767830E+02  0.37151841309E+02  0.43400728280E+02  0.00000000000E+00 0. -1.
         11    1    3    3    0    0 -0.42130282232E+01  0.17065597110E+01 -0.22921885356E+00  0.45513178752E+01  0.51100000000E-03 0. -1.
        -11    1    3    3    0    0 -0.13896115062E+02 -0.83647215486E+01 -0.19795312993E+02  0.25591502440E+02  0.51100000000E-03 0.  1.
        -12    1    3    3    0    0 -0.16936515532E+01 -0.38876059925E+01 -0.17127309463E+02  0.17644451405E+02  0.00000000000E+00 0.  1.
</event>
<event>
 7    1  0.1384886E-010  0.4778727E+02  0.7816164E-02  0.1312668E+00
        -11   -1    0    0    0    0  0.00000000000E+00  0.00000000000E+00  0.45593999997E+02  0.45594000000E+02  0.51100000000E-03 0.  1.
         11   -1    0    0    0    0 -0.00000000000E+00 -0.00000000000E+00 -0.45593999997E+02  0.45594000000E+02  0.51100000000E-03 0. -1.
    9900012    2    1    2    0    0  0.40105529010E+02  0.15710087241E+02  0.53257126186E+01  0.47787268288E+02  0.19999987430E+02 0.  0.
         12    1    1    2    0    0 -0.40105529010E+02 -0.15710087241E+02 -0.53257126186E+01  0.43400731712E+02  0.00000000000E+00 0. -1.
         11    1    3    3    0    0  0.12200986411E+02 -0.10623000185E+01  0.52378709853E+01  0.13320204332E+02  0.51100000000E-03 0. -1.
        -11    1    3    3    0    0  0.10619594670E+02  0.11639382007E+02  0.34399120658E+01  0.16127120007E+02  0.51100000000E-03 0.  1.
        -12    1    3    3    0    0  0.17284947929E+02  0.51330052525E+01 -0.33520704325E+01  0.18339943948E+02  0.00000000000E+00 0.  1.
</event>
<event>
 7    1  0.1567520E-010  0.4778727E+02  0.7816164E-02  0.1312668E+00
        -11   -1    0    0    0    0  0.00000000000E+00  0.00000000000E+00  0.45593999997E+02  0.45594000000E+02  0.51100000000E-03 0.  1.
         11   -1    0    0    0    0 -0.00000000000E+00 -0.00000000000E+00 -0.45593999997E+02  0.45594000000E+02  0.51100000000E-03 0. -1.
    9900012    2    1    2    0    0  0.11659180436E+02  0.39821697872E+02  0.12724761760E+02  0.47787266461E+02  0.19999979104E+02 0.  0.
         12    1    1    2    0    0 -0.11659180436E+02 -0.39821697872E+02 -0.12724761760E+02  0.43400733539E+02  0.00000000000E+00 0. -1.
         11    1    3    3    0    0  0.51973716861E+01  0.73679778537E+01 -0.35325235055E+01  0.96839296091E+01  0.51100000000E-03 0. -1.
        -11    1    3    3    0    0  0.73622817723E+01  0.14404142422E+02  0.97932693592E+01  0.18910067076E+02  0.51100000000E-03 0.  1.
        -12    1    3    3    0    0 -0.90047302263E+00  0.18049577597E+02  0.64640159060E+01  0.19193269777E+02  0.00000000000E+00 0.  1.
</event>
<event>
 7    1  0.1384886E-010  0.4778726E+02  0.7816164E-02  0.1312668E+00
        -11   -1    0    0    0    0  0.00000000000E+00  0.00000000000E+00  0.45593999997E+02  0.45594000000E+02  0.51100000000E-03 0. -1.
         11   -1    0    0    0    0 -0.00000000000E+00 -0.00000000000E+00 -0.45593999997E+02  0.45594000000E+02  0.51100000000E-03 0.  1.
    9900012    2    1    2    0    0  0.29191524945E+02 -0.24641714584E+02 -0.20597684667E+02  0.47787264523E+02  0.19999970268E+02 0.  0.
         12    1    1    2    0    0 -0.29191524945E+02  0.24641714584E+02  0.20597684667E+02  0.43400735477E+02  0.00000000000E+00 0. -1.
         11    1    3    3    0    0 -0.26429361013E+01 -0.25069068406E+01 -0.27569870804E+01  0.45684429695E+01  0.51100000000E-03 0. -1.
        -11    1    3    3    0    0  0.21672994439E+01 -0.43891627332E+00 -0.26446620554E+01  0.34473282441E+01  0.51100000000E-03 0.  1.
         12    1    3    3    0    0  0.29667161602E+02 -0.21695891470E+02 -0.15196035532E+02  0.39771493310E+02  0.00000000000E+00 0. -1.
</event>
<event>
 7    1  0.1384886E-010  0.4778727E+02  0.7816164E-02  0.1312668E+00
        -11   -1    0    0    0    0  0.00000000000E+00  0.00000000000E+00  0.45593999997E+02  0.45594000000E+02  0.51100000000E-03 0.  1.
         11   -1    0    0    0    0 -0.00000000000E+00 -0.00000000000E+00 -0.45593999997E+02  0.45594000000E+02  0.51100000000E-03 0. -1.
    9900012    2    1    2    0    0  0.29196062904E+02  0.27910301708E+02  0.15881685394E+02  0.47787274643E+02  0.20000016408E+02 0.  0.
         12    1    1    2    0    0 -0.29196062904E+02 -0.27910301708E+02 -0.15881685394E+02  0.43400725357E+02  0.00000000000E+00 0. -1.
         11    1    3    3    0    0  0.71094954303E+01  0.49023616005E+01  0.12871288521E+01  0.87312528012E+01  0.51100000000E-03 0. -1.
        -11    1    3    3    0    0  0.24596051140E+02  0.23033086808E+02  0.13245511979E+02  0.36206800569E+02  0.51100000000E-03 0.  1.
         12    1    3    3    0    0 -0.25094836667E+01 -0.25146699914E-01  0.13490445626E+01  0.28492212729E+01  0.00000000000E+00 0. -1.
</event>
<event>
 7    1  0.1384886E-010  0.4778727E+02  0.7816164E-02  0.1312668E+00
        -11   -1    0    0    0    0  0.00000000000E+00  0.00000000000E+00  0.45593999997E+02  0.45594000000E+02  0.51100000000E-03 0.  1.
         11   -1    0    0    0    0 -0.00000000000E+00 -0.00000000000E+00 -0.45593999997E+02  0.45594000000E+02  0.51100000000E-03 0. -1.
    9900012    2    1    2    0    0  0.47845385361E+01 -0.38227375313E+02  0.19984967809E+02  0.47787274537E+02  0.20000015925E+02 0.  0.
         12    1    1    2    0    0 -0.47845385361E+01  0.38227375313E+02 -0.19984967809E+02  0.43400725463E+02  0.00000000000E+00 0. -1.
         11    1    3    3    0    0  0.62326364737E+01 -0.26158497489E+02  0.59550763322E+01  0.27542252680E+02  0.51100000000E-03 0. -1.
        -11    1    3    3    0    0 -0.18980072930E+01 -0.12242063992E+02  0.93000888683E+01  0.15490713853E+02  0.51100000000E-03 0.  1.
        -12    1    3    3    0    0  0.44990935541E+00  0.17318616796E+00  0.47298026089E+01  0.47543080039E+01  0.00000000000E+00 0.  1.
</event>
<event>
 7    1  0.1384886E-010  0.4778727E+02  0.7816164E-02  0.1312668E+00
        -11   -1    0    0    0    0  0.00000000000E+00  0.00000000000E+00  0.45593999997E+02  0.45594000000E+02  0.51100000000E-03 0.  1.
         11   -1    0    0    0    0 -0.00000000000E+00 -0.00000000000E+00 -0.45593999997E+02  0.45594000000E+02  0.51100000000E-03 0. -1.
    9900012    2    1    2    0    0  0.21952241470E+02  0.30959022633E+02  0.21053776968E+02  0.47787268295E+02  0.19999987462E+02 0.  0.
         12    1    1    2    0    0 -0.21952241470E+02 -0.30959022633E+02 -0.21053776968E+02  0.43400731705E+02  0.00000000000E+00 0. -1.
         11    1    3    3    0    0  0.10692388318E+02  0.73030191885E+01  0.10757381117E+02  0.16833968813E+02  0.51100000000E-03 0. -1.
        -11    1    3    3    0    0  0.10815478093E+02  0.12195504979E+02  0.10663040591E+02  0.19478330087E+02  0.51100000000E-03 0.  1.
         12    1    3    3    0    0  0.44437505942E+00  0.11460498465E+02 -0.36664473968E+00  0.11474969395E+02  0.00000000000E+00 0. -1.
</event>
<event>
 7    1  0.1384886E-010  0.4778727E+02  0.7816164E-02  0.1312668E+00
        -11   -1    0    0    0    0  0.00000000000E+00  0.00000000000E+00  0.45593999997E+02  0.45594000000E+02  0.51100000000E-03 0.  1.
         11   -1    0    0    0    0 -0.00000000000E+00 -0.00000000000E+00 -0.45593999997E+02  0.45594000000E+02  0.51100000000E-03 0. -1.
    9900012    2    1    2    0    0  0.15028843453E+02 -0.19919088473E+02  0.35510377241E+02  0.47787272898E+02  0.20000008453E+02 0.  0.
         12    1    1    2    0    0 -0.15028843453E+02  0.19919088473E+02 -0.35510377241E+02  0.43400727102E+02  0.00000000000E+00 0. -1.
         11    1    3    3    0    0  0.72333345228E+01 -0.18756317527E+02  0.21862647574E+02  0.29700099911E+02  0.51100000000E-03 0.  1.
        -11    1    3    3    0    0  0.56258216290E+01 -0.77473228372E+00  0.16857680465E+01  0.59238410918E+01  0.51100000000E-03 0. -1.
        -12    1    3    3    0    0  0.21696873008E+01 -0.38803866209E+00  0.11961961621E+02  0.12163331895E+02  0.00000000000E+00 0.  1.
</event>
<event>
 7    1  0.1384886E-010  0.4778727E+02  0.7816164E-02  0.1312668E+00
        -11   -1    0    0    0    0  0.00000000000E+00  0.00000000000E+00  0.45593999997E+02  0.45594000000E+02  0.51100000000E-03 0.  1.
         11   -1    0    0    0    0 -0.00000000000E+00 -0.00000000000E+00 -0.45593999997E+02  0.45594000000E+02  0.51100000000E-03 0. -1.
    9900012    2    1    2    0    0 -0.10213327740E+02  0.95481822548E+01  0.41087028665E+02  0.47787265301E+02  0.19999973814E+02 0.  0.
         12    1    1    2    0    0  0.10213327740E+02 -0.95481822548E+01 -0.41087028665E+02  0.43400734699E+02  0.00000000000E+00 0. -1.
         11    1    3    3    0    0  0.42897368549E+00 -0.20033356906E+01  0.18292073767E+02  0.18406448198E+02  0.51100000000E-03 0. -1.
        -11    1    3    3    0    0 -0.97574483618E-01  0.70755050727E+01  0.90530539686E+01  0.11490434249E+02  0.51100000000E-03 0.  1.
         12    1    3    3    0    0 -0.10544726942E+02  0.44760128727E+01  0.13741900929E+02  0.17890382854E+02  0.00000000000E+00 0. -1.
</event>
<event>
 7    1  0.1384886E-010  0.4778727E+02  0.7816164E-02  0.1312668E+00
        -11   -1    0    0    0    0  0.00000000000E+00  0.00000000000E+00  0.45593999997E+02  0.45594000000E+02  0.51100000000E-03 0.  1.
         11   -1    0    0    0    0 -0.00000000000E+00 -0.00000000000E+00 -0.45593999997E+02  0.45594000000E+02  0.51100000000E-03 0. -1.
    9900012    2    1    2    0    0 -0.40192656641E+02 -0.33353786588E+01  0.16032742822E+02  0.47787271422E+02  0.20000001721E+02 0.  0.
         12    1    1    2    0    0  0.40192656641E+02  0.33353786588E+01 -0.16032742822E+02  0.43400728578E+02  0.00000000000E+00 0. -1.
         11    1    3    3    0    0 -0.78814217182E+01 -0.41904969321E+01 -0.31672218629E+01  0.94714501228E+01  0.51100000000E-03 0. -1.
        -11    1    3    3    0    0 -0.20090898015E+02 -0.26584417407E+01  0.98509517104E+01  0.22533369597E+02  0.51100000000E-03 0.  1.
        -12    1    3    3    0    0 -0.12220336909E+02  0.35135600141E+01  0.93490129749E+01  0.15782451702E+02  0.00000000000E+00 0.  1.
</event>
<event>
 7    1  0.1384886E-010  0.4778727E+02  0.7816164E-02  0.1312668E+00
        -11   -1    0    0    0    0  0.00000000000E+00  0.00000000000E+00  0.45593999997E+02  0.45594000000E+02  0.51100000000E-03 0.  1.
         11   -1    0    0    0    0 -0.00000000000E+00 -0.00000000000E+00 -0.45593999997E+02  0.45594000000E+02  0.51100000000E-03 0. -1.
    9900012    2    1    2    0    0 -0.20282618591E+02 -0.14609502353E+02  0.35479589164E+02  0.47787269325E+02  0.19999992159E+02 0.  0.
         12    1    1    2    0    0  0.20282618591E+02  0.14609502353E+02 -0.35479589164E+02  0.43400730675E+02  0.00000000000E+00 0. -1.
         11    1    3    3    0    0 -0.58774811461E+01 -0.32534575045E+01  0.21913241751E+01  0.70662346591E+01  0.51100000000E-03 0. -1.
        -11    1    3    3    0    0 -0.99673728684E+01 -0.14489896118E+02  0.28445038657E+02  0.33442874216E+02  0.51100000000E-03 0.  1.
        -12    1    3    3    0    0 -0.44377645766E+01  0.31338512700E+01  0.48432263320E+01  0.72781604491E+01  0.00000000000E+00 0.  1.
</event>
<event>
 7    1  0.1384886E-010  0.4778727E+02  0.7816164E-02  0.1312668E+00
        -11   -1    0    0    0    0  0.00000000000E+00  0.00000000000E+00  0.45593999997E+02  0.45594000000E+02  0.51100000000E-03 0.  1.
         11   -1    0    0    0    0 -0.00000000000E+00 -0.00000000000E+00 -0.45593999997E+02  0.45594000000E+02  0.51100000000E-03 0. -1.
    9900012    2    1    2    0    0  0.22759173176E+02 -0.36950832899E+02  0.52836179482E+00  0.47787272106E+02  0.20000004839E+02 0.  0.
         12    1    1    2    0    0 -0.22759173176E+02  0.36950832899E+02 -0.52836179482E+00  0.43400727894E+02  0.00000000000E+00 0. -1.
         11    1    3    3    0    0  0.16967417786E+01 -0.29651669804E+01 -0.30129920048E+01  0.45551365476E+01  0.51100000000E-03 0. -1.
        -11    1    3    3    0    0  0.44336269615E+01 -0.16918479821E+02  0.75834171860E+01  0.19063059145E+02  0.51100000000E-03 0.  1.
         12    1    3    3    0    0  0.16628804436E+02 -0.17067186098E+02 -0.40420633863E+01  0.24169076413E+02  0.00000000000E+00 0. -1.
</event>
<event>
 7    1  0.1384886E-010  0.4778727E+02  0.7816164E-02  0.1312668E+00
        -11   -1    0    0    0    0  0.00000000000E+00  0.00000000000E+00  0.45593999997E+02  0.45594000000E+02  0.51100000000E-03 0.  1.
         11   -1    0    0    0    0 -0.00000000000E+00 -0.00000000000E+00 -0.45593999997E+02  0.45594000000E+02  0.51100000000E-03 0. -1.
    9900012    2    1    2    0    0  0.29564108258E+02 -0.26961000396E+02  0.16813426734E+02  0.47787270075E+02  0.19999995579E+02 0.  0.
         12    1    1    2    0    0 -0.29564108258E+02  0.26961000396E+02 -0.16813426734E+02  0.43400729925E+02  0.00000000000E+00 0. -1.
         11    1    3    3    0    0  0.24211231861E+01 -0.57657607221E+01 -0.19678987054E+01  0.65557958908E+01  0.51100000000E-03 0. -1.
        -11    1    3    3    0    0  0.21561343434E+02 -0.21460489532E+02  0.12680011833E+02  0.32957955670E+02  0.51100000000E-03 0.  1.
         12    1    3    3    0    0  0.55816416386E+01  0.26524985773E+00  0.61013136066E+01  0.82735185136E+01  0.00000000000E+00 0. -1.
</event>
<event>
 7    1  0.1384886E-010  0.4778727E+02  0.7816164E-02  0.1312668E+00
        -11   -1    0    0    0    0  0.00000000000E+00  0.00000000000E+00  0.45593999997E+02  0.45594000000E+02  0.51100000000E-03 0. -1.
         11   -1    0    0    0    0 -0.00000000000E+00 -0.00000000000E+00 -0.45593999997E+02  0.45594000000E+02  0.51100000000E-03 0.  1.
    9900012    2    1    2    0    0 -0.21435863337E+02 -0.35959340300E+02 -0.11447826528E+02  0.47787272771E+02  0.20000007872E+02 0.  0.
         12    1    1    2    0    0  0.21435863337E+02  0.35959340300E+02  0.11447826528E+02  0.43400727229E+02  0.00000000000E+00 0. -1.
         11    1    3    3    0    0 -0.13991441887E+02 -0.12098473682E+02 -0.41399616978E+01  0.18954492730E+02  0.51100000000E-03 0.  1.
        -11    1    3    3    0    0 -0.31487019990E+01 -0.86187371905E+01  0.33234592726E+01  0.97592180443E+01  0.51100000000E-03 0. -1.
         12    1    3    3    0    0 -0.42957194513E+01 -0.15242129427E+02 -0.10631324103E+02  0.19073561997E+02  0.00000000000E+00 0. -1.
</event>
<event>
 7    1  0.1384886E-010  0.4778727E+02  0.7816164E-02  0.1312668E+00
        -11   -1    0    0    0    0  0.00000000000E+00  0.00000000000E+00  0.45593999997E+02  0.45594000000E+02  0.51100000000E-03 0. -1.
         11   -1    0    0    0    0 -0.00000000000E+00 -0.00000000000E+00 -0.45593999997E+02  0.45594000000E+02  0.51100000000E-03 0.  1.
    9900012    2    1    2    0    0  0.37051154107E+02  0.15574691197E+02 -0.16378786432E+02  0.47787266463E+02  0.19999979112E+02 0.  0.
         12    1    1    2    0    0 -0.37051154107E+02 -0.15574691197E+02  0.16378786432E+02  0.43400733537E+02  0.00000000000E+00 0. -1.
         11    1    3    3    0    0  0.41791932098E+00  0.64389323419E+01 -0.14165968405E+01  0.66061526725E+01  0.51100000000E-03 0. -1.
        -11    1    3    3    0    0  0.15481620192E+02  0.23941371325E+01 -0.94925423455E+01  0.18317227323E+02  0.51100000000E-03 0.  1.
         12    1    3    3    0    0  0.21151614594E+02  0.67416217227E+01 -0.54696472462E+01  0.22863886468E+02  0.00000000000E+00 0. -1.
</event>
<event>
 7    1  0.1384886E-010  0.4778727E+02  0.7816164E-02  0.1312668E+00
        -11   -1    0    0    0    0  0.00000000000E+00  0.00000000000E+00  0.45593999997E+02  0.45594000000E+02  0.51100000000E-03 0.  1.
         11   -1    0    0    0    0 -0.00000000000E+00 -0.00000000000E+00 -0.45593999997E+02  0.45594000000E+02  0.51100000000E-03 0. -1.
    9900012    2    1    2    0    0  0.32532761110E+02 -0.49343749438E+01  0.28300087777E+02  0.47787267636E+02  0.19999984461E+02 0.  0.
         12    1    1    2    0    0 -0.32532761110E+02  0.49343749438E+01 -0.28300087777E+02  0.43400732364E+02  0.00000000000E+00 0. -1.
         11    1    3    3    0    0  0.10109243673E+02 -0.24235256582E+01  0.11555564300E+02  0.15543530834E+02  0.51100000000E-03 0.  1.
        -11    1    3    3    0    0  0.11470049687E+02 -0.95722722856E+00  0.17728326573E+02  0.21136979139E+02  0.51100000000E-03 0. -1.
         12    1    3    3    0    0  0.10953467750E+02 -0.15536220571E+01 -0.98380309571E+00  0.11106757663E+02  0.00000000000E+00 0. -1.
</event>
<event>
 7    1  0.1384886E-010  0.4778727E+02  0.7816164E-02  0.1312668E+00
        -11   -1    0    0    0    0  0.00000000000E+00  0.00000000000E+00  0.45593999997E+02  0.45594000000E+02  0.51100000000E-03 0.  1.
         11   -1    0    0    0    0 -0.00000000000E+00 -0.00000000000E+00 -0.45593999997E+02  0.45594000000E+02  0.51100000000E-03 0. -1.
    9900012    2    1    2    0    0 -0.10108911546E+02  0.32091240217E+02  0.27415058028E+02  0.47787271919E+02  0.20000003985E+02 0.  0.
         12    1    1    2    0    0  0.10108911546E+02 -0.32091240217E+02 -0.27415058028E+02  0.43400728081E+02  0.00000000000E+00 0. -1.
         11    1    3    3    0    0  0.18792829590E+01 -0.98426806993E-01 -0.30798868848E+00  0.19068952698E+01  0.51100000000E-03 0. -1.
        -11    1    3    3    0    0 -0.30987890365E+01  0.12913612948E+01  0.66176385043E+01  0.74204613820E+01  0.51100000000E-03 0.  1.
        -12    1    3    3    0    0 -0.88894054685E+01  0.30898305729E+02  0.21105408213E+02  0.38459915267E+02  0.00000000000E+00 0.  1.
</event>
<event>
 7    1  0.1384886E-010  0.4778727E+02  0.7816164E-02  0.1312668E+00
        -11   -1    0    0    0    0  0.00000000000E+00  0.00000000000E+00  0.45593999997E+02  0.45594000000E+02  0.51100000000E-03 0. -1.
         11   -1    0    0    0    0 -0.00000000000E+00 -0.00000000000E+00 -0.45593999997E+02  0.45594000000E+02  0.51100000000E-03 0.  1.
    9900012    2    1    2    0    0  0.85272178457E+00  0.43301929458E+02  0.27998212082E+01  0.47787271572E+02  0.20000002406E+02 0.  0.
         12    1    1    2    0    0 -0.85272178457E+00 -0.43301929458E+02 -0.27998212082E+01  0.43400728428E+02  0.00000000000E+00 0. -1.
         11    1    3    3    0    0  0.46499800734E+00  0.14646815258E+02 -0.47612431592E+01  0.15408272357E+02  0.51100000000E-03 0.  1.
        -11    1    3    3    0    0  0.36975799925E+01  0.17322857325E+02 -0.10842996985E+01  0.17746244386E+02  0.51100000000E-03 0. -1.
        -12    1    3    3    0    0 -0.33098562153E+01  0.11332256875E+02  0.86453640660E+01  0.14632754829E+02  0.00000000000E+00 0.  1.
</event>
<event>
 7    1  0.1384886E-010  0.4778727E+02  0.7816164E-02  0.1312668E+00
        -11   -1    0    0    0    0  0.00000000000E+00  0.00000000000E+00  0.45593999997E+02  0.45594000000E+02  0.51100000000E-03 0. -1.
         11   -1    0    0    0    0 -0.00000000000E+00 -0.00000000000E+00 -0.45593999997E+02  0.45594000000E+02  0.51100000000E-03 0.  1.
    9900012    2    1    2    0    0 -0.15574195821E+02 -0.39716988938E+02 -0.79767528167E+01  0.47787269922E+02  0.19999994883E+02 0.  0.
         12    1    1    2    0    0  0.15574195821E+02  0.39716988938E+02  0.79767528167E+01  0.43400730078E+02  0.00000000000E+00 0. -1.
         11    1    3    3    0    0 -0.12899475899E+02 -0.20647098087E+02  0.14222974184E+01  0.24386924120E+02  0.51100000000E-03 0. -1.
        -11    1    3    3    0    0 -0.55120908164E+01 -0.79642191577E+01 -0.61993301060E+01  0.11499722866E+02  0.51100000000E-03 0.  1.
         12    1    3    3    0    0  0.28373708939E+01 -0.11105671694E+02 -0.31997201291E+01  0.11900622936E+02  0.00000000000E+00 0. -1.
</event>
<event>
 7    1  0.1384886E-010  0.4778730E+02  0.7816164E-02  0.1312668E+00
        -11   -1    0    0    0    0  0.00000000000E+00  0.00000000000E+00  0.45593999997E+02  0.45594000000E+02  0.51100000000E-03 0.  1.
         11   -1    0    0    0    0 -0.00000000000E+00 -0.00000000000E+00 -0.45593999997E+02  0.45594000000E+02  0.51100000000E-03 0. -1.
    9900012    2    1    2    0    0 -0.13364897687E+02 -0.22426454141E+02  0.34670656537E+02  0.47787300003E+02  0.20000132035E+02 0.  0.
         12    1    1    2    0    0  0.13364897687E+02  0.22426454141E+02 -0.34670656537E+02  0.43400699997E+02  0.00000000000E+00 0. -1.
         11    1    3    3    0    0 -0.13657193321E+02 -0.94224969341E+01  0.24747164378E+02  0.29794706290E+02  0.51100000000E-03 0.  1.
        -11    1    3    3    0    0 -0.11802011674E+01 -0.38075269852E+01 -0.49638288396E+00  0.40170303419E+01  0.51100000000E-03 0. -1.
        -12    1    3    3    0    0  0.14724968015E+01 -0.91964302212E+01  0.10419875043E+02  0.13975563371E+02  0.00000000000E+00 0.  1.
</event>
<event>
 7    1  0.1384886E-010  0.4778727E+02  0.7816164E-02  0.1312668E+00
        -11   -1    0    0    0    0  0.00000000000E+00  0.00000000000E+00  0.45593999997E+02  0.45594000000E+02  0.51100000000E-03 0.  1.
         11   -1    0    0    0    0 -0.00000000000E+00 -0.00000000000E+00 -0.45593999997E+02  0.45594000000E+02  0.51100000000E-03 0. -1.
    9900012    2    1    2    0    0 -0.14669385676E+02 -0.27431479516E+02  0.30264607105E+02  0.47787269732E+02  0.19999994018E+02 0.  0.
         12    1    1    2    0    0  0.14669385676E+02  0.27431479516E+02 -0.30264607105E+02  0.43400730268E+02  0.00000000000E+00 0. -1.
         11    1    3    3    0    0 -0.14806831549E+02 -0.13120199929E+02  0.13108180406E+02  0.23731967902E+02  0.51100000000E-03 0. -1.
        -11    1    3    3    0    0 -0.34684699855E+01 -0.74193882381E+01  0.49148578897E+01  0.95516194546E+01  0.51100000000E-03 0.  1.
        -12    1    3    3    0    0  0.36059158585E+01 -0.68918913488E+01  0.12241568809E+02  0.14503682375E+02  0.00000000000E+00 0.  1.
</event>
<event>
 7    1  0.1384886E-010  0.4778727E+02  0.7816164E-02  0.1312668E+00
        -11   -1    0    0    0    0  0.00000000000E+00  0.00000000000E+00  0.45593999997E+02  0.45594000000E+02  0.51100000000E-03 0.  1.
         11   -1    0    0    0    0 -0.00000000000E+00 -0.00000000000E+00 -0.45593999997E+02  0.45594000000E+02  0.51100000000E-03 0. -1.
    9900012    2    1    2    0    0 -0.36168437972E+02  0.17385090799E+02  0.16529554796E+02  0.47787268794E+02  0.19999989740E+02 0.  0.
         12    1    1    2    0    0  0.36168437972E+02 -0.17385090799E+02 -0.16529554796E+02  0.43400731206E+02  0.00000000000E+00 0. -1.
         11    1    3    3    0    0  0.87236822971E+00 -0.65945130236E+00  0.40914148630E+01  0.42350416988E+01  0.51100000000E-03 0. -1.
        -11    1    3    3    0    0 -0.13559898166E+02  0.40575529587E+01  0.19947148984E+01  0.14293826012E+02  0.51100000000E-03 0.  1.
        -12    1    3    3    0    0 -0.23480908036E+02  0.13986989143E+02  0.10443425035E+02  0.29258401083E+02  0.00000000000E+00 0.  1.
</event>
<event>
 7    1  0.1384886E-010  0.4778727E+02  0.7816164E-02  0.1312668E+00
        -11   -1    0    0    0    0  0.00000000000E+00  0.00000000000E+00  0.45593999997E+02  0.45594000000E+02  0.51100000000E-03 0.  1.
         11   -1    0    0    0    0 -0.00000000000E+00 -0.00000000000E+00 -0.45593999997E+02  0.45594000000E+02  0.51100000000E-03 0. -1.
    9900012    2    1    2    0    0  0.15672521409E+02  0.55950377206E+01  0.40083552043E+02  0.47787268223E+02  0.19999987134E+02 0.  0.
         12    1    1    2    0    0 -0.15672521409E+02 -0.55950377206E+01 -0.40083552043E+02  0.43400731777E+02  0.00000000000E+00 0. -1.
         11    1    3    3    0    0  0.16932954766E+01 -0.25162543823E+00  0.12634706608E+02  0.12750152010E+02  0.51100000000E-03 0.  1.
        -11    1    3    3    0    0 -0.17456002187E+01  0.29416449432E+01  0.13143454634E+02  0.13581266328E+02  0.51100000000E-03 0. -1.
         12    1    3    3    0    0  0.15724826151E+02  0.29050182156E+01  0.14305390801E+02  0.21455849885E+02  0.00000000000E+00 0. -1.
</event>
<event>
 7    1  0.1384886E-010  0.4778727E+02  0.7816164E-02  0.1312668E+00
        -11   -1    0    0    0    0  0.00000000000E+00  0.00000000000E+00  0.45593999997E+02  0.45594000000E+02  0.51100000000E-03 0.  1.
         11   -1    0    0    0    0 -0.00000000000E+00 -0.00000000000E+00 -0.45593999997E+02  0.45594000000E+02  0.51100000000E-03 0. -1.
    9900012    2    1    2    0    0  0.68217278396E+00  0.16396070143E+02  0.40178683586E+02  0.47787273156E+02  0.20000009630E+02 0.  0.
         12    1    1    2    0    0 -0.68217278396E+00 -0.16396070143E+02 -0.40178683586E+02  0.43400726844E+02  0.00000000000E+00 0. -1.
         11    1    3    3    0    0 -0.79277295500E+01  0.26345781860E+01  0.87249196768E+01  0.12079491780E+02  0.51100000000E-03 0. -1.
        -11    1    3    3    0    0  0.40271049156E+01  0.25000488785E+01  0.92015683845E+01  0.10350684972E+02  0.51100000000E-03 0.  1.
        -12    1    3    3    0    0  0.45827974183E+01  0.11261443079E+02  0.22252195525E+02  0.25357096404E+02  0.00000000000E+00 0.  1.
</event>
<event>
 7    1  0.1384886E-010  0.4778725E+02  0.7816164E-02  0.1312668E+00
        -11   -1    0    0    0    0  0.00000000000E+00  0.00000000000E+00  0.45593999997E+02  0.45594000000E+02  0.51100000000E-03 0. -1.
         11   -1    0    0    0    0 -0.00000000000E+00 -0.00000000000E+00 -0.45593999997E+02  0.45594000000E+02  0.51100000000E-03 0.  1.
    9900012    2    1    2    0    0  0.30159198839E+02 -0.18208694240E+02 -0.25347406842E+02  0.47787252839E+02  0.19999916993E+02 0.  0.
         12    1    1    2    0    0 -0.30159198839E+02  0.18208694240E+02  0.25347406842E+02  0.43400747161E+02  0.00000000000E+00 0. -1.
         11    1    3    3    0    0  0.51343120725E+01 -0.15469193673E+01 -0.62652096409E+01  0.82466339856E+01  0.51100000000E-03 0. -1.
        -11    1    3    3    0    0  0.22341577962E+02 -0.91356070716E+01 -0.20197546428E+02  0.31472945594E+02  0.51100000000E-03 0.  1.
         12    1    3    3    0    0  0.26833088043E+01 -0.75261678015E+01  0.11153492270E+01  0.80676732590E+01  0.00000000000E+00 0. -1.
</event>
<event>
 7    1  0.1384886E-010  0.4778727E+02  0.7816164E-02  0.1312668E+00
        -11   -1    0    0    0    0  0.00000000000E+00  0.00000000000E+00  0.45593999997E+02  0.45594000000E+02  0.51100000000E-03 0.  1.
         11   -1    0    0    0    0 -0.00000000000E+00 -0.00000000000E+00 -0.45593999997E+02  0.45594000000E+02  0.51100000000E-03 0. -1.
    9900012    2    1    2    0    0  0.37331211539E+02 -0.20546586920E+02  0.82366181496E+01  0.47787268813E+02  0.19999989826E+02 0.  0.
         12    1    1    2    0    0 -0.37331211539E+02  0.20546586920E+02 -0.82366181496E+01  0.43400731187E+02  0.00000000000E+00 0. -1.
         11    1    3    3    0    0  0.15226140101E+02 -0.86618816024E+01 -0.33499971722E+01  0.17834966123E+02  0.51100000000E-03 0. -1.
        -11    1    3    3    0    0  0.92685100412E+01 -0.10313351646E+02  0.23591188932E+01  0.14065416552E+02  0.51100000000E-03 0.  1.
         12    1    3    3    0    0  0.12836561396E+02 -0.15713536715E+01  0.92274964286E+01  0.15886886139E+02  0.00000000000E+00 0. -1.
</event>
<event>
 7    1  0.1384886E-010  0.4778727E+02  0.7816164E-02  0.1312668E+00
        -11   -1    0    0    0    0  0.00000000000E+00  0.00000000000E+00  0.45593999997E+02  0.45594000000E+02  0.51100000000E-03 0.  1.
         11   -1    0    0    0    0 -0.00000000000E+00 -0.00000000000E+00 -0.45593999997E+02  0.45594000000E+02  0.51100000000E-03 0. -1.
    9900012    2    1    2    0    0  0.25214978293E+02  0.24756016476E+01  0.35237763427E+02  0.47787266075E+02  0.19999977344E+02 0.  0.
         12    1    1    2    0    0 -0.25214978293E+02 -0.24756016476E+01 -0.35237763427E+02  0.43400733925E+02  0.00000000000E+00 0. -1.
         11    1    3    3    0    0  0.35832353900E+01  0.53841705588E+00 -0.13129492388E+01  0.38539985406E+01  0.51100000000E-03 0. -1.
        -11    1    3    3    0    0  0.17483154454E+02  0.47324910641E+01  0.21716694099E+02  0.28278471744E+02  0.51100000000E-03 0.  1.
        -12    1    3    3    0    0  0.41485884493E+01 -0.27953064723E+01  0.14834018567E+02  0.15654795790E+02  0.00000000000E+00 0.  1.
</event>
<event>
 7    1  0.1384886E-010  0.4778726E+02  0.7816164E-02  0.1312668E+00
        -11   -1    0    0    0    0  0.00000000000E+00  0.00000000000E+00  0.45593999997E+02  0.45594000000E+02  0.51100000000E-03 0. -1.
         11   -1    0    0    0    0 -0.00000000000E+00 -0.00000000000E+00 -0.45593999997E+02  0.45594000000E+02  0.51100000000E-03 0.  1.
    9900012    2    1    2    0    0  0.10820277756E+02  0.34822388737E+02 -0.23536074487E+02  0.47787263021E+02  0.19999963417E+02 0.  0.
         12    1    1    2    0    0 -0.10820277756E+02 -0.34822388737E+02  0.23536074487E+02  0.43400736979E+02  0.00000000000E+00 0. -1.
         11    1    3    3    0    0  0.76610767185E+00  0.62919763320E+01  0.10173100374E+01  0.64195644012E+01  0.51100000000E-03 0. -1.
        -11    1    3    3    0    0  0.26083634489E+01  0.12509945265E+01 -0.82153722068E+01  0.87098156091E+01  0.51100000000E-03 0.  1.
        -12    1    3    3    0    0  0.74458066350E+01  0.27279417879E+02 -0.16338012317E+02  0.32657883011E+02  0.00000000000E+00 0.  1.
</event>
<event>
 7    1  0.1384886E-010  0.4778727E+02  0.7816164E-02  0.1312668E+00
        -11   -1    0    0    0    0  0.00000000000E+00  0.00000000000E+00  0.45593999997E+02  0.45594000000E+02  0.51100000000E-03 0.  1.
         11   -1    0    0    0    0 -0.00000000000E+00 -0.00000000000E+00 -0.45593999997E+02  0.45594000000E+02  0.51100000000E-03 0. -1.
    9900012    2    1    2    0    0  0.27341684829E+02 -0.10786507337E+02  0.31932846019E+02  0.47787272763E+02  0.20000007837E+02 0.  0.
         12    1    1    2    0    0 -0.27341684829E+02  0.10786507337E+02 -0.31932846019E+02  0.43400727237E+02  0.00000000000E+00 0. -1.
         11    1    3    3    0    0  0.74300205843E+01  0.36009403401E+01  0.67737477435E+01  0.10679683327E+02  0.51100000000E-03 0. -1.
        -11    1    3    3    0    0  0.28401615108E+01  0.20685014098E+01  0.40454005949E+01  0.53582162819E+01  0.51100000000E-03 0.  1.
        -12    1    3    3    0    0  0.17071502734E+02 -0.16455949087E+02  0.21113697680E+02  0.31749373154E+02  0.00000000000E+00 0.  1.
</event>
<event>
 7    1  0.1384886E-010  0.4778724E+02  0.7816164E-02  0.1312668E+00
        -11   -1    0    0    0    0  0.00000000000E+00  0.00000000000E+00  0.45593999997E+02  0.45594000000E+02  0.51100000000E-03 0.  1.
         11   -1    0    0    0    0 -0.00000000000E+00 -0.00000000000E+00 -0.45593999997E+02  0.45594000000E+02  0.51100000000E-03 0. -1.
    9900012    2    1    2    0    0 -0.40426746629E+02  0.57929118577E+01  0.14688309279E+02  0.47787238483E+02  0.19999851538E+02 0.  0.
         12    1    1    2    0    0  0.40426746629E+02 -0.57929118577E+01 -0.14688309279E+02  0.43400761517E+02  0.00000000000E+00 0. -1.
         11    1    3    3    0    0 -0.15036796601E+02  0.23796476537E+01  0.30591129208E+00  0.15227000918E+02  0.51100000000E-03 0. -1.
        -11    1    3    3    0    0  0.70517964336E+00 -0.35465817445E+00  0.42369856197E+01  0.43098849350E+01  0.51100000000E-03 0.  1.
        -12    1    3    3    0    0 -0.26095129671E+02  0.37679223784E+01  0.10145412367E+02  0.28250352630E+02  0.00000000000E+00 0.  1.
</event>
<event>
 7    1  0.1384886E-010  0.4778727E+02  0.7816164E-02  0.1312668E+00
        -11   -1    0    0    0    0  0.00000000000E+00  0.00000000000E+00  0.45593999997E+02  0.45594000000E+02  0.51100000000E-03 0.  1.
         11   -1    0    0    0    0 -0.00000000000E+00 -0.00000000000E+00 -0.45593999997E+02  0.45594000000E+02  0.51100000000E-03 0. -1.
    9900012    2    1    2    0    0  0.93814886770E+01 -0.10692493677E+02  0.41003437806E+02  0.47787266564E+02  0.19999979573E+02 0.  0.
         12    1    1    2    0    0 -0.93814886770E+01  0.10692493677E+02 -0.41003437806E+02  0.43400733436E+02  0.00000000000E+00 0. -1.
         11    1    3    3    0    0  0.11009576367E+02 -0.22909542652E+01  0.26711000683E+02  0.28981663185E+02  0.51100000000E-03 0. -1.
        -11    1    3    3    0    0  0.25447690585E+01 -0.55342246954E+01  0.38650329069E+01  0.72140122105E+01  0.51100000000E-03 0.  1.
        -12    1    3    3    0    0 -0.41728567485E+01 -0.28673147161E+01  0.10427404216E+02  0.11591591168E+02  0.00000000000E+00 0.  1.
</event>
<event>
 7    1  0.1384886E-010  0.4778727E+02  0.7816164E-02  0.1312668E+00
        -11   -1    0    0    0    0  0.00000000000E+00  0.00000000000E+00  0.45593999997E+02  0.45594000000E+02  0.51100000000E-03 0. -1.
         11   -1    0    0    0    0 -0.00000000000E+00 -0.00000000000E+00 -0.45593999997E+02  0.45594000000E+02  0.51100000000E-03 0.  1.
    9900012    2    1    2    0    0 -0.52323605539E+01  0.15104684898E+02 -0.40349647961E+02  0.47787271971E+02  0.20000004226E+02 0.  0.
         12    1    1    2    0    0  0.52323605539E+01 -0.15104684898E+02  0.40349647961E+02  0.43400728029E+02  0.00000000000E+00 0. -1.
         11    1    3    3    0    0 -0.52552291443E+01 -0.43709218027E+00 -0.82248658857E+01  0.97702048101E+01  0.51100000000E-03 0. -1.
        -11    1    3    3    0    0 -0.49878088920E+00 -0.14741790274E+01 -0.98992362558E+01  0.10020821568E+02  0.51100000000E-03 0.  1.
        -12    1    3    3    0    0  0.52164947963E+00  0.17015956105E+02 -0.22225545820E+02  0.27996245594E+02  0.00000000000E+00 0.  1.
</event>
<event>
 7    1  0.1384886E-010  0.4778726E+02  0.7816164E-02  0.1312668E+00
        -11   -1    0    0    0    0  0.00000000000E+00  0.00000000000E+00  0.45593999997E+02  0.45594000000E+02  0.51100000000E-03 0. -1.
         11   -1    0    0    0    0 -0.00000000000E+00 -0.00000000000E+00 -0.45593999997E+02  0.45594000000E+02  0.51100000000E-03 0.  1.
    9900012    2    1    2    0    0 -0.19235135867E+02 -0.26193639423E+02 -0.28766763261E+02  0.47787264216E+02  0.19999968869E+02 0.  0.
         12    1    1    2    0    0  0.19235135867E+02  0.26193639423E+02  0.28766763261E+02  0.43400735784E+02  0.00000000000E+00 0. -1.
         11    1    3    3    0    0 -0.71764697326E+01 -0.17943415341E+01 -0.28453192282E+00  0.74028601257E+01  0.51100000000E-03 0. -1.
        -11    1    3    3    0    0 -0.11765450410E+02 -0.16432799913E+02 -0.17019232359E+02  0.26421903919E+02  0.51100000000E-03 0.  1.
        -12    1    3    3    0    0 -0.29321572396E+00 -0.79664979758E+01 -0.11462998979E+02  0.13962500172E+02  0.00000000000E+00 0.  1.
</event>
<event>
 7    1  0.1384886E-010  0.4778727E+02  0.7816164E-02  0.1312668E+00
        -11   -1    0    0    0    0  0.00000000000E+00  0.00000000000E+00  0.45593999997E+02  0.45594000000E+02  0.51100000000E-03 0. -1.
         11   -1    0    0    0    0 -0.00000000000E+00 -0.00000000000E+00 -0.45593999997E+02  0.45594000000E+02  0.51100000000E-03 0.  1.
    9900012    2    1    2    0    0  0.43321275668E+02  0.24130274629E+01  0.10332274944E+01  0.47787272056E+02  0.20000004611E+02 0.  0.
         12    1    1    2    0    0 -0.43321275668E+02 -0.24130274629E+01 -0.10332274944E+01  0.43400727944E+02  0.00000000000E+00 0. -1.
         11    1    3    3    0    0  0.22360254394E+02  0.44286650910E+01 -0.35521817187E+01  0.23069721418E+02  0.51100000000E-03 0. -1.
        -11    1    3    3    0    0  0.18236589817E+02 -0.62058651973E+01  0.41080601709E+01  0.19696754292E+02  0.51100000000E-03 0.  1.
         12    1    3    3    0    0  0.27244314569E+01  0.41902275692E+01  0.47734904213E+00  0.50207963465E+01  0.00000000000E+00 0. -1.
</event>
<event>
 7    1  0.1463372E-010  0.4778727E+02  0.7816164E-02  0.1312668E+00
        -11   -1    0    0    0    0  0.00000000000E+00  0.00000000000E+00  0.45593999997E+02  0.45594000000E+02  0.51100000000E-03 0.  1.
         11   -1    0    0    0    0 -0.00000000000E+00 -0.00000000000E+00 -0.45593999997E+02  0.45594000000E+02  0.51100000000E-03 0. -1.
    9900012    2    1    2    0    0  0.58824839484E+01 -0.28912866418E+02  0.31828692655E+02  0.47787272609E+02  0.20000007133E+02 0.  0.
         12    1    1    2    0    0 -0.58824839484E+01  0.28912866418E+02 -0.31828692655E+02  0.43400727391E+02  0.00000000000E+00 0. -1.
         11    1    3    3    0    0  0.62361746272E+01 -0.64598356564E+01  0.23237133443E+01  0.92746425622E+01  0.51100000000E-03 0. -1.
        -11    1    3    3    0    0  0.29457503162E+01 -0.66422436514E+01  0.15564813782E+02  0.17177318591E+02  0.51100000000E-03 0.  1.
        -12    1    3    3    0    0 -0.32994409950E+01 -0.15810787110E+02  0.13940165529E+02  0.21335311455E+02  0.00000000000E+00 0.  1.
</event>
<event>
 7    1  0.1384886E-010  0.4778727E+02  0.7816164E-02  0.1312668E+00
        -11   -1    0    0    0    0  0.00000000000E+00  0.00000000000E+00  0.45593999997E+02  0.45594000000E+02  0.51100000000E-03 0.  1.
         11   -1    0    0    0    0 -0.00000000000E+00 -0.00000000000E+00 -0.45593999997E+02  0.45594000000E+02  0.51100000000E-03 0. -1.
    9900012    2    1    2    0    0  0.46179784980E+01 -0.16533007206E+02  0.39861722646E+02  0.47787274372E+02  0.20000015174E+02 0.  0.
         12    1    1    2    0    0 -0.46179784980E+01  0.16533007206E+02 -0.39861722646E+02  0.43400725628E+02  0.00000000000E+00 0. -1.
         11    1    3    3    0    0 -0.49326886023E+00  0.29233032128E+01  0.13839727876E+01  0.32717574452E+01  0.51100000000E-03 0. -1.
        -11    1    3    3    0    0 -0.19923973528E+01 -0.11690824518E+02  0.20622802335E+02  0.23789598599E+02  0.51100000000E-03 0.  1.
        -12    1    3    3    0    0  0.71036447110E+01 -0.77654859006E+01  0.17854947524E+02  0.20725918328E+02  0.00000000000E+00 0.  1.
</event>
<event>
 7    1  0.1384886E-010  0.4778727E+02  0.7816164E-02  0.1312668E+00
        -11   -1    0    0    0    0  0.00000000000E+00  0.00000000000E+00  0.45593999997E+02  0.45594000000E+02  0.51100000000E-03 0. -1.
         11   -1    0    0    0    0 -0.00000000000E+00 -0.00000000000E+00 -0.45593999997E+02  0.45594000000E+02  0.51100000000E-03 0.  1.
    9900012    2    1    2    0    0  0.39828294159E+02  0.14370343964E+02  0.95301316544E+01  0.47787271773E+02  0.20000003322E+02 0.  0.
         12    1    1    2    0    0 -0.39828294159E+02 -0.14370343964E+02 -0.95301316544E+01  0.43400728227E+02  0.00000000000E+00 0. -1.
         11    1    3    3    0    0  0.13082022217E+02  0.10832834511E+01  0.98584169703E+01  0.16416491518E+02  0.51100000000E-03 0. -1.
        -11    1    3    3    0    0  0.14381325299E+02  0.22638700228E+01 -0.21084124586E+01  0.14710303470E+02  0.51100000000E-03 0.  1.
        -12    1    3    3    0    0  0.12364946643E+02  0.11023190490E+02  0.17801271426E+01  0.16660476785E+02  0.00000000000E+00 0.  1.
</event>
<event>
 7    1  0.1384886E-010  0.4778727E+02  0.7816164E-02  0.1312668E+00
        -11   -1    0    0    0    0  0.00000000000E+00  0.00000000000E+00  0.45593999997E+02  0.45594000000E+02  0.51100000000E-03 0.  1.
         11   -1    0    0    0    0 -0.00000000000E+00 -0.00000000000E+00 -0.45593999997E+02  0.45594000000E+02  0.51100000000E-03 0. -1.
    9900012    2    1    2    0    0 -0.96289173905E+01  0.36510810634E+02 -0.21397851008E+02  0.47787269926E+02  0.19999994899E+02 0.  0.
         12    1    1    2    0    0  0.96289173905E+01 -0.36510810634E+02  0.21397851008E+02  0.43400730074E+02  0.00000000000E+00 0. -1.
         11    1    3    3    0    0 -0.60340480332E+01  0.41963172147E+01 -0.87289671038E+01  0.11411120926E+02  0.51100000000E-03 0. -1.
        -11    1    3    3    0    0  0.31520448760E+01  0.86583610714E+01 -0.55944981735E+01  0.10779657389E+02  0.51100000000E-03 0.  1.
         12    1    3    3    0    0 -0.67469142332E+01  0.23656132347E+02 -0.70743857306E+01  0.25596491611E+02  0.00000000000E+00 0. -1.
</event>
<event>
 7    1  0.1384886E-010  0.4778727E+02  0.7816164E-02  0.1312668E+00
        -11   -1    0    0    0    0  0.00000000000E+00  0.00000000000E+00  0.45593999997E+02  0.45594000000E+02  0.51100000000E-03 0.  1.
         11   -1    0    0    0    0 -0.00000000000E+00 -0.00000000000E+00 -0.45593999997E+02  0.45594000000E+02  0.51100000000E-03 0. -1.
    9900012    2    1    2    0    0 -0.19521463627E+02  0.38468112143E+02  0.47686678940E+01  0.47787269735E+02  0.19999994031E+02 0.  0.
         12    1    1    2    0    0  0.19521463627E+02 -0.38468112143E+02 -0.47686678940E+01  0.43400730265E+02  0.00000000000E+00 0. -1.
         11    1    3    3    0    0 -0.25583078712E+01  0.29271334882E+01 -0.36533552733E+01  0.53347965881E+01  0.51100000000E-03 0. -1.
        -11    1    3    3    0    0  0.20934468557E+01  0.29162706904E+01  0.20571035907E+01  0.41374907760E+01  0.51100000000E-03 0.  1.
         12    1    3    3    0    0 -0.19056602612E+02  0.32624707965E+02  0.63649195767E+01  0.38314982371E+02  0.00000000000E+00 0. -1.
</event>
<event>
 7    1  0.1384886E-010  0.4778727E+02  0.7816164E-02  0.1312668E+00
        -11   -1    0    0    0    0  0.00000000000E+00  0.00000000000E+00  0.45593999997E+02  0.45594000000E+02  0.51100000000E-03 0.  1.
         11   -1    0    0    0    0 -0.00000000000E+00 -0.00000000000E+00 -0.45593999997E+02  0.45594000000E+02  0.51100000000E-03 0. -1.
    9900012    2    1    2    0    0 -0.44355457620E+01 -0.43023431431E+02 -0.35963481248E+01  0.47787269152E+02  0.19999991371E+02 0.  0.
         12    1    1    2    0    0  0.44355457620E+01  0.43023431431E+02  0.35963481248E+01  0.43400730848E+02  0.00000000000E+00 0. -1.
         11    1    3    3    0    0 -0.33582972395E+01 -0.33228691508E+01 -0.19327389996E+01  0.51044196579E+01  0.51100000000E-03 0. -1.
        -11    1    3    3    0    0  0.64704131403E+00 -0.16442024837E+01  0.38066127252E+01  0.41967088260E+01  0.51100000000E-03 0.  1.
        -12    1    3    3    0    0 -0.17242898366E+01 -0.38056359797E+02 -0.54702218504E+01  0.38486140668E+02  0.00000000000E+00 0.  1.
</event>
<event>
 7    1  0.1384886E-010  0.4778727E+02  0.7816164E-02  0.1312668E+00
        -11   -1    0    0    0    0  0.00000000000E+00  0.00000000000E+00  0.45593999997E+02  0.45594000000E+02  0.51100000000E-03 0.  1.
         11   -1    0    0    0    0 -0.00000000000E+00 -0.00000000000E+00 -0.45593999997E+02  0.45594000000E+02  0.51100000000E-03 0. -1.
    9900012    2    1    2    0    0 -0.28925861915E+02  0.26009646477E+02  0.19246197750E+02  0.47787270453E+02  0.19999997303E+02 0.  0.
         12    1    1    2    0    0  0.28925861915E+02 -0.26009646477E+02 -0.19246197750E+02  0.43400729547E+02  0.00000000000E+00 0. -1.
         11    1    3    3    0    0  0.57825248750E+00  0.25890338722E+01 -0.22485233027E+01  0.34775464964E+01  0.51100000000E-03 0. -1.
        -11    1    3    3    0    0 -0.63928250294E+01  0.16638449773E+01  0.14304296219E+01  0.67588994023E+01  0.51100000000E-03 0.  1.
        -12    1    3    3    0    0 -0.23111289373E+02  0.21756767627E+02  0.20064291431E+02  0.37550824554E+02  0.00000000000E+00 0.  1.
</event>
<event>
 7    1  0.1384886E-010  0.4778727E+02  0.7816164E-02  0.1312668E+00
        -11   -1    0    0    0    0  0.00000000000E+00  0.00000000000E+00  0.45593999997E+02  0.45594000000E+02  0.51100000000E-03 0.  1.
         11   -1    0    0    0    0 -0.00000000000E+00 -0.00000000000E+00 -0.45593999997E+02  0.45594000000E+02  0.51100000000E-03 0. -1.
    9900012    2    1    2    0    0 -0.68383787296E+01  0.37612465356E+02  0.20546584808E+02  0.47787272805E+02  0.20000008028E+02 0.  0.
         12    1    1    2    0    0  0.68383787296E+01 -0.37612465356E+02 -0.20546584808E+02  0.43400727195E+02  0.00000000000E+00 0. -1.
         11    1    3    3    0    0  0.10319508914E+01  0.31927252032E+02  0.14742986834E+02  0.35181955687E+02  0.51100000000E-03 0. -1.
        -11    1    3    3    0    0 -0.56960016637E+01  0.65789405372E+01  0.53378100189E+01  0.10208776107E+02  0.51100000000E-03 0.  1.
         12    1    3    3    0    0 -0.21743279573E+01 -0.89372721320E+00  0.46578795520E+00  0.23965410109E+01  0.00000000000E+00 0. -1.
</event>
<event>
 7    1  0.1384886E-010  0.4778727E+02  0.7816164E-02  0.1312668E+00
        -11   -1    0    0    0    0  0.00000000000E+00  0.00000000000E+00  0.45593999997E+02  0.45594000000E+02  0.51100000000E-03 0. -1.
         11   -1    0    0    0    0 -0.00000000000E+00 -0.00000000000E+00 -0.45593999997E+02  0.45594000000E+02  0.51100000000E-03 0.  1.
    9900012    2    1    2    0    0 -0.41001966824E+00 -0.70138791206E+01 -0.42828269707E+02  0.47787270714E+02  0.19999998495E+02 0.  0.
         12    1    1    2    0    0  0.41001966824E+00  0.70138791206E+01  0.42828269707E+02  0.43400729286E+02  0.00000000000E+00 0. -1.
         11    1    3    3    0    0  0.43512692328E+01 -0.79941304706E+00 -0.73020674392E+01  0.85377277014E+01  0.51100000000E-03 0. -1.
        -11    1    3    3    0    0 -0.73124141927E+01 -0.78930911092E+01 -0.14790637289E+02  0.18290304543E+02  0.51100000000E-03 0.  1.
        -12    1    3    3    0    0  0.25511252917E+01  0.16786250357E+01 -0.20735564979E+02  0.20959238470E+02  0.00000000000E+00 0.  1.
</event>
<event>
 7    1  0.1384886E-010  0.4778727E+02  0.7816164E-02  0.1312668E+00
        -11   -1    0    0    0    0  0.00000000000E+00  0.00000000000E+00  0.45593999997E+02  0.45594000000E+02  0.51100000000E-03 0.  1.
         11   -1    0    0    0    0 -0.00000000000E+00 -0.00000000000E+00 -0.45593999997E+02  0.45594000000E+02  0.51100000000E-03 0. -1.
    9900012    2    1    2    0    0 -0.38397034594E+02 -0.15053854375E+02 -0.13515625708E+02  0.47787274944E+02  0.20000017779E+02 0.  0.
         12    1    1    2    0    0  0.38397034594E+02  0.15053854375E+02  0.13515625708E+02  0.43400725056E+02  0.00000000000E+00 0. -1.
         11    1    3    3    0    0 -0.26435880089E+02 -0.66358657935E+01 -0.71244178274E+01  0.28171755368E+02  0.51100000000E-03 0. -1.
        -11    1    3    3    0    0 -0.10806775147E+02 -0.10777827121E+02 -0.34042725931E+01  0.15637679453E+02  0.51100000000E-03 0.  1.
         12    1    3    3    0    0 -0.11543793583E+01  0.23598385389E+01 -0.29869352874E+01  0.39778401229E+01  0.00000000000E+00 0. -1.
</event>
<event>
 7    1  0.1384886E-010  0.4778727E+02  0.7816164E-02  0.1312668E+00
        -11   -1    0    0    0    0  0.00000000000E+00  0.00000000000E+00  0.45593999997E+02  0.45594000000E+02  0.51100000000E-03 0.  1.
         11   -1    0    0    0    0 -0.00000000000E+00 -0.00000000000E+00 -0.45593999997E+02  0.45594000000E+02  0.51100000000E-03 0. -1.
    9900012    2    1    2    0    0  0.42826284668E+02  0.30218565131E+01  0.63561890237E+01  0.47787269429E+02  0.19999992633E+02 0.  0.
         12    1    1    2    0    0 -0.42826284668E+02 -0.30218565131E+01 -0.63561890237E+01  0.43400730571E+02  0.00000000000E+00 0. -1.
         11    1    3    3    0    0  0.53314782459E+01  0.44052081782E+01 -0.73464635689E-01  0.69163514004E+01  0.51100000000E-03 0. -1.
        -11    1    3    3    0    0  0.56929339600E+01 -0.53526370162E+01 -0.12540004791E+01  0.79140847584E+01  0.51100000000E-03 0.  1.
         12    1    3    3    0    0  0.31801872462E+02  0.39692853511E+01  0.76836541385E+01  0.32956833270E+02  0.00000000000E+00 0. -1.
</event>
<event>
 7    1  0.1384886E-010  0.4778726E+02  0.7816164E-02  0.1312668E+00
        -11   -1    0    0    0    0  0.00000000000E+00  0.00000000000E+00  0.45593999997E+02  0.45594000000E+02  0.51100000000E-03 0.  1.
         11   -1    0    0    0    0 -0.00000000000E+00 -0.00000000000E+00 -0.45593999997E+02  0.45594000000E+02  0.51100000000E-03 0. -1.
    9900012    2    1    2    0    0 -0.37242215664E+02 -0.55619501850E+01  0.21580224283E+02  0.47787262708E+02  0.19999961991E+02 0.  0.
         12    1    1    2    0    0  0.37242215664E+02  0.55619501850E+01 -0.21580224283E+02  0.43400737292E+02  0.00000000000E+00 0. -1.
         11    1    3    3    0    0 -0.15459333873E+02 -0.97684618554E+01  0.11015292760E+02  0.21348314352E+02  0.51100000000E-03 0. -1.
        -11    1    3    3    0    0 -0.20259928882E+02  0.24384573629E+01  0.12025575085E+02  0.23685971565E+02  0.51100000000E-03 0.  1.
        -12    1    3    3    0    0 -0.15229529083E+01  0.17680543075E+01 -0.14606435617E+01  0.27529767906E+01  0.00000000000E+00 0.  1.
</event>
<event>
 7    1  0.1384886E-010  0.4778727E+02  0.7816164E-02  0.1312668E+00
        -11   -1    0    0    0    0  0.00000000000E+00  0.00000000000E+00  0.45593999997E+02  0.45594000000E+02  0.51100000000E-03 0.  1.
         11   -1    0    0    0    0 -0.00000000000E+00 -0.00000000000E+00 -0.45593999997E+02  0.45594000000E+02  0.51100000000E-03 0. -1.
    9900012    2    1    2    0    0  0.70005372380E+01 -0.21322512221E+01  0.42779309130E+02  0.47787270668E+02  0.19999998282E+02 0.  0.
         12    1    1    2    0    0 -0.70005372380E+01  0.21322512221E+01 -0.42779309130E+02  0.43400729332E+02  0.00000000000E+00 0. -1.
         11    1    3    3    0    0 -0.37081703563E+01  0.10192621939E+01  0.11081354578E+02  0.11729699159E+02  0.51100000000E-03 0. -1.
        -11    1    3    3    0    0 -0.97675608806E+00 -0.43443601839E+01  0.14964790816E+02  0.15613214989E+02  0.51100000000E-03 0.  1.
        -12    1    3    3    0    0  0.11685463682E+02  0.11928467679E+01  0.16733163736E+02  0.20444356519E+02  0.00000000000E+00 0.  1.
</event>
<event>
 7    1  0.1384886E-010  0.4778727E+02  0.7816164E-02  0.1312668E+00
        -11   -1    0    0    0    0  0.00000000000E+00  0.00000000000E+00  0.45593999997E+02  0.45594000000E+02  0.51100000000E-03 0.  1.
         11   -1    0    0    0    0 -0.00000000000E+00 -0.00000000000E+00 -0.45593999997E+02  0.45594000000E+02  0.51100000000E-03 0. -1.
    9900012    2    1    2    0    0 -0.42332806161E+02  0.27407219387E+01  0.91676164735E+01  0.47787271596E+02  0.20000002514E+02 0.  0.
         12    1    1    2    0    0  0.42332806161E+02 -0.27407219387E+01 -0.91676164735E+01  0.43400728404E+02  0.00000000000E+00 0. -1.
         11    1    3    3    0    0 -0.51308120204E+01 -0.58700772923E+01 -0.14755760039E+00  0.77977440913E+01  0.51100000000E-03 0. -1.
        -11    1    3    3    0    0 -0.23005329500E+02  0.16558036134E+01  0.60869407873E+01  0.23854511511E+02  0.51100000000E-03 0.  1.
        -12    1    3    3    0    0 -0.14196664640E+02  0.69549956176E+01  0.32282332866E+01  0.16135015993E+02  0.00000000000E+00 0.  1.
</event>
<event>
 7    1  0.1384886E-010  0.4778726E+02  0.7816164E-02  0.1312668E+00
        -11   -1    0    0    0    0  0.00000000000E+00  0.00000000000E+00  0.45593999997E+02  0.45594000000E+02  0.51100000000E-03 0.  1.
         11   -1    0    0    0    0 -0.00000000000E+00 -0.00000000000E+00 -0.45593999997E+02  0.45594000000E+02  0.51100000000E-03 0. -1.
    9900012    2    1    2    0    0  0.28849212169E+02  0.24057127813E+02  0.21739415750E+02  0.47787255323E+02  0.19999928318E+02 0.  0.
         12    1    1    2    0    0 -0.28849212169E+02 -0.24057127813E+02 -0.21739415750E+02  0.43400744677E+02  0.00000000000E+00 0. -1.
         11    1    3    3    0    0  0.11280574980E+01  0.31748136660E+00  0.39004371320E+01  0.40726794889E+01  0.51100000000E-03 0. -1.
        -11    1    3    3    0    0  0.13557207779E+02  0.22404047653E+01  0.32400841160E+01  0.14117912084E+02  0.51100000000E-03 0.  1.
         12    1    3    3    0    0  0.14163946892E+02  0.21499241681E+02  0.14598894502E+02  0.29596663750E+02  0.00000000000E+00 0. -1.
</event>
<event>
 7    1  0.1384886E-010  0.4778727E+02  0.7816164E-02  0.1312668E+00
        -11   -1    0    0    0    0  0.00000000000E+00  0.00000000000E+00  0.45593999997E+02  0.45594000000E+02  0.51100000000E-03 0.  1.
         11   -1    0    0    0    0 -0.00000000000E+00 -0.00000000000E+00 -0.45593999997E+02  0.45594000000E+02  0.51100000000E-03 0. -1.
    9900012    2    1    2    0    0 -0.12646802114E+02 -0.18816783861E+02  0.37008245444E+02  0.47787272017E+02  0.20000004436E+02 0.  0.
         12    1    1    2    0    0  0.12646802114E+02  0.18816783861E+02 -0.37008245444E+02  0.43400727983E+02  0.00000000000E+00 0. -1.
         11    1    3    3    0    0 -0.73821509328E+01  0.16574011384E+01  0.13268174187E+02  0.15273754530E+02  0.51100000000E-03 0. -1.
        -11    1    3    3    0    0 -0.55939581270E+01 -0.86993042717E+01  0.12593033782E+02  0.16295851081E+02  0.51100000000E-03 0.  1.
         12    1    3    3    0    0  0.32930694621E+00 -0.11774880727E+02  0.11147037475E+02  0.16217666407E+02  0.00000000000E+00 0. -1.
</event>
<event>
 7    1  0.1384886E-010  0.4778727E+02  0.7816164E-02  0.1312668E+00
        -11   -1    0    0    0    0  0.00000000000E+00  0.00000000000E+00  0.45593999997E+02  0.45594000000E+02  0.51100000000E-03 0.  1.
         11   -1    0    0    0    0 -0.00000000000E+00 -0.00000000000E+00 -0.45593999997E+02  0.45594000000E+02  0.51100000000E-03 0. -1.
    9900012    2    1    2    0    0  0.23148298845E+02 -0.27092250809E+02  0.24774774894E+02  0.47787271154E+02  0.20000000500E+02 0.  0.
         12    1    1    2    0    0 -0.23148298845E+02  0.27092250809E+02 -0.24774774894E+02  0.43400728846E+02  0.00000000000E+00 0. -1.
         11    1    3    3    0    0 -0.17367427642E+01  0.24016145792E+00  0.28782536454E+00  0.17767376442E+01  0.51100000000E-03 0. -1.
        -11    1    3    3    0    0  0.16057765350E+02 -0.19776967847E+02  0.22953535085E+02  0.34290597230E+02  0.51100000000E-03 0.  1.
         12    1    3    3    0    0  0.88272762600E+01 -0.75554444192E+01  0.15334144444E+01  0.11719936280E+02  0.00000000000E+00 0. -1.
</event>
<event>
 7    1  0.1384886E-010  0.4778728E+02  0.7816164E-02  0.1312668E+00
        -11   -1    0    0    0    0  0.00000000000E+00  0.00000000000E+00  0.45593999997E+02  0.45594000000E+02  0.51100000000E-03 0. -1.
         11   -1    0    0    0    0 -0.00000000000E+00 -0.00000000000E+00 -0.45593999997E+02  0.45594000000E+02  0.51100000000E-03 0.  1.
    9900012    2    1    2    0    0  0.39715855353E+02  0.12440954718E+02  0.12308382728E+02  0.47787276434E+02  0.20000024571E+02 0.  0.
         12    1    1    2    0    0 -0.39715855353E+02 -0.12440954718E+02 -0.12308382728E+02  0.43400723566E+02  0.00000000000E+00 0. -1.
         11    1    3    3    0    0  0.41738487098E+01  0.52283345166E+01 -0.23309544221E+01  0.70844790668E+01  0.51100000000E-03 0. -1.
        -11    1    3    3    0    0  0.20828498828E+02  0.98002362027E+01  0.82179392924E+01  0.24441880442E+02  0.51100000000E-03 0.  1.
        -12    1    3    3    0    0  0.14713507815E+02 -0.25876160012E+01  0.64213978582E+01  0.16260916925E+02  0.00000000000E+00 0.  1.
</event>
<event>
 7    1  0.1384886E-010  0.4778727E+02  0.7816164E-02  0.1312668E+00
        -11   -1    0    0    0    0  0.00000000000E+00  0.00000000000E+00  0.45593999997E+02  0.45594000000E+02  0.51100000000E-03 0.  1.
         11   -1    0    0    0    0 -0.00000000000E+00 -0.00000000000E+00 -0.45593999997E+02  0.45594000000E+02  0.51100000000E-03 0. -1.
    9900012    2    1    2    0    0  0.26464515085E+02  0.61579893643E+00  0.34392926782E+02  0.47787272130E+02  0.20000004948E+02 0.  0.
         12    1    1    2    0    0 -0.26464515085E+02 -0.61579893643E+00 -0.34392926782E+02  0.43400727870E+02  0.00000000000E+00 0. -1.
         11    1    3    3    0    0  0.26285338881E+02 -0.29041132723E+01  0.32935362544E+02  0.42238501632E+02  0.51100000000E-03 0.  1.
        -11    1    3    3    0    0  0.12299728782E+01  0.34576110797E+01  0.21832874832E+01  0.42702051654E+01  0.51100000000E-03 0. -1.
        -12    1    3    3    0    0 -0.10507966739E+01  0.62301129044E-01 -0.72572324481E+00  0.12785653321E+01  0.00000000000E+00 0.  1.
</event>
<event>
 7    1  0.1384886E-010  0.4778727E+02  0.7816164E-02  0.1312668E+00
        -11   -1    0    0    0    0  0.00000000000E+00  0.00000000000E+00  0.45593999997E+02  0.45594000000E+02  0.51100000000E-03 0. -1.
         11   -1    0    0    0    0 -0.00000000000E+00 -0.00000000000E+00 -0.45593999997E+02  0.45594000000E+02  0.51100000000E-03 0.  1.
    9900012    2    1    2    0    0  0.24996998246E+02 -0.15592052015E+02 -0.31869445517E+02  0.47787267692E+02  0.19999984715E+02 0.  0.
         12    1    1    2    0    0 -0.24996998246E+02  0.15592052015E+02  0.31869445517E+02  0.43400732308E+02  0.00000000000E+00 0. -1.
         11    1    3    3    0    0  0.17099247738E+01  0.29247070016E+00 -0.47997609398E+01  0.51036347031E+01  0.51100000000E-03 0. -1.
        -11    1    3    3    0    0 -0.12485605408E+01 -0.38446695617E+01 -0.91476560067E+01  0.10000999857E+02  0.51100000000E-03 0.  1.
         12    1    3    3    0    0  0.24535634013E+02 -0.12039853153E+02 -0.17922028570E+02  0.32682633132E+02  0.00000000000E+00 0. -1.
</event>
<event>
 7    1  0.1384886E-010  0.4778727E+02  0.7816164E-02  0.1312668E+00
        -11   -1    0    0    0    0  0.00000000000E+00  0.00000000000E+00  0.45593999997E+02  0.45594000000E+02  0.51100000000E-03 0.  1.
         11   -1    0    0    0    0 -0.00000000000E+00 -0.00000000000E+00 -0.45593999997E+02  0.45594000000E+02  0.51100000000E-03 0. -1.
    9900012    2    1    2    0    0  0.11764840863E+02  0.12648360311E+02  0.39814956914E+02  0.47787270822E+02  0.19999998987E+02 0.  0.
         12    1    1    2    0    0 -0.11764840863E+02 -0.12648360311E+02 -0.39814956914E+02  0.43400729178E+02  0.00000000000E+00 0. -1.
         11    1    3    3    0    0  0.14664287369E+01  0.13877882631E+01 -0.23077549419E+00  0.20321483936E+01  0.51100000000E-03 0. -1.
        -11    1    3    3    0    0  0.91696331638E+01  0.13556520404E+02  0.39975109184E+02  0.43195726320E+02  0.51100000000E-03 0.  1.
        -12    1    3    3    0    0  0.11287789618E+01 -0.22959483564E+01  0.70623224892E-01  0.25593961084E+01  0.00000000000E+00 0.  1.
</event>
<event>
 7    1  0.1384886E-010  0.4778727E+02  0.7816164E-02  0.1312668E+00
        -11   -1    0    0    0    0  0.00000000000E+00  0.00000000000E+00  0.45593999997E+02  0.45594000000E+02  0.51100000000E-03 0.  1.
         11   -1    0    0    0    0 -0.00000000000E+00 -0.00000000000E+00 -0.45593999997E+02  0.45594000000E+02  0.51100000000E-03 0. -1.
    9900012    2    1    2    0    0 -0.14230741627E+02 -0.12293978214E+02  0.39114799044E+02  0.47787269455E+02  0.19999992752E+02 0.  0.
         12    1    1    2    0    0  0.14230741627E+02  0.12293978214E+02 -0.39114799044E+02  0.43400730545E+02  0.00000000000E+00 0. -1.
         11    1    3    3    0    0 -0.23349194660E+01 -0.51389617717E+01  0.42553293594E+01  0.70688475172E+01  0.51100000000E-03 0. -1.
        -11    1    3    3    0    0 -0.58292079150E+01 -0.11427070101E+02  0.27097481069E+02  0.29980511613E+02  0.51100000000E-03 0.  1.
         12    1    3    3    0    0 -0.60666142457E+01  0.42720536587E+01  0.77619886159E+01  0.10737910325E+02  0.00000000000E+00 0. -1.
</event>
<event>
 7    1  0.1384886E-010  0.4778727E+02  0.7816164E-02  0.1312668E+00
        -11   -1    0    0    0    0  0.00000000000E+00  0.00000000000E+00  0.45593999997E+02  0.45594000000E+02  0.51100000000E-03 0.  1.
         11   -1    0    0    0    0 -0.00000000000E+00 -0.00000000000E+00 -0.45593999997E+02  0.45594000000E+02  0.51100000000E-03 0. -1.
    9900012    2    1    2    0    0  0.73456698407E+00  0.43218992148E+02  0.38990433947E+01  0.47787269473E+02  0.19999992834E+02 0.  0.
         12    1    1    2    0    0 -0.73456698407E+00 -0.43218992148E+02 -0.38990433947E+01  0.43400730527E+02  0.00000000000E+00 0. -1.
         11    1    3    3    0    0  0.29793795602E+01  0.18307813965E+02  0.40564815914E+01  0.18987042895E+02  0.51100000000E-03 0.  1.
        -11    1    3    3    0    0 -0.18019686166E+01 -0.12229823451E+01 -0.14731042067E+01  0.26292228846E+01  0.51100000000E-03 0. -1.
         12    1    3    3    0    0 -0.44284395949E+00  0.26134160528E+02  0.13156660100E+01  0.26171003693E+02  0.00000000000E+00 0. -1.
</event>
<event>
 7    1  0.1384886E-010  0.4778727E+02  0.7816164E-02  0.1312668E+00
        -11   -1    0    0    0    0  0.00000000000E+00  0.00000000000E+00  0.45593999997E+02  0.45594000000E+02  0.51100000000E-03 0.  1.
         11   -1    0    0    0    0 -0.00000000000E+00 -0.00000000000E+00 -0.45593999997E+02  0.45594000000E+02  0.51100000000E-03 0. -1.
    9900012    2    1    2    0    0  0.16681376801E+02 -0.15820898765E+02  0.36811057638E+02  0.47787272655E+02  0.20000007341E+02 0.  0.
         12    1    1    2    0    0 -0.16681376801E+02  0.15820898765E+02 -0.36811057638E+02  0.43400727345E+02  0.00000000000E+00 0. -1.
         11    1    3    3    0    0 -0.20771106562E+01 -0.41690446563E+01  0.85050716257E+01  0.96969874519E+01  0.51100000000E-03 0. -1.
        -11    1    3    3    0    0  0.84259842537E+01 -0.75408384236E+01  0.51965830772E+01  0.12444514081E+02  0.51100000000E-03 0.  1.
        -12    1    3    3    0    0  0.10332503204E+02 -0.41110156850E+01  0.23109402935E+02  0.25645771122E+02  0.00000000000E+00 0.  1.
</event>
<event>
 7    1  0.1384886E-010  0.4778727E+02  0.7816164E-02  0.1312668E+00
        -11   -1    0    0    0    0  0.00000000000E+00  0.00000000000E+00  0.45593999997E+02  0.45594000000E+02  0.51100000000E-03 0.  1.
         11   -1    0    0    0    0 -0.00000000000E+00 -0.00000000000E+00 -0.45593999997E+02  0.45594000000E+02  0.51100000000E-03 0. -1.
    9900012    2    1    2    0    0  0.33898727635E+02 -0.87851033295E+01  0.25638276819E+02  0.47787274038E+02  0.20000013649E+02 0.  0.
         12    1    1    2    0    0 -0.33898727635E+02  0.87851033295E+01 -0.25638276819E+02  0.43400725962E+02  0.00000000000E+00 0. -1.
         11    1    3    3    0    0  0.12756608146E+02  0.28969797461E+01  0.38349802734E+01  0.13631970400E+02  0.51100000000E-03 0. -1.
        -11    1    3    3    0    0  0.36390062439E+01 -0.16424420824E+01  0.10026008981E+02  0.10791702312E+02  0.51100000000E-03 0.  1.
        -12    1    3    3    0    0  0.17503113245E+02 -0.10039640993E+02  0.11777287565E+02  0.23363601326E+02  0.00000000000E+00 0.  1.
</event>
<event>
 7    1  0.1384886E-010  0.4778727E+02  0.7816164E-02  0.1312668E+00
        -11   -1    0    0    0    0  0.00000000000E+00  0.00000000000E+00  0.45593999997E+02  0.45594000000E+02  0.51100000000E-03 0.  1.
         11   -1    0    0    0    0 -0.00000000000E+00 -0.00000000000E+00 -0.45593999997E+02  0.45594000000E+02  0.51100000000E-03 0. -1.
    9900012    2    1    2    0    0  0.14483822250E+02 -0.28590477807E+02  0.29264767708E+02  0.47787272389E+02  0.20000006129E+02 0.  0.
         12    1    1    2    0    0 -0.14483822250E+02  0.28590477807E+02 -0.29264767708E+02  0.43400727611E+02  0.00000000000E+00 0. -1.
         11    1    3    3    0    0  0.31997799868E+01 -0.19339273003E+02  0.14593477260E+02  0.24437996052E+02  0.51100000000E-03 0. -1.
        -11    1    3    3    0    0  0.39003640047E+01 -0.53444610032E+01  0.13339562466E+02  0.14890266278E+02  0.51100000000E-03 0.  1.
         12    1    3    3    0    0  0.73836782581E+01 -0.39067438006E+01  0.13317279817E+01  0.84590100579E+01  0.00000000000E+00 0. -1.
</event>
<event>
 7    1  0.1384886E-010  0.4778729E+02  0.7816164E-02  0.1312668E+00
        -11   -1    0    0    0    0  0.00000000000E+00  0.00000000000E+00  0.45593999997E+02  0.45594000000E+02  0.51100000000E-03 0. -1.
         11   -1    0    0    0    0 -0.00000000000E+00 -0.00000000000E+00 -0.45593999997E+02  0.45594000000E+02  0.51100000000E-03 0.  1.
    9900012    2    1    2    0    0 -0.18341927811E+02  0.33021206738E+02 -0.21372765063E+02  0.47787291518E+02  0.20000093349E+02 0.  0.
         12    1    1    2    0    0  0.18341927811E+02 -0.33021206738E+02  0.21372765063E+02  0.43400708482E+02  0.00000000000E+00 0. -1.
         11    1    3    3    0    0  0.23013814197E+01  0.61103617671E+01 -0.66496353214E+01  0.93193630433E+01  0.51100000000E-03 0. -1.
        -11    1    3    3    0    0 -0.10774966400E+02  0.13891433446E+02 -0.13347760091E+02  0.22073389495E+02  0.51100000000E-03 0.  1.
         12    1    3    3    0    0 -0.98683428304E+01  0.13019411526E+02 -0.13753696506E+01  0.16394538980E+02  0.00000000000E+00 0. -1.
</event>
<event>
 7    1  0.1384886E-010  0.4778727E+02  0.7816164E-02  0.1312668E+00
        -11   -1    0    0    0    0  0.00000000000E+00  0.00000000000E+00  0.45593999997E+02  0.45594000000E+02  0.51100000000E-03 0. -1.
         11   -1    0    0    0    0 -0.00000000000E+00 -0.00000000000E+00 -0.45593999997E+02  0.45594000000E+02  0.51100000000E-03 0.  1.
    9900012    2    1    2    0    0 -0.38603264432E+02  0.11130058037E+02  0.16417461293E+02  0.47787271296E+02  0.20000001147E+02 0.  0.
         12    1    1    2    0    0  0.38603264432E+02 -0.11130058037E+02 -0.16417461293E+02  0.43400728704E+02  0.00000000000E+00 0. -1.
         11    1    3    3    0    0 -0.85153176831E+00 -0.27892808205E+01 -0.13868878887E+01  0.32293423673E+01  0.51100000000E-03 0. -1.
        -11    1    3    3    0    0 -0.11261699906E+02  0.76714280482E+01  0.56845804804E+01  0.14764523310E+02  0.51100000000E-03 0.  1.
         12    1    3    3    0    0 -0.26490032758E+02  0.62479108096E+01  0.12119768702E+02  0.29793405619E+02  0.00000000000E+00 0. -1.
</event>
<event>
 7    1  0.1384886E-010  0.4778727E+02  0.7816164E-02  0.1312668E+00
        -11   -1    0    0    0    0  0.00000000000E+00  0.00000000000E+00  0.45593999997E+02  0.45594000000E+02  0.51100000000E-03 0.  1.
         11   -1    0    0    0    0 -0.00000000000E+00 -0.00000000000E+00 -0.45593999997E+02  0.45594000000E+02  0.51100000000E-03 0. -1.
    9900012    2    1    2    0    0  0.48706548400E+01  0.12103329171E+02  0.41393350068E+02  0.47787270911E+02  0.19999999391E+02 0.  0.
         12    1    1    2    0    0 -0.48706548400E+01 -0.12103329171E+02 -0.41393350068E+02  0.43400729089E+02  0.00000000000E+00 0. -1.
         11    1    3    3    0    0  0.18963028854E+01  0.32564050512E+01  0.91087869846E+00  0.38768335991E+01  0.51100000000E-03 0. -1.
        -11    1    3    3    0    0 -0.45611176316E+01  0.62824556258E+01  0.28397048158E+02  0.29439181155E+02  0.51100000000E-03 0.  1.
        -12    1    3    3    0    0  0.75354695862E+01  0.25644684936E+01  0.12085423212E+02  0.14471256157E+02  0.00000000000E+00 0.  1.
</event>
<event>
 7    1  0.1384886E-010  0.4778728E+02  0.7816164E-02  0.1312668E+00
        -11   -1    0    0    0    0  0.00000000000E+00  0.00000000000E+00  0.45593999997E+02  0.45594000000E+02  0.51100000000E-03 0.  1.
         11   -1    0    0    0    0 -0.00000000000E+00 -0.00000000000E+00 -0.45593999997E+02  0.45594000000E+02  0.51100000000E-03 0. -1.
    9900012    2    1    2    0    0 -0.74525564472E+01 -0.92996159133E+01  0.41732474558E+02  0.47787275508E+02  0.20000020350E+02 0.  0.
         12    1    1    2    0    0  0.74525564472E+01  0.92996159133E+01 -0.41732474558E+02  0.43400724492E+02  0.00000000000E+00 0. -1.
         11    1    3    3    0    0 -0.77835963396E+01 -0.55188797904E+00  0.88915078894E+01  0.11829956261E+02  0.51100000000E-03 0. -1.
        -11    1    3    3    0    0 -0.39072671353E+01 -0.67803639057E+01  0.28585390052E+02  0.29637216398E+02  0.51100000000E-03 0.  1.
         12    1    3    3    0    0  0.42383070277E+01 -0.19673640285E+01  0.42555766166E+01  0.63201028490E+01  0.00000000000E+00 0. -1.
</event>
<event>
 7    1  0.1384886E-010  0.4778731E+02  0.7816164E-02  0.1312668E+00
        -11   -1    0    0    0    0  0.00000000000E+00  0.00000000000E+00  0.45593999997E+02  0.45594000000E+02  0.51100000000E-03 0.  1.
         11   -1    0    0    0    0 -0.00000000000E+00 -0.00000000000E+00 -0.45593999997E+02  0.45594000000E+02  0.51100000000E-03 0. -1.
    9900012    2    1    2    0    0  0.41325253661E+02 -0.21101583085E+01  0.13091619461E+02  0.47787310394E+02  0.20000179408E+02 0.  0.
         12    1    1    2    0    0 -0.41325253661E+02  0.21101583085E+01 -0.13091619461E+02  0.43400689606E+02  0.00000000000E+00 0. -1.
         11    1    3    3    0    0  0.96996780048E+01 -0.33823528529E+01  0.78471026395E+01  0.12926758461E+02  0.51100000000E-03 0. -1.
        -11    1    3    3    0    0  0.13569323462E+02  0.31987670581E+01  0.86197173061E+01  0.16390795484E+02  0.51100000000E-03 0.  1.
        -12    1    3    3    0    0  0.18056252194E+02 -0.19265725137E+01 -0.33752004850E+01  0.18469756449E+02  0.00000000000E+00 0.  1.
</event>
<event>
 7    1  0.1384886E-010  0.4778728E+02  0.7816164E-02  0.1312668E+00
        -11   -1    0    0    0    0  0.00000000000E+00  0.00000000000E+00  0.45593999997E+02  0.45594000000E+02  0.51100000000E-03 0.  1.
         11   -1    0    0    0    0 -0.00000000000E+00 -0.00000000000E+00 -0.45593999997E+02  0.45594000000E+02  0.51100000000E-03 0. -1.
    9900012    2    1    2    0    0  0.30310439335E+01 -0.19503235632E-01  0.43294740272E+02  0.47787284074E+02  0.20000059405E+02 0.  0.
         12    1    1    2    0    0 -0.30310439335E+01  0.19503235632E-01 -0.43294740272E+02  0.43400715926E+02  0.00000000000E+00 0. -1.
         11    1    3    3    0    0 -0.53352236207E+01  0.13645985696E+01  0.18379160378E+02  0.19186460768E+02  0.51100000000E-03 0. -1.
        -11    1    3    3    0    0  0.27743360762E+01  0.33707808453E+01  0.25372558177E+01  0.50494327916E+01  0.51100000000E-03 0.  1.
        -12    1    3    3    0    0  0.55919314780E+01 -0.47548826505E+01  0.22378324076E+02  0.23551390514E+02  0.00000000000E+00 0.  1.
</event>
<event>
 7    1  0.1384886E-010  0.4778727E+02  0.7816164E-02  0.1312668E+00
        -11   -1    0    0    0    0  0.00000000000E+00  0.00000000000E+00  0.45593999997E+02  0.45594000000E+02  0.51100000000E-03 0.  1.
         11   -1    0    0    0    0 -0.00000000000E+00 -0.00000000000E+00 -0.45593999997E+02  0.45594000000E+02  0.51100000000E-03 0. -1.
    9900012    2    1    2    0    0  0.30722003436E+02  0.20587264163E+01  0.30586652728E+02  0.47787272187E+02  0.20000005210E+02 0.  0.
         12    1    1    2    0    0 -0.30722003436E+02 -0.20587264163E+01 -0.30586652728E+02  0.43400727813E+02  0.00000000000E+00 0. -1.
         11    1    3    3    0    0  0.28441834998E+01  0.24867226483E+01 -0.19786403842E+01  0.42647611119E+01  0.51100000000E-03 0. -1.
        -11    1    3    3    0    0  0.16050950042E+02  0.28221988741E+01  0.15374939586E+02  0.22405056823E+02  0.51100000000E-03 0.  1.
        -12    1    3    3    0    0  0.11826869895E+02 -0.32501951061E+01  0.17190353526E+02  0.21117454252E+02  0.00000000000E+00 0.  1.
</event>
<event>
 7    1  0.1384886E-010  0.4778727E+02  0.7816164E-02  0.1312668E+00
        -11   -1    0    0    0    0  0.00000000000E+00  0.00000000000E+00  0.45593999997E+02  0.45594000000E+02  0.51100000000E-03 0.  1.
         11   -1    0    0    0    0 -0.00000000000E+00 -0.00000000000E+00 -0.45593999997E+02  0.45594000000E+02  0.51100000000E-03 0. -1.
    9900012    2    1    2    0    0 -0.22425720448E+02  0.37141456766E+02 -0.11056934282E+01  0.47787270671E+02  0.19999998297E+02 0.  0.
         12    1    1    2    0    0  0.22425720448E+02 -0.37141456766E+02  0.11056934282E+01  0.43400729329E+02  0.00000000000E+00 0. -1.
         11    1    3    3    0    0 -0.95307601292E+01  0.13015141151E+02 -0.62551430301E+01  0.17301910369E+02  0.51100000000E-03 0. -1.
        -11    1    3    3    0    0 -0.12104231163E+02  0.22889985273E+02  0.81495745615E+01  0.27145522718E+02  0.51100000000E-03 0.  1.
        -12    1    3    3    0    0 -0.79072915615E+00  0.12363303422E+01 -0.30001249597E+01  0.33398375839E+01  0.00000000000E+00 0.  1.
</event>
<event>
 7    1  0.1384886E-010  0.4778727E+02  0.7816164E-02  0.1312668E+00
        -11   -1    0    0    0    0  0.00000000000E+00  0.00000000000E+00  0.45593999997E+02  0.45594000000E+02  0.51100000000E-03 0.  1.
         11   -1    0    0    0    0 -0.00000000000E+00 -0.00000000000E+00 -0.45593999997E+02  0.45594000000E+02  0.51100000000E-03 0. -1.
    9900012    2    1    2    0    0 -0.31295528640E+02 -0.75805360242E+01  0.29098945612E+02  0.47787271032E+02  0.19999999943E+02 0.  0.
         12    1    1    2    0    0  0.31295528640E+02  0.75805360242E+01 -0.29098945612E+02  0.43400728968E+02  0.00000000000E+00 0. -1.
         11    1    3    3    0    0 -0.14294873865E+02  0.57962992400E+01  0.14951917391E+02  0.21482558917E+02  0.51100000000E-03 0. -1.
        -11    1    3    3    0    0 -0.90138838142E+01 -0.58421076840E+01  0.96494690194E+01  0.14439272012E+02  0.51100000000E-03 0.  1.
         12    1    3    3    0    0 -0.79867709606E+01 -0.75347275801E+01  0.44975592014E+01  0.11865440104E+02  0.00000000000E+00 0. -1.
</event>
<event>
 7    1  0.1384886E-010  0.4778727E+02  0.7816164E-02  0.1312668E+00
        -11   -1    0    0    0    0  0.00000000000E+00  0.00000000000E+00  0.45593999997E+02  0.45594000000E+02  0.51100000000E-03 0.  1.
         11   -1    0    0    0    0 -0.00000000000E+00 -0.00000000000E+00 -0.45593999997E+02  0.45594000000E+02  0.51100000000E-03 0. -1.
    9900012    2    1    2    0    0 -0.17559254034E+02 -0.39678945730E+02 -0.93656427054E+00  0.47787270869E+02  0.19999999201E+02 0.  0.
         12    1    1    2    0    0  0.17559254034E+02  0.39678945730E+02  0.93656427054E+00  0.43400729131E+02  0.00000000000E+00 0. -1.
         11    1    3    3    0    0 -0.11271659468E+02 -0.33468482419E+02 -0.49768637080E+01  0.35664531333E+02  0.51100000000E-03 0. -1.
        -11    1    3    3    0    0 -0.68076365239E+00  0.65614286066E+00 -0.14237922176E+01  0.17091363737E+01  0.51100000000E-03 0.  1.
         12    1    3    3    0    0 -0.56068309136E+01 -0.68666061711E+01  0.54640916551E+01  0.10413603162E+02  0.00000000000E+00 0. -1.
</event>
<event>
 7    1  0.1384886E-010  0.4778727E+02  0.7816164E-02  0.1312668E+00
        -11   -1    0    0    0    0  0.00000000000E+00  0.00000000000E+00  0.45593999997E+02  0.45594000000E+02  0.51100000000E-03 0. -1.
         11   -1    0    0    0    0 -0.00000000000E+00 -0.00000000000E+00 -0.45593999997E+02  0.45594000000E+02  0.51100000000E-03 0.  1.
    9900012    2    1    2    0    0  0.32280953394E+02  0.19239058199E+02 -0.21712263074E+02  0.47787266363E+02  0.19999978658E+02 0.  0.
         12    1    1    2    0    0 -0.32280953394E+02 -0.19239058199E+02  0.21712263074E+02  0.43400733637E+02  0.00000000000E+00 0. -1.
         11    1    3    3    0    0  0.18195036157E+02  0.11491394515E+01 -0.69231652233E+01  0.19501540431E+02  0.51100000000E-03 0. -1.
        -11    1    3    3    0    0  0.10085878475E+02  0.92677917249E+01 -0.51874000575E+01  0.14646707059E+02  0.51100000000E-03 0.  1.
        -12    1    3    3    0    0  0.40000387623E+01  0.88221270223E+01 -0.96016977935E+01  0.13639018873E+02  0.00000000000E+00 0.  1.
</event>
<event>
 7    1  0.1384886E-010  0.4778727E+02  0.7816164E-02  0.1312668E+00
        -11   -1    0    0    0    0  0.00000000000E+00  0.00000000000E+00  0.45593999997E+02  0.45594000000E+02  0.51100000000E-03 0.  1.
         11   -1    0    0    0    0 -0.00000000000E+00 -0.00000000000E+00 -0.45593999997E+02  0.45594000000E+02  0.51100000000E-03 0. -1.
    9900012    2    1    2    0    0 -0.10401070346E+02 -0.16937885404E+02  0.38581716953E+02  0.47787272940E+02  0.20000008644E+02 0.  0.
         12    1    1    2    0    0  0.10401070346E+02  0.16937885404E+02 -0.38581716953E+02  0.43400727060E+02  0.00000000000E+00 0. -1.
         11    1    3    3    0    0 -0.25304105027E+00 -0.63977868385E+01  0.18708530742E+02  0.19773842039E+02  0.51100000000E-03 0.  1.
        -11    1    3    3    0    0 -0.19167960915E+01 -0.78254692747E+01  0.22354962112E+01  0.83611913144E+01  0.51100000000E-03 0. -1.
         12    1    3    3    0    0 -0.82312332041E+01 -0.27146292904E+01  0.17637689999E+02  0.19652239586E+02  0.00000000000E+00 0. -1.
</event>
<event>
 7    1  0.1384886E-010  0.4778727E+02  0.7816164E-02  0.1312668E+00
        -11   -1    0    0    0    0  0.00000000000E+00  0.00000000000E+00  0.45593999997E+02  0.45594000000E+02  0.51100000000E-03 0.  1.
         11   -1    0    0    0    0 -0.00000000000E+00 -0.00000000000E+00 -0.45593999997E+02  0.45594000000E+02  0.51100000000E-03 0. -1.
    9900012    2    1    2    0    0  0.19531176952E+02  0.36015063469E+02 -0.14320333489E+02  0.47787267044E+02  0.19999981762E+02 0.  0.
         12    1    1    2    0    0 -0.19531176952E+02 -0.36015063469E+02  0.14320333489E+02  0.43400732956E+02  0.00000000000E+00 0. -1.
         11    1    3    3    0    0  0.97375211222E+01  0.63564692381E+01 -0.43668845727E+01  0.12421501516E+02  0.51100000000E-03 0.  1.
        -11    1    3    3    0    0  0.10159023466E+02  0.16059299788E+02 -0.10575463255E+02  0.21747351351E+02  0.51100000000E-03 0. -1.
        -12    1    3    3    0    0 -0.36536763562E+00  0.13599294444E+02  0.62201433862E+00  0.13618414178E+02  0.00000000000E+00 0.  1.
</event>
<event>
 7    1  0.1384886E-010  0.4778727E+02  0.7816164E-02  0.1312668E+00
        -11   -1    0    0    0    0  0.00000000000E+00  0.00000000000E+00  0.45593999997E+02  0.45594000000E+02  0.51100000000E-03 0.  1.
         11   -1    0    0    0    0 -0.00000000000E+00 -0.00000000000E+00 -0.45593999997E+02  0.45594000000E+02  0.51100000000E-03 0. -1.
    9900012    2    1    2    0    0 -0.12875738412E+02 -0.41123663692E+02 -0.51655668145E+01  0.47787269181E+02  0.19999991505E+02 0.  0.
         12    1    1    2    0    0  0.12875738412E+02  0.41123663692E+02  0.51655668145E+01  0.43400730819E+02  0.00000000000E+00 0. -1.
         11    1    3    3    0    0 -0.36596342763E+01 -0.25294155221E+02 -0.55863830755E+01  0.26160942023E+02  0.51100000000E-03 0.  1.
        -11    1    3    3    0    0 -0.74484757686E+01 -0.15121649128E+02  0.42199258760E+01  0.17376761444E+02  0.51100000000E-03 0. -1.
         12    1    3    3    0    0 -0.17676283671E+01 -0.70785934221E+00 -0.37991096149E+01  0.42495657141E+01  0.00000000000E+00 0. -1.
</event>
<event>
 7    1  0.1384886E-010  0.4778727E+02  0.7816164E-02  0.1312668E+00
        -11   -1    0    0    0    0  0.00000000000E+00  0.00000000000E+00  0.45593999997E+02  0.45594000000E+02  0.51100000000E-03 0.  1.
         11   -1    0    0    0    0 -0.00000000000E+00 -0.00000000000E+00 -0.45593999997E+02  0.45594000000E+02  0.51100000000E-03 0. -1.
    9900012    2    1    2    0    0 -0.40482249999E+02 -0.62262895883E+01  0.14354238203E+02  0.47787269575E+02  0.19999993299E+02 0.  0.
         12    1    1    2    0    0  0.40482249999E+02  0.62262895883E+01 -0.14354238203E+02  0.43400730425E+02  0.00000000000E+00 0. -1.
         11    1    3    3    0    0 -0.22354014271E+02 -0.29715249078E+01  0.65597765664E+01  0.23485369556E+02  0.51100000000E-03 0. -1.
        -11    1    3    3    0    0 -0.56521321430E+01  0.32429640711E+01 -0.23840839369E+01  0.69388234023E+01  0.51100000000E-03 0.  1.
        -12    1    3    3    0    0 -0.12476103585E+02 -0.64977287516E+01  0.10178545574E+02  0.17363076617E+02  0.00000000000E+00 0.  1.
</event>
<event>
 7    1  0.1384886E-010  0.4778727E+02  0.7816164E-02  0.1312668E+00
        -11   -1    0    0    0    0  0.00000000000E+00  0.00000000000E+00  0.45593999997E+02  0.45594000000E+02  0.51100000000E-03 0.  1.
         11   -1    0    0    0    0 -0.00000000000E+00 -0.00000000000E+00 -0.45593999997E+02  0.45594000000E+02  0.51100000000E-03 0. -1.
    9900012    2    1    2    0    0  0.35605572017E+02 -0.13752407078E+02  0.20657629335E+02  0.47787272945E+02  0.20000008667E+02 0.  0.
         12    1    1    2    0    0 -0.35605572017E+02  0.13752407078E+02 -0.20657629335E+02  0.43400727055E+02  0.00000000000E+00 0. -1.
         11    1    3    3    0    0  0.47470674406E+01  0.92300612146E+00 -0.17738193065E+01  0.51510217219E+01  0.51100000000E-03 0. -1.
        -11    1    3    3    0    0  0.10091164151E+02 -0.40891427759E+01  0.14247016772E+02  0.17931262357E+02  0.51100000000E-03 0.  1.
        -12    1    3    3    0    0  0.20767340426E+02 -0.10586270424E+02  0.81844318692E+01  0.24704988866E+02  0.00000000000E+00 0.  1.
</event>
<event>
 7    1  0.1384886E-010  0.4778727E+02  0.7816164E-02  0.1312668E+00
        -11   -1    0    0    0    0  0.00000000000E+00  0.00000000000E+00  0.45593999997E+02  0.45594000000E+02  0.51100000000E-03 0. -1.
         11   -1    0    0    0    0 -0.00000000000E+00 -0.00000000000E+00 -0.45593999997E+02  0.45594000000E+02  0.51100000000E-03 0.  1.
    9900012    2    1    2    0    0 -0.73125869321E+01  0.35644668727E+02 -0.23656014256E+02  0.47787270205E+02  0.19999996171E+02 0.  0.
         12    1    1    2    0    0  0.73125869321E+01 -0.35644668727E+02  0.23656014256E+02  0.43400729795E+02  0.00000000000E+00 0. -1.
         11    1    3    3    0    0  0.50809710087E+00 -0.40539617864E+00  0.13805153580E+01  0.15258871650E+01  0.51100000000E-03 0. -1.
        -11    1    3    3    0    0 -0.34665688221E+01  0.38582539664E+01 -0.81212626632E+01  0.96362923665E+01  0.51100000000E-03 0.  1.
        -12    1    3    3    0    0 -0.43541152109E+01  0.32191810939E+02 -0.16915266951E+02  0.36625090673E+02  0.00000000000E+00 0.  1.
</event>
<event>
 7    1  0.1384886E-010  0.4778725E+02  0.7816164E-02  0.1312668E+00
        -11   -1    0    0    0    0  0.00000000000E+00  0.00000000000E+00  0.45593999997E+02  0.45594000000E+02  0.51100000000E-03 0. -1.
         11   -1    0    0    0    0 -0.00000000000E+00 -0.00000000000E+00 -0.45593999997E+02  0.45594000000E+02  0.51100000000E-03 0.  1.
    9900012    2    1    2    0    0  0.41487940572E+01  0.99198483342E+00 -0.43190603352E+02  0.47787254108E+02  0.19999922780E+02 0.  0.
         12    1    1    2    0    0 -0.41487940572E+01 -0.99198483342E+00  0.43190603352E+02  0.43400745892E+02  0.00000000000E+00 0. -1.
         11    1    3    3    0    0  0.19205997075E+01  0.32429874058E+01 -0.32598077369E+01  0.49831734159E+01  0.51100000000E-03 0. -1.
        -11    1    3    3    0    0  0.45337089715E+01 -0.79429175513E+01 -0.21088775280E+02  0.22986537350E+02  0.51100000000E-03 0.  1.
         12    1    3    3    0    0 -0.23055146218E+01  0.56919149789E+01 -0.18842020335E+02  0.19817543342E+02  0.00000000000E+00 0. -1.
</event>
<event>
 7    1  0.1384886E-010  0.4778727E+02  0.7816164E-02  0.1312668E+00
        -11   -1    0    0    0    0  0.00000000000E+00  0.00000000000E+00  0.45593999997E+02  0.45594000000E+02  0.51100000000E-03 0. -1.
         11   -1    0    0    0    0 -0.00000000000E+00 -0.00000000000E+00 -0.45593999997E+02  0.45594000000E+02  0.51100000000E-03 0.  1.
    9900012    2    1    2    0    0 -0.42778312657E+02 -0.28479892127E+01 -0.67474794579E+01  0.47787267802E+02  0.19999985216E+02 0.  0.
         12    1    1    2    0    0  0.42778312657E+02  0.28479892127E+01  0.67474794579E+01  0.43400732198E+02  0.00000000000E+00 0. -1.
         11    1    3    3    0    0 -0.15066879481E+02 -0.10419784923E+02 -0.29836107314E+01  0.18560299254E+02  0.51100000000E-03 0. -1.
        -11    1    3    3    0    0 -0.49584705623E+01  0.29061040866E+01 -0.44341928472E+00  0.57644160331E+01  0.51100000000E-03 0.  1.
         12    1    3    3    0    0 -0.22752962613E+02  0.46656916240E+01 -0.33204494418E+01  0.23462552515E+02  0.00000000000E+00 0. -1.
</event>
<event>
 7    1  0.1384886E-010  0.4778727E+02  0.7816164E-02  0.1312668E+00
        -11   -1    0    0    0    0  0.00000000000E+00  0.00000000000E+00  0.45593999997E+02  0.45594000000E+02  0.51100000000E-03 0. -1.
         11   -1    0    0    0    0 -0.00000000000E+00 -0.00000000000E+00 -0.45593999997E+02  0.45594000000E+02  0.51100000000E-03 0.  1.
    9900012    2    1    2    0    0 -0.34927834509E+02 -0.25760079678E+02 -0.29633151359E+00  0.47787272577E+02  0.20000006986E+02 0.  0.
         12    1    1    2    0    0  0.34927834509E+02  0.25760079678E+02  0.29633151359E+00  0.43400727423E+02  0.00000000000E+00 0. -1.
         11    1    3    3    0    0 -0.22497082161E+02 -0.11749031324E+02  0.29602433700E+01  0.25552328345E+02  0.51100000000E-03 0. -1.
        -11    1    3    3    0    0 -0.12612642889E+02 -0.83047449592E+01  0.96868867376E+00  0.15132280313E+02  0.51100000000E-03 0.  1.
         12    1    3    3    0    0  0.18189054046E+00 -0.57063033951E+01 -0.42252635573E+01  0.71026639182E+01  0.00000000000E+00 0. -1.
</event>
<event>
 7    1  0.1384886E-010  0.4778727E+02  0.7816164E-02  0.1312668E+00
        -11   -1    0    0    0    0  0.00000000000E+00  0.00000000000E+00  0.45593999997E+02  0.45594000000E+02  0.51100000000E-03 0.  1.
         11   -1    0    0    0    0 -0.00000000000E+00 -0.00000000000E+00 -0.45593999997E+02  0.45594000000E+02  0.51100000000E-03 0. -1.
    9900012    2    1    2    0    0  0.32025872281E+02 -0.35582898629E+01  0.29074143500E+02  0.47787265647E+02  0.19999975393E+02 0.  0.
         12    1    1    2    0    0 -0.32025872281E+02  0.35582898629E+01 -0.29074143500E+02  0.43400734353E+02  0.00000000000E+00 0. -1.
         11    1    3    3    0    0  0.15915680932E+02 -0.36608087242E+01  0.13598981299E+02  0.21251887273E+02  0.51100000000E-03 0. -1.
        -11    1    3    3    0    0  0.15026067262E+02  0.16171168697E+01  0.17932763157E+02  0.23451689897E+02  0.51100000000E-03 0.  1.
         12    1    3    3    0    0  0.10841240866E+01 -0.15145980085E+01 -0.24576009561E+01  0.30836884767E+01  0.00000000000E+00 0. -1.
</event>
<event>
 7    1  0.1384886E-010  0.4778727E+02  0.7816164E-02  0.1312668E+00
        -11   -1    0    0    0    0  0.00000000000E+00  0.00000000000E+00  0.45593999997E+02  0.45594000000E+02  0.51100000000E-03 0.  1.
         11   -1    0    0    0    0 -0.00000000000E+00 -0.00000000000E+00 -0.45593999997E+02  0.45594000000E+02  0.51100000000E-03 0. -1.
    9900012    2    1    2    0    0 -0.19659185084E+02  0.28769897268E+02  0.25873400627E+02  0.47787269511E+02  0.19999993007E+02 0.  0.
         12    1    1    2    0    0  0.19659185084E+02 -0.28769897268E+02 -0.25873400627E+02  0.43400730489E+02  0.00000000000E+00 0. -1.
         11    1    3    3    0    0 -0.13546978362E+01  0.17972320808E+01  0.20675343927E+01  0.30561328678E+01  0.51100000000E-03 0. -1.
        -11    1    3    3    0    0  0.47145360504E+00  0.13528592273E+02  0.35037732998E+01  0.13982900450E+02  0.51100000000E-03 0.  1.
         12    1    3    3    0    0 -0.18775940853E+02  0.13444072914E+02  0.20302092935E+02  0.30748236193E+02  0.00000000000E+00 0. -1.
</event>
<event>
 7    1  0.1384886E-010  0.4778727E+02  0.7816164E-02  0.1312668E+00
        -11   -1    0    0    0    0  0.00000000000E+00  0.00000000000E+00  0.45593999997E+02  0.45594000000E+02  0.51100000000E-03 0.  1.
         11   -1    0    0    0    0 -0.00000000000E+00 -0.00000000000E+00 -0.45593999997E+02  0.45594000000E+02  0.51100000000E-03 0. -1.
    9900012    2    1    2    0    0 -0.21397050587E+02 -0.35921410748E+02  0.11637949593E+02  0.47787269653E+02  0.19999993654E+02 0.  0.
         12    1    1    2    0    0  0.21397050587E+02  0.35921410748E+02 -0.11637949593E+02  0.43400730347E+02  0.00000000000E+00 0. -1.
         11    1    3    3    0    0 -0.82182094427E+01 -0.13704630271E+02  0.15373489491E+01  0.16053638197E+02  0.51100000000E-03 0.  1.
        -11    1    3    3    0    0 -0.94683978493E+01 -0.50252808363E+01  0.91953801779E+01  0.14122996219E+02  0.51100000000E-03 0. -1.
         12    1    3    3    0    0 -0.37104432947E+01 -0.17191499641E+02  0.90522046625E+00  0.17610635236E+02  0.00000000000E+00 0. -1.
</event>
<event>
 7    1  0.1384886E-010  0.4778727E+02  0.7816164E-02  0.1312668E+00
        -11   -1    0    0    0    0  0.00000000000E+00  0.00000000000E+00  0.45593999997E+02  0.45594000000E+02  0.51100000000E-03 0.  1.
         11   -1    0    0    0    0 -0.00000000000E+00 -0.00000000000E+00 -0.45593999997E+02  0.45594000000E+02  0.51100000000E-03 0. -1.
    9900012    2    1    2    0    0  0.14388436856E+02  0.42428373105E+01  0.40725848856E+02  0.47787267879E+02  0.19999985568E+02 0.  0.
         12    1    1    2    0    0 -0.14388436856E+02 -0.42428373105E+01 -0.40725848856E+02  0.43400732121E+02  0.00000000000E+00 0. -1.
         11    1    3    3    0    0 -0.28479325246E+01 -0.29512774449E+01  0.11222963846E+02  0.11948877603E+02  0.51100000000E-03 0. -1.
        -11    1    3    3    0    0  0.36144819933E+01  0.41054315415E+00  0.12507505182E+02  0.13025771068E+02  0.51100000000E-03 0.  1.
        -12    1    3    3    0    0  0.13621887387E+02  0.67835716012E+01  0.16995379827E+02  0.22812619208E+02  0.00000000000E+00 0.  1.
</event>
<event>
 7    1  0.1384886E-010  0.4778726E+02  0.7816164E-02  0.1312668E+00
        -11   -1    0    0    0    0  0.00000000000E+00  0.00000000000E+00  0.45593999997E+02  0.45594000000E+02  0.51100000000E-03 0.  1.
         11   -1    0    0    0    0 -0.00000000000E+00 -0.00000000000E+00 -0.45593999997E+02  0.45594000000E+02  0.51100000000E-03 0. -1.
    9900012    2    1    2    0    0 -0.14152438704E+02 -0.41018279825E+02 -0.91268856702E+00  0.47787264966E+02  0.19999972286E+02 0.  0.
         12    1    1    2    0    0  0.14152438704E+02  0.41018279825E+02  0.91268856702E+00  0.43400735034E+02  0.00000000000E+00 0. -1.
         11    1    3    3    0    0 -0.35599220780E+01 -0.10748700701E+02  0.60611337501E+01  0.12843089759E+02  0.51100000000E-03 0. -1.
        -11    1    3    3    0    0 -0.56915941948E+00 -0.19479369011E+02 -0.32953725131E+01  0.19764342634E+02  0.51100000000E-03 0.  1.
         12    1    3    3    0    0 -0.10023357207E+02 -0.10790210113E+02 -0.36784498040E+01  0.15179832573E+02  0.00000000000E+00 0. -1.
</event>
<event>
 7    1  0.1384886E-010  0.4778727E+02  0.7816164E-02  0.1312668E+00
        -11   -1    0    0    0    0  0.00000000000E+00  0.00000000000E+00  0.45593999997E+02  0.45594000000E+02  0.51100000000E-03 0. -1.
         11   -1    0    0    0    0 -0.00000000000E+00 -0.00000000000E+00 -0.45593999997E+02  0.45594000000E+02  0.51100000000E-03 0.  1.
    9900012    2    1    2    0    0  0.53237300218E+01 -0.42634410279E+02  0.61309214051E+01  0.47787271452E+02  0.20000001860E+02 0.  0.
         12    1    1    2    0    0 -0.53237300218E+01  0.42634410279E+02 -0.61309214051E+01  0.43400728548E+02  0.00000000000E+00 0. -1.
         11    1    3    3    0    0  0.50291146737E+01 -0.18112919482E+02 -0.34627330600E+01  0.19114402085E+02  0.51100000000E-03 0. -1.
        -11    1    3    3    0    0  0.32287540504E+01 -0.13170972562E+02  0.58305625258E-01  0.13561075575E+02  0.51100000000E-03 0.  1.
         12    1    3    3    0    0 -0.29341387023E+01 -0.11350518235E+02  0.95353488399E+01  0.15111793793E+02  0.00000000000E+00 0. -1.
</event>
<event>
 7    1  0.1384886E-010  0.4778727E+02  0.7816164E-02  0.1312668E+00
        -11   -1    0    0    0    0  0.00000000000E+00  0.00000000000E+00  0.45593999997E+02  0.45594000000E+02  0.51100000000E-03 0. -1.
         11   -1    0    0    0    0 -0.00000000000E+00 -0.00000000000E+00 -0.45593999997E+02  0.45594000000E+02  0.51100000000E-03 0.  1.
    9900012    2    1    2    0    0 -0.13670140594E+02 -0.67898428769E+01 -0.40628173447E+02  0.47787272036E+02  0.20000004523E+02 0.  0.
         12    1    1    2    0    0  0.13670140594E+02  0.67898428769E+01  0.40628173447E+02  0.43400727964E+02  0.00000000000E+00 0. -1.
         11    1    3    3    0    0 -0.93249516425E+00 -0.35680907613E+01 -0.19640279768E+02  0.19983528431E+02  0.51100000000E-03 0. -1.
        -11    1    3    3    0    0 -0.18109815197E+01 -0.61806403137E+01 -0.10797813507E+02  0.12572698419E+02  0.51100000000E-03 0.  1.
         12    1    3    3    0    0 -0.10926663910E+02  0.29588881981E+01 -0.10190080172E+02  0.15231045186E+02  0.00000000000E+00 0. -1.
</event>
<event>
 7    1  0.1384886E-010  0.4778726E+02  0.7816164E-02  0.1312668E+00
        -11   -1    0    0    0    0  0.00000000000E+00  0.00000000000E+00  0.45593999997E+02  0.45594000000E+02  0.51100000000E-03 0.  1.
         11   -1    0    0    0    0 -0.00000000000E+00 -0.00000000000E+00 -0.45593999997E+02  0.45594000000E+02  0.51100000000E-03 0. -1.
    9900012    2    1    2    0    0  0.26736474497E+02  0.12638762115E+01  0.34164131308E+02  0.47787258997E+02  0.19999945069E+02 0.  0.
         12    1    1    2    0    0 -0.26736474497E+02 -0.12638762115E+01 -0.34164131308E+02  0.43400741003E+02  0.00000000000E+00 0. -1.
         11    1    3    3    0    0  0.89236341986E+01  0.23057386759E-01  0.44481453237E+01  0.99708463049E+01  0.51100000000E-03 0. -1.
        -11    1    3    3    0    0  0.34919767821E+01 -0.91906630075E-01  0.20362039393E+02  0.20659501378E+02  0.51100000000E-03 0.  1.
        -12    1    3    3    0    0  0.14320863517E+02  0.13327254548E+01  0.93539465911E+01  0.17156911314E+02  0.00000000000E+00 0.  1.
</event>
<event>
 7    1  0.1384886E-010  0.4778727E+02  0.7816164E-02  0.1312668E+00
        -11   -1    0    0    0    0  0.00000000000E+00  0.00000000000E+00  0.45593999997E+02  0.45594000000E+02  0.51100000000E-03 0. -1.
         11   -1    0    0    0    0 -0.00000000000E+00 -0.00000000000E+00 -0.45593999997E+02  0.45594000000E+02  0.51100000000E-03 0.  1.
    9900012    2    1    2    0    0 -0.31912533135E+02 -0.93209152035E+01 -0.27898641530E+02  0.47787269239E+02  0.19999991769E+02 0.  0.
         12    1    1    2    0    0  0.31912533135E+02  0.93209152035E+01  0.27898641530E+02  0.43400730761E+02  0.00000000000E+00 0. -1.
         11    1    3    3    0    0 -0.76182942409E-01 -0.33836999036E+01 -0.17812299798E+01  0.38246580737E+01  0.51100000000E-03 0. -1.
        -11    1    3    3    0    0 -0.25793913906E+02  0.11044941506E+01 -0.16735288816E+02  0.30767121964E+02  0.51100000000E-03 0.  1.
        -12    1    3    3    0    0 -0.60424362870E+01 -0.70417094504E+01 -0.93821227341E+01  0.13195489201E+02  0.00000000000E+00 0.  1.
</event>
<event>
 7    1  0.1384886E-010  0.4778727E+02  0.7816164E-02  0.1312668E+00
        -11   -1    0    0    0    0  0.00000000000E+00  0.00000000000E+00  0.45593999997E+02  0.45594000000E+02  0.51100000000E-03 0.  1.
         11   -1    0    0    0    0 -0.00000000000E+00 -0.00000000000E+00 -0.45593999997E+02  0.45594000000E+02  0.51100000000E-03 0. -1.
    9900012    2    1    2    0    0  0.48821675722E+01 -0.34808580832E+02  0.25458796379E+02  0.47787272208E+02  0.20000005307E+02 0.  0.
         12    1    1    2    0    0 -0.48821675722E+01  0.34808580832E+02 -0.25458796379E+02  0.43400727792E+02  0.00000000000E+00 0. -1.
         11    1    3    3    0    0  0.97180347911E+01 -0.31044561760E+02  0.18597463678E+02  0.37470931008E+02  0.51100000000E-03 0.  1.
        -11    1    3    3    0    0 -0.46454558038E+00 -0.15135940092E+01  0.46744861251E+01  0.49353409422E+01  0.51100000000E-03 0. -1.
        -12    1    3    3    0    0 -0.43713216385E+01 -0.22504250628E+01  0.21868465765E+01  0.53810002583E+01  0.00000000000E+00 0.  1.
</event>
<event>
 7    1  0.1384886E-010  0.4778727E+02  0.7816164E-02  0.1312668E+00
        -11   -1    0    0    0    0  0.00000000000E+00  0.00000000000E+00  0.45593999997E+02  0.45594000000E+02  0.51100000000E-03 0.  1.
         11   -1    0    0    0    0 -0.00000000000E+00 -0.00000000000E+00 -0.45593999997E+02  0.45594000000E+02  0.51100000000E-03 0. -1.
    9900012    2    1    2    0    0  0.12040112869E+02 -0.34348747584E+02  0.23639423077E+02  0.47787273026E+02  0.20000009034E+02 0.  0.
         12    1    1    2    0    0 -0.12040112869E+02  0.34348747584E+02 -0.23639423077E+02  0.43400726974E+02  0.00000000000E+00 0. -1.
         11    1    3    3    0    0 -0.35273407241E+01 -0.10804528521E+02  0.11327253011E+02  0.16046389942E+02  0.51100000000E-03 0. -1.
        -11    1    3    3    0    0  0.78782121857E+01 -0.11221810045E+02  0.10143103944E+02  0.17055140158E+02  0.51100000000E-03 0.  1.
         12    1    3    3    0    0  0.76892414072E+01 -0.12322409019E+02  0.21690661217E+01  0.14685742926E+02  0.00000000000E+00 0. -1.
</event>
<event>
 7    1  0.1384886E-010  0.4778727E+02  0.7816164E-02  0.1312668E+00
        -11   -1    0    0    0    0  0.00000000000E+00  0.00000000000E+00  0.45593999997E+02  0.45594000000E+02  0.51100000000E-03 0.  1.
         11   -1    0    0    0    0 -0.00000000000E+00 -0.00000000000E+00 -0.45593999997E+02  0.45594000000E+02  0.51100000000E-03 0. -1.
    9900012    2    1    2    0    0  0.24707100007E+01 -0.11722350678E+02  0.41714570024E+02  0.47787271140E+02  0.20000000436E+02 0.  0.
         12    1    1    2    0    0 -0.24707100007E+01  0.11722350678E+02 -0.41714570024E+02  0.43400728860E+02  0.00000000000E+00 0. -1.
         11    1    3    3    0    0  0.88139834906E+01 -0.91618631266E+01  0.17882071318E+02  0.21940704542E+02  0.51100000000E-03 0. -1.
        -11    1    3    3    0    0 -0.16067849471E+00  0.49497823871E+00  0.12965756703E+02  0.12976196214E+02  0.51100000000E-03 0.  1.
         12    1    3    3    0    0 -0.61825949952E+01 -0.30554657902E+01  0.10866742002E+02  0.12870370384E+02  0.00000000000E+00 0. -1.
</event>
<event>
 7    1  0.1384886E-010  0.4778727E+02  0.7816164E-02  0.1312668E+00
        -11   -1    0    0    0    0  0.00000000000E+00  0.00000000000E+00  0.45593999997E+02  0.45594000000E+02  0.51100000000E-03 0.  1.
         11   -1    0    0    0    0 -0.00000000000E+00 -0.00000000000E+00 -0.45593999997E+02  0.45594000000E+02  0.51100000000E-03 0. -1.
    9900012    2    1    2    0    0  0.78331018272E+01  0.11632914087E+02  0.41072387153E+02  0.47787272347E+02  0.20000005938E+02 0.  0.
         12    1    1    2    0    0 -0.78331018272E+01 -0.11632914087E+02 -0.41072387153E+02  0.43400727653E+02  0.00000000000E+00 0. -1.
         11    1    3    3    0    0 -0.47207993779E+00  0.77226991960E+01  0.14405469055E+02  0.16351773032E+02  0.51100000000E-03 0. -1.
        -11    1    3    3    0    0  0.12125955108E+02  0.17371857872E+01  0.19658813541E+02  0.23163021216E+02  0.51100000000E-03 0.  1.
        -12    1    3    3    0    0 -0.38207733426E+01  0.21730291036E+01  0.70081045572E+01  0.82724780994E+01  0.00000000000E+00 0.  1.
</event>
<event>
 7    1  0.1384886E-010  0.4778727E+02  0.7816164E-02  0.1312668E+00
        -11   -1    0    0    0    0  0.00000000000E+00  0.00000000000E+00  0.45593999997E+02  0.45594000000E+02  0.51100000000E-03 0. -1.
         11   -1    0    0    0    0 -0.00000000000E+00 -0.00000000000E+00 -0.45593999997E+02  0.45594000000E+02  0.51100000000E-03 0.  1.
    9900012    2    1    2    0    0 -0.25989069443E+02 -0.26358085453E+02 -0.22659275125E+02  0.47787272489E+02  0.20000006586E+02 0.  0.
         12    1    1    2    0    0  0.25989069443E+02  0.26358085453E+02  0.22659275125E+02  0.43400727511E+02  0.00000000000E+00 0. -1.
         11    1    3    3    0    0 -0.44676441315E+01 -0.88698243141E+01 -0.10682610673E+02  0.14586013797E+02  0.51100000000E-03 0.  1.
        -11    1    3    3    0    0 -0.88787023133E+01 -0.27158215828E+01  0.16867436595E+01  0.94367444636E+01  0.51100000000E-03 0. -1.
         12    1    3    3    0    0 -0.12642722999E+02 -0.14772439556E+02 -0.13663408112E+02  0.23764514228E+02  0.00000000000E+00 0. -1.
</event>
<event>
 7    1  0.1384886E-010  0.4778728E+02  0.7816164E-02  0.1312668E+00
        -11   -1    0    0    0    0  0.00000000000E+00  0.00000000000E+00  0.45593999997E+02  0.45594000000E+02  0.51100000000E-03 0.  1.
         11   -1    0    0    0    0 -0.00000000000E+00 -0.00000000000E+00 -0.45593999997E+02  0.45594000000E+02  0.51100000000E-03 0. -1.
    9900012    2    1    2    0    0  0.28689327002E+02 -0.25991899159E+02  0.19620563468E+02  0.47787276313E+02  0.20000024022E+02 0.  0.
         12    1    1    2    0    0 -0.28689327002E+02  0.25991899159E+02 -0.19620563468E+02  0.43400723687E+02  0.00000000000E+00 0. -1.
         11    1    3    3    0    0 -0.96356218068E-02  0.18667042883E+01  0.21283811994E+01  0.28310218184E+01  0.51100000000E-03 0. -1.
        -11    1    3    3    0    0 -0.75479257534E+00 -0.12758193449E+01  0.16935995343E+01  0.22507124375E+01  0.51100000000E-03 0.  1.
        -12    1    3    3    0    0  0.29453755200E+02 -0.26582784102E+02  0.15798582734E+02  0.42705542057E+02  0.00000000000E+00 0.  1.
</event>
<event>
 7    1  0.1384886E-010  0.4778730E+02  0.7816164E-02  0.1312668E+00
        -11   -1    0    0    0    0  0.00000000000E+00  0.00000000000E+00  0.45593999997E+02  0.45594000000E+02  0.51100000000E-03 0.  1.
         11   -1    0    0    0    0 -0.00000000000E+00 -0.00000000000E+00 -0.45593999997E+02  0.45594000000E+02  0.51100000000E-03 0. -1.
    9900012    2    1    2    0    0 -0.41099678222E+02  0.13218473759E+02 -0.44395124555E+01  0.47787298747E+02  0.20000126305E+02 0.  0.
         12    1    1    2    0    0  0.41099678222E+02 -0.13218473759E+02  0.44395124555E+01  0.43400701253E+02  0.00000000000E+00 0. -1.
         11    1    3    3    0    0 -0.79770466190E+01  0.82392101484E+00  0.56404493640E+01  0.98044269537E+01  0.51100000000E-03 0. -1.
        -11    1    3    3    0    0 -0.69046684625E+01 -0.95397702425E+00 -0.29000365083E+00  0.69762899251E+01  0.51100000000E-03 0.  1.
        -12    1    3    3    0    0 -0.26217963140E+02  0.13348529768E+02 -0.97899581687E+01  0.31006581868E+02  0.00000000000E+00 0.  1.
</event>
<event>
 7    1  0.1384886E-010  0.4778727E+02  0.7816164E-02  0.1312668E+00
        -11   -1    0    0    0    0  0.00000000000E+00  0.00000000000E+00  0.45593999997E+02  0.45594000000E+02  0.51100000000E-03 0.  1.
         11   -1    0    0    0    0 -0.00000000000E+00 -0.00000000000E+00 -0.45593999997E+02  0.45594000000E+02  0.51100000000E-03 0. -1.
    9900012    2    1    2    0    0  0.11620854428E+02  0.39800088877E+02  0.12827008859E+02  0.47787268572E+02  0.19999988727E+02 0.  0.
         12    1    1    2    0    0 -0.11620854428E+02 -0.39800088877E+02 -0.12827008859E+02  0.43400731428E+02  0.00000000000E+00 0. -1.
         11    1    3    3    0    0  0.94396614757E+00  0.39205573916E+01  0.74169503508E+01  0.84423335113E+01  0.51100000000E-03 0. -1.
        -11    1    3    3    0    0 -0.80464419697E+00  0.15415825946E+02  0.99741632727E+00  0.15469000662E+02  0.51100000000E-03 0.  1.
         12    1    3    3    0    0  0.11481532477E+02  0.20463705539E+02  0.44126421805E+01  0.23875934399E+02  0.00000000000E+00 0. -1.
</event>
<event>
 7    1  0.1384886E-010  0.4778726E+02  0.7816164E-02  0.1312668E+00
        -11   -1    0    0    0    0  0.00000000000E+00  0.00000000000E+00  0.45593999997E+02  0.45594000000E+02  0.51100000000E-03 0.  1.
         11   -1    0    0    0    0 -0.00000000000E+00 -0.00000000000E+00 -0.45593999997E+02  0.45594000000E+02  0.51100000000E-03 0. -1.
    9900012    2    1    2    0    0  0.87210642291E+01  0.20381959602E+02  0.37311431112E+02  0.47787261180E+02  0.19999955022E+02 0.  0.
         12    1    1    2    0    0 -0.87210642291E+01 -0.20381959602E+02 -0.37311431112E+02  0.43400738820E+02  0.00000000000E+00 0. -1.
         11    1    3    3    0    0  0.34979611825E+01  0.13249114252E+02  0.65285755668E+01  0.15178835927E+02  0.51100000000E-03 0. -1.
        -11    1    3    3    0    0  0.18302246979E+01 -0.80290994380E+00  0.79927921949E+01  0.82388782097E+01  0.51100000000E-03 0.  1.
        -12    1    3    3    0    0  0.33928783487E+01  0.79357552945E+01  0.22790063350E+02  0.24369547043E+02  0.00000000000E+00 0.  1.
</event>
<event>
 7    1  0.1384886E-010  0.4778728E+02  0.7816164E-02  0.1312668E+00
        -11   -1    0    0    0    0  0.00000000000E+00  0.00000000000E+00  0.45593999997E+02  0.45594000000E+02  0.51100000000E-03 0.  1.
         11   -1    0    0    0    0 -0.00000000000E+00 -0.00000000000E+00 -0.45593999997E+02  0.45594000000E+02  0.51100000000E-03 0. -1.
    9900012    2    1    2    0    0  0.33092024724E+02  0.66197391380E+01  0.27289547297E+02  0.47787280671E+02  0.20000043893E+02 0.  0.
         12    1    1    2    0    0 -0.33092024724E+02 -0.66197391380E+01 -0.27289547297E+02  0.43400719329E+02  0.00000000000E+00 0. -1.
         11    1    3    3    0    0  0.63323903523E+01  0.82167305996E+01  0.47849499343E+01  0.11424078757E+02  0.51100000000E-03 0. -1.
        -11    1    3    3    0    0  0.13058054011E+02  0.64307457428E+00  0.16958326093E+02  0.21412873315E+02  0.51100000000E-03 0.  1.
        -12    1    3    3    0    0  0.13701580360E+02 -0.22400660359E+01  0.55462712691E+01  0.14950328599E+02  0.00000000000E+00 0.  1.
</event>
<event>
 7    1  0.1384886E-010  0.4778727E+02  0.7816164E-02  0.1312668E+00
        -11   -1    0    0    0    0  0.00000000000E+00  0.00000000000E+00  0.45593999997E+02  0.45594000000E+02  0.51100000000E-03 0.  1.
         11   -1    0    0    0    0 -0.00000000000E+00 -0.00000000000E+00 -0.45593999997E+02  0.45594000000E+02  0.51100000000E-03 0. -1.
    9900012    2    1    2    0    0 -0.20404861218E+02  0.22756651531E+02  0.30812332484E+02  0.47787269783E+02  0.19999994249E+02 0.  0.
         12    1    1    2    0    0  0.20404861218E+02 -0.22756651531E+02 -0.30812332484E+02  0.43400730217E+02  0.00000000000E+00 0. -1.
         11    1    3    3    0    0 -0.39374149478E+01 -0.91066683192E+00  0.38491589832E+01  0.55810909049E+01  0.51100000000E-03 0. -1.
        -11    1    3    3    0    0 -0.56949688971E+01  0.16326064630E+02  0.22607250331E+02  0.28461567505E+02  0.51100000000E-03 0.  1.
        -12    1    3    3    0    0 -0.10772477373E+02  0.73412537330E+01  0.43559231694E+01  0.13744611373E+02  0.00000000000E+00 0.  1.
</event>
<event>
 7    1  0.1384886E-010  0.4778727E+02  0.7816164E-02  0.1312668E+00
        -11   -1    0    0    0    0  0.00000000000E+00  0.00000000000E+00  0.45593999997E+02  0.45594000000E+02  0.51100000000E-03 0. -1.
         11   -1    0    0    0    0 -0.00000000000E+00 -0.00000000000E+00 -0.45593999997E+02  0.45594000000E+02  0.51100000000E-03 0.  1.
    9900012    2    1    2    0    0  0.29768312730E+02 -0.14132298677E+02  0.28244450882E+02  0.47787270579E+02  0.19999997878E+02 0.  0.
         12    1    1    2    0    0 -0.29768312730E+02  0.14132298677E+02 -0.28244450882E+02  0.43400729421E+02  0.00000000000E+00 0. -1.
         11    1    3    3    0    0  0.20267993312E+01 -0.27782531098E+01  0.40216954501E+01  0.52915631363E+01  0.51100000000E-03 0.  1.
        -11    1    3    3    0    0  0.14172492967E+02  0.12299589241E+01  0.18061151646E+02  0.22990814577E+02  0.51100000000E-03 0. -1.
        -12    1    3    3    0    0  0.13569020432E+02 -0.12584004491E+02  0.61616037855E+01  0.19504892866E+02  0.00000000000E+00 0.  1.
</event>
<event>
 7    1  0.1384886E-010  0.4778727E+02  0.7816164E-02  0.1312668E+00
        -11   -1    0    0    0    0  0.00000000000E+00  0.00000000000E+00  0.45593999997E+02  0.45594000000E+02  0.51100000000E-03 0.  1.
         11   -1    0    0    0    0 -0.00000000000E+00 -0.00000000000E+00 -0.45593999997E+02  0.45594000000E+02  0.51100000000E-03 0. -1.
    9900012    2    1    2    0    0  0.43172221743E+00 -0.41701884190E+02  0.12016222113E+02  0.47787272784E+02  0.20000007930E+02 0.  0.
         12    1    1    2    0    0 -0.43172221743E+00  0.41701884190E+02 -0.12016222113E+02  0.43400727216E+02  0.00000000000E+00 0. -1.
         11    1    3    3    0    0  0.57972700936E+01 -0.15184606623E+02  0.32727364909E+01  0.16579849916E+02  0.51100000000E-03 0. -1.
        -11    1    3    3    0    0 -0.26554963936E+01 -0.19951737126E+02  0.11957049053E+02  0.23411418106E+02  0.51100000000E-03 0.  1.
        -12    1    3    3    0    0 -0.27100514826E+01 -0.65655404408E+01 -0.32135634306E+01  0.77960047615E+01  0.00000000000E+00 0.  1.
</event>
<event>
 7    1  0.1384886E-010  0.4778727E+02  0.7816164E-02  0.1312668E+00
        -11   -1    0    0    0    0  0.00000000000E+00  0.00000000000E+00  0.45593999997E+02  0.45594000000E+02  0.51100000000E-03 0.  1.
         11   -1    0    0    0    0 -0.00000000000E+00 -0.00000000000E+00 -0.45593999997E+02  0.45594000000E+02  0.51100000000E-03 0. -1.
    9900012    2    1    2    0    0 -0.14721263029E+02  0.13104919351E+02  0.38667413131E+02  0.47787270345E+02  0.19999996811E+02 0.  0.
         12    1    1    2    0    0  0.14721263029E+02 -0.13104919351E+02 -0.38667413131E+02  0.43400729655E+02  0.00000000000E+00 0. -1.
         11    1    3    3    0    0 -0.29879590127E+00 -0.11766182438E+00  0.45241173196E+01  0.45355000913E+01  0.51100000000E-03 0. -1.
        -11    1    3    3    0    0 -0.11593226847E+02  0.16563896853E+02  0.33042572812E+02  0.38737284442E+02  0.51100000000E-03 0.  1.
        -12    1    3    3    0    0 -0.28292402803E+01 -0.33413156775E+01  0.11007229994E+01  0.45144858115E+01  0.00000000000E+00 0.  1.
</event>
<event>
 7    1  0.1384886E-010  0.4778727E+02  0.7816164E-02  0.1312668E+00
        -11   -1    0    0    0    0  0.00000000000E+00  0.00000000000E+00  0.45593999997E+02  0.45594000000E+02  0.51100000000E-03 0.  1.
         11   -1    0    0    0    0 -0.00000000000E+00 -0.00000000000E+00 -0.45593999997E+02  0.45594000000E+02  0.51100000000E-03 0. -1.
    9900012    2    1    2    0    0 -0.10317034757E+02  0.33489441645E+02  0.25605456839E+02  0.47787270423E+02  0.19999997166E+02 0.  0.
         12    1    1    2    0    0  0.10317034757E+02 -0.33489441645E+02 -0.25605456839E+02  0.43400729577E+02  0.00000000000E+00 0. -1.
         11    1    3    3    0    0 -0.81070452150E+01  0.19319880813E+02  0.17261299953E+02  0.27146536668E+02  0.51100000000E-03 0. -1.
        -11    1    3    3    0    0  0.24867870471E+01  0.12883084000E+02  0.30958871156E+01  0.13481189876E+02  0.51100000000E-03 0.  1.
         12    1    3    3    0    0 -0.46967765888E+01  0.12864768320E+01  0.52482697707E+01  0.71595438787E+01  0.00000000000E+00 0. -1.
</event>
<event>
 7    1  0.1384886E-010  0.4778727E+02  0.7816164E-02  0.1312668E+00
        -11   -1    0    0    0    0  0.00000000000E+00  0.00000000000E+00  0.45593999997E+02  0.45594000000E+02  0.51100000000E-03 0.  1.
         11   -1    0    0    0    0 -0.00000000000E+00 -0.00000000000E+00 -0.45593999997E+02  0.45594000000E+02  0.51100000000E-03 0. -1.
    9900012    2    1    2    0    0  0.10610592874E+02  0.33890296170E+02  0.24949679450E+02  0.47787270049E+02  0.19999995460E+02 0.  0.
         12    1    1    2    0    0 -0.10610592874E+02 -0.33890296170E+02 -0.24949679450E+02  0.43400729951E+02  0.00000000000E+00 0. -1.
         11    1    3    3    0    0 -0.28040546878E+01  0.53046053333E+01  0.22997064469E+01  0.64257459051E+01  0.51100000000E-03 0.  1.
        -11    1    3    3    0    0  0.80222638583E+00  0.67807856558E+01 -0.88849535954E+00  0.68856405329E+01  0.51100000000E-03 0. -1.
        -12    1    3    3    0    0  0.12612421176E+02  0.21804905181E+02  0.23538468363E+02  0.34475883611E+02  0.00000000000E+00 0.  1.
</event>
<event>
 7    1  0.1384886E-010  0.4778727E+02  0.7816164E-02  0.1312668E+00
        -11   -1    0    0    0    0  0.00000000000E+00  0.00000000000E+00  0.45593999997E+02  0.45594000000E+02  0.51100000000E-03 0.  1.
         11   -1    0    0    0    0 -0.00000000000E+00 -0.00000000000E+00 -0.45593999997E+02  0.45594000000E+02  0.51100000000E-03 0. -1.
    9900012    2    1    2    0    0  0.28002919891E+02 -0.29809526509E+02  0.14520733298E+02  0.47787273179E+02  0.20000009730E+02 0.  0.
         12    1    1    2    0    0 -0.28002919891E+02  0.29809526509E+02 -0.14520733298E+02  0.43400726821E+02  0.00000000000E+00 0. -1.
         11    1    3    3    0    0  0.10946454086E+02 -0.94168273119E+00  0.45719431592E+01  0.11900180164E+02  0.51100000000E-03 0. -1.
        -11    1    3    3    0    0  0.11449874210E+02 -0.14037770903E+02  0.83664021330E+01  0.19953829614E+02  0.51100000000E-03 0.  1.
        -12    1    3    3    0    0  0.56065915945E+01 -0.14830072875E+02  0.15823880055E+01  0.15933263400E+02  0.00000000000E+00 0.  1.
</event>
<event>
 7    1  0.1384886E-010  0.4778729E+02  0.7816164E-02  0.1312668E+00
        -11   -1    0    0    0    0  0.00000000000E+00  0.00000000000E+00  0.45593999997E+02  0.45594000000E+02  0.51100000000E-03 0.  1.
         11   -1    0    0    0    0 -0.00000000000E+00 -0.00000000000E+00 -0.45593999997E+02  0.45594000000E+02  0.51100000000E-03 0. -1.
    9900012    2    1    2    0    0  0.33621173869E+02 -0.24817977420E+02  0.11717774293E+02  0.47787290675E+02  0.20000089503E+02 0.  0.
         12    1    1    2    0    0 -0.33621173869E+02  0.24817977420E+02 -0.11717774293E+02  0.43400709325E+02  0.00000000000E+00 0. -1.
         11    1    3    3    0    0  0.83684777888E+01  0.96452481740E-01  0.54407894289E+01  0.99821297053E+01  0.51100000000E-03 0. -1.
        -11    1    3    3    0    0  0.21853833912E+02 -0.18825071904E+02  0.91534559434E+01  0.30261512599E+02  0.51100000000E-03 0.  1.
        -12    1    3    3    0    0  0.33988621686E+01 -0.60893579977E+01 -0.28764710797E+01  0.75436483705E+01  0.00000000000E+00 0.  1.
</event>
<event>
 7    1  0.1384886E-010  0.4778727E+02  0.7816164E-02  0.1312668E+00
        -11   -1    0    0    0    0  0.00000000000E+00  0.00000000000E+00  0.45593999997E+02  0.45594000000E+02  0.51100000000E-03 0. -1.
         11   -1    0    0    0    0 -0.00000000000E+00 -0.00000000000E+00 -0.45593999997E+02  0.45594000000E+02  0.51100000000E-03 0.  1.
    9900012    2    1    2    0    0 -0.20757402752E+02 -0.76597835777E+01 -0.37337393195E+02  0.47787274383E+02  0.20000015223E+02 0.  0.
         12    1    1    2    0    0  0.20757402752E+02  0.76597835777E+01  0.37337393195E+02  0.43400725617E+02  0.00000000000E+00 0. -1.
         11    1    3    3    0    0 -0.48750037041E+01 -0.48584371374E+01 -0.54698469708E+01  0.87914332550E+01  0.51100000000E-03 0. -1.
        -11    1    3    3    0    0 -0.93576033471E+01 -0.27718687510E+01 -0.30893841559E+02  0.32398725952E+02  0.51100000000E-03 0.  1.
        -12    1    3    3    0    0 -0.65247957010E+01 -0.29477689328E-01 -0.97370466517E+00  0.65971151762E+01  0.00000000000E+00 0.  1.
</event>
<event>
 7    1  0.1384886E-010  0.4778727E+02  0.7816164E-02  0.1312668E+00
        -11   -1    0    0    0    0  0.00000000000E+00  0.00000000000E+00  0.45593999997E+02  0.45594000000E+02  0.51100000000E-03 0. -1.
         11   -1    0    0    0    0 -0.00000000000E+00 -0.00000000000E+00 -0.45593999997E+02  0.45594000000E+02  0.51100000000E-03 0.  1.
    9900012    2    1    2    0    0  0.27448139193E+02 -0.32105804083E+02  0.99719640848E+01  0.47787273409E+02  0.20000010779E+02 0.  0.
         12    1    1    2    0    0 -0.27448139193E+02  0.32105804083E+02 -0.99719640848E+01  0.43400726591E+02  0.00000000000E+00 0. -1.
         11    1    3    3    0    0  0.12073264831E+02 -0.84604091519E+01  0.10030492363E+02  0.17831237310E+02  0.51100000000E-03 0. -1.
        -11    1    3    3    0    0  0.60507071422E+01 -0.49747642101E+01 -0.38769985137E+01  0.87401632481E+01  0.51100000000E-03 0.  1.
        -12    1    3    3    0    0  0.93241672188E+01 -0.18670630721E+02  0.38184702352E+01  0.21215872850E+02  0.00000000000E+00 0.  1.
</event>
<event>
 7    1  0.1384886E-010  0.4778727E+02  0.7816164E-02  0.1312668E+00
        -11   -1    0    0    0    0  0.00000000000E+00  0.00000000000E+00  0.45593999997E+02  0.45594000000E+02  0.51100000000E-03 0.  1.
         11   -1    0    0    0    0 -0.00000000000E+00 -0.00000000000E+00 -0.45593999997E+02  0.45594000000E+02  0.51100000000E-03 0. -1.
    9900012    2    1    2    0    0 -0.37592632936E+02 -0.85190112106E+01  0.19946017813E+02  0.47787271553E+02  0.20000002320E+02 0.  0.
         12    1    1    2    0    0  0.37592632936E+02  0.85190112106E+01 -0.19946017813E+02  0.43400728447E+02  0.00000000000E+00 0. -1.
         11    1    3    3    0    0 -0.33284999461E+01 -0.13867234207E+01 -0.24384846612E+01  0.43529439970E+01  0.51100000000E-03 0. -1.
        -11    1    3    3    0    0 -0.16338167227E+02 -0.18910461057E+01  0.33841311968E+01  0.16791786919E+02  0.51100000000E-03 0.  1.
        -12    1    3    3    0    0 -0.17925965764E+02 -0.52412416842E+01  0.19000371277E+02  0.26642540638E+02  0.00000000000E+00 0.  1.
</event>
<event>
 7    1  0.1384886E-010  0.4778728E+02  0.7816164E-02  0.1312668E+00
        -11   -1    0    0    0    0  0.00000000000E+00  0.00000000000E+00  0.45593999997E+02  0.45594000000E+02  0.51100000000E-03 0.  1.
         11   -1    0    0    0    0 -0.00000000000E+00 -0.00000000000E+00 -0.45593999997E+02  0.45594000000E+02  0.51100000000E-03 0. -1.
    9900012    2    1    2    0    0  0.10890066081E+02 -0.30408450577E+02  0.28988883182E+02  0.47787277035E+02  0.20000027315E+02 0.  0.
         12    1    1    2    0    0 -0.10890066081E+02  0.30408450577E+02 -0.28988883182E+02  0.43400722965E+02  0.00000000000E+00 0. -1.
         11    1    3    3    0    0 -0.20755933434E+01 -0.15714971169E+02  0.13762121372E+02  0.20992007800E+02  0.51100000000E-03 0. -1.
        -11    1    3    3    0    0  0.86800764749E+01 -0.96730380744E+01  0.15451511657E+02  0.20190606875E+02  0.51100000000E-03 0.  1.
        -12    1    3    3    0    0  0.42855829495E+01 -0.50204413338E+01 -0.22474984796E+00  0.66046623606E+01  0.00000000000E+00 0.  1.
</event>
<event>
 7    1  0.1384886E-010  0.4778726E+02  0.7816164E-02  0.1312668E+00
        -11   -1    0    0    0    0  0.00000000000E+00  0.00000000000E+00  0.45593999997E+02  0.45594000000E+02  0.51100000000E-03 0. -1.
         11   -1    0    0    0    0 -0.00000000000E+00 -0.00000000000E+00 -0.45593999997E+02  0.45594000000E+02  0.51100000000E-03 0.  1.
    9900012    2    1    2    0    0  0.31033685137E+02  0.13265307872E+02 -0.27286734936E+02  0.47787263721E+02  0.19999966609E+02 0.  0.
         12    1    1    2    0    0 -0.31033685137E+02 -0.13265307872E+02  0.27286734936E+02  0.43400736279E+02  0.00000000000E+00 0. -1.
         11    1    3    3    0    0  0.45510932886E+01 -0.10202949672E+01  0.12808515164E+01  0.48367378273E+01  0.51100000000E-03 0. -1.
        -11    1    3    3    0    0  0.19822450457E+02  0.50230604822E+01 -0.15901191658E+02  0.25903833213E+02  0.51100000000E-03 0.  1.
         12    1    3    3    0    0  0.66601413919E+01  0.92625423568E+01 -0.12666394794E+02  0.17046692681E+02  0.00000000000E+00 0. -1.
</event>
<event>
 7    1  0.1384886E-010  0.4778727E+02  0.7816164E-02  0.1312668E+00
        -11   -1    0    0    0    0  0.00000000000E+00  0.00000000000E+00  0.45593999997E+02  0.45594000000E+02  0.51100000000E-03 0.  1.
         11   -1    0    0    0    0 -0.00000000000E+00 -0.00000000000E+00 -0.45593999997E+02  0.45594000000E+02  0.51100000000E-03 0. -1.
    9900012    2    1    2    0    0 -0.23107075144E+02  0.26386743479E+02  0.25562196450E+02  0.47787273733E+02  0.20000012259E+02 0.  0.
         12    1    1    2    0    0  0.23107075144E+02 -0.26386743479E+02 -0.25562196450E+02  0.43400726267E+02  0.00000000000E+00 0. -1.
         11    1    3    3    0    0 -0.93784198612E+01  0.79179891234E+01  0.16836777355E+01  0.12388869272E+02  0.51100000000E-03 0. -1.
        -11    1    3    3    0    0 -0.86258301083E+00  0.11410549622E+01 -0.15075600617E+01  0.20781707047E+01  0.51100000000E-03 0.  1.
        -12    1    3    3    0    0 -0.12866072272E+02  0.17327699394E+02  0.25386078776E+02  0.33320233757E+02  0.00000000000E+00 0.  1.
</event>
<event>
 7    1  0.1384886E-010  0.4778727E+02  0.7816164E-02  0.1312668E+00
        -11   -1    0    0    0    0  0.00000000000E+00  0.00000000000E+00  0.45593999997E+02  0.45594000000E+02  0.51100000000E-03 0. -1.
         11   -1    0    0    0    0 -0.00000000000E+00 -0.00000000000E+00 -0.45593999997E+02  0.45594000000E+02  0.51100000000E-03 0.  1.
    9900012    2    1    2    0    0  0.12290785224E+02 -0.39336540922E+02  0.13608688599E+02  0.47787271221E+02  0.20000000806E+02 0.  0.
         12    1    1    2    0    0 -0.12290785224E+02  0.39336540922E+02 -0.13608688599E+02  0.43400728779E+02  0.00000000000E+00 0. -1.
         11    1    3    3    0    0  0.33669871541E+01 -0.10190518369E+02  0.96371518193E+01  0.14424214453E+02  0.51100000000E-03 0.  1.
        -11    1    3    3    0    0  0.79541816126E+01 -0.64551908113E+01 -0.32307162892E+00  0.10249042349E+02  0.51100000000E-03 0. -1.
        -12    1    3    3    0    0  0.96961645717E+00 -0.22690831742E+02  0.42946084087E+01  0.23114014419E+02  0.00000000000E+00 0.  1.
</event>
<event>
 7    1  0.1384886E-010  0.4778728E+02  0.7816164E-02  0.1312668E+00
        -11   -1    0    0    0    0  0.00000000000E+00  0.00000000000E+00  0.45593999997E+02  0.45594000000E+02  0.51100000000E-03 0.  1.
         11   -1    0    0    0    0 -0.00000000000E+00 -0.00000000000E+00 -0.45593999997E+02  0.45594000000E+02  0.51100000000E-03 0. -1.
    9900012    2    1    2    0    0 -0.38649012166E+02  0.15814734052E+02  0.11822476413E+02  0.47787275317E+02  0.20000019479E+02 0.  0.
         12    1    1    2    0    0  0.38649012166E+02 -0.15814734052E+02 -0.11822476413E+02  0.43400724683E+02  0.00000000000E+00 0. -1.
         11    1    3    3    0    0 -0.13617758054E+02  0.11048374012E+02 -0.96646457002E+00  0.17562572612E+02  0.51100000000E-03 0. -1.
        -11    1    3    3    0    0 -0.10769352065E+02  0.71486328506E+01  0.60894529493E+01  0.14288573512E+02  0.51100000000E-03 0.  1.
         12    1    3    3    0    0 -0.14261902046E+02 -0.23822728104E+01  0.66994880340E+01  0.15936129192E+02  0.00000000000E+00 0. -1.
</event>
<event>
 7    1  0.1384886E-010  0.4778727E+02  0.7816164E-02  0.1312668E+00
        -11   -1    0    0    0    0  0.00000000000E+00  0.00000000000E+00  0.45593999997E+02  0.45594000000E+02  0.51100000000E-03 0. -1.
         11   -1    0    0    0    0 -0.00000000000E+00 -0.00000000000E+00 -0.45593999997E+02  0.45594000000E+02  0.51100000000E-03 0.  1.
    9900012    2    1    2    0    0  0.45687032037E+01  0.41186287780E+02 -0.12901166550E+02  0.47787269034E+02  0.19999990834E+02 0.  0.
         12    1    1    2    0    0 -0.45687032037E+01 -0.41186287780E+02  0.12901166550E+02  0.43400730966E+02  0.00000000000E+00 0. -1.
         11    1    3    3    0    0  0.88227519917E+00 -0.22835401762E+00  0.10934867442E+01  0.14234706198E+01  0.51100000000E-03 0. -1.
        -11    1    3    3    0    0 -0.36916925334E+01  0.22065913148E+02 -0.12438117045E+02  0.25597653656E+02  0.51100000000E-03 0.  1.
         12    1    3    3    0    0  0.73781205379E+01  0.19348728649E+02 -0.15565362492E+01  0.20766144758E+02  0.00000000000E+00 0. -1.
</event>
<event>
 7    1  0.1384886E-010  0.4778726E+02  0.7816164E-02  0.1312668E+00
        -11   -1    0    0    0    0  0.00000000000E+00  0.00000000000E+00  0.45593999997E+02  0.45594000000E+02  0.51100000000E-03 0. -1.
         11   -1    0    0    0    0 -0.00000000000E+00 -0.00000000000E+00 -0.45593999997E+02  0.45594000000E+02  0.51100000000E-03 0.  1.
    9900012    2    1    2    0    0 -0.13811262705E+02  0.36402597051E+01 -0.40983184930E+02  0.47787263655E+02  0.19999966310E+02 0.  0.
         12    1    1    2    0    0  0.13811262705E+02 -0.36402597051E+01  0.40983184930E+02  0.43400736345E+02  0.00000000000E+00 0. -1.
         11    1    3    3    0    0 -0.67983829658E+01  0.10134959247E+02 -0.25668318933E+02  0.28421787540E+02  0.51100000000E-03 0. -1.
        -11    1    3    3    0    0 -0.63686119547E+01 -0.26718577891E+01 -0.13323637546E+02  0.15007243584E+02  0.51100000000E-03 0.  1.
         12    1    3    3    0    0 -0.64426778501E+00 -0.38228417529E+01 -0.19912284513E+01  0.43582325307E+01  0.00000000000E+00 0. -1.
</event>
<event>
 7    1  0.1384886E-010  0.4778727E+02  0.7816164E-02  0.1312668E+00
        -11   -1    0    0    0    0  0.00000000000E+00  0.00000000000E+00  0.45593999997E+02  0.45594000000E+02  0.51100000000E-03 0.  1.
         11   -1    0    0    0    0 -0.00000000000E+00 -0.00000000000E+00 -0.45593999997E+02  0.45594000000E+02  0.51100000000E-03 0. -1.
    9900012    2    1    2    0    0 -0.13787795473E+02 -0.32552490659E+02  0.25176482602E+02  0.47787271569E+02  0.20000002393E+02 0.  0.
         12    1    1    2    0    0  0.13787795473E+02  0.32552490659E+02 -0.25176482602E+02  0.43400728431E+02  0.00000000000E+00 0. -1.
         11    1    3    3    0    0 -0.11503979506E+01 -0.11404289792E+02 -0.56516634465E+00  0.11476090552E+02  0.51100000000E-03 0.  1.
        -11    1    3    3    0    0 -0.59387714270E+01 -0.39115117501E+01  0.67945046071E+01  0.98353557816E+01  0.51100000000E-03 0. -1.
        -12    1    3    3    0    0 -0.66986260957E+01 -0.17236689118E+02  0.18947144339E+02  0.26475825236E+02  0.00000000000E+00 0.  1.
</event>
<event>
 7    1  0.1384886E-010  0.4778727E+02  0.7816164E-02  0.1312668E+00
        -11   -1    0    0    0    0  0.00000000000E+00  0.00000000000E+00  0.45593999997E+02  0.45594000000E+02  0.51100000000E-03 0. -1.
         11   -1    0    0    0    0 -0.00000000000E+00 -0.00000000000E+00 -0.45593999997E+02  0.45594000000E+02  0.51100000000E-03 0.  1.
    9900012    2    1    2    0    0 -0.53223781991E+01 -0.43038916257E+02  0.17168121503E+01  0.47787268829E+02  0.19999989898E+02 0.  0.
         12    1    1    2    0    0  0.53223781991E+01  0.43038916257E+02 -0.17168121503E+01  0.43400731171E+02  0.00000000000E+00 0. -1.
         11    1    3    3    0    0  0.18384237153E+01 -0.24695840884E+01  0.18072448592E+01  0.35699834129E+01  0.51100000000E-03 0. -1.
        -11    1    3    3    0    0 -0.91976219324E+01 -0.38551026914E+02  0.33078964833E+01  0.39770844909E+02  0.51100000000E-03 0.  1.
        -12    1    3    3    0    0  0.20368200181E+01 -0.20183052538E+01 -0.33983291922E+01  0.44464405069E+01  0.00000000000E+00 0.  1.
</event>
<event>
 7    1  0.1384886E-010  0.4778727E+02  0.7816164E-02  0.1312668E+00
        -11   -1    0    0    0    0  0.00000000000E+00  0.00000000000E+00  0.45593999997E+02  0.45594000000E+02  0.51100000000E-03 0.  1.
         11   -1    0    0    0    0 -0.00000000000E+00 -0.00000000000E+00 -0.45593999997E+02  0.45594000000E+02  0.51100000000E-03 0. -1.
    9900012    2    1    2    0    0 -0.22168047558E+02  0.20487229697E+02 -0.31184518108E+02  0.47787273246E+02  0.20000010036E+02 0.  0.
         12    1    1    2    0    0  0.22168047558E+02 -0.20487229697E+02  0.31184518108E+02  0.43400726754E+02  0.00000000000E+00 0. -1.
         11    1    3    3    0    0 -0.20764860578E+00  0.26982999049E+01 -0.61776422689E+01  0.67444202556E+01  0.51100000000E-03 0. -1.
        -11    1    3    3    0    0 -0.16625668324E+02  0.72066397944E+01 -0.68732374125E+01  0.19380141824E+02  0.51100000000E-03 0.  1.
        -12    1    3    3    0    0 -0.53347306282E+01  0.10582289998E+02 -0.18133638426E+02  0.21662711166E+02  0.00000000000E+00 0.  1.
</event>
<event>
 7    1  0.1384886E-010  0.4778728E+02  0.7816164E-02  0.1312668E+00
        -11   -1    0    0    0    0  0.00000000000E+00  0.00000000000E+00  0.45593999997E+02  0.45594000000E+02  0.51100000000E-03 0.  1.
         11   -1    0    0    0    0 -0.00000000000E+00 -0.00000000000E+00 -0.45593999997E+02  0.45594000000E+02  0.51100000000E-03 0. -1.
    9900012    2    1    2    0    0  0.17148126904E+02 -0.35914766417E+02 -0.17311669857E+02  0.47787278619E+02  0.20000034537E+02 0.  0.
         12    1    1    2    0    0 -0.17148126904E+02  0.35914766417E+02  0.17311669857E+02  0.43400721381E+02  0.00000000000E+00 0. -1.
         11    1    3    3    0    0  0.43440407760E+01 -0.83761765371E+00 -0.60489666906E+01  0.74941505110E+01  0.51100000000E-03 0. -1.
        -11    1    3    3    0    0  0.26781244937E+01 -0.14904671624E+02 -0.89823157999E+01  0.17606918652E+02  0.51100000000E-03 0.  1.
        -12    1    3    3    0    0  0.10125961634E+02 -0.20172477140E+02 -0.22803873666E+01  0.22686209457E+02  0.00000000000E+00 0.  1.
</event>
<event>
 7    1  0.1384886E-010  0.4778727E+02  0.7816164E-02  0.1312668E+00
        -11   -1    0    0    0    0  0.00000000000E+00  0.00000000000E+00  0.45593999997E+02  0.45594000000E+02  0.51100000000E-03 0.  1.
         11   -1    0    0    0    0 -0.00000000000E+00 -0.00000000000E+00 -0.45593999997E+02  0.45594000000E+02  0.51100000000E-03 0. -1.
    9900012    2    1    2    0    0 -0.11273499586E+02 -0.32163384555E+02  0.26870951849E+02  0.47787272446E+02  0.20000006391E+02 0.  0.
         12    1    1    2    0    0  0.11273499586E+02  0.32163384555E+02 -0.26870951849E+02  0.43400727554E+02  0.00000000000E+00 0. -1.
         11    1    3    3    0    0 -0.19280830638E+01  0.20360244612E+01 -0.63404696926E+00  0.28748766457E+01  0.51100000000E-03 0. -1.
        -11    1    3    3    0    0 -0.26662671910E+01 -0.10630110329E+02  0.95961265866E+01  0.14566875851E+02  0.51100000000E-03 0.  1.
         12    1    3    3    0    0 -0.66791493314E+01 -0.23569298687E+02  0.17908872231E+02  0.30345519949E+02  0.00000000000E+00 0. -1.
</event>
<event>
 7    1  0.1384886E-010  0.4778727E+02  0.7816164E-02  0.1312668E+00
        -11   -1    0    0    0    0  0.00000000000E+00  0.00000000000E+00  0.45593999997E+02  0.45594000000E+02  0.51100000000E-03 0.  1.
         11   -1    0    0    0    0 -0.00000000000E+00 -0.00000000000E+00 -0.45593999997E+02  0.45594000000E+02  0.51100000000E-03 0. -1.
    9900012    2    1    2    0    0  0.26086819025E+02  0.27380926823E+02  0.21292859767E+02  0.47787272384E+02  0.20000006107E+02 0.  0.
         12    1    1    2    0    0 -0.26086819025E+02 -0.27380926823E+02 -0.21292859767E+02  0.43400727616E+02  0.00000000000E+00 0. -1.
         11    1    3    3    0    0  0.10929822306E+02  0.11527603346E+02  0.50264583820E+00  0.15893373073E+02  0.51100000000E-03 0. -1.
        -11    1    3    3    0    0  0.47215583982E+01  0.96315423896E+01  0.46477203548E+01  0.11690210745E+02  0.51100000000E-03 0.  1.
         12    1    3    3    0    0  0.10435438321E+02  0.62217810874E+01  0.16142493574E+02  0.20203688565E+02  0.00000000000E+00 0. -1.
</event>
<event>
 7    1  0.1384886E-010  0.4778727E+02  0.7816164E-02  0.1312668E+00
        -11   -1    0    0    0    0  0.00000000000E+00  0.00000000000E+00  0.45593999997E+02  0.45594000000E+02  0.51100000000E-03 0.  1.
         11   -1    0    0    0    0 -0.00000000000E+00 -0.00000000000E+00 -0.45593999997E+02  0.45594000000E+02  0.51100000000E-03 0. -1.
    9900012    2    1    2    0    0 -0.22802201241E+02  0.10595873040E+02  0.35375276364E+02  0.47787273223E+02  0.20000009933E+02 0.  0.
         12    1    1    2    0    0  0.22802201241E+02 -0.10595873040E+02 -0.35375276364E+02  0.43400726777E+02  0.00000000000E+00 0. -1.
         11    1    3    3    0    0  0.18441515654E+01  0.10234756871E+01  0.22945200241E+00  0.21215668645E+01  0.51100000000E-03 0. -1.
        -11    1    3    3    0    0 -0.13784512388E+02  0.96508033878E+01  0.13985226902E+02  0.21880067632E+02  0.51100000000E-03 0.  1.
        -12    1    3    3    0    0 -0.10861840418E+02 -0.78406035038E-01  0.21160597460E+02  0.23785638726E+02  0.00000000000E+00 0.  1.
</event>
<event>
 7    1  0.1384886E-010  0.4778729E+02  0.7816164E-02  0.1312668E+00
        -11   -1    0    0    0    0  0.00000000000E+00  0.00000000000E+00  0.45593999997E+02  0.45594000000E+02  0.51100000000E-03 0.  1.
         11   -1    0    0    0    0 -0.00000000000E+00 -0.00000000000E+00 -0.45593999997E+02  0.45594000000E+02  0.51100000000E-03 0. -1.
    9900012    2    1    2    0    0 -0.42184859749E+02 -0.90693229801E+01  0.46697576166E+01  0.47787289780E+02  0.20000085425E+02 0.  0.
         12    1    1    2    0    0  0.42184859749E+02  0.90693229801E+01 -0.46697576166E+01  0.43400710220E+02  0.00000000000E+00 0. -1.
         11    1    3    3    0    0 -0.40445544508E+01  0.71571635676E+00  0.56993111923E+01  0.70251561503E+01  0.51100000000E-03 0.  1.
        -11    1    3    3    0    0 -0.89865707870E+01 -0.32596817310E+01 -0.47177344490E+01  0.10660253191E+02  0.51100000000E-03 0. -1.
        -12    1    3    3    0    0 -0.29153734511E+02 -0.65253576059E+01  0.36881808733E+01  0.30101880439E+02  0.00000000000E+00 0.  1.
</event>
<event>
 7    1  0.1384886E-010  0.4778728E+02  0.7816164E-02  0.1312668E+00
        -11   -1    0    0    0    0  0.00000000000E+00  0.00000000000E+00  0.45593999997E+02  0.45594000000E+02  0.51100000000E-03 0. -1.
         11   -1    0    0    0    0 -0.00000000000E+00 -0.00000000000E+00 -0.45593999997E+02  0.45594000000E+02  0.51100000000E-03 0.  1.
    9900012    2    1    2    0    0  0.28800349591E+02 -0.23525925579E+02 -0.22376179348E+02  0.47787277505E+02  0.20000029456E+02 0.  0.
         12    1    1    2    0    0 -0.28800349591E+02  0.23525925579E+02  0.22376179348E+02  0.43400722495E+02  0.00000000000E+00 0. -1.
         11    1    3    3    0    0  0.13973748822E+02 -0.13627713501E+02 -0.94386800036E+01  0.21681072664E+02  0.51100000000E-03 0.  1.
        -11    1    3    3    0    0  0.92999771459E+01 -0.18995888737E+01  0.51767889237E+00  0.95061035393E+01  0.51100000000E-03 0. -1.
         12    1    3    3    0    0  0.55266236228E+01 -0.79986232043E+01 -0.13455178236E+02  0.16600101301E+02  0.00000000000E+00 0. -1.
</event>
<event>
 7    1  0.1384886E-010  0.4778727E+02  0.7816164E-02  0.1312668E+00
        -11   -1    0    0    0    0  0.00000000000E+00  0.00000000000E+00  0.45593999997E+02  0.45594000000E+02  0.51100000000E-03 0. -1.
         11   -1    0    0    0    0 -0.00000000000E+00 -0.00000000000E+00 -0.45593999997E+02  0.45594000000E+02  0.51100000000E-03 0.  1.
    9900012    2    1    2    0    0 -0.25120792365E+02 -0.34606094919E+02 -0.74153389313E+01  0.47787271134E+02  0.20000000410E+02 0.  0.
         12    1    1    2    0    0  0.25120792365E+02  0.34606094919E+02  0.74153389313E+01  0.43400728866E+02  0.00000000000E+00 0. -1.
         11    1    3    3    0    0 -0.18090324805E+02 -0.17081262466E+02 -0.74007303824E+01  0.25957661479E+02  0.51100000000E-03 0. -1.
        -11    1    3    3    0    0 -0.32033678156E+00 -0.13221291997E+02 -0.25413863834E+01  0.13467138625E+02  0.51100000000E-03 0.  1.
         12    1    3    3    0    0 -0.67101307781E+01 -0.43035404556E+01  0.25267778344E+01  0.83624710306E+01  0.00000000000E+00 0. -1.
</event>
<event>
 7    1  0.1384886E-010  0.4778727E+02  0.7816164E-02  0.1312668E+00
        -11   -1    0    0    0    0  0.00000000000E+00  0.00000000000E+00  0.45593999997E+02  0.45594000000E+02  0.51100000000E-03 0.  1.
         11   -1    0    0    0    0 -0.00000000000E+00 -0.00000000000E+00 -0.45593999997E+02  0.45594000000E+02  0.51100000000E-03 0. -1.
    9900012    2    1    2    0    0  0.39957319619E+02 -0.29090137195E+01 -0.16690514260E+02  0.47787273990E+02  0.20000013431E+02 0.  0.
         12    1    1    2    0    0 -0.39957319619E+02  0.29090137195E+01  0.16690514260E+02  0.43400726010E+02  0.00000000000E+00 0. -1.
         11    1    3    3    0    0  0.14700910323E+02  0.12875680484E+01  0.28134678661E+01  0.15022988967E+02  0.51100000000E-03 0. -1.
        -11    1    3    3    0    0  0.10635088367E+02 -0.43149048538E+01 -0.64622919927E+01  0.13171360087E+02  0.51100000000E-03 0.  1.
         12    1    3    3    0    0  0.14621320928E+02  0.11832308590E+00 -0.13041690133E+02  0.19592924937E+02  0.00000000000E+00 0. -1.
</event>
<event>
 7    1  0.1384886E-010  0.4778727E+02  0.7816164E-02  0.1312668E+00
        -11   -1    0    0    0    0  0.00000000000E+00  0.00000000000E+00  0.45593999997E+02  0.45594000000E+02  0.51100000000E-03 0. -1.
         11   -1    0    0    0    0 -0.00000000000E+00 -0.00000000000E+00 -0.45593999997E+02  0.45594000000E+02  0.51100000000E-03 0.  1.
    9900012    2    1    2    0    0 -0.24369113898E+02  0.79999135931E+01 -0.35011013437E+02  0.47787269689E+02  0.19999993820E+02 0.  0.
         12    1    1    2    0    0  0.24369113898E+02 -0.79999135931E+01  0.35011013437E+02  0.43400730311E+02  0.00000000000E+00 0. -1.
         11    1    3    3    0    0 -0.41617105438E+00 -0.32308575291E+01 -0.46565478584E+01  0.56828757631E+01  0.51100000000E-03 0. -1.
        -11    1    3    3    0    0 -0.13951212426E+01  0.27852417739E+01 -0.10302994519E+02  0.10763625380E+02  0.51100000000E-03 0.  1.
         12    1    3    3    0    0 -0.22557821601E+02  0.84455293484E+01 -0.20051471060E+02  0.31340768545E+02  0.00000000000E+00 0. -1.
</event>
<event>
 7    1  0.1384886E-010  0.4778727E+02  0.7816164E-02  0.1312668E+00
        -11   -1    0    0    0    0  0.00000000000E+00  0.00000000000E+00  0.45593999997E+02  0.45594000000E+02  0.51100000000E-03 0.  1.
         11   -1    0    0    0    0 -0.00000000000E+00 -0.00000000000E+00 -0.45593999997E+02  0.45594000000E+02  0.51100000000E-03 0. -1.
    9900012    2    1    2    0    0  0.17072937117E+02  0.39727945624E+02  0.37186911911E+01  0.47787268330E+02  0.19999987625E+02 0.  0.
         12    1    1    2    0    0 -0.17072937117E+02 -0.39727945624E+02 -0.37186911911E+01  0.43400731670E+02  0.00000000000E+00 0. -1.
         11    1    3    3    0    0 -0.41609479134E+00  0.11037895857E+01 -0.17711299183E+01  0.21280008867E+01  0.51100000000E-03 0. -1.
        -11    1    3    3    0    0  0.11294292942E+02  0.22850904195E+02  0.11109732629E+02  0.27805593591E+02  0.51100000000E-03 0.  1.
         12    1    3    3    0    0  0.61947389659E+01  0.15773251843E+02 -0.56199115192E+01  0.17853673853E+02  0.00000000000E+00 0. -1.
</event>
<event>
 7    1  0.1384886E-010  0.4778727E+02  0.7816164E-02  0.1312668E+00
        -11   -1    0    0    0    0  0.00000000000E+00  0.00000000000E+00  0.45593999997E+02  0.45594000000E+02  0.51100000000E-03 0.  1.
         11   -1    0    0    0    0 -0.00000000000E+00 -0.00000000000E+00 -0.45593999997E+02  0.45594000000E+02  0.51100000000E-03 0. -1.
    9900012    2    1    2    0    0 -0.14942013413E+02 -0.19647242669E+02  0.35697979623E+02  0.47787266613E+02  0.19999979798E+02 0.  0.
         12    1    1    2    0    0  0.14942013413E+02  0.19647242669E+02 -0.35697979623E+02  0.43400733387E+02  0.00000000000E+00 0. -1.
         11    1    3    3    0    0 -0.37666020500E+01  0.23545950532E+00 -0.14259176447E+01  0.40343492130E+01  0.51100000000E-03 0.  1.
        -11    1    3    3    0    0 -0.24518949397E+01 -0.81774502811E+01  0.14563559805E+02  0.16881343441E+02  0.51100000000E-03 0. -1.
        -12    1    3    3    0    0 -0.87235164235E+01 -0.11705251893E+02  0.22560337462E+02  0.26871573960E+02  0.00000000000E+00 0.  1.
</event>
<event>
 7    1  0.1384886E-010  0.4778729E+02  0.7816164E-02  0.1312668E+00
        -11   -1    0    0    0    0  0.00000000000E+00  0.00000000000E+00  0.45593999997E+02  0.45594000000E+02  0.51100000000E-03 0.  1.
         11   -1    0    0    0    0 -0.00000000000E+00 -0.00000000000E+00 -0.45593999997E+02  0.45594000000E+02  0.51100000000E-03 0. -1.
    9900012    2    1    2    0    0 -0.33655747040E+02 -0.17550115744E+02  0.21045332599E+02  0.47787286922E+02  0.20000072392E+02 0.  0.
         12    1    1    2    0    0  0.33655747040E+02  0.17550115744E+02 -0.21045332599E+02  0.43400713078E+02  0.00000000000E+00 0. -1.
         11    1    3    3    0    0 -0.17219471602E+01 -0.54117796998E+01  0.12089980697E+01  0.58063877011E+01  0.51100000000E-03 0. -1.
        -11    1    3    3    0    0 -0.25162432270E+02 -0.13077993555E+02  0.20673170357E+02  0.35093616030E+02  0.51100000000E-03 0.  1.
         12    1    3    3    0    0 -0.67713676098E+01  0.93965751121E+00 -0.83683582758E+00  0.68872831907E+01  0.00000000000E+00 0. -1.
</event>
<event>
 7    1  0.1384886E-010  0.4778726E+02  0.7816164E-02  0.1312668E+00
        -11   -1    0    0    0    0  0.00000000000E+00  0.00000000000E+00  0.45593999997E+02  0.45594000000E+02  0.51100000000E-03 0. -1.
         11   -1    0    0    0    0 -0.00000000000E+00 -0.00000000000E+00 -0.45593999997E+02  0.45594000000E+02  0.51100000000E-03 0.  1.
    9900012    2    1    2    0    0  0.39324691970E+02  0.13942412051E+02 -0.11949971799E+02  0.47787261777E+02  0.19999957744E+02 0.  0.
         12    1    1    2    0    0 -0.39324691970E+02 -0.13942412051E+02  0.11949971799E+02  0.43400738223E+02  0.00000000000E+00 0. -1.
         11    1    3    3    0    0  0.51608985965E+01 -0.77060970138E+00  0.45531086270E+01  0.69252806488E+01  0.51100000000E-03 0. -1.
        -11    1    3    3    0    0  0.85150106538E+01  0.38532060603E+01 -0.59346522860E+01  0.11071255638E+02  0.51100000000E-03 0.  1.
         12    1    3    3    0    0  0.25648782720E+02  0.10859815692E+02 -0.10568428140E+02  0.29790725490E+02  0.00000000000E+00 0. -1.
</event>
<event>
 7    1  0.1384886E-010  0.4778727E+02  0.7816164E-02  0.1312668E+00
        -11   -1    0    0    0    0  0.00000000000E+00  0.00000000000E+00  0.45593999997E+02  0.45594000000E+02  0.51100000000E-03 0.  1.
         11   -1    0    0    0    0 -0.00000000000E+00 -0.00000000000E+00 -0.45593999997E+02  0.45594000000E+02  0.51100000000E-03 0. -1.
    9900012    2    1    2    0    0 -0.68489967910E+01  0.92573787554E+01  0.41845137258E+02  0.47787270391E+02  0.19999997021E+02 0.  0.
         12    1    1    2    0    0  0.68489967910E+01 -0.92573787554E+01 -0.41845137258E+02  0.43400729609E+02  0.00000000000E+00 0. -1.
         11    1    3    3    0    0  0.14303616857E+01  0.85570773678E+01  0.10764792707E+02  0.13825710467E+02  0.51100000000E-03 0. -1.
        -11    1    3    3    0    0  0.61020732759E+00 -0.19610710348E+01  0.16839209383E+02  0.16963994974E+02  0.51100000000E-03 0.  1.
         12    1    3    3    0    0 -0.88895658043E+01  0.26613724224E+01  0.14241135168E+02  0.16997564950E+02  0.00000000000E+00 0. -1.
</event>
<event>
 7    1  0.1384886E-010  0.4778727E+02  0.7816164E-02  0.1312668E+00
        -11   -1    0    0    0    0  0.00000000000E+00  0.00000000000E+00  0.45593999997E+02  0.45594000000E+02  0.51100000000E-03 0.  1.
         11   -1    0    0    0    0 -0.00000000000E+00 -0.00000000000E+00 -0.45593999997E+02  0.45594000000E+02  0.51100000000E-03 0. -1.
    9900012    2    1    2    0    0  0.18363466019E+02 -0.35002959843E+02  0.17922028827E+02  0.47787271904E+02  0.20000003917E+02 0.  0.
         12    1    1    2    0    0 -0.18363466019E+02  0.35002959843E+02 -0.17922028827E+02  0.43400728096E+02  0.00000000000E+00 0. -1.
         11    1    3    3    0    0 -0.21994417672E+01 -0.35467463040E+01  0.24969085760E+01  0.48632814159E+01  0.51100000000E-03 0. -1.
        -11    1    3    3    0    0  0.10826750558E+02 -0.57052331687E+01  0.71661724852E+01  0.14181757349E+02  0.51100000000E-03 0.  1.
        -12    1    3    3    0    0  0.97361572288E+01 -0.25750980370E+02  0.82589477658E+01  0.28742233139E+02  0.00000000000E+00 0.  1.
</event>
<event>
 7    1  0.1384886E-010  0.4778727E+02  0.7816164E-02  0.1312668E+00
        -11   -1    0    0    0    0  0.00000000000E+00  0.00000000000E+00  0.45593999997E+02  0.45594000000E+02  0.51100000000E-03 0.  1.
         11   -1    0    0    0    0 -0.00000000000E+00 -0.00000000000E+00 -0.45593999997E+02  0.45594000000E+02  0.51100000000E-03 0. -1.
    9900012    2    1    2    0    0 -0.39385071215E+02 -0.16891883890E+02 -0.68632413333E+01  0.47787266624E+02  0.19999979847E+02 0.  0.
         12    1    1    2    0    0  0.39385071215E+02  0.16891883890E+02  0.68632413333E+01  0.43400733376E+02  0.00000000000E+00 0. -1.
         11    1    3    3    0    0 -0.34049196975E+02 -0.14520839053E+02 -0.10884641383E+02  0.38583390205E+02  0.51100000000E-03 0. -1.
        -11    1    3    3    0    0 -0.15279275955E+01 -0.38091915861E+01  0.27466002711E+01  0.49384528536E+01  0.51100000000E-03 0.  1.
         12    1    3    3    0    0 -0.38079466442E+01  0.14381467486E+01  0.12747997788E+01  0.42654235653E+01  0.00000000000E+00 0. -1.
</event>
<event>
 7    1  0.1384886E-010  0.4778727E+02  0.7816164E-02  0.1312668E+00
        -11   -1    0    0    0    0  0.00000000000E+00  0.00000000000E+00  0.45593999997E+02  0.45594000000E+02  0.51100000000E-03 0. -1.
         11   -1    0    0    0    0 -0.00000000000E+00 -0.00000000000E+00 -0.45593999997E+02  0.45594000000E+02  0.51100000000E-03 0.  1.
    9900012    2    1    2    0    0 -0.78602752319E+01  0.50872509837E+01 -0.42378758784E+02  0.47787271373E+02  0.20000001496E+02 0.  0.
         12    1    1    2    0    0  0.78602752319E+01 -0.50872509837E+01  0.42378758784E+02  0.43400728627E+02  0.00000000000E+00 0. -1.
         11    1    3    3    0    0 -0.29537627761E+01  0.11853671631E+02 -0.30376425429E+02  0.32740822650E+02  0.51100000000E-03 0. -1.
        -11    1    3    3    0    0 -0.29205115389E+01 -0.34412247915E+01 -0.92579930403E+01  0.10299604415E+02  0.51100000000E-03 0.  1.
         12    1    3    3    0    0 -0.19860009169E+01 -0.33251958552E+01 -0.27443403148E+01  0.47468443076E+01  0.00000000000E+00 0. -1.
</event>
<event>
 7    1  0.1384886E-010  0.4778729E+02  0.7816164E-02  0.1312668E+00
        -11   -1    0    0    0    0  0.00000000000E+00  0.00000000000E+00  0.45593999997E+02  0.45594000000E+02  0.51100000000E-03 0. -1.
         11   -1    0    0    0    0 -0.00000000000E+00 -0.00000000000E+00 -0.45593999997E+02  0.45594000000E+02  0.51100000000E-03 0.  1.
    9900012    2    1    2    0    0 -0.20253295806E+02 -0.93011368909E+00 -0.38373955931E+02  0.47787290371E+02  0.20000088119E+02 0.  0.
         12    1    1    2    0    0  0.20253295806E+02  0.93011368909E+00  0.38373955931E+02  0.43400709629E+02  0.00000000000E+00 0. -1.
         11    1    3    3    0    0 -0.61543664135E+01 -0.18593308579E+01 -0.30439557780E+01  0.71132977044E+01  0.51100000000E-03 0. -1.
        -11    1    3    3    0    0  0.10375197798E+01 -0.40740315144E+01 -0.69279182104E+01  0.81037171141E+01  0.51100000000E-03 0.  1.
        -12    1    3    3    0    0 -0.15136449172E+02  0.50032486832E+01 -0.28402081943E+02  0.32570275553E+02  0.00000000000E+00 0.  1.
</event>
<event>
 7    1  0.1384886E-010  0.4778727E+02  0.7816164E-02  0.1312668E+00
        -11   -1    0    0    0    0  0.00000000000E+00  0.00000000000E+00  0.45593999997E+02  0.45594000000E+02  0.51100000000E-03 0. -1.
         11   -1    0    0    0    0 -0.00000000000E+00 -0.00000000000E+00 -0.45593999997E+02  0.45594000000E+02  0.51100000000E-03 0.  1.
    9900012    2    1    2    0    0 -0.98408596979E+01  0.29373547419E+02 -0.30396968658E+02  0.47787268311E+02  0.19999987535E+02 0.  0.
         12    1    1    2    0    0  0.98408596979E+01 -0.29373547419E+02  0.30396968658E+02  0.43400731689E+02  0.00000000000E+00 0. -1.
         11    1    3    3    0    0 -0.46605953266E+01  0.54646603236E+01 -0.17585430232E+02  0.18995552584E+02  0.51100000000E-03 0. -1.
        -11    1    3    3    0    0 -0.61823308820E+01  0.20755400513E+02 -0.13347952841E+02  0.25439648403E+02  0.51100000000E-03 0.  1.
        -12    1    3    3    0    0  0.10020665108E+01  0.31534865826E+01  0.53641441465E+00  0.33520673238E+01  0.00000000000E+00 0.  1.
</event>
<event>
 7    1  0.1384886E-010  0.4778727E+02  0.7816164E-02  0.1312668E+00
        -11   -1    0    0    0    0  0.00000000000E+00  0.00000000000E+00  0.45593999997E+02  0.45594000000E+02  0.51100000000E-03 0. -1.
         11   -1    0    0    0    0 -0.00000000000E+00 -0.00000000000E+00 -0.45593999997E+02  0.45594000000E+02  0.51100000000E-03 0.  1.
    9900012    2    1    2    0    0  0.24028938083E+02 -0.13572462121E+02 -0.33496592985E+02  0.47787270340E+02  0.19999996788E+02 0.  0.
         12    1    1    2    0    0 -0.24028938083E+02  0.13572462121E+02  0.33496592985E+02  0.43400729660E+02  0.00000000000E+00 0. -1.
         11    1    3    3    0    0  0.15534079174E+02 -0.10854410999E+02 -0.15263559980E+02  0.24333148531E+02  0.51100000000E-03 0.  1.
        -11    1    3    3    0    0  0.20067503684E+01  0.41220884649E+00  0.14396960260E+01  0.25039345204E+01  0.51100000000E-03 0. -1.
        -12    1    3    3    0    0  0.64881085411E+01 -0.31302599683E+01 -0.19672729031E+02  0.20950187288E+02  0.00000000000E+00 0.  1.
</event>
<event>
 7    1  0.1384886E-010  0.4778727E+02  0.7816164E-02  0.1312668E+00
        -11   -1    0    0    0    0  0.00000000000E+00  0.00000000000E+00  0.45593999997E+02  0.45594000000E+02  0.51100000000E-03 0. -1.
         11   -1    0    0    0    0 -0.00000000000E+00 -0.00000000000E+00 -0.45593999997E+02  0.45594000000E+02  0.51100000000E-03 0.  1.
    9900012    2    1    2    0    0 -0.31398226828E+02  0.16724157446E+02 -0.24861159368E+02  0.47787270336E+02  0.19999996770E+02 0.  0.
         12    1    1    2    0    0  0.31398226828E+02 -0.16724157446E+02  0.24861159368E+02  0.43400729664E+02  0.00000000000E+00 0. -1.
         11    1    3    3    0    0 -0.21451053807E+02  0.91755423309E+01 -0.10215787474E+02  0.25469601498E+02  0.51100000000E-03 0. -1.
        -11    1    3    3    0    0 -0.10714531326E+02  0.91841339848E+01 -0.14866188757E+02  0.20497635644E+02  0.51100000000E-03 0.  1.
        -12    1    3    3    0    0  0.76735830449E+00 -0.16355188696E+01  0.22081686263E+00  0.18200331939E+01  0.00000000000E+00 0.  1.
</event>
<event>
 7    1  0.1384886E-010  0.4778727E+02  0.7816164E-02  0.1312668E+00
        -11   -1    0    0    0    0  0.00000000000E+00  0.00000000000E+00  0.45593999997E+02  0.45594000000E+02  0.51100000000E-03 0. -1.
         11   -1    0    0    0    0 -0.00000000000E+00 -0.00000000000E+00 -0.45593999997E+02  0.45594000000E+02  0.51100000000E-03 0.  1.
    9900012    2    1    2    0    0 -0.18361615433E+02  0.29161282498E+02 -0.26383593435E+02  0.47787270504E+02  0.19999997538E+02 0.  0.
         12    1    1    2    0    0  0.18361615433E+02 -0.29161282498E+02  0.26383593435E+02  0.43400729496E+02  0.00000000000E+00 0. -1.
         11    1    3    3    0    0 -0.11315673205E+02  0.15696486969E+02 -0.16523854549E+02  0.25445273287E+02  0.51100000000E-03 0. -1.
        -11    1    3    3    0    0 -0.10011838740E+02  0.13795183840E+02 -0.87316926979E+01  0.19151670156E+02  0.51100000000E-03 0.  1.
         12    1    3    3    0    0  0.29658965121E+01 -0.33038831085E+00 -0.11280461876E+01  0.31903270612E+01  0.00000000000E+00 0. -1.
</event>
<event>
 7    1  0.1384886E-010  0.4778727E+02  0.7816164E-02  0.1312668E+00
        -11   -1    0    0    0    0  0.00000000000E+00  0.00000000000E+00  0.45593999997E+02  0.45594000000E+02  0.51100000000E-03 0.  1.
         11   -1    0    0    0    0 -0.00000000000E+00 -0.00000000000E+00 -0.45593999997E+02  0.45594000000E+02  0.51100000000E-03 0. -1.
    9900012    2    1    2    0    0  0.13694433994E+02 -0.39485808237E+02  0.11702868915E+02  0.47787265958E+02  0.19999976808E+02 0.  0.
         12    1    1    2    0    0 -0.13694433994E+02  0.39485808237E+02 -0.11702868915E+02  0.43400734042E+02  0.00000000000E+00 0. -1.
         11    1    3    3    0    0  0.13061516070E+02 -0.18981775601E+02  0.42185202639E+01  0.23424494029E+02  0.51100000000E-03 0. -1.
        -11    1    3    3    0    0 -0.38139323563E+00 -0.14180153809E+02  0.10132245222E+02  0.17432286607E+02  0.51100000000E-03 0.  1.
         12    1    3    3    0    0  0.10143111592E+01 -0.63238788265E+01 -0.26478965712E+01  0.69304853215E+01  0.00000000000E+00 0. -1.
</event>
<event>
 7    1  0.1384886E-010  0.4778727E+02  0.7816164E-02  0.1312668E+00
        -11   -1    0    0    0    0  0.00000000000E+00  0.00000000000E+00  0.45593999997E+02  0.45594000000E+02  0.51100000000E-03 0.  1.
         11   -1    0    0    0    0 -0.00000000000E+00 -0.00000000000E+00 -0.45593999997E+02  0.45594000000E+02  0.51100000000E-03 0. -1.
    9900012    2    1    2    0    0 -0.39850867102E+02  0.83670390551E+01  0.15017465578E+02  0.47787271623E+02  0.20000002636E+02 0.  0.
         12    1    1    2    0    0  0.39850867102E+02 -0.83670390551E+01 -0.15017465578E+02  0.43400728377E+02  0.00000000000E+00 0. -1.
         11    1    3    3    0    0 -0.16027459729E+01  0.23234050375E+01  0.53426962092E+01  0.60424671010E+01  0.51100000000E-03 0. -1.
        -11    1    3    3    0    0 -0.11047229597E+02  0.74890004601E+01  0.25297565745E+01  0.13584037627E+02  0.51100000000E-03 0.  1.
         12    1    3    3    0    0 -0.27200891531E+02 -0.14453664424E+01  0.71450127941E+01  0.28160766894E+02  0.00000000000E+00 0. -1.
</event>
<event>
 7    1  0.1384886E-010  0.4778727E+02  0.7816164E-02  0.1312668E+00
        -11   -1    0    0    0    0  0.00000000000E+00  0.00000000000E+00  0.45593999997E+02  0.45594000000E+02  0.51100000000E-03 0.  1.
         11   -1    0    0    0    0 -0.00000000000E+00 -0.00000000000E+00 -0.45593999997E+02  0.45594000000E+02  0.51100000000E-03 0. -1.
    9900012    2    1    2    0    0 -0.38758655739E+02  0.17128215850E+02  0.93816041979E+01  0.47787266478E+02  0.19999979181E+02 0.  0.
         12    1    1    2    0    0  0.38758655739E+02 -0.17128215850E+02 -0.93816041979E+01  0.43400733522E+02  0.00000000000E+00 0. -1.
         11    1    3    3    0    0  0.15697811958E+01 -0.86106328721E+00 -0.17828395133E+00  0.17992855292E+01  0.51100000000E-03 0. -1.
        -11    1    3    3    0    0 -0.20884494045E+02  0.59151038813E+01  0.16370037783E+01  0.21767644040E+02  0.51100000000E-03 0.  1.
        -12    1    3    3    0    0 -0.19443942890E+02  0.12074175256E+02  0.79228843709E+01  0.24220336909E+02  0.00000000000E+00 0.  1.
</event>
<event>
 7    1  0.1384886E-010  0.4778727E+02  0.7816164E-02  0.1312668E+00
        -11   -1    0    0    0    0  0.00000000000E+00  0.00000000000E+00  0.45593999997E+02  0.45594000000E+02  0.51100000000E-03 0.  1.
         11   -1    0    0    0    0 -0.00000000000E+00 -0.00000000000E+00 -0.45593999997E+02  0.45594000000E+02  0.51100000000E-03 0. -1.
    9900012    2    1    2    0    0 -0.41118265277E+02 -0.95258165154E+01  0.10107929153E+02  0.47787272455E+02  0.20000006430E+02 0.  0.
         12    1    1    2    0    0  0.41118265277E+02  0.95258165154E+01 -0.10107929153E+02  0.43400727545E+02  0.00000000000E+00 0. -1.
         11    1    3    3    0    0  0.21783002175E+00 -0.11879697914E+01  0.32822771363E+01  0.34974370051E+01  0.51100000000E-03 0. -1.
        -11    1    3    3    0    0 -0.13805177772E+02 -0.30495217219E+01 -0.32379626142E+01  0.14504031101E+02  0.51100000000E-03 0.  1.
        -12    1    3    3    0    0 -0.27530917527E+02 -0.52883250020E+01  0.10063614631E+02  0.29785804348E+02  0.00000000000E+00 0.  1.
</event>
<event>
 7    1  0.1384886E-010  0.4778727E+02  0.7816164E-02  0.1312668E+00
        -11   -1    0    0    0    0  0.00000000000E+00  0.00000000000E+00  0.45593999997E+02  0.45594000000E+02  0.51100000000E-03 0.  1.
         11   -1    0    0    0    0 -0.00000000000E+00 -0.00000000000E+00 -0.45593999997E+02  0.45594000000E+02  0.51100000000E-03 0. -1.
    9900012    2    1    2    0    0  0.43120474646E+02  0.40859702753E+01 -0.27482783409E+01  0.47787268202E+02  0.19999987039E+02 0.  0.
         12    1    1    2    0    0 -0.43120474646E+02 -0.40859702753E+01  0.27482783409E+01  0.43400731798E+02  0.00000000000E+00 0. -1.
         11    1    3    3    0    0  0.23545977237E+01  0.26827945389E+01 -0.44192229104E+01  0.56807612493E+01  0.51100000000E-03 0. -1.
        -11    1    3    3    0    0  0.12453528143E+02 -0.41845049373E+01  0.17057235676E+01  0.13248016378E+02  0.51100000000E-03 0.  1.
        -12    1    3    3    0    0  0.28312348779E+02  0.55876806736E+01 -0.34778998149E-01  0.28858490575E+02  0.00000000000E+00 0.  1.
</event>
<event>
 7    1  0.1384886E-010  0.4778729E+02  0.7816164E-02  0.1312668E+00
        -11   -1    0    0    0    0  0.00000000000E+00  0.00000000000E+00  0.45593999997E+02  0.45594000000E+02  0.51100000000E-03 0.  1.
         11   -1    0    0    0    0 -0.00000000000E+00 -0.00000000000E+00 -0.45593999997E+02  0.45594000000E+02  0.51100000000E-03 0. -1.
    9900012    2    1    2    0    0 -0.24967342834E+02  0.14215182373E+02  0.32529707133E+02  0.47787291892E+02  0.20000095053E+02 0.  0.
         12    1    1    2    0    0  0.24967342834E+02 -0.14215182373E+02 -0.32529707133E+02  0.43400708108E+02  0.00000000000E+00 0. -1.
         11    1    3    3    0    0 -0.48130288695E+01  0.19739994906E+01 -0.28523094469E+00  0.52099210974E+01  0.51100000000E-03 0. -1.
        -11    1    3    3    0    0 -0.12368702069E+02  0.58571923811E+01  0.28515467006E+02  0.31629469681E+02  0.51100000000E-03 0.  1.
         12    1    3    3    0    0 -0.77856118950E+01  0.63839905013E+01  0.42994710718E+01  0.10947901114E+02  0.00000000000E+00 0. -1.
</event>
<event>
 7    1  0.1384886E-010  0.4778725E+02  0.7816164E-02  0.1312668E+00
        -11   -1    0    0    0    0  0.00000000000E+00  0.00000000000E+00  0.45593999997E+02  0.45594000000E+02  0.51100000000E-03 0. -1.
         11   -1    0    0    0    0 -0.00000000000E+00 -0.00000000000E+00 -0.45593999997E+02  0.45594000000E+02  0.51100000000E-03 0.  1.
    9900012    2    1    2    0    0 -0.43133749000E+02  0.48023977534E+01  0.20442278436E+00  0.47787249826E+02  0.19999903259E+02 0.  0.
         12    1    1    2    0    0  0.43133749000E+02 -0.48023977534E+01 -0.20442278436E+00  0.43400750174E+02  0.00000000000E+00 0. -1.
         11    1    3    3    0    0 -0.43567514002E+01  0.46032389556E+01  0.21617177325E+01  0.66965749052E+01  0.51100000000E-03 0. -1.
        -11    1    3    3    0    0 -0.38285025164E+02  0.97825482436E+00  0.67322997910E+00  0.38303438137E+02  0.51100000000E-03 0.  1.
         12    1    3    3    0    0 -0.49197243594E+00 -0.77909602654E+00 -0.26305249273E+01  0.27872367839E+01  0.00000000000E+00 0. -1.
</event>
<event>
 7    1  0.1384886E-010  0.4778727E+02  0.7816164E-02  0.1312668E+00
        -11   -1    0    0    0    0  0.00000000000E+00  0.00000000000E+00  0.45593999997E+02  0.45594000000E+02  0.51100000000E-03 0.  1.
         11   -1    0    0    0    0 -0.00000000000E+00 -0.00000000000E+00 -0.45593999997E+02  0.45594000000E+02  0.51100000000E-03 0. -1.
    9900012    2    1    2    0    0  0.33905234260E+02 -0.20984003971E+02  0.17138550838E+02  0.47787271231E+02  0.20000000851E+02 0.  0.
         12    1    1    2    0    0 -0.33905234260E+02  0.20984003971E+02 -0.17138550838E+02  0.43400728769E+02  0.00000000000E+00 0. -1.
         11    1    3    3    0    0  0.58255787332E+01 -0.84137247997E+01  0.27026784398E+01  0.10584545507E+02  0.51100000000E-03 0. -1.
        -11    1    3    3    0    0  0.19024056369E+02 -0.58154520014E+01  0.16343033665E+02  0.25745464694E+02  0.51100000000E-03 0.  1.
        -12    1    3    3    0    0  0.90555991578E+01 -0.67548271699E+01 -0.19071612668E+01  0.11457261030E+02  0.00000000000E+00 0.  1.
</event>
<event>
 7    1  0.1384886E-010  0.4778727E+02  0.7816164E-02  0.1312668E+00
        -11   -1    0    0    0    0  0.00000000000E+00  0.00000000000E+00  0.45593999997E+02  0.45594000000E+02  0.51100000000E-03 0. -1.
         11   -1    0    0    0    0 -0.00000000000E+00 -0.00000000000E+00 -0.45593999997E+02  0.45594000000E+02  0.51100000000E-03 0.  1.
    9900012    2    1    2    0    0  0.37794485154E+02  0.18834006439E+02 -0.10023986540E+02  0.47787271749E+02  0.20000003213E+02 0.  0.
         12    1    1    2    0    0 -0.37794485154E+02 -0.18834006439E+02  0.10023986540E+02  0.43400728251E+02  0.00000000000E+00 0. -1.
         11    1    3    3    0    0  0.20768189676E+02  0.12789139126E+02 -0.91118320172E+01  0.26036613930E+02  0.51100000000E-03 0. -1.
        -11    1    3    3    0    0  0.12912316007E+02  0.87949643334E+00 -0.51225253943E+01  0.13919112232E+02  0.51100000000E-03 0.  1.
         12    1    3    3    0    0  0.41139794711E+01  0.51653708790E+01  0.42103708717E+01  0.78315455871E+01  0.00000000000E+00 0. -1.
</event>
<event>
 7    1  0.1384886E-010  0.4778727E+02  0.7816164E-02  0.1312668E+00
        -11   -1    0    0    0    0  0.00000000000E+00  0.00000000000E+00  0.45593999997E+02  0.45594000000E+02  0.51100000000E-03 0.  1.
         11   -1    0    0    0    0 -0.00000000000E+00 -0.00000000000E+00 -0.45593999997E+02  0.45594000000E+02  0.51100000000E-03 0. -1.
    9900012    2    1    2    0    0  0.17951880067E+02 -0.38982202344E+02  0.64607334586E+01  0.47787272191E+02  0.20000005228E+02 0.  0.
         12    1    1    2    0    0 -0.17951880067E+02  0.38982202344E+02 -0.64607334586E+01  0.43400727809E+02  0.00000000000E+00 0. -1.
         11    1    3    3    0    0  0.97500618390E+00  0.81669242735E+00  0.13655469224E+01  0.18661034907E+01  0.51100000000E-03 0. -1.
        -11    1    3    3    0    0 -0.29506803353E+00 -0.69118056901E+00  0.30273000838E+01  0.31191892827E+01  0.51100000000E-03 0.  1.
        -12    1    3    3    0    0  0.17271941916E+02 -0.39107714202E+02  0.20678864524E+01  0.42801979418E+02  0.00000000000E+00 0.  1.
</event>
<event>
 7    1  0.1384886E-010  0.4778726E+02  0.7816164E-02  0.1312668E+00
        -11   -1    0    0    0    0  0.00000000000E+00  0.00000000000E+00  0.45593999997E+02  0.45594000000E+02  0.51100000000E-03 0. -1.
         11   -1    0    0    0    0 -0.00000000000E+00 -0.00000000000E+00 -0.45593999997E+02  0.45594000000E+02  0.51100000000E-03 0.  1.
    9900012    2    1    2    0    0 -0.36291256911E+02 -0.12039408165E+02 -0.20533423683E+02  0.47787260775E+02  0.19999953178E+02 0.  0.
         12    1    1    2    0    0  0.36291256911E+02  0.12039408165E+02  0.20533423683E+02  0.43400739225E+02  0.00000000000E+00 0. -1.
         11    1    3    3    0    0  0.65285492116E+00  0.38462027479E+00  0.20992228579E+01  0.22317905753E+01  0.51100000000E-03 0. -1.
        -11    1    3    3    0    0 -0.23701972808E+02 -0.60226177220E+01 -0.11058064847E+02  0.26839080417E+02  0.51100000000E-03 0.  1.
         12    1    3    3    0    0 -0.13242139024E+02 -0.64014107176E+01 -0.11574581694E+02  0.18716389783E+02  0.00000000000E+00 0. -1.
</event>
<event>
 7    1  0.1384886E-010  0.4778728E+02  0.7816164E-02  0.1312668E+00
        -11   -1    0    0    0    0  0.00000000000E+00  0.00000000000E+00  0.45593999997E+02  0.45594000000E+02  0.51100000000E-03 0.  1.
         11   -1    0    0    0    0 -0.00000000000E+00 -0.00000000000E+00 -0.45593999997E+02  0.45594000000E+02  0.51100000000E-03 0. -1.
    9900012    2    1    2    0    0  0.33665219447E+02 -0.16030175048E+02  0.22210565085E+02  0.47787277496E+02  0.20000029415E+02 0.  0.
         12    1    1    2    0    0 -0.33665219447E+02  0.16030175048E+02 -0.22210565085E+02  0.43400722504E+02  0.00000000000E+00 0. -1.
         11    1    3    3    0    0  0.70520470694E+01 -0.31861076187E+01 -0.17334201438E+01  0.79301573303E+01  0.51100000000E-03 0. -1.
        -11    1    3    3    0    0  0.13454340038E+02 -0.41942478711E+01  0.18368658811E+02  0.23152075670E+02  0.51100000000E-03 0.  1.
         12    1    3    3    0    0  0.13158832340E+02 -0.86498195577E+01  0.55753264171E+01  0.16705044495E+02  0.00000000000E+00 0. -1.
</event>
<event>
 7    1  0.1384886E-010  0.4778728E+02  0.7816164E-02  0.1312668E+00
        -11   -1    0    0    0    0  0.00000000000E+00  0.00000000000E+00  0.45593999997E+02  0.45594000000E+02  0.51100000000E-03 0.  1.
         11   -1    0    0    0    0 -0.00000000000E+00 -0.00000000000E+00 -0.45593999997E+02  0.45594000000E+02  0.51100000000E-03 0. -1.
    9900012    2    1    2    0    0 -0.41267292727E+02  0.69536522246E+01 -0.11501310384E+02  0.47787275711E+02  0.20000021275E+02 0.  0.
         12    1    1    2    0    0  0.41267292727E+02 -0.69536522246E+01  0.11501310384E+02  0.43400724289E+02  0.00000000000E+00 0. -1.
         11    1    3    3    0    0 -0.21484838529E+02  0.53120470329E+01 -0.12172262105E+01  0.22165237878E+02  0.51100000000E-03 0.  1.
        -11    1    3    3    0    0 -0.11032719396E+02 -0.16982835331E+01 -0.11676240115E+02  0.16153626457E+02  0.51100000000E-03 0. -1.
         12    1    3    3    0    0 -0.87497348018E+01  0.33398887248E+01  0.13921559415E+01  0.94684113747E+01  0.00000000000E+00 0. -1.
</event>
<event>
 7    1  0.1599896E-010  0.4778726E+02  0.7816164E-02  0.1312668E+00
        -11   -1    0    0    0    0  0.00000000000E+00  0.00000000000E+00  0.45593999997E+02  0.45594000000E+02  0.51100000000E-03 0.  1.
         11   -1    0    0    0    0 -0.00000000000E+00 -0.00000000000E+00 -0.45593999997E+02  0.45594000000E+02  0.51100000000E-03 0. -1.
    9900012    2    1    2    0    0 -0.40677338662E+02  0.47052130326E+01 -0.14381897956E+02  0.47787263841E+02  0.19999967158E+02 0.  0.
         12    1    1    2    0    0  0.40677338662E+02 -0.47052130326E+01  0.14381897956E+02  0.43400736159E+02  0.00000000000E+00 0. -1.
         11    1    3    3    0    0 -0.13706676164E+01  0.19231228118E+01  0.26692046940E+01  0.35639563723E+01  0.51100000000E-03 0. -1.
        -11    1    3    3    0    0 -0.96203084784E+01  0.10739045239E+01 -0.94582558504E+01  0.13533743390E+02  0.51100000000E-03 0.  1.
        -12    1    3    3    0    0 -0.29686362567E+02  0.17081856969E+01 -0.75928467994E+01  0.30689564079E+02  0.00000000000E+00 0.  1.
</event>
<event>
 7    1  0.1384886E-010  0.4778727E+02  0.7816164E-02  0.1312668E+00
        -11   -1    0    0    0    0  0.00000000000E+00  0.00000000000E+00  0.45593999997E+02  0.45594000000E+02  0.51100000000E-03 0.  1.
         11   -1    0    0    0    0 -0.00000000000E+00 -0.00000000000E+00 -0.45593999997E+02  0.45594000000E+02  0.51100000000E-03 0. -1.
    9900012    2    1    2    0    0  0.19304307845E+02 -0.27903726212E+01  0.38770873785E+02  0.47787272647E+02  0.20000007308E+02 0.  0.
         12    1    1    2    0    0 -0.19304307845E+02  0.27903726212E+01 -0.38770873785E+02  0.43400727353E+02  0.00000000000E+00 0. -1.
         11    1    3    3    0    0  0.45651479375E+01 -0.65384911535E+01  0.47546868808E+01  0.92843680373E+01  0.51100000000E-03 0.  1.
        -11    1    3    3    0    0  0.79234413603E+01  0.40992242945E+01  0.94049629421E+01  0.12962942992E+02  0.51100000000E-03 0. -1.
         12    1    3    3    0    0  0.68157185469E+01 -0.35110576214E+00  0.24611223962E+02  0.25539961618E+02  0.00000000000E+00 0. -1.
</event>
<event>
 7    1  0.1384886E-010  0.4778727E+02  0.7816164E-02  0.1312668E+00
        -11   -1    0    0    0    0  0.00000000000E+00  0.00000000000E+00  0.45593999997E+02  0.45594000000E+02  0.51100000000E-03 0. -1.
         11   -1    0    0    0    0 -0.00000000000E+00 -0.00000000000E+00 -0.45593999997E+02  0.45594000000E+02  0.51100000000E-03 0.  1.
    9900012    2    1    2    0    0 -0.41252596365E+02  0.52117329382E+01 -0.12437210321E+02  0.47787273420E+02  0.20000010831E+02 0.  0.
         12    1    1    2    0    0  0.41252596365E+02 -0.52117329382E+01  0.12437210321E+02  0.43400726580E+02  0.00000000000E+00 0. -1.
         11    1    3    3    0    0 -0.16538411348E+02  0.47146613388E+01 -0.26331020776E+01  0.17397709857E+02  0.51100000000E-03 0. -1.
        -11    1    3    3    0    0 -0.18253677735E+02 -0.63493804316E+01 -0.71822597203E+01  0.20617862103E+02  0.51100000000E-03 0.  1.
         12    1    3    3    0    0 -0.64605072819E+01  0.68464520310E+01 -0.26218485227E+01  0.97717014603E+01  0.00000000000E+00 0. -1.
</event>
<event>
 7    1  0.1384886E-010  0.4778727E+02  0.7816164E-02  0.1312668E+00
        -11   -1    0    0    0    0  0.00000000000E+00  0.00000000000E+00  0.45593999997E+02  0.45594000000E+02  0.51100000000E-03 0. -1.
         11   -1    0    0    0    0 -0.00000000000E+00 -0.00000000000E+00 -0.45593999997E+02  0.45594000000E+02  0.51100000000E-03 0.  1.
    9900012    2    1    2    0    0  0.34932952401E+02 -0.13907795107E+02 -0.21676831987E+02  0.47787274508E+02  0.20000015793E+02 0.  0.
         12    1    1    2    0    0 -0.34932952401E+02  0.13907795107E+02  0.21676831987E+02  0.43400725492E+02  0.00000000000E+00 0. -1.
         11    1    3    3    0    0  0.90293972459E+01 -0.21095419798E+01 -0.31637448426E+01  0.97974212770E+01  0.51100000000E-03 0. -1.
        -11    1    3    3    0    0  0.28366578043E+02 -0.10389026505E+02 -0.15927273849E+02  0.34150734606E+02  0.51100000000E-03 0.  1.
         12    1    3    3    0    0 -0.24630228880E+01 -0.14092266218E+01 -0.25858132956E+01  0.38391186252E+01  0.00000000000E+00 0. -1.
</event>
<event>
 7    1  0.1384886E-010  0.4778727E+02  0.7816164E-02  0.1312668E+00
        -11   -1    0    0    0    0  0.00000000000E+00  0.00000000000E+00  0.45593999997E+02  0.45594000000E+02  0.51100000000E-03 0.  1.
         11   -1    0    0    0    0 -0.00000000000E+00 -0.00000000000E+00 -0.45593999997E+02  0.45594000000E+02  0.51100000000E-03 0. -1.
    9900012    2    1    2    0    0  0.33892531403E+02 -0.56166084454E+01  0.26521183284E+02  0.47787272608E+02  0.20000007130E+02 0.  0.
         12    1    1    2    0    0 -0.33892531403E+02  0.56166084454E+01 -0.26521183284E+02  0.43400727392E+02  0.00000000000E+00 0. -1.
         11    1    3    3    0    0  0.29792988449E+01 -0.47248705392E+01  0.33544868099E+01  0.65156124223E+01  0.51100000000E-03 0. -1.
        -11    1    3    3    0    0  0.71954517179E+01 -0.33357126774E+01 -0.13593601451E+00  0.79322117566E+01  0.51100000000E-03 0.  1.
        -12    1    3    3    0    0  0.23717780840E+02  0.24439747712E+01  0.23302632488E+02  0.33339448429E+02  0.00000000000E+00 0.  1.
</event>
<event>
 7    1  0.1384886E-010  0.4778727E+02  0.7816164E-02  0.1312668E+00
        -11   -1    0    0    0    0  0.00000000000E+00  0.00000000000E+00  0.45593999997E+02  0.45594000000E+02  0.51100000000E-03 0.  1.
         11   -1    0    0    0    0 -0.00000000000E+00 -0.00000000000E+00 -0.45593999997E+02  0.45594000000E+02  0.51100000000E-03 0. -1.
    9900012    2    1    2    0    0 -0.25601434165E+02 -0.35007671741E+02 -0.16287785675E+01  0.47787269227E+02  0.19999991714E+02 0.  0.
         12    1    1    2    0    0  0.25601434165E+02  0.35007671741E+02  0.16287785675E+01  0.43400730773E+02  0.00000000000E+00 0. -1.
         11    1    3    3    0    0 -0.85184526316E+01 -0.62161560855E+01 -0.18463549415E+01  0.10705776877E+02  0.51100000000E-03 0. -1.
        -11    1    3    3    0    0 -0.86783923664E+01 -0.24474107825E+02  0.50732834438E+01  0.26458167984E+02  0.51100000000E-03 0.  1.
        -12    1    3    3    0    0 -0.84045891668E+01 -0.43174078297E+01 -0.48557070698E+01  0.10623324366E+02  0.00000000000E+00 0.  1.
</event>
<event>
 7    1  0.1384886E-010  0.4778727E+02  0.7816164E-02  0.1312668E+00
        -11   -1    0    0    0    0  0.00000000000E+00  0.00000000000E+00  0.45593999997E+02  0.45594000000E+02  0.51100000000E-03 0.  1.
         11   -1    0    0    0    0 -0.00000000000E+00 -0.00000000000E+00 -0.45593999997E+02  0.45594000000E+02  0.51100000000E-03 0. -1.
    9900012    2    1    2    0    0  0.51785680348E+01  0.66713928433E+01  0.42571097057E+02  0.47787270121E+02  0.19999995789E+02 0.  0.
         12    1    1    2    0    0 -0.51785680348E+01 -0.66713928433E+01 -0.42571097057E+02  0.43400729879E+02  0.00000000000E+00 0. -1.
         11    1    3    3    0    0  0.11575692187E+01  0.51280452459E+00  0.16961010955E+02  0.17008198842E+02  0.51100000000E-03 0. -1.
        -11    1    3    3    0    0  0.10553739607E+01 -0.22283557851E+01 -0.10455809614E+01  0.26781754069E+01  0.51100000000E-03 0.  1.
         12    1    3    3    0    0  0.29656248554E+01  0.83869441039E+01  0.26655667064E+02  0.28100895872E+02  0.00000000000E+00 0. -1.
</event>
<event>
 7    1  0.1384886E-010  0.4778727E+02  0.7816164E-02  0.1312668E+00
        -11   -1    0    0    0    0  0.00000000000E+00  0.00000000000E+00  0.45593999997E+02  0.45594000000E+02  0.51100000000E-03 0.  1.
         11   -1    0    0    0    0 -0.00000000000E+00 -0.00000000000E+00 -0.45593999997E+02  0.45594000000E+02  0.51100000000E-03 0. -1.
    9900012    2    1    2    0    0 -0.15819265896E+02 -0.15862078882E+02  0.37172144254E+02  0.47787273873E+02  0.20000012895E+02 0.  0.
         12    1    1    2    0    0  0.15819265896E+02  0.15862078882E+02 -0.37172144254E+02  0.43400726127E+02  0.00000000000E+00 0. -1.
         11    1    3    3    0    0 -0.82735873307E+01 -0.18920013250E+01  0.10196047518E+02  0.13266171323E+02  0.51100000000E-03 0. -1.
        -11    1    3    3    0    0  0.24560802329E+01 -0.18669296760E+01  0.13443784619E+02  0.13793226659E+02  0.51100000000E-03 0.  1.
         12    1    3    3    0    0 -0.10001758798E+02 -0.12103147881E+02  0.13532312118E+02  0.20727875891E+02  0.00000000000E+00 0. -1.
</event>
<event>
 7    1  0.1906243E-010  0.4778727E+02  0.7816164E-02  0.1312668E+00
        -11   -1    0    0    0    0  0.00000000000E+00  0.00000000000E+00  0.45593999997E+02  0.45594000000E+02  0.51100000000E-03 0. -1.
         11   -1    0    0    0    0 -0.00000000000E+00 -0.00000000000E+00 -0.45593999997E+02  0.45594000000E+02  0.51100000000E-03 0.  1.
    9900012    2    1    2    0    0 -0.12769202708E+02 -0.25375772649E+02 -0.32812206579E+02  0.47787271021E+02  0.19999999893E+02 0.  0.
         12    1    1    2    0    0  0.12769202708E+02  0.25375772649E+02  0.32812206579E+02  0.43400728979E+02  0.00000000000E+00 0. -1.
         11    1    3    3    0    0 -0.37817674997E+01 -0.13198220137E+01 -0.17352123397E+01  0.43651641086E+01  0.51100000000E-03 0. -1.
        -11    1    3    3    0    0 -0.22240958045E+00 -0.20830199765E+02 -0.19364898096E+02  0.28441975438E+02  0.51100000000E-03 0.  1.
        -12    1    3    3    0    0 -0.87650256277E+01 -0.32257508705E+01 -0.11712096143E+02  0.14980131475E+02  0.00000000000E+00 0.  1.
</event>
<event>
 7    1  0.1384886E-010  0.4778727E+02  0.7816164E-02  0.1312668E+00
        -11   -1    0    0    0    0  0.00000000000E+00  0.00000000000E+00  0.45593999997E+02  0.45594000000E+02  0.51100000000E-03 0.  1.
         11   -1    0    0    0    0 -0.00000000000E+00 -0.00000000000E+00 -0.45593999997E+02  0.45594000000E+02  0.51100000000E-03 0. -1.
    9900012    2    1    2    0    0  0.13926139348E+02  0.37491072743E+02  0.16855419498E+02  0.47787273520E+02  0.20000011286E+02 0.  0.
         12    1    1    2    0    0 -0.13926139348E+02 -0.37491072743E+02 -0.16855419498E+02  0.43400726480E+02  0.00000000000E+00 0. -1.
         11    1    3    3    0    0  0.74186123224E+01  0.40095236979E+01  0.35122767709E+01  0.91349973974E+01  0.51100000000E-03 0. -1.
        -11    1    3    3    0    0  0.50263626366E+01  0.28437461569E+02  0.15723600083E+02  0.32881379863E+02  0.51100000000E-03 0.  1.
         12    1    3    3    0    0  0.14811643886E+01  0.50440874764E+01 -0.23804573560E+01  0.57708962596E+01  0.00000000000E+00 0. -1.
</event>
<event>
 7    1  0.1384886E-010  0.4778730E+02  0.7816164E-02  0.1312668E+00
        -11   -1    0    0    0    0  0.00000000000E+00  0.00000000000E+00  0.45593999997E+02  0.45594000000E+02  0.51100000000E-03 0.  1.
         11   -1    0    0    0    0 -0.00000000000E+00 -0.00000000000E+00 -0.45593999997E+02  0.45594000000E+02  0.51100000000E-03 0. -1.
    9900012    2    1    2    0    0  0.18854465729E+02 -0.38844896197E+02  0.43821980163E+01  0.47787303025E+02  0.20000145810E+02 0.  0.
         12    1    1    2    0    0 -0.18854465729E+02  0.38844896197E+02 -0.43821980163E+01  0.43400696975E+02  0.00000000000E+00 0. -1.
         11    1    3    3    0    0  0.36849101346E+01 -0.35961369996E+01  0.32794146287E+01  0.61045331179E+01  0.51100000000E-03 0. -1.
        -11    1    3    3    0    0  0.11360558481E+01 -0.17499691731E+01  0.47426703994E+01  0.51813065703E+01  0.51100000000E-03 0.  1.
        -12    1    3    3    0    0  0.14033499746E+02 -0.33498790025E+02 -0.36398870118E+01  0.36501463336E+02  0.00000000000E+00 0.  1.
</event>
<event>
 7    1  0.1384886E-010  0.4778727E+02  0.7816164E-02  0.1312668E+00
        -11   -1    0    0    0    0  0.00000000000E+00  0.00000000000E+00  0.45593999997E+02  0.45594000000E+02  0.51100000000E-03 0. -1.
         11   -1    0    0    0    0 -0.00000000000E+00 -0.00000000000E+00 -0.45593999997E+02  0.45594000000E+02  0.51100000000E-03 0.  1.
    9900012    2    1    2    0    0  0.40170350318E+02 -0.16429281591E+02 -0.21315973578E+00  0.47787265267E+02  0.19999973657E+02 0.  0.
         12    1    1    2    0    0 -0.40170350318E+02  0.16429281591E+02  0.21315973578E+00  0.43400734733E+02  0.00000000000E+00 0. -1.
         11    1    3    3    0    0  0.24012049202E+01  0.16395839725E+01  0.19778606455E+00  0.29142992743E+01  0.51100000000E-03 0. -1.
        -11    1    3    3    0    0 -0.79141536634E-01  0.13648968292E+01  0.18108106832E+01  0.22689738492E+01  0.51100000000E-03 0.  1.
        -12    1    3    3    0    0  0.37848286935E+02 -0.19433762393E+02 -0.22217564835E+01  0.42603992143E+02  0.00000000000E+00 0.  1.
</event>
<event>
 7    1  0.1384886E-010  0.4778727E+02  0.7816164E-02  0.1312668E+00
        -11   -1    0    0    0    0  0.00000000000E+00  0.00000000000E+00  0.45593999997E+02  0.45594000000E+02  0.51100000000E-03 0.  1.
         11   -1    0    0    0    0 -0.00000000000E+00 -0.00000000000E+00 -0.45593999997E+02  0.45594000000E+02  0.51100000000E-03 0. -1.
    9900012    2    1    2    0    0  0.45169613009E+01 -0.31767826094E+02  0.29223720568E+02  0.47787267771E+02  0.19999985077E+02 0.  0.
         12    1    1    2    0    0 -0.45169613009E+01  0.31767826094E+02 -0.29223720568E+02  0.43400732229E+02  0.00000000000E+00 0. -1.
         11    1    3    3    0    0 -0.47573868182E+01 -0.55305574789E+01  0.73639774007E+01  0.10365710723E+02  0.51100000000E-03 0. -1.
        -11    1    3    3    0    0  0.60058715223E+01 -0.28226686848E+01  0.36020855066E+01  0.75506934452E+01  0.51100000000E-03 0.  1.
         12    1    3    3    0    0  0.32684765968E+01 -0.23414599930E+02  0.18257657661E+02  0.29870863604E+02  0.00000000000E+00 0. -1.
</event>
<event>
 7    1  0.1384886E-010  0.4778727E+02  0.7816164E-02  0.1312668E+00
        -11   -1    0    0    0    0  0.00000000000E+00  0.00000000000E+00  0.45593999997E+02  0.45594000000E+02  0.51100000000E-03 0.  1.
         11   -1    0    0    0    0 -0.00000000000E+00 -0.00000000000E+00 -0.45593999997E+02  0.45594000000E+02  0.51100000000E-03 0. -1.
    9900012    2    1    2    0    0 -0.44360123375E+01  0.36299526371E+02  0.23372846034E+02  0.47787265537E+02  0.19999974889E+02 0.  0.
         12    1    1    2    0    0  0.44360123375E+01 -0.36299526371E+02 -0.23372846034E+02  0.43400734463E+02  0.00000000000E+00 0. -1.
         11    1    3    3    0    0  0.19014519871E+01  0.10342478321E+02  0.98571300071E+00  0.10561913077E+02  0.51100000000E-03 0. -1.
        -11    1    3    3    0    0 -0.42446710049E+01  0.26949582424E+02  0.21536042205E+02  0.34757709057E+02  0.51100000000E-03 0.  1.
         12    1    3    3    0    0 -0.20927933196E+01 -0.99253437435E+00  0.85109082875E+00  0.24676434025E+01  0.00000000000E+00 0. -1.
</event>
<event>
 7    1  0.1384886E-010  0.4778727E+02  0.7816164E-02  0.1312668E+00
        -11   -1    0    0    0    0  0.00000000000E+00  0.00000000000E+00  0.45593999997E+02  0.45594000000E+02  0.51100000000E-03 0.  1.
         11   -1    0    0    0    0 -0.00000000000E+00 -0.00000000000E+00 -0.45593999997E+02  0.45594000000E+02  0.51100000000E-03 0. -1.
    9900012    2    1    2    0    0 -0.21393817441E+02  0.19672317114E+02  0.32232403042E+02  0.47787270844E+02  0.19999999088E+02 0.  0.
         12    1    1    2    0    0  0.21393817441E+02 -0.19672317114E+02 -0.32232403042E+02  0.43400729156E+02  0.00000000000E+00 0. -1.
         11    1    3    3    0    0 -0.28223745396E+00  0.70613238334E+01  0.15768619890E+02  0.17279795304E+02  0.51100000000E-03 0. -1.
        -11    1    3    3    0    0 -0.11800089499E+02  0.76730003961E+01  0.13630335986E+02  0.19593445501E+02  0.51100000000E-03 0.  1.
        -12    1    3    3    0    0 -0.93114904885E+01  0.49379928850E+01  0.28334471668E+01  0.10914030039E+02  0.00000000000E+00 0.  1.
</event>
<event>
 7    1  0.1384886E-010  0.4778726E+02  0.7816164E-02  0.1312668E+00
        -11   -1    0    0    0    0  0.00000000000E+00  0.00000000000E+00  0.45593999997E+02  0.45594000000E+02  0.51100000000E-03 0.  1.
         11   -1    0    0    0    0 -0.00000000000E+00 -0.00000000000E+00 -0.45593999997E+02  0.45594000000E+02  0.51100000000E-03 0. -1.
    9900012    2    1    2    0    0  0.63669586804E+01 -0.30069045098E+02  0.30642109939E+02  0.47787256487E+02  0.19999933628E+02 0.  0.
         12    1    1    2    0    0 -0.63669586804E+01  0.30069045098E+02 -0.30642109939E+02  0.43400743513E+02  0.00000000000E+00 0. -1.
         11    1    3    3    0    0 -0.40761047522E+01 -0.48554120246E+01  0.42949247642E+00  0.63540632612E+01  0.51100000000E-03 0. -1.
        -11    1    3    3    0    0  0.73524766119E+01 -0.87377036135E+01  0.10049106848E+02  0.15211539221E+02  0.51100000000E-03 0.  1.
        -12    1    3    3    0    0  0.30905868206E+01 -0.16475929460E+02  0.20163510615E+02  0.26221654005E+02  0.00000000000E+00 0.  1.
</event>
<event>
 7    1  0.1384886E-010  0.4778727E+02  0.7816164E-02  0.1312668E+00
        -11   -1    0    0    0    0  0.00000000000E+00  0.00000000000E+00  0.45593999997E+02  0.45594000000E+02  0.51100000000E-03 0.  1.
         11   -1    0    0    0    0 -0.00000000000E+00 -0.00000000000E+00 -0.45593999997E+02  0.45594000000E+02  0.51100000000E-03 0. -1.
    9900012    2    1    2    0    0  0.41033416190E+02 -0.12351365540E+02  0.68793614092E+01  0.47787273182E+02  0.20000009748E+02 0.  0.
         12    1    1    2    0    0 -0.41033416190E+02  0.12351365540E+02 -0.68793614092E+01  0.43400726818E+02  0.00000000000E+00 0. -1.
         11    1    3    3    0    0  0.49533748149E+01 -0.51723850238E+01 -0.38371813596E+01  0.81248661489E+01  0.51100000000E-03 0. -1.
        -11    1    3    3    0    0  0.25590970459E+01 -0.29225635497E+01  0.32319588745E+01  0.50533072160E+01  0.51100000000E-03 0.  1.
        -12    1    3    3    0    0  0.33520944329E+02 -0.42564169664E+01  0.74845838943E+01  0.34609099817E+02  0.00000000000E+00 0.  1.
</event>
<event>
 7    1 -0.1384886E-010  0.4778727E+02  0.7816164E-02  0.1312668E+00
        -11   -1    0    0    0    0  0.00000000000E+00  0.00000000000E+00  0.45593999997E+02  0.45594000000E+02  0.51100000000E-03 0. -1.
         11   -1    0    0    0    0 -0.00000000000E+00 -0.00000000000E+00 -0.45593999997E+02  0.45594000000E+02  0.51100000000E-03 0.  1.
    9900012    2    1    2    0    0 -0.36414385670E+02 -0.14240533791E+02  0.18836740841E+02  0.47787273140E+02  0.20000009556E+02 0.  0.
         12    1    1    2    0    0  0.36414385670E+02  0.14240533791E+02 -0.18836740841E+02  0.43400726860E+02  0.00000000000E+00 0. -1.
         11    1    3    3    0    0 -0.20920184095E+02 -0.14164062689E+02  0.15428922888E+02  0.29602811289E+02  0.51100000000E-03 0. -1.
        -11    1    3    3    0    0 -0.15166960210E+02 -0.16532468418E+01  0.48639557770E+01  0.16013368578E+02  0.51100000000E-03 0.  1.
         12    1    3    3    0    0 -0.32724136473E+00  0.15767757391E+01 -0.14561378240E+01  0.21710932740E+01  0.00000000000E+00 0. -1.
</event>
<event>
 7    1  0.1384886E-010  0.4778727E+02  0.7816164E-02  0.1312668E+00
        -11   -1    0    0    0    0  0.00000000000E+00  0.00000000000E+00  0.45593999997E+02  0.45594000000E+02  0.51100000000E-03 0. -1.
         11   -1    0    0    0    0 -0.00000000000E+00 -0.00000000000E+00 -0.45593999997E+02  0.45594000000E+02  0.51100000000E-03 0.  1.
    9900012    2    1    2    0    0  0.20125976998E+00  0.20113925825E+02 -0.38457930706E+02  0.47787274756E+02  0.20000016921E+02 0.  0.
         12    1    1    2    0    0 -0.20125976998E+00 -0.20113925825E+02  0.38457930706E+02  0.43400725244E+02  0.00000000000E+00 0. -1.
         11    1    3    3    0    0 -0.96806197066E-01  0.32981907223E+01  0.81560183359E+00  0.33989174883E+01  0.51100000000E-03 0. -1.
        -11    1    3    3    0    0  0.62132424859E+00  0.16986960438E+02 -0.25717960789E+02  0.30827850657E+02  0.51100000000E-03 0.  1.
         12    1    3    3    0    0 -0.32325828154E+00 -0.17122533594E+00 -0.13555571751E+02  0.13560506610E+02  0.00000000000E+00 0. -1.
</event>
<event>
 7    1  0.1384886E-010  0.4778727E+02  0.7816164E-02  0.1312668E+00
        -11   -1    0    0    0    0  0.00000000000E+00  0.00000000000E+00  0.45593999997E+02  0.45594000000E+02  0.51100000000E-03 0. -1.
         11   -1    0    0    0    0 -0.00000000000E+00 -0.00000000000E+00 -0.45593999997E+02  0.45594000000E+02  0.51100000000E-03 0.  1.
    9900012    2    1    2    0    0  0.41274861614E+02 -0.13213382749E+02  0.23271349438E+01  0.47787271412E+02  0.20000001677E+02 0.  0.
         12    1    1    2    0    0 -0.41274861614E+02  0.13213382749E+02 -0.23271349438E+01  0.43400728588E+02  0.00000000000E+00 0. -1.
         11    1    3    3    0    0  0.63616077841E+01  0.27342124568E+01  0.26750266496E+01  0.74230545731E+01  0.51100000000E-03 0. -1.
        -11    1    3    3    0    0  0.24250869093E+02 -0.10713010520E+02  0.55747016859E+01  0.27091521650E+02  0.51100000000E-03 0.  1.
         12    1    3    3    0    0  0.10662384736E+02 -0.52345846858E+01 -0.59225933916E+01  0.13272695189E+02  0.00000000000E+00 0. -1.
</event>
<event>
 7    1  0.1384886E-010  0.4778727E+02  0.7816164E-02  0.1312668E+00
        -11   -1    0    0    0    0  0.00000000000E+00  0.00000000000E+00  0.45593999997E+02  0.45594000000E+02  0.51100000000E-03 0. -1.
         11   -1    0    0    0    0 -0.00000000000E+00 -0.00000000000E+00 -0.45593999997E+02  0.45594000000E+02  0.51100000000E-03 0.  1.
    9900012    2    1    2    0    0  0.43926705580E+01  0.43120926033E+02 -0.22165670590E+01  0.47787274359E+02  0.20000015115E+02 0.  0.
         12    1    1    2    0    0 -0.43926705580E+01 -0.43120926033E+02  0.22165670590E+01  0.43400725641E+02  0.00000000000E+00 0. -1.
         11    1    3    3    0    0 -0.55760986174E+01  0.10795621620E+02 -0.37183975739E+01  0.12706880134E+02  0.51100000000E-03 0. -1.
        -11    1    3    3    0    0 -0.12764601381E+01  0.27404167768E+01  0.16208097195E+01  0.34301980996E+01  0.51100000000E-03 0.  1.
        -12    1    3    3    0    0  0.11245229313E+02  0.29584887637E+02 -0.11897920463E+00  0.31650196126E+02  0.00000000000E+00 0.  1.
</event>
<event>
 7    1  0.1384886E-010  0.4778727E+02  0.7816164E-02  0.1312668E+00
        -11   -1    0    0    0    0  0.00000000000E+00  0.00000000000E+00  0.45593999997E+02  0.45594000000E+02  0.51100000000E-03 0.  1.
         11   -1    0    0    0    0 -0.00000000000E+00 -0.00000000000E+00 -0.45593999997E+02  0.45594000000E+02  0.51100000000E-03 0. -1.
    9900012    2    1    2    0    0  0.16210463207E+02 -0.34485760012E+02  0.20774419971E+02  0.47787270903E+02  0.19999999354E+02 0.  0.
         12    1    1    2    0    0 -0.16210463207E+02  0.34485760012E+02 -0.20774419971E+02  0.43400729097E+02  0.00000000000E+00 0. -1.
         11    1    3    3    0    0  0.60624644176E+01 -0.93416954385E+01 -0.17049515225E+01  0.11266215355E+02  0.51100000000E-03 0. -1.
        -11    1    3    3    0    0 -0.80381717770E+00 -0.10259162415E+02  0.75236542342E+01  0.12747623654E+02  0.51100000000E-03 0.  1.
        -12    1    3    3    0    0  0.10951815968E+02 -0.14884902159E+02  0.14955717260E+02  0.23773431894E+02  0.00000000000E+00 0.  1.
</event>
<event>
 7    1  0.1384886E-010  0.4778727E+02  0.7816164E-02  0.1312668E+00
        -11   -1    0    0    0    0  0.00000000000E+00  0.00000000000E+00  0.45593999997E+02  0.45594000000E+02  0.51100000000E-03 0.  1.
         11   -1    0    0    0    0 -0.00000000000E+00 -0.00000000000E+00 -0.45593999997E+02  0.45594000000E+02  0.51100000000E-03 0. -1.
    9900012    2    1    2    0    0  0.19303236544E+02  0.79302678745E+01  0.38054158221E+02  0.47787273652E+02  0.20000011888E+02 0.  0.
         12    1    1    2    0    0 -0.19303236544E+02 -0.79302678745E+01 -0.38054158221E+02  0.43400726348E+02  0.00000000000E+00 0. -1.
         11    1    3    3    0    0  0.17294586036E+01 -0.36865586704E+01  0.47643751153E+00  0.40998457112E+01  0.51100000000E-03 0. -1.
        -11    1    3    3    0    0  0.97373034467E+01  0.92265012127E+01  0.17870214268E+02  0.22344752433E+02  0.51100000000E-03 0.  1.
        -12    1    3    3    0    0  0.78364744935E+01  0.23903253322E+01  0.19707506442E+02  0.21342675508E+02  0.00000000000E+00 0.  1.
</event>
<event>
 7    1  0.1384886E-010  0.4778726E+02  0.7816164E-02  0.1312668E+00
        -11   -1    0    0    0    0  0.00000000000E+00  0.00000000000E+00  0.45593999997E+02  0.45594000000E+02  0.51100000000E-03 0.  1.
         11   -1    0    0    0    0 -0.00000000000E+00 -0.00000000000E+00 -0.45593999997E+02  0.45594000000E+02  0.51100000000E-03 0. -1.
    9900012    2    1    2    0    0 -0.24233032634E+02  0.73609802347E+01  0.35244868645E+02  0.47787255001E+02  0.19999926852E+02 0.  0.
         12    1    1    2    0    0  0.24233032634E+02 -0.73609802347E+01 -0.35244868645E+02  0.43400744999E+02  0.00000000000E+00 0. -1.
         11    1    3    3    0    0  0.13344493783E+01  0.25259226283E+01  0.13834690785E+01  0.31741183374E+01  0.51100000000E-03 0. -1.
        -11    1    3    3    0    0 -0.14663358829E+02  0.62443372628E+01  0.27835650649E+02  0.32075368857E+02  0.51100000000E-03 0.  1.
         12    1    3    3    0    0 -0.10904123184E+02 -0.14092796564E+01  0.60257489171E+01  0.12537767806E+02  0.00000000000E+00 0. -1.
</event>
<event>
 7    1  0.1384886E-010  0.4778727E+02  0.7816164E-02  0.1312668E+00
        -11   -1    0    0    0    0  0.00000000000E+00  0.00000000000E+00  0.45593999997E+02  0.45594000000E+02  0.51100000000E-03 0.  1.
         11   -1    0    0    0    0 -0.00000000000E+00 -0.00000000000E+00 -0.45593999997E+02  0.45594000000E+02  0.51100000000E-03 0. -1.
    9900012    2    1    2    0    0  0.22546535348E+02  0.36297424283E+02 -0.76009288722E+01  0.47787269758E+02  0.19999994135E+02 0.  0.
         12    1    1    2    0    0 -0.22546535348E+02 -0.36297424283E+02  0.76009288722E+01  0.43400730242E+02  0.00000000000E+00 0. -1.
         11    1    3    3    0    0  0.12718596258E+02  0.12075186236E+02 -0.72593497309E+01  0.18980805362E+02  0.51100000000E-03 0. -1.
        -11    1    3    3    0    0  0.60428803018E+01  0.42509016813E+01  0.34084514883E+01  0.81365907636E+01  0.51100000000E-03 0.  1.
        -12    1    3    3    0    0  0.37850587885E+01  0.19971336366E+02 -0.37500306295E+01  0.20669873633E+02  0.00000000000E+00 0.  1.
</event>
<event>
 7    1  0.1597931E-010  0.4778724E+02  0.7816164E-02  0.1312668E+00
        -11   -1    0    0    0    0  0.00000000000E+00  0.00000000000E+00  0.45593999997E+02  0.45594000000E+02  0.51100000000E-03 0.  1.
         11   -1    0    0    0    0 -0.00000000000E+00 -0.00000000000E+00 -0.45593999997E+02  0.45594000000E+02  0.51100000000E-03 0. -1.
    9900012    2    1    2    0    0  0.29908157493E+02 -0.22652774929E+02  0.21816959652E+02  0.47787241654E+02  0.19999865995E+02 0.  0.
         12    1    1    2    0    0 -0.29908157493E+02  0.22652774929E+02 -0.21816959652E+02  0.43400758346E+02  0.00000000000E+00 0. -1.
         11    1    3    3    0    0 -0.16458947688E-01 -0.20980718065E+01 -0.53805496990E+00  0.21660285348E+01  0.51100000000E-03 0. -1.
        -11    1    3    3    0    0  0.27669869549E+02 -0.11128152240E+02  0.19012834342E+02  0.35368705420E+02  0.51100000000E-03 0.  1.
        -12    1    3    3    0    0  0.22547468914E+01 -0.94265508827E+01  0.33421802798E+01  0.10252507699E+02  0.00000000000E+00 0.  1.
</event>
<event>
 7    1  0.1384886E-010  0.4778727E+02  0.7816164E-02  0.1312668E+00
        -11   -1    0    0    0    0  0.00000000000E+00  0.00000000000E+00  0.45593999997E+02  0.45594000000E+02  0.51100000000E-03 0.  1.
         11   -1    0    0    0    0 -0.00000000000E+00 -0.00000000000E+00 -0.45593999997E+02  0.45594000000E+02  0.51100000000E-03 0. -1.
    9900012    2    1    2    0    0  0.33770699649E+02  0.10763550550E+02  0.25046141047E+02  0.47787270091E+02  0.19999995655E+02 0.  0.
         12    1    1    2    0    0 -0.33770699649E+02 -0.10763550550E+02 -0.25046141047E+02  0.43400729909E+02  0.00000000000E+00 0. -1.
         11    1    3    3    0    0  0.11597229033E+02  0.42344573091E+01  0.17315638781E+02  0.21266351276E+02  0.51100000000E-03 0. -1.
        -11    1    3    3    0    0  0.14605796830E+02  0.53430151473E+01  0.10050453135E+02  0.18517254667E+02  0.51100000000E-03 0.  1.
         12    1    3    3    0    0  0.75676737858E+01  0.11860780936E+01 -0.23199508687E+01  0.80036641487E+01  0.00000000000E+00 0. -1.
</event>
<event>
 7    1  0.1384886E-010  0.4778727E+02  0.7816164E-02  0.1312668E+00
        -11   -1    0    0    0    0  0.00000000000E+00  0.00000000000E+00  0.45593999997E+02  0.45594000000E+02  0.51100000000E-03 0. -1.
         11   -1    0    0    0    0 -0.00000000000E+00 -0.00000000000E+00 -0.45593999997E+02  0.45594000000E+02  0.51100000000E-03 0.  1.
    9900012    2    1    2    0    0 -0.46354978120E+01  0.40506276470E+02  0.14878750095E+02  0.47787268695E+02  0.19999989286E+02 0.  0.
         12    1    1    2    0    0  0.46354978120E+01 -0.40506276470E+02 -0.14878750095E+02  0.43400731305E+02  0.00000000000E+00 0. -1.
         11    1    3    3    0    0  0.16620174627E+01  0.46236264102E+01 -0.26662840040E+01  0.55901067859E+01  0.51100000000E-03 0. -1.
        -11    1    3    3    0    0  0.32855837882E+01  0.12150636464E+02  0.38115625400E+01  0.13151465187E+02  0.51100000000E-03 0.  1.
        -12    1    3    3    0    0 -0.95830990629E+01  0.23732013596E+02  0.13733471559E+02  0.29045696721E+02  0.00000000000E+00 0.  1.
</event>
<event>
 7    1  0.1384886E-010  0.4778727E+02  0.7816164E-02  0.1312668E+00
        -11   -1    0    0    0    0  0.00000000000E+00  0.00000000000E+00  0.45593999997E+02  0.45594000000E+02  0.51100000000E-03 0. -1.
         11   -1    0    0    0    0 -0.00000000000E+00 -0.00000000000E+00 -0.45593999997E+02  0.45594000000E+02  0.51100000000E-03 0.  1.
    9900012    2    1    2    0    0 -0.35386883322E+02  0.52683572706E+00 -0.25121996083E+02  0.47787265510E+02  0.19999974764E+02 0.  0.
         12    1    1    2    0    0  0.35386883322E+02 -0.52683572706E+00  0.25121996083E+02  0.43400734490E+02  0.00000000000E+00 0. -1.
         11    1    3    3    0    0 -0.37056349822E+01 -0.23684395348E+01  0.21138504207E+01  0.48795082041E+01  0.51100000000E-03 0. -1.
        -11    1    3    3    0    0 -0.14729571736E+02  0.50709749344E+01 -0.93470903208E+01  0.18167090247E+02  0.51100000000E-03 0.  1.
         12    1    3    3    0    0 -0.16951676604E+02 -0.21756996726E+01 -0.17888756182E+02  0.24740667059E+02  0.00000000000E+00 0. -1.
</event>
<event>
 7    1  0.1513797E-010  0.4778727E+02  0.7816164E-02  0.1312668E+00
        -11   -1    0    0    0    0  0.00000000000E+00  0.00000000000E+00  0.45593999997E+02  0.45594000000E+02  0.51100000000E-03 0. -1.
         11   -1    0    0    0    0 -0.00000000000E+00 -0.00000000000E+00 -0.45593999997E+02  0.45594000000E+02  0.51100000000E-03 0.  1.
    9900012    2    1    2    0    0 -0.35801041593E+02  0.19510047878E+02 -0.14875035217E+02  0.47787271664E+02  0.20000002825E+02 0.  0.
         12    1    1    2    0    0  0.35801041593E+02 -0.19510047878E+02  0.14875035217E+02  0.43400728336E+02  0.00000000000E+00 0. -1.
         11    1    3    3    0    0 -0.53813884200E+00  0.57035325025E+00  0.14601290558E+01  0.16573694109E+01  0.51100000000E-03 0. -1.
        -11    1    3    3    0    0 -0.35149844497E+02  0.19875896439E+02 -0.12634049527E+02  0.42310542836E+02  0.51100000000E-03 0.  1.
        -12    1    3    3    0    0 -0.11305825480E+00 -0.93620181070E+00 -0.37011147450E+01  0.38193594168E+01  0.00000000000E+00 0.  1.
</event>
<event>
 7    1  0.1384886E-010  0.4778727E+02  0.7816164E-02  0.1312668E+00
        -11   -1    0    0    0    0  0.00000000000E+00  0.00000000000E+00  0.45593999997E+02  0.45594000000E+02  0.51100000000E-03 0.  1.
         11   -1    0    0    0    0 -0.00000000000E+00 -0.00000000000E+00 -0.45593999997E+02  0.45594000000E+02  0.51100000000E-03 0. -1.
    9900012    2    1    2    0    0  0.33330755947E+02  0.61958228501E+01 -0.27097890133E+02  0.47787272328E+02  0.20000005853E+02 0.  0.
         12    1    1    2    0    0 -0.33330755947E+02 -0.61958228501E+01  0.27097890133E+02  0.43400727672E+02  0.00000000000E+00 0. -1.
         11    1    3    3    0    0  0.39966054561E+00  0.96250718695E+00 -0.73233682808E+01  0.73971529573E+01  0.51100000000E-03 0. -1.
        -11    1    3    3    0    0  0.14785376436E+02  0.70186754915E+01 -0.56102326583E+01  0.17301556946E+02  0.51100000000E-03 0.  1.
        -12    1    3    3    0    0  0.18145718965E+02 -0.17853598283E+01 -0.14164289194E+02  0.23088562425E+02  0.00000000000E+00 0.  1.
</event>
<event>
 7    1  0.1384886E-010  0.4778726E+02  0.7816164E-02  0.1312668E+00
        -11   -1    0    0    0    0  0.00000000000E+00  0.00000000000E+00  0.45593999997E+02  0.45594000000E+02  0.51100000000E-03 0.  1.
         11   -1    0    0    0    0 -0.00000000000E+00 -0.00000000000E+00 -0.45593999997E+02  0.45594000000E+02  0.51100000000E-03 0. -1.
    9900012    2    1    2    0    0  0.98394798196E+01 -0.41229026379E+02  0.93261049535E+01  0.47787260227E+02  0.19999950679E+02 0.  0.
         12    1    1    2    0    0 -0.98394798196E+01  0.41229026379E+02 -0.93261049535E+01  0.43400739773E+02  0.00000000000E+00 0. -1.
         11    1    3    3    0    0 -0.23862387111E+01 -0.44198714334E+01  0.38215312507E+01  0.63113786160E+01  0.51100000000E-03 0. -1.
        -11    1    3    3    0    0  0.32626731372E+01 -0.16956806441E+02 -0.39768145795E+01  0.17719858214E+02  0.51100000000E-03 0.  1.
        -12    1    3    3    0    0  0.89630453935E+01 -0.19852348504E+02  0.94813882824E+01  0.23756023397E+02  0.00000000000E+00 0.  1.
</event>
<event>
 7    1  0.1384886E-010  0.4778727E+02  0.7816164E-02  0.1312668E+00
        -11   -1    0    0    0    0  0.00000000000E+00  0.00000000000E+00  0.45593999997E+02  0.45594000000E+02  0.51100000000E-03 0.  1.
         11   -1    0    0    0    0 -0.00000000000E+00 -0.00000000000E+00 -0.45593999997E+02  0.45594000000E+02  0.51100000000E-03 0. -1.
    9900012    2    1    2    0    0 -0.36019061127E+02  0.22489476505E+02  0.89707241931E+01  0.47787271775E+02  0.20000003330E+02 0.  0.
         12    1    1    2    0    0  0.36019061127E+02 -0.22489476505E+02 -0.89707241931E+01  0.43400728225E+02  0.00000000000E+00 0. -1.
         11    1    3    3    0    0 -0.11128978569E+02 -0.40349442288E+00 -0.14947516364E+01  0.11236158349E+02  0.51100000000E-03 0. -1.
        -11    1    3    3    0    0 -0.20058339270E+02  0.16405840587E+02  0.40514116186E+01  0.26227895760E+02  0.51100000000E-03 0.  1.
        -12    1    3    3    0    0 -0.48317432876E+01  0.64871303415E+01  0.64140642109E+01  0.10323217665E+02  0.00000000000E+00 0.  1.
</event>
<event>
 7    1  0.1384886E-010  0.4778727E+02  0.7816164E-02  0.1312668E+00
        -11   -1    0    0    0    0  0.00000000000E+00  0.00000000000E+00  0.45593999997E+02  0.45594000000E+02  0.51100000000E-03 0.  1.
         11   -1    0    0    0    0 -0.00000000000E+00 -0.00000000000E+00 -0.45593999997E+02  0.45594000000E+02  0.51100000000E-03 0. -1.
    9900012    2    1    2    0    0 -0.13200756419E+01 -0.78575402431E+01  0.42663096033E+02  0.47787270726E+02  0.19999998549E+02 0.  0.
         12    1    1    2    0    0  0.13200756419E+01  0.78575402431E+01 -0.42663096033E+02  0.43400729274E+02  0.00000000000E+00 0. -1.
         11    1    3    3    0    0 -0.65523943090E+01 -0.21965695342E+01  0.97548550593E+01  0.11954747441E+02  0.51100000000E-03 0. -1.
        -11    1    3    3    0    0  0.22023426395E+01 -0.71634644287E+01  0.91161689344E+01  0.11801274170E+02  0.51100000000E-03 0.  1.
        -12    1    3    3    0    0  0.30299760276E+01  0.15024937198E+01  0.23792072039E+02  0.24031249115E+02  0.00000000000E+00 0.  1.
</event>
<event>
 7    1  0.1384886E-010  0.4778727E+02  0.7816164E-02  0.1312668E+00
        -11   -1    0    0    0    0  0.00000000000E+00  0.00000000000E+00  0.45593999997E+02  0.45594000000E+02  0.51100000000E-03 0. -1.
         11   -1    0    0    0    0 -0.00000000000E+00 -0.00000000000E+00 -0.45593999997E+02  0.45594000000E+02  0.51100000000E-03 0.  1.
    9900012    2    1    2    0    0  0.30781065325E+02 -0.22106488599E+02  0.21153076546E+02  0.47787268807E+02  0.19999989798E+02 0.  0.
         12    1    1    2    0    0 -0.30781065325E+02  0.22106488599E+02 -0.21153076546E+02  0.43400731193E+02  0.00000000000E+00 0. -1.
         11    1    3    3    0    0  0.42307353863E+01 -0.33507541336E+01 -0.32934113411E-01  0.53970139975E+01  0.51100000000E-03 0. -1.
        -11    1    3    3    0    0  0.11554672926E+02 -0.12474576529E+02  0.18142857435E+01  0.17100209328E+02  0.51100000000E-03 0.  1.
         12    1    3    3    0    0  0.14995657013E+02 -0.62811579363E+01  0.19371724916E+02  0.25290045482E+02  0.00000000000E+00 0. -1.
</event>
<event>
 7    1  0.1384886E-010  0.4778727E+02  0.7816164E-02  0.1312668E+00
        -11   -1    0    0    0    0  0.00000000000E+00  0.00000000000E+00  0.45593999997E+02  0.45594000000E+02  0.51100000000E-03 0. -1.
         11   -1    0    0    0    0 -0.00000000000E+00 -0.00000000000E+00 -0.45593999997E+02  0.45594000000E+02  0.51100000000E-03 0.  1.
    9900012    2    1    2    0    0 -0.37152548836E+02  0.13470001672E+02 -0.17940751707E+02  0.47787269570E+02  0.19999993277E+02 0.  0.
         12    1    1    2    0    0  0.37152548836E+02 -0.13470001672E+02  0.17940751707E+02  0.43400730430E+02  0.00000000000E+00 0. -1.
         11    1    3    3    0    0 -0.15824969891E+02 -0.13317141672E+01 -0.60683907788E+01  0.17000838261E+02  0.51100000000E-03 0. -1.
        -11    1    3    3    0    0 -0.20426557533E+02  0.10550470656E+02 -0.12842002922E+02  0.26333889250E+02  0.51100000000E-03 0.  1.
         12    1    3    3    0    0 -0.90102141194E+00  0.42512451831E+01  0.96964199324E+00  0.44525420589E+01  0.00000000000E+00 0. -1.
</event>
<event>
 7    1  0.1384886E-010  0.4778727E+02  0.7816164E-02  0.1312668E+00
        -11   -1    0    0    0    0  0.00000000000E+00  0.00000000000E+00  0.45593999997E+02  0.45594000000E+02  0.51100000000E-03 0. -1.
         11   -1    0    0    0    0 -0.00000000000E+00 -0.00000000000E+00 -0.45593999997E+02  0.45594000000E+02  0.51100000000E-03 0.  1.
    9900012    2    1    2    0    0  0.38392001855E+02  0.20118450719E+02  0.22192833902E+01  0.47787273226E+02  0.20000009947E+02 0.  0.
         12    1    1    2    0    0 -0.38392001855E+02 -0.20118450719E+02 -0.22192833902E+01  0.43400726774E+02  0.00000000000E+00 0. -1.
         11    1    3    3    0    0  0.67338523515E+01 -0.18960013823E+01  0.25994244615E+00  0.70005113434E+01  0.51100000000E-03 0. -1.
        -11    1    3    3    0    0  0.12507755821E+01 -0.14736179797E+01 -0.11320408186E+01  0.22399790586E+01  0.51100000000E-03 0.  1.
         12    1    3    3    0    0  0.30407373921E+02  0.23488070081E+02  0.30913817627E+01  0.38546782824E+02  0.00000000000E+00 0. -1.
</event>
<event>
 7    1  0.1384886E-010  0.4778728E+02  0.7816164E-02  0.1312668E+00
        -11   -1    0    0    0    0  0.00000000000E+00  0.00000000000E+00  0.45593999997E+02  0.45594000000E+02  0.51100000000E-03 0.  1.
         11   -1    0    0    0    0 -0.00000000000E+00 -0.00000000000E+00 -0.45593999997E+02  0.45594000000E+02  0.51100000000E-03 0. -1.
    9900012    2    1    2    0    0  0.52306844255E+01  0.15929419198E+02  0.40031438585E+02  0.47787279605E+02  0.20000039033E+02 0.  0.
         12    1    1    2    0    0 -0.52306844255E+01 -0.15929419198E+02 -0.40031438585E+02  0.43400720395E+02  0.00000000000E+00 0. -1.
         11    1    3    3    0    0  0.23981689309E+01 -0.82673241221E+00 -0.86538766817E+00  0.26802232705E+01  0.51100000000E-03 0. -1.
        -11    1    3    3    0    0 -0.30337842706E+01  0.49435346471E+01  0.13864234892E+02  0.15028619072E+02  0.51100000000E-03 0.  1.
        -12    1    3    3    0    0  0.58662997652E+01  0.11812616963E+02  0.27032591361E+02  0.30078437263E+02  0.00000000000E+00 0.  1.
</event>
<event>
 7    1  0.1384886E-010  0.4778729E+02  0.7816164E-02  0.1312668E+00
        -11   -1    0    0    0    0  0.00000000000E+00  0.00000000000E+00  0.45593999997E+02  0.45594000000E+02  0.51100000000E-03 0.  1.
         11   -1    0    0    0    0 -0.00000000000E+00 -0.00000000000E+00 -0.45593999997E+02  0.45594000000E+02  0.51100000000E-03 0. -1.
    9900012    2    1    2    0    0 -0.21371136438E+02 -0.12500443808E+02  0.35645972618E+02  0.47787286504E+02  0.20000070486E+02 0.  0.
         12    1    1    2    0    0  0.21371136438E+02  0.12500443808E+02 -0.35645972618E+02  0.43400713496E+02  0.00000000000E+00 0. -1.
         11    1    3    3    0    0 -0.20143726544E+02 -0.92358152012E+01  0.23707285487E+02  0.32451585276E+02  0.51100000000E-03 0. -1.
        -11    1    3    3    0    0 -0.19284203424E+00  0.20484621237E+01 -0.17772525888E+00  0.20651807793E+01  0.51100000000E-03 0.  1.
        -12    1    3    3    0    0 -0.10345678598E+01 -0.53130907302E+01  0.12116412390E+02  0.13270520448E+02  0.00000000000E+00 0.  1.
</event>
<event>
 7    1  0.1384886E-010  0.4778727E+02  0.7816164E-02  0.1312668E+00
        -11   -1    0    0    0    0  0.00000000000E+00  0.00000000000E+00  0.45593999997E+02  0.45594000000E+02  0.51100000000E-03 0.  1.
         11   -1    0    0    0    0 -0.00000000000E+00 -0.00000000000E+00 -0.45593999997E+02  0.45594000000E+02  0.51100000000E-03 0. -1.
    9900012    2    1    2    0    0 -0.34652878254E+02 -0.25497146647E+02  0.57181179415E+01  0.47787270384E+02  0.19999996990E+02 0.  0.
         12    1    1    2    0    0  0.34652878254E+02  0.25497146647E+02 -0.57181179415E+01  0.43400729616E+02  0.00000000000E+00 0. -1.
         11    1    3    3    0    0 -0.24365254081E+02 -0.16418064862E+02  0.14861149692E+01  0.29418140632E+02  0.51100000000E-03 0.  1.
        -11    1    3    3    0    0 -0.72794424810E+01 -0.75298094392E+01 -0.25594527558E+01  0.10781424382E+02  0.51100000000E-03 0. -1.
         12    1    3    3    0    0 -0.30081816915E+01 -0.15492723449E+01  0.67914557281E+01  0.75877053708E+01  0.00000000000E+00 0. -1.
</event>
<event>
 7    1  0.1384886E-010  0.4778727E+02  0.7816164E-02  0.1312668E+00
        -11   -1    0    0    0    0  0.00000000000E+00  0.00000000000E+00  0.45593999997E+02  0.45594000000E+02  0.51100000000E-03 0.  1.
         11   -1    0    0    0    0 -0.00000000000E+00 -0.00000000000E+00 -0.45593999997E+02  0.45594000000E+02  0.51100000000E-03 0. -1.
    9900012    2    1    2    0    0 -0.26940725715E+02  0.15522396578E+02  0.30279959072E+02  0.47787269373E+02  0.19999992378E+02 0.  0.
         12    1    1    2    0    0  0.26940725715E+02 -0.15522396578E+02 -0.30279959072E+02  0.43400730627E+02  0.00000000000E+00 0. -1.
         11    1    3    3    0    0  0.14499409439E+01 -0.15010832339E+00  0.73075941010E+00  0.16306044358E+01  0.51100000000E-03 0. -1.
        -11    1    3    3    0    0 -0.12100693219E+02  0.36144245846E+01  0.34109938948E+01  0.13081503012E+02  0.51100000000E-03 0.  1.
        -12    1    3    3    0    0 -0.16289973440E+02  0.12058080316E+02  0.26138205767E+02  0.33075161925E+02  0.00000000000E+00 0.  1.
</event>
<event>
 7    1  0.1384886E-010  0.4778727E+02  0.7816164E-02  0.1312668E+00
        -11   -1    0    0    0    0  0.00000000000E+00  0.00000000000E+00  0.45593999997E+02  0.45594000000E+02  0.51100000000E-03 0.  1.
         11   -1    0    0    0    0 -0.00000000000E+00 -0.00000000000E+00 -0.45593999997E+02  0.45594000000E+02  0.51100000000E-03 0. -1.
    9900012    2    1    2    0    0  0.26002220580E+02 -0.34146639242E+02 -0.64432098737E+01  0.47787269591E+02  0.19999993373E+02 0.  0.
         12    1    1    2    0    0 -0.26002220580E+02  0.34146639242E+02  0.64432098737E+01  0.43400730409E+02  0.00000000000E+00 0. -1.
         11    1    3    3    0    0  0.11822321974E+02 -0.17316559641E+02 -0.50101297522E+01  0.21557642150E+02  0.51100000000E-03 0. -1.
        -11    1    3    3    0    0  0.92954288171E+01 -0.71480255403E+00  0.73074321206E-01  0.93231582472E+01  0.51100000000E-03 0.  1.
         12    1    3    3    0    0  0.48844697882E+01 -0.16115277046E+02 -0.15061544427E+01  0.16906469194E+02  0.00000000000E+00 0. -1.
</event>
<event>
 7    1  0.1384886E-010  0.4778726E+02  0.7816164E-02  0.1312668E+00
        -11   -1    0    0    0    0  0.00000000000E+00  0.00000000000E+00  0.45593999997E+02  0.45594000000E+02  0.51100000000E-03 0. -1.
         11   -1    0    0    0    0 -0.00000000000E+00 -0.00000000000E+00 -0.45593999997E+02  0.45594000000E+02  0.51100000000E-03 0.  1.
    9900012    2    1    2    0    0 -0.12569012123E+02  0.92681360736E+01 -0.40493772461E+02  0.47787262447E+02  0.19999960801E+02 0.  0.
         12    1    1    2    0    0  0.12569012123E+02 -0.92681360736E+01  0.40493772461E+02  0.43400737553E+02  0.00000000000E+00 0. -1.
         11    1    3    3    0    0 -0.16419773224E+02  0.59964486509E+01 -0.22126916505E+02  0.28198701804E+02  0.51100000000E-03 0. -1.
        -11    1    3    3    0    0  0.26808100968E+01  0.33444902758E+01 -0.73423428301E+01  0.85019031091E+01  0.51100000000E-03 0.  1.
        -12    1    3    3    0    0  0.11699510050E+01 -0.72802853166E-01 -0.11024513126E+02  0.11086657534E+02  0.00000000000E+00 0.  1.
</event>
<event>
 7    1  0.1384886E-010  0.4778727E+02  0.7816164E-02  0.1312668E+00
        -11   -1    0    0    0    0  0.00000000000E+00  0.00000000000E+00  0.45593999997E+02  0.45594000000E+02  0.51100000000E-03 0.  1.
         11   -1    0    0    0    0 -0.00000000000E+00 -0.00000000000E+00 -0.45593999997E+02  0.45594000000E+02  0.51100000000E-03 0. -1.
    9900012    2    1    2    0    0 -0.24726972670E+02 -0.25102569416E+02  0.25338925593E+02  0.47787270526E+02  0.19999997636E+02 0.  0.
         12    1    1    2    0    0  0.24726972670E+02  0.25102569416E+02 -0.25338925593E+02  0.43400729474E+02  0.00000000000E+00 0. -1.
         11    1    3    3    0    0 -0.25839068750E+01 -0.51169983894E+00 -0.12092990623E+01  0.28984161100E+01  0.51100000000E-03 0. -1.
        -11    1    3    3    0    0 -0.21077743627E+02 -0.24878645182E+02  0.20008068064E+02  0.38256255050E+02  0.51100000000E-03 0.  1.
        -12    1    3    3    0    0 -0.10653221677E+01  0.28777560529E+00  0.65401565908E+01  0.66325993662E+01  0.00000000000E+00 0.  1.
</event>
<event>
 7    1  0.1384886E-010  0.4778727E+02  0.7816164E-02  0.1312668E+00
        -11   -1    0    0    0    0  0.00000000000E+00  0.00000000000E+00  0.45593999997E+02  0.45594000000E+02  0.51100000000E-03 0. -1.
         11   -1    0    0    0    0 -0.00000000000E+00 -0.00000000000E+00 -0.45593999997E+02  0.45594000000E+02  0.51100000000E-03 0.  1.
    9900012    2    1    2    0    0  0.13119948377E+02 -0.47653532665E+01 -0.41094791830E+02  0.47787267832E+02  0.19999985353E+02 0.  0.
         12    1    1    2    0    0 -0.13119948377E+02  0.47653532665E+01  0.41094791830E+02  0.43400732168E+02  0.00000000000E+00 0. -1.
         11    1    3    3    0    0 -0.14898771894E+01  0.18448836215E+01 -0.83604765756E+01  0.86902760859E+01  0.51100000000E-03 0. -1.
        -11    1    3    3    0    0 -0.10551081807E+01 -0.49623658452E+01 -0.45741326483E+01  0.68308870434E+01  0.51100000000E-03 0.  1.
        -12    1    3    3    0    0  0.15664933747E+02 -0.16478710427E+01 -0.28160182606E+02  0.32266104703E+02  0.00000000000E+00 0.  1.
</event>
<event>
 7    1  0.1384886E-010  0.4778727E+02  0.7816164E-02  0.1312668E+00
        -11   -1    0    0    0    0  0.00000000000E+00  0.00000000000E+00  0.45593999997E+02  0.45594000000E+02  0.51100000000E-03 0.  1.
         11   -1    0    0    0    0 -0.00000000000E+00 -0.00000000000E+00 -0.45593999997E+02  0.45594000000E+02  0.51100000000E-03 0. -1.
    9900012    2    1    2    0    0 -0.11529287325E+02 -0.31243042079E+02  0.27831119119E+02  0.47787270328E+02  0.19999996735E+02 0.  0.
         12    1    1    2    0    0  0.11529287325E+02  0.31243042079E+02 -0.27831119119E+02  0.43400729672E+02  0.00000000000E+00 0. -1.
         11    1    3    3    0    0  0.28045305757E+01 -0.15562510425E+01  0.15809686651E+01  0.35758595105E+01  0.51100000000E-03 0. -1.
        -11    1    3    3    0    0 -0.12999290898E+02 -0.21876055474E+02  0.12523022698E+02  0.28361408017E+02  0.51100000000E-03 0.  1.
        -12    1    3    3    0    0 -0.13345270035E+01 -0.78107355628E+01  0.13727127756E+02  0.15850002801E+02  0.00000000000E+00 0.  1.
</event>
<event>
 7    1  0.1384886E-010  0.4778727E+02  0.7816164E-02  0.1312668E+00
        -11   -1    0    0    0    0  0.00000000000E+00  0.00000000000E+00  0.45593999997E+02  0.45594000000E+02  0.51100000000E-03 0.  1.
         11   -1    0    0    0    0 -0.00000000000E+00 -0.00000000000E+00 -0.45593999997E+02  0.45594000000E+02  0.51100000000E-03 0. -1.
    9900012    2    1    2    0    0  0.14359626480E+01 -0.14734796936E+02  0.40797637396E+02  0.47787269055E+02  0.19999990930E+02 0.  0.
         12    1    1    2    0    0 -0.14359626480E+01  0.14734796936E+02 -0.40797637396E+02  0.43400730945E+02  0.00000000000E+00 0. -1.
         11    1    3    3    0    0  0.48860284364E+01 -0.54521602405E+01  0.33650467799E+01  0.80574726349E+01  0.51100000000E-03 0. -1.
        -11    1    3    3    0    0  0.13223611988E+01 -0.81146059218E+01  0.26448343741E+02  0.27696757126E+02  0.51100000000E-03 0.  1.
        -12    1    3    3    0    0 -0.47724269872E+01 -0.11680307732E+01  0.10984246875E+02  0.12033039294E+02  0.00000000000E+00 0.  1.
</event>
<event>
 7    1  0.2003917E-010  0.4778728E+02  0.7816164E-02  0.1312668E+00
        -11   -1    0    0    0    0  0.00000000000E+00  0.00000000000E+00  0.45593999997E+02  0.45594000000E+02  0.51100000000E-03 0. -1.
         11   -1    0    0    0    0 -0.00000000000E+00 -0.00000000000E+00 -0.45593999997E+02  0.45594000000E+02  0.51100000000E-03 0.  1.
    9900012    2    1    2    0    0  0.16766101267E+02 -0.26168598622E+02 -0.30293976676E+02  0.47787277329E+02  0.20000028653E+02 0.  0.
         12    1    1    2    0    0 -0.16766101267E+02  0.26168598622E+02  0.30293976676E+02  0.43400722671E+02  0.00000000000E+00 0. -1.
         11    1    3    3    0    0  0.42327909358E+00 -0.61663934809E+01 -0.67125922511E+00  0.62172472172E+01  0.51100000000E-03 0. -1.
        -11    1    3    3    0    0  0.61036327593E+01 -0.16376928035E+02 -0.22856813326E+02  0.28773112804E+02  0.51100000000E-03 0.  1.
        -12    1    3    3    0    0  0.10239189415E+02 -0.36252771059E+01 -0.67659041244E+01  0.12796917308E+02  0.00000000000E+00 0.  1.
</event>
<event>
 7    1  0.1384886E-010  0.4778727E+02  0.7816164E-02  0.1312668E+00
        -11   -1    0    0    0    0  0.00000000000E+00  0.00000000000E+00  0.45593999997E+02  0.45594000000E+02  0.51100000000E-03 0. -1.
         11   -1    0    0    0    0 -0.00000000000E+00 -0.00000000000E+00 -0.45593999997E+02  0.45594000000E+02  0.51100000000E-03 0.  1.
    9900012    2    1    2    0    0 -0.13156028533E+02  0.40890328620E+02 -0.62067010732E+01  0.47787271900E+02  0.20000003900E+02 0.  0.
         12    1    1    2    0    0  0.13156028533E+02 -0.40890328620E+02  0.62067010732E+01  0.43400728100E+02  0.00000000000E+00 0. -1.
         11    1    3    3    0    0  0.76516118417E+00  0.32315147641E+01 -0.11383123765E+01  0.35105433534E+01  0.51100000000E-03 0.  1.
        -11    1    3    3    0    0 -0.18846023248E+01 -0.18538227647E+01 -0.74051768573E+00  0.27453144573E+01  0.51100000000E-03 0. -1.
        -12    1    3    3    0    0 -0.12036587392E+02  0.39512636621E+02 -0.43278710110E+01  0.41531414089E+02  0.00000000000E+00 0.  1.
</event>
<event>
 7    1  0.1384886E-010  0.4778727E+02  0.7816164E-02  0.1312668E+00
        -11   -1    0    0    0    0  0.00000000000E+00  0.00000000000E+00  0.45593999997E+02  0.45594000000E+02  0.51100000000E-03 0.  1.
         11   -1    0    0    0    0 -0.00000000000E+00 -0.00000000000E+00 -0.45593999997E+02  0.45594000000E+02  0.51100000000E-03 0. -1.
    9900012    2    1    2    0    0 -0.18684441910E+02 -0.62418182510E+01  0.38672401694E+02  0.47787270543E+02  0.19999997715E+02 0.  0.
         12    1    1    2    0    0  0.18684441910E+02  0.62418182510E+01 -0.38672401694E+02  0.43400729457E+02  0.00000000000E+00 0. -1.
         11    1    3    3    0    0 -0.12286173832E+02  0.58109211839E+00  0.18972223119E+02  0.22610461866E+02  0.51100000000E-03 0. -1.
        -11    1    3    3    0    0 -0.98948799037E+01 -0.39006600774E+01  0.10689800216E+02  0.15079642777E+02  0.51100000000E-03 0.  1.
         12    1    3    3    0    0  0.34966118259E+01 -0.29222502920E+01  0.90103783597E+01  0.10097165900E+02  0.00000000000E+00 0. -1.
</event>
<event>
 7    1  0.1384886E-010  0.4778727E+02  0.7816164E-02  0.1312668E+00
        -11   -1    0    0    0    0  0.00000000000E+00  0.00000000000E+00  0.45593999997E+02  0.45594000000E+02  0.51100000000E-03 0.  1.
         11   -1    0    0    0    0 -0.00000000000E+00 -0.00000000000E+00 -0.45593999997E+02  0.45594000000E+02  0.51100000000E-03 0. -1.
    9900012    2    1    2    0    0  0.21099399221E+02  0.61897121112E+01  0.37418258747E+02  0.47787271076E+02  0.20000000144E+02 0.  0.
         12    1    1    2    0    0 -0.21099399221E+02 -0.61897121112E+01 -0.37418258747E+02  0.43400728924E+02  0.00000000000E+00 0. -1.
         11    1    3    3    0    0  0.46818425881E+01 -0.41043245706E+01  0.92467555858E+01  0.11147538711E+02  0.51100000000E-03 0. -1.
        -11    1    3    3    0    0  0.11089527677E+02  0.73737029955E+01  0.27464442871E+02  0.30522856067E+02  0.51100000000E-03 0.  1.
         12    1    3    3    0    0  0.53280289557E+01  0.29203336862E+01  0.70706028954E+00  0.61168762980E+01  0.00000000000E+00 0. -1.
</event>
<event>
 7    1  0.1384886E-010  0.4778727E+02  0.7816164E-02  0.1312668E+00
        -11   -1    0    0    0    0  0.00000000000E+00  0.00000000000E+00  0.45593999997E+02  0.45594000000E+02  0.51100000000E-03 0.  1.
         11   -1    0    0    0    0 -0.00000000000E+00 -0.00000000000E+00 -0.45593999997E+02  0.45594000000E+02  0.51100000000E-03 0. -1.
    9900012    2    1    2    0    0 -0.36564995575E+02  0.14747462972E+02  0.18142120870E+02  0.47787272873E+02  0.20000008337E+02 0.  0.
         12    1    1    2    0    0  0.36564995575E+02 -0.14747462972E+02 -0.18142120870E+02  0.43400727127E+02  0.00000000000E+00 0. -1.
         11    1    3    3    0    0 -0.31148102738E+01  0.93297005674E+00  0.49683741738E+01  0.59377789081E+01  0.51100000000E-03 0. -1.
        -11    1    3    3    0    0 -0.63506415117E+01  0.96737841642E+01  0.76847978052E+01  0.13891323379E+02  0.51100000000E-03 0.  1.
         12    1    3    3    0    0 -0.27099543790E+02  0.41407087507E+01  0.54889488905E+01  0.27958170585E+02  0.00000000000E+00 0. -1.
</event>
<event>
 7    1  0.1384886E-010  0.4778727E+02  0.7816164E-02  0.1312668E+00
        -11   -1    0    0    0    0  0.00000000000E+00  0.00000000000E+00  0.45593999997E+02  0.45594000000E+02  0.51100000000E-03 0. -1.
         11   -1    0    0    0    0 -0.00000000000E+00 -0.00000000000E+00 -0.45593999997E+02  0.45594000000E+02  0.51100000000E-03 0.  1.
    9900012    2    1    2    0    0 -0.39226406165E+02 -0.16750091221E+02  0.80216469716E+01  0.47787270552E+02  0.19999997753E+02 0.  0.
         12    1    1    2    0    0  0.39226406165E+02  0.16750091221E+02 -0.80216469716E+01  0.43400729448E+02  0.00000000000E+00 0. -1.
         11    1    3    3    0    0  0.35193573204E+00 -0.40259820008E+01 -0.93485547064E+00  0.41480531388E+01  0.51100000000E-03 0. -1.
        -11    1    3    3    0    0 -0.13217922498E+02  0.21347173244E+00  0.43436360539E+01  0.13914963880E+02  0.51100000000E-03 0.  1.
         12    1    3    3    0    0 -0.26360419399E+02 -0.12937580952E+02  0.46128663883E+01  0.29724253533E+02  0.00000000000E+00 0. -1.
</event>
<event>
 7    1  0.1384886E-010  0.4778726E+02  0.7816164E-02  0.1312668E+00
        -11   -1    0    0    0    0  0.00000000000E+00  0.00000000000E+00  0.45593999997E+02  0.45594000000E+02  0.51100000000E-03 0.  1.
         11   -1    0    0    0    0 -0.00000000000E+00 -0.00000000000E+00 -0.45593999997E+02  0.45594000000E+02  0.51100000000E-03 0. -1.
    9900012    2    1    2    0    0 -0.12778413185E+02  0.41428676349E+02  0.20002842888E+01  0.47787260319E+02  0.19999951101E+02 0.  0.
         12    1    1    2    0    0  0.12778413185E+02 -0.41428676349E+02 -0.20002842888E+01  0.43400739681E+02  0.00000000000E+00 0. -1.
         11    1    3    3    0    0 -0.29391781253E+01 -0.37195703670E-01  0.32724011352E+01  0.43987226581E+01  0.51100000000E-03 0. -1.
        -11    1    3    3    0    0 -0.52877033373E+01  0.15055259717E+02 -0.39987524740E+01  0.16450248428E+02  0.51100000000E-03 0.  1.
         12    1    3    3    0    0 -0.45515317227E+01  0.26410612336E+02  0.27266356276E+01  0.26938289234E+02  0.00000000000E+00 0. -1.
</event>
<event>
 7    1  0.1384886E-010  0.4778725E+02  0.7816164E-02  0.1312668E+00
        -11   -1    0    0    0    0  0.00000000000E+00  0.00000000000E+00  0.45593999997E+02  0.45594000000E+02  0.51100000000E-03 0.  1.
         11   -1    0    0    0    0 -0.00000000000E+00 -0.00000000000E+00 -0.45593999997E+02  0.45594000000E+02  0.51100000000E-03 0. -1.
    9900012    2    1    2    0    0  0.38308703586E+02  0.99798321734E+01  0.17789644720E+02  0.47787247933E+02  0.19999894628E+02 0.  0.
         12    1    1    2    0    0 -0.38308703586E+02 -0.99798321734E+01 -0.17789644720E+02  0.43400752067E+02  0.00000000000E+00 0. -1.
         11    1    3    3    0    0  0.32830061714E+02  0.72617436705E+01  0.21268328760E+02  0.39785521007E+02  0.51100000000E-03 0.  1.
        -11    1    3    3    0    0  0.51890129568E+01  0.26519839950E+01 -0.15223853545E+01  0.60230002494E+01  0.51100000000E-03 0. -1.
        -12    1    3    3    0    0  0.28962891525E+00  0.66104507911E-01 -0.19562986856E+01  0.19787266769E+01  0.00000000000E+00 0.  1.
</event>
<event>
 7    1  0.1384886E-010  0.4778727E+02  0.7816164E-02  0.1312668E+00
        -11   -1    0    0    0    0  0.00000000000E+00  0.00000000000E+00  0.45593999997E+02  0.45594000000E+02  0.51100000000E-03 0.  1.
         11   -1    0    0    0    0 -0.00000000000E+00 -0.00000000000E+00 -0.45593999997E+02  0.45594000000E+02  0.51100000000E-03 0. -1.
    9900012    2    1    2    0    0  0.12021830468E+02  0.24451312384E+02  0.33782127976E+02  0.47787271254E+02  0.20000000955E+02 0.  0.
         12    1    1    2    0    0 -0.12021830468E+02 -0.24451312384E+02 -0.33782127976E+02  0.43400728746E+02  0.00000000000E+00 0. -1.
         11    1    3    3    0    0  0.38546667792E+01  0.16135003891E+02  0.94141622320E+01  0.19074151550E+02  0.51100000000E-03 0. -1.
        -11    1    3    3    0    0  0.79894240617E+01  0.19599846052E+01  0.96515667164E+01  0.12681686671E+02  0.51100000000E-03 0.  1.
        -12    1    3    3    0    0  0.17773962697E+00  0.63563238878E+01  0.14716399028E+02  0.16031433033E+02  0.00000000000E+00 0.  1.
</event>
<event>
 7    1  0.1384886E-010  0.4778728E+02  0.7816164E-02  0.1312668E+00
        -11   -1    0    0    0    0  0.00000000000E+00  0.00000000000E+00  0.45593999997E+02  0.45594000000E+02  0.51100000000E-03 0. -1.
         11   -1    0    0    0    0 -0.00000000000E+00 -0.00000000000E+00 -0.45593999997E+02  0.45594000000E+02  0.51100000000E-03 0.  1.
    9900012    2    1    2    0    0 -0.20137027283E+01  0.27566700387E+02 -0.33461087849E+02  0.47787281470E+02  0.20000047534E+02 0.  0.
         12    1    1    2    0    0  0.20137027283E+01 -0.27566700387E+02  0.33461087849E+02  0.43400718530E+02  0.00000000000E+00 0. -1.
         11    1    3    3    0    0  0.27385311843E+01  0.18607299650E+01 -0.32055945253E+01  0.46084385178E+01  0.51100000000E-03 0. -1.
        -11    1    3    3    0    0  0.20744789737E+01  0.23530651084E+02 -0.23849958347E+02  0.33568072879E+02  0.51100000000E-03 0.  1.
         12    1    3    3    0    0 -0.68267128863E+01  0.21753193382E+01 -0.64055349768E+01  0.96107700729E+01  0.00000000000E+00 0. -1.
</event>
<event>
 7    1  0.1384886E-010  0.4778727E+02  0.7816164E-02  0.1312668E+00
        -11   -1    0    0    0    0  0.00000000000E+00  0.00000000000E+00  0.45593999997E+02  0.45594000000E+02  0.51100000000E-03 0. -1.
         11   -1    0    0    0    0 -0.00000000000E+00 -0.00000000000E+00 -0.45593999997E+02  0.45594000000E+02  0.51100000000E-03 0.  1.
    9900012    2    1    2    0    0 -0.33076462413E+02 -0.47678040905E+01 -0.27691851872E+02  0.47787274410E+02  0.20000015347E+02 0.  0.
         12    1    1    2    0    0  0.33076462413E+02  0.47678040905E+01  0.27691851872E+02  0.43400725590E+02  0.00000000000E+00 0. -1.
         11    1    3    3    0    0  0.12439903685E+01 -0.87705777235E-01 -0.67361722735E+01  0.68506365763E+01  0.51100000000E-03 0. -1.
        -11    1    3    3    0    0 -0.21288064808E+02 -0.21619541319E+01 -0.16194898196E+02  0.26835246912E+02  0.51100000000E-03 0.  1.
        -12    1    3    3    0    0 -0.13032387973E+02 -0.25181441813E+01 -0.47607814023E+01  0.14101390923E+02  0.00000000000E+00 0.  1.
</event>
<event>
 7    1  0.1384886E-010  0.4778728E+02  0.7816164E-02  0.1312668E+00
        -11   -1    0    0    0    0  0.00000000000E+00  0.00000000000E+00  0.45593999997E+02  0.45594000000E+02  0.51100000000E-03 0.  1.
         11   -1    0    0    0    0 -0.00000000000E+00 -0.00000000000E+00 -0.45593999997E+02  0.45594000000E+02  0.51100000000E-03 0. -1.
    9900012    2    1    2    0    0 -0.13148062270E+02 -0.32260435769E+02  0.25884654111E+02  0.47787279086E+02  0.20000036664E+02 0.  0.
         12    1    1    2    0    0  0.13148062270E+02  0.32260435769E+02 -0.25884654111E+02  0.43400720914E+02  0.00000000000E+00 0. -1.
         11    1    3    3    0    0 -0.10112072726E+02 -0.11141678971E+02  0.83159764714E+01  0.17191465617E+02  0.51100000000E-03 0. -1.
        -11    1    3    3    0    0 -0.39155022690E+01 -0.16699841473E+02  0.19253139421E+02  0.25785640211E+02  0.51100000000E-03 0.  1.
         12    1    3    3    0    0  0.87951272590E+00 -0.44189153240E+01 -0.16844617820E+01  0.48101732578E+01  0.00000000000E+00 0. -1.
</event>
<event>
 7    1  0.1384886E-010  0.4778727E+02  0.7816164E-02  0.1312668E+00
        -11   -1    0    0    0    0  0.00000000000E+00  0.00000000000E+00  0.45593999997E+02  0.45594000000E+02  0.51100000000E-03 0.  1.
         11   -1    0    0    0    0 -0.00000000000E+00 -0.00000000000E+00 -0.45593999997E+02  0.45594000000E+02  0.51100000000E-03 0. -1.
    9900012    2    1    2    0    0 -0.87884799800E+01 -0.21007100430E+01  0.42449649826E+02  0.47787272663E+02  0.20000007381E+02 0.  0.
         12    1    1    2    0    0  0.87884799800E+01  0.21007100430E+01 -0.42449649826E+02  0.43400727337E+02  0.00000000000E+00 0. -1.
         11    1    3    3    0    0 -0.85116999747E+01 -0.11931625091E+01  0.14086760018E+02  0.16501802365E+02  0.51100000000E-03 0. -1.
        -11    1    3    3    0    0 -0.62079643041E+01 -0.27955627383E+01  0.17303815319E+02  0.18595053554E+02  0.51100000000E-03 0.  1.
        -12    1    3    3    0    0  0.59311842987E+01  0.18880152043E+01  0.11059074488E+02  0.12690416744E+02  0.00000000000E+00 0.  1.
</event>
<event>
 7    1  0.1384886E-010  0.4778727E+02  0.7816164E-02  0.1312668E+00
        -11   -1    0    0    0    0  0.00000000000E+00  0.00000000000E+00  0.45593999997E+02  0.45594000000E+02  0.51100000000E-03 0.  1.
         11   -1    0    0    0    0 -0.00000000000E+00 -0.00000000000E+00 -0.45593999997E+02  0.45594000000E+02  0.51100000000E-03 0. -1.
    9900012    2    1    2    0    0 -0.17927238917E+02  0.17683535377E+02  0.35348688010E+02  0.47787273478E+02  0.20000011096E+02 0.  0.
         12    1    1    2    0    0  0.17927238917E+02 -0.17683535377E+02 -0.35348688010E+02  0.43400726522E+02  0.00000000000E+00 0. -1.
         11    1    3    3    0    0 -0.16777875234E+00 -0.84716506775E+00  0.22124647149E+00  0.89150918336E+00  0.51100000000E-03 0. -1.
        -11    1    3    3    0    0 -0.14716363654E+02  0.86034581434E+01  0.31644620337E+02  0.35944023812E+02  0.51100000000E-03 0.  1.
        -12    1    3    3    0    0 -0.30430965099E+01  0.99272423016E+01  0.34828212011E+01  0.10951740483E+02  0.00000000000E+00 0.  1.
</event>
<event>
 7    1  0.1384886E-010  0.4778727E+02  0.7816164E-02  0.1312668E+00
        -11   -1    0    0    0    0  0.00000000000E+00  0.00000000000E+00  0.45593999997E+02  0.45594000000E+02  0.51100000000E-03 0.  1.
         11   -1    0    0    0    0 -0.00000000000E+00 -0.00000000000E+00 -0.45593999997E+02  0.45594000000E+02  0.51100000000E-03 0. -1.
    9900012    2    1    2    0    0 -0.63978395566E+01 -0.33514610691E+02  0.26822782940E+02  0.47787272294E+02  0.20000005698E+02 0.  0.
         12    1    1    2    0    0  0.63978395566E+01  0.33514610691E+02 -0.26822782940E+02  0.43400727706E+02  0.00000000000E+00 0. -1.
         11    1    3    3    0    0 -0.11656900015E+01 -0.19982479064E+01  0.57561879893E+01  0.62036705509E+01  0.51100000000E-03 0. -1.
        -11    1    3    3    0    0 -0.36664319583E+01 -0.26533115209E+02  0.23671949991E+02  0.35746470352E+02  0.51100000000E-03 0.  1.
         12    1    3    3    0    0 -0.15657175968E+01 -0.49832475758E+01 -0.26053550402E+01  0.58371313914E+01  0.00000000000E+00 0. -1.
</event>
<event>
 7    1  0.1384886E-010  0.4778731E+02  0.7816164E-02  0.1312668E+00
        -11   -1    0    0    0    0  0.00000000000E+00  0.00000000000E+00  0.45593999997E+02  0.45594000000E+02  0.51100000000E-03 0.  1.
         11   -1    0    0    0    0 -0.00000000000E+00 -0.00000000000E+00 -0.45593999997E+02  0.45594000000E+02  0.51100000000E-03 0. -1.
    9900012    2    1    2    0    0 -0.35757612877E+02  0.91217120988E+01  0.22843109123E+02  0.47787307094E+02  0.20000164366E+02 0.  0.
         12    1    1    2    0    0  0.35757612877E+02 -0.91217120988E+01 -0.22843109123E+02  0.43400692906E+02  0.00000000000E+00 0. -1.
         11    1    3    3    0    0 -0.22594864288E+02  0.29861957808E+01  0.16645342777E+02  0.28222556473E+02  0.51100000000E-03 0. -1.
        -11    1    3    3    0    0 -0.93195164517E+01  0.40257807984E+01  0.96331292784E+01  0.13994908999E+02  0.51100000000E-03 0.  1.
         12    1    3    3    0    0 -0.38432321376E+01  0.21097355197E+01 -0.34353629326E+01  0.55698416230E+01  0.00000000000E+00 0. -1.
</event>
<event>
 7    1  0.1384886E-010  0.4778727E+02  0.7816164E-02  0.1312668E+00
        -11   -1    0    0    0    0  0.00000000000E+00  0.00000000000E+00  0.45593999997E+02  0.45594000000E+02  0.51100000000E-03 0.  1.
         11   -1    0    0    0    0 -0.00000000000E+00 -0.00000000000E+00 -0.45593999997E+02  0.45594000000E+02  0.51100000000E-03 0. -1.
    9900012    2    1    2    0    0  0.20551339614E+02 -0.38048256063E+02 -0.36872314101E+01  0.47787273914E+02  0.20000013082E+02 0.  0.
         12    1    1    2    0    0 -0.20551339614E+02  0.38048256063E+02  0.36872314101E+01  0.43400726086E+02  0.00000000000E+00 0. -1.
         11    1    3    3    0    0 -0.21729025799E+01 -0.56797465305E+01 -0.17942128582E+01  0.63403648407E+01  0.51100000000E-03 0. -1.
        -11    1    3    3    0    0  0.11476532723E+02 -0.90374703547E+01  0.34295135714E+01  0.15004940431E+02  0.51100000000E-03 0.  1.
         12    1    3    3    0    0  0.11247709471E+02 -0.23331039178E+02 -0.53225321233E+01  0.26441968642E+02  0.00000000000E+00 0. -1.
</event>
<event>
 7    1  0.1384886E-010  0.4778727E+02  0.7816164E-02  0.1312668E+00
        -11   -1    0    0    0    0  0.00000000000E+00  0.00000000000E+00  0.45593999997E+02  0.45594000000E+02  0.51100000000E-03 0. -1.
         11   -1    0    0    0    0 -0.00000000000E+00 -0.00000000000E+00 -0.45593999997E+02  0.45594000000E+02  0.51100000000E-03 0.  1.
    9900012    2    1    2    0    0  0.25584769019E+02  0.82840050398E+01 -0.34064912295E+02  0.47787269650E+02  0.19999993642E+02 0.  0.
         12    1    1    2    0    0 -0.25584769019E+02 -0.82840050398E+01  0.34064912295E+02  0.43400730350E+02  0.00000000000E+00 0. -1.
         11    1    3    3    0    0  0.78892701521E+00  0.35509189394E+01 -0.14914921984E+02  0.15352078986E+02  0.51100000000E-03 0.  1.
        -11    1    3    3    0    0  0.10837188511E+02  0.29670966365E-01 -0.11630877687E+02  0.15897259236E+02  0.51100000000E-03 0. -1.
         12    1    3    3    0    0  0.13958653493E+02  0.47034151340E+01 -0.75191126236E+01  0.16537931427E+02  0.00000000000E+00 0. -1.
</event>
<event>
 7    1  0.1384886E-010  0.4778727E+02  0.7816164E-02  0.1312668E+00
        -11   -1    0    0    0    0  0.00000000000E+00  0.00000000000E+00  0.45593999997E+02  0.45594000000E+02  0.51100000000E-03 0.  1.
         11   -1    0    0    0    0 -0.00000000000E+00 -0.00000000000E+00 -0.45593999997E+02  0.45594000000E+02  0.51100000000E-03 0. -1.
    9900012    2    1    2    0    0  0.14991602067E+02  0.25965609886E+02  0.31379325243E+02  0.47787273255E+02  0.20000010077E+02 0.  0.
         12    1    1    2    0    0 -0.14991602067E+02 -0.25965609886E+02 -0.31379325243E+02  0.43400726745E+02  0.00000000000E+00 0. -1.
         11    1    3    3    0    0  0.50695155135E+01 -0.95015066415E+00  0.29497363287E+01  0.59416932347E+01  0.51100000000E-03 0. -1.
        -11    1    3    3    0    0 -0.11159038606E+01  0.98471638248E+01  0.12890635140E+02  0.16259777102E+02  0.51100000000E-03 0.  1.
        -12    1    3    3    0    0  0.11037990414E+02  0.17068596726E+02  0.15538953775E+02  0.25585802918E+02  0.00000000000E+00 0.  1.
</event>
<event>
 7    1  0.1384886E-010  0.4778727E+02  0.7816164E-02  0.1312668E+00
        -11   -1    0    0    0    0  0.00000000000E+00  0.00000000000E+00  0.45593999997E+02  0.45594000000E+02  0.51100000000E-03 0.  1.
         11   -1    0    0    0    0 -0.00000000000E+00 -0.00000000000E+00 -0.45593999997E+02  0.45594000000E+02  0.51100000000E-03 0. -1.
    9900012    2    1    2    0    0 -0.10212941221E+02  0.13440670754E+01  0.42160555821E+02  0.47787272451E+02  0.20000006411E+02 0.  0.
         12    1    1    2    0    0  0.10212941221E+02 -0.13440670754E+01 -0.42160555821E+02  0.43400727549E+02  0.00000000000E+00 0. -1.
         11    1    3    3    0    0 -0.31704394368E+01  0.16665882359E+01  0.11746715647E+01  0.37694901666E+01  0.51100000000E-03 0. -1.
        -11    1    3    3    0    0 -0.87574859831E+00 -0.69476593182E+01  0.17938795965E+02  0.19257136509E+02  0.51100000000E-03 0.  1.
         12    1    3    3    0    0 -0.61667531863E+01  0.66251381576E+01  0.23047088291E+02  0.24760645775E+02  0.00000000000E+00 0. -1.
</event>
<event>
 7    1  0.1384886E-010  0.4778727E+02  0.7816164E-02  0.1312668E+00
        -11   -1    0    0    0    0  0.00000000000E+00  0.00000000000E+00  0.45593999997E+02  0.45594000000E+02  0.51100000000E-03 0. -1.
         11   -1    0    0    0    0 -0.00000000000E+00 -0.00000000000E+00 -0.45593999997E+02  0.45594000000E+02  0.51100000000E-03 0.  1.
    9900012    2    1    2    0    0  0.16516486564E+02 -0.38864684670E+02 -0.10018247547E+02  0.47787270435E+02  0.19999997220E+02 0.  0.
         12    1    1    2    0    0 -0.16516486564E+02  0.38864684670E+02  0.10018247547E+02  0.43400729565E+02  0.00000000000E+00 0. -1.
         11    1    3    3    0    0  0.99452267645E+01 -0.16032941693E+02 -0.29559033967E+01  0.19097123341E+02  0.51100000000E-03 0. -1.
        -11    1    3    3    0    0 -0.28369936733E+00 -0.48394396323E+00 -0.52113586277E+01  0.52414641178E+01  0.51100000000E-03 0.  1.
        -12    1    3    3    0    0  0.68549591669E+01 -0.22347799013E+02 -0.18509855231E+01  0.23448682976E+02  0.00000000000E+00 0.  1.
</event>
<event>
 7    1  0.1384886E-010  0.4778727E+02  0.7816164E-02  0.1312668E+00
        -11   -1    0    0    0    0  0.00000000000E+00  0.00000000000E+00  0.45593999997E+02  0.45594000000E+02  0.51100000000E-03 0. -1.
         11   -1    0    0    0    0 -0.00000000000E+00 -0.00000000000E+00 -0.45593999997E+02  0.45594000000E+02  0.51100000000E-03 0.  1.
    9900012    2    1    2    0    0 -0.31134353168E+02 -0.23777690340E+02  0.18678776310E+02  0.47787272016E+02  0.20000004430E+02 0.  0.
         12    1    1    2    0    0  0.31134353168E+02  0.23777690340E+02 -0.18678776310E+02  0.43400727984E+02  0.00000000000E+00 0. -1.
         11    1    3    3    0    0 -0.12759197674E+01  0.85341019955E+00  0.52057236510E+01  0.54273233931E+01  0.51100000000E-03 0. -1.
        -11    1    3    3    0    0 -0.96371774569E+01 -0.61051422274E+01  0.90909208141E+01  0.14587418979E+02  0.51100000000E-03 0.  1.
         12    1    3    3    0    0 -0.20221255944E+02 -0.18525958312E+02  0.43821318452E+01  0.27772529644E+02  0.00000000000E+00 0. -1.
</event>
<event>
 7    1  0.1384886E-010  0.4778727E+02  0.7816164E-02  0.1312668E+00
        -11   -1    0    0    0    0  0.00000000000E+00  0.00000000000E+00  0.45593999997E+02  0.45594000000E+02  0.51100000000E-03 0.  1.
         11   -1    0    0    0    0 -0.00000000000E+00 -0.00000000000E+00 -0.45593999997E+02  0.45594000000E+02  0.51100000000E-03 0. -1.
    9900012    2    1    2    0    0  0.12887094987E+02  0.10105123019E+02  0.40192446605E+02  0.47787268525E+02  0.19999988514E+02 0.  0.
         12    1    1    2    0    0 -0.12887094987E+02 -0.10105123019E+02 -0.40192446605E+02  0.43400731475E+02  0.00000000000E+00 0. -1.
         11    1    3    3    0    0  0.91245130025E+01  0.10125658292E+02  0.24130196918E+02  0.27713752849E+02  0.51100000000E-03 0.  1.
        -11    1    3    3    0    0 -0.21364417410E+01  0.30242247839E+01  0.13645708246E+01  0.39461845690E+01  0.51100000000E-03 0. -1.
        -12    1    3    3    0    0  0.58990237257E+01 -0.30447600569E+01  0.14697678862E+02  0.16127331108E+02  0.00000000000E+00 0.  1.
</event>
<event>
 7    1  0.1384886E-010  0.4778727E+02  0.7816164E-02  0.1312668E+00
        -11   -1    0    0    0    0  0.00000000000E+00  0.00000000000E+00  0.45593999997E+02  0.45594000000E+02  0.51100000000E-03 0.  1.
         11   -1    0    0    0    0 -0.00000000000E+00 -0.00000000000E+00 -0.45593999997E+02  0.45594000000E+02  0.51100000000E-03 0. -1.
    9900012    2    1    2    0    0 -0.16014275103E+02 -0.38950484497E+02  0.10489330292E+02  0.47787270748E+02  0.19999998649E+02 0.  0.
         12    1    1    2    0    0  0.16014275103E+02  0.38950484497E+02 -0.10489330292E+02  0.43400729252E+02  0.00000000000E+00 0. -1.
         11    1    3    3    0    0  0.37148469453E+01 -0.11558487918E+02  0.17100163226E+01  0.12260623428E+02  0.51100000000E-03 0. -1.
        -11    1    3    3    0    0 -0.50512342639E+01 -0.78460994366E+01  0.55855884865E+01  0.10875433001E+02  0.51100000000E-03 0.  1.
        -12    1    3    3    0    0 -0.14677887785E+02 -0.19545897143E+02  0.31937254834E+01  0.24651214319E+02  0.00000000000E+00 0.  1.
</event>
<event>
 7    1  0.1384886E-010  0.4778727E+02  0.7816164E-02  0.1312668E+00
        -11   -1    0    0    0    0  0.00000000000E+00  0.00000000000E+00  0.45593999997E+02  0.45594000000E+02  0.51100000000E-03 0.  1.
         11   -1    0    0    0    0 -0.00000000000E+00 -0.00000000000E+00 -0.45593999997E+02  0.45594000000E+02  0.51100000000E-03 0. -1.
    9900012    2    1    2    0    0  0.35926154574E+02 -0.21647875265E+02  0.11149180800E+02  0.47787270530E+02  0.19999997656E+02 0.  0.
         12    1    1    2    0    0 -0.35926154574E+02  0.21647875265E+02 -0.11149180800E+02  0.43400729470E+02  0.00000000000E+00 0. -1.
         11    1    3    3    0    0  0.78397858586E+01  0.26451189430E+01  0.55337006125E+01  0.99539308448E+01  0.51100000000E-03 0. -1.
        -11    1    3    3    0    0  0.14833583753E+02 -0.99662251123E+01  0.19647040949E+01  0.17978345652E+02  0.51100000000E-03 0.  1.
         12    1    3    3    0    0  0.13252784963E+02 -0.14326769096E+02  0.36507760924E+01  0.19854994033E+02  0.00000000000E+00 0. -1.
</event>
<event>
 7    1  0.2976111E-010  0.4778727E+02  0.7816164E-02  0.1312668E+00
        -11   -1    0    0    0    0  0.00000000000E+00  0.00000000000E+00  0.45593999997E+02  0.45594000000E+02  0.51100000000E-03 0. -1.
         11   -1    0    0    0    0 -0.00000000000E+00 -0.00000000000E+00 -0.45593999997E+02  0.45594000000E+02  0.51100000000E-03 0.  1.
    9900012    2    1    2    0    0  0.28234843653E+02  0.32134213359E+02 -0.73354670032E+01  0.47787272582E+02  0.20000007009E+02 0.  0.
         12    1    1    2    0    0 -0.28234843653E+02 -0.32134213359E+02  0.73354670032E+01  0.43400727418E+02  0.00000000000E+00 0. -1.
         11    1    3    3    0    0 -0.15342927758E+01  0.56165714807E+01 -0.77095031779E+00  0.58731843299E+01  0.51100000000E-03 0. -1.
        -11    1    3    3    0    0  0.16532104700E+02  0.20960960370E+02 -0.68293061981E+01  0.27555612293E+02  0.51100000000E-03 0.  1.
         12    1    3    3    0    0  0.13237031729E+02  0.55566815079E+01  0.26478951273E+00  0.14358475959E+02  0.00000000000E+00 0. -1.
</event>
<event>
 7    1  0.1384886E-010  0.4778727E+02  0.7816164E-02  0.1312668E+00
        -11   -1    0    0    0    0  0.00000000000E+00  0.00000000000E+00  0.45593999997E+02  0.45594000000E+02  0.51100000000E-03 0.  1.
         11   -1    0    0    0    0 -0.00000000000E+00 -0.00000000000E+00 -0.45593999997E+02  0.45594000000E+02  0.51100000000E-03 0. -1.
    9900012    2    1    2    0    0 -0.59705407843E+01 -0.37780488897E+02  0.20508794684E+02  0.47787270076E+02  0.19999995583E+02 0.  0.
         12    1    1    2    0    0  0.59705407843E+01  0.37780488897E+02 -0.20508794684E+02  0.43400729924E+02  0.00000000000E+00 0. -1.
         11    1    3    3    0    0 -0.58302552696E+01 -0.45905018566E+01  0.28321838648E+01  0.79426601028E+01  0.51100000000E-03 0. -1.
        -11    1    3    3    0    0 -0.41611940625E+01 -0.89190704360E+01  0.52843669484E+00  0.98561959736E+01  0.51100000000E-03 0.  1.
         12    1    3    3    0    0  0.40209085478E+01 -0.24270916605E+02  0.17148174124E+02  0.29988413999E+02  0.00000000000E+00 0. -1.
</event>
<event>
 7    1  0.1384886E-010  0.4778723E+02  0.7816164E-02  0.1312668E+00
        -11   -1    0    0    0    0  0.00000000000E+00  0.00000000000E+00  0.45593999997E+02  0.45594000000E+02  0.51100000000E-03 0.  1.
         11   -1    0    0    0    0 -0.00000000000E+00 -0.00000000000E+00 -0.45593999997E+02  0.45594000000E+02  0.51100000000E-03 0. -1.
    9900012    2    1    2    0    0 -0.39668308684E+02  0.16945755488E+02 -0.47846699603E+01  0.47787234920E+02  0.19999835294E+02 0.  0.
         12    1    1    2    0    0  0.39668308684E+02 -0.16945755488E+02  0.47846699603E+01  0.43400765080E+02  0.00000000000E+00 0. -1.
         11    1    3    3    0    0 -0.78725577774E+00 -0.30805270417E+01  0.51546593109E+00  0.32210439148E+01  0.51100000000E-03 0. -1.
        -11    1    3    3    0    0 -0.47917571921E+01  0.17274566008E+00 -0.79902894898E+00  0.48609901845E+01  0.51100000000E-03 0.  1.
        -12    1    3    3    0    0 -0.34089295714E+02  0.19853536869E+02 -0.45011069424E+01  0.39705200821E+02  0.00000000000E+00 0.  1.
</event>
<event>
 7    1  0.1384886E-010  0.4778727E+02  0.7816164E-02  0.1312668E+00
        -11   -1    0    0    0    0  0.00000000000E+00  0.00000000000E+00  0.45593999997E+02  0.45594000000E+02  0.51100000000E-03 0.  1.
         11   -1    0    0    0    0 -0.00000000000E+00 -0.00000000000E+00 -0.45593999997E+02  0.45594000000E+02  0.51100000000E-03 0. -1.
    9900012    2    1    2    0    0 -0.12862585876E+00  0.14662485243E+02  0.40848725319E+02  0.47787269841E+02  0.19999994514E+02 0.  0.
         12    1    1    2    0    0  0.12862585876E+00 -0.14662485243E+02 -0.40848725319E+02  0.43400730159E+02  0.00000000000E+00 0. -1.
         11    1    3    3    0    0 -0.47309432035E+01  0.10723611449E+02  0.14441395669E+02  0.18599235878E+02  0.51100000000E-03 0.  1.
        -11    1    3    3    0    0 -0.79852681756E+00  0.29623373322E+01  0.21820935197E+02  0.22035568989E+02  0.51100000000E-03 0. -1.
         12    1    3    3    0    0  0.54008441623E+01  0.97653646199E+00  0.45863944530E+01  0.71524649741E+01  0.00000000000E+00 0. -1.
</event>
<event>
 7    1  0.1384886E-010  0.4778727E+02  0.7816164E-02  0.1312668E+00
        -11   -1    0    0    0    0  0.00000000000E+00  0.00000000000E+00  0.45593999997E+02  0.45594000000E+02  0.51100000000E-03 0.  1.
         11   -1    0    0    0    0 -0.00000000000E+00 -0.00000000000E+00 -0.45593999997E+02  0.45594000000E+02  0.51100000000E-03 0. -1.
    9900012    2    1    2    0    0  0.13095548376E+02 -0.63322305482E+01  0.40890494158E+02  0.47787273699E+02  0.20000012103E+02 0.  0.
         12    1    1    2    0    0 -0.13095548376E+02  0.63322305482E+01 -0.40890494158E+02  0.43400726301E+02  0.00000000000E+00 0. -1.
         11    1    3    3    0    0  0.85905523935E+01 -0.13616055414E+01  0.80501442139E+01  0.11851429543E+02  0.51100000000E-03 0. -1.
        -11    1    3    3    0    0  0.19416375514E+01 -0.34364012652E+01  0.11585674823E+01  0.41135251195E+01  0.51100000000E-03 0.  1.
         12    1    3    3    0    0  0.25633584312E+01 -0.15342237416E+01  0.31681782462E+02  0.31822319037E+02  0.00000000000E+00 0. -1.
</event>
<event>
 7    1  0.1384886E-010  0.4778727E+02  0.7816164E-02  0.1312668E+00
        -11   -1    0    0    0    0  0.00000000000E+00  0.00000000000E+00  0.45593999997E+02  0.45594000000E+02  0.51100000000E-03 0.  1.
         11   -1    0    0    0    0 -0.00000000000E+00 -0.00000000000E+00 -0.45593999997E+02  0.45594000000E+02  0.51100000000E-03 0. -1.
    9900012    2    1    2    0    0 -0.20265997901E+02 -0.73545861280E+01  0.37667268451E+02  0.47787265898E+02  0.19999976537E+02 0.  0.
         12    1    1    2    0    0  0.20265997901E+02  0.73545861280E+01 -0.37667268451E+02  0.43400734102E+02  0.00000000000E+00 0. -1.
         11    1    3    3    0    0 -0.97160780814E+01 -0.67850756437E+01  0.16893118222E+02  0.20635330583E+02  0.51100000000E-03 0. -1.
        -11    1    3    3    0    0 -0.77324158035E+01 -0.56610202484E+01  0.18630196754E+02  0.20950456696E+02  0.51100000000E-03 0.  1.
         12    1    3    3    0    0 -0.28175040157E+01  0.50915097641E+01  0.21439534748E+01  0.62014786188E+01  0.00000000000E+00 0. -1.
</event>
<event>
 7    1  0.1384886E-010  0.4778727E+02  0.7816164E-02  0.1312668E+00
        -11   -1    0    0    0    0  0.00000000000E+00  0.00000000000E+00  0.45593999997E+02  0.45594000000E+02  0.51100000000E-03 0.  1.
         11   -1    0    0    0    0 -0.00000000000E+00 -0.00000000000E+00 -0.45593999997E+02  0.45594000000E+02  0.51100000000E-03 0. -1.
    9900012    2    1    2    0    0  0.42535049670E+02 -0.26294672320E+01  0.82145408736E+01  0.47787271548E+02  0.20000002297E+02 0.  0.
         12    1    1    2    0    0 -0.42535049670E+02  0.26294672320E+01 -0.82145408736E+01  0.43400728452E+02  0.00000000000E+00 0. -1.
         11    1    3    3    0    0 -0.15309252716E+01 -0.80511451265E+00  0.36700472057E+00  0.17682291401E+01  0.51100000000E-03 0. -1.
        -11    1    3    3    0    0  0.16361341393E+02 -0.24592083887E+00 -0.21916826763E+01  0.16509313809E+02  0.51100000000E-03 0.  1.
        -12    1    3    3    0    0  0.27704633549E+02 -0.15784318805E+01  0.10039218829E+02  0.29509728599E+02  0.00000000000E+00 0.  1.
</event>
<event>
 7    1  0.1384886E-010  0.4778728E+02  0.7816164E-02  0.1312668E+00
        -11   -1    0    0    0    0  0.00000000000E+00  0.00000000000E+00  0.45593999997E+02  0.45594000000E+02  0.51100000000E-03 0.  1.
         11   -1    0    0    0    0 -0.00000000000E+00 -0.00000000000E+00 -0.45593999997E+02  0.45594000000E+02  0.51100000000E-03 0. -1.
    9900012    2    1    2    0    0  0.41335720622E+02  0.76166472637E+01  0.10815162681E+02  0.47787275827E+02  0.20000021807E+02 0.  0.
         12    1    1    2    0    0 -0.41335720622E+02 -0.76166472637E+01 -0.10815162681E+02  0.43400724173E+02  0.00000000000E+00 0. -1.
         11    1    3    3    0    0  0.22741008815E+02  0.16641798873E+01  0.13682354071E+01  0.22842833559E+02  0.51100000000E-03 0. -1.
        -11    1    3    3    0    0  0.10404126446E+02 -0.18008833851E+01  0.53906224838E+00  0.10572587972E+02  0.51100000000E-03 0.  1.
         12    1    3    3    0    0  0.81905853618E+01  0.77533507615E+01  0.89078650254E+01  0.14371854296E+02  0.00000000000E+00 0. -1.
</event>
<event>
 7    1  0.1384886E-010  0.4778727E+02  0.7816164E-02  0.1312668E+00
        -11   -1    0    0    0    0  0.00000000000E+00  0.00000000000E+00  0.45593999997E+02  0.45594000000E+02  0.51100000000E-03 0. -1.
         11   -1    0    0    0    0 -0.00000000000E+00 -0.00000000000E+00 -0.45593999997E+02  0.45594000000E+02  0.51100000000E-03 0.  1.
    9900012    2    1    2    0    0  0.21403957751E+01 -0.89640084832E+01 -0.42410947215E+02  0.47787272059E+02  0.20000004626E+02 0.  0.
         12    1    1    2    0    0 -0.21403957751E+01  0.89640084832E+01  0.42410947215E+02  0.43400727941E+02  0.00000000000E+00 0. -1.
         11    1    3    3    0    0 -0.50188004189E+01 -0.85076937014E+01 -0.87150840545E+01  0.13172771162E+02  0.51100000000E-03 0. -1.
        -11    1    3    3    0    0  0.45945526983E+01 -0.64148405996E+00 -0.13932040990E+02  0.14684113276E+02  0.51100000000E-03 0.  1.
         12    1    3    3    0    0  0.25646434957E+01  0.18516927811E+00 -0.19763822170E+02  0.19930387621E+02  0.00000000000E+00 0. -1.
</event>
<event>
 7    1  0.1384886E-010  0.4778728E+02  0.7816164E-02  0.1312668E+00
        -11   -1    0    0    0    0  0.00000000000E+00  0.00000000000E+00  0.45593999997E+02  0.45594000000E+02  0.51100000000E-03 0.  1.
         11   -1    0    0    0    0 -0.00000000000E+00 -0.00000000000E+00 -0.45593999997E+02  0.45594000000E+02  0.51100000000E-03 0. -1.
    9900012    2    1    2    0    0  0.34600516045E+02  0.24001371560E+02  0.10505278316E+02  0.47787280883E+02  0.20000044860E+02 0.  0.
         12    1    1    2    0    0 -0.34600516045E+02 -0.24001371560E+02 -0.10505278316E+02  0.43400719117E+02  0.00000000000E+00 0. -1.
         11    1    3    3    0    0  0.14102034515E+01  0.37890496070E+01  0.29710186060E+01  0.50172225899E+01  0.51100000000E-03 0. -1.
        -11    1    3    3    0    0  0.22274171595E+02  0.18525414379E+02  0.11304562374E+02  0.31098598503E+02  0.51100000000E-03 0.  1.
         12    1    3    3    0    0  0.10916140998E+02  0.16869075748E+01 -0.37703026638E+01  0.11671459791E+02  0.00000000000E+00 0. -1.
</event>
<event>
 7    1  0.1384886E-010  0.4778727E+02  0.7816164E-02  0.1312668E+00
        -11   -1    0    0    0    0  0.00000000000E+00  0.00000000000E+00  0.45593999997E+02  0.45594000000E+02  0.51100000000E-03 0.  1.
         11   -1    0    0    0    0 -0.00000000000E+00 -0.00000000000E+00 -0.45593999997E+02  0.45594000000E+02  0.51100000000E-03 0. -1.
    9900012    2    1    2    0    0  0.35450743979E+02 -0.13769315218E+02  0.20911097788E+02  0.47787270733E+02  0.19999998579E+02 0.  0.
         12    1    1    2    0    0 -0.35450743979E+02  0.13769315218E+02 -0.20911097788E+02  0.43400729267E+02  0.00000000000E+00 0. -1.
         11    1    3    3    0    0 -0.54371211046E+00  0.16409409436E+01 -0.27290488688E+00  0.17500821060E+01  0.51100000000E-03 0. -1.
        -11    1    3    3    0    0  0.20110877538E+02 -0.54043732800E+01  0.16808476319E+02  0.26761530642E+02  0.51100000000E-03 0.  1.
        -12    1    3    3    0    0  0.15883578552E+02 -0.10005882882E+02  0.43755263555E+01  0.19275657984E+02  0.00000000000E+00 0.  1.
</event>
<event>
 7    1  0.1384886E-010  0.4778727E+02  0.7816164E-02  0.1312668E+00
        -11   -1    0    0    0    0  0.00000000000E+00  0.00000000000E+00  0.45593999997E+02  0.45594000000E+02  0.51100000000E-03 0. -1.
         11   -1    0    0    0    0 -0.00000000000E+00 -0.00000000000E+00 -0.45593999997E+02  0.45594000000E+02  0.51100000000E-03 0.  1.
    9900012    2    1    2    0    0  0.16828741202E+02  0.26135512743E+02 -0.30287812330E+02  0.47787272673E+02  0.20000007424E+02 0.  0.
         12    1    1    2    0    0 -0.16828741202E+02 -0.26135512743E+02  0.30287812330E+02  0.43400727327E+02  0.00000000000E+00 0. -1.
         11    1    3    3    0    0 -0.16308144860E+01  0.21887944287E+01 -0.74420326008E+01  0.79268043013E+01  0.51100000000E-03 0. -1.
        -11    1    3    3    0    0  0.67332955943E+01  0.40179193055E+01 -0.11965574280E+02  0.14305799985E+02  0.51100000000E-03 0.  1.
        -12    1    3    3    0    0  0.11726260094E+02  0.19928799008E+02 -0.10880205450E+02  0.25554668386E+02  0.00000000000E+00 0.  1.
</event>
<event>
 7    1  0.1384886E-010  0.4778723E+02  0.7816164E-02  0.1312668E+00
        -11   -1    0    0    0    0  0.00000000000E+00  0.00000000000E+00  0.45593999997E+02  0.45594000000E+02  0.51100000000E-03 0.  1.
         11   -1    0    0    0    0 -0.00000000000E+00 -0.00000000000E+00 -0.45593999997E+02  0.45594000000E+02  0.51100000000E-03 0. -1.
    9900012    2    1    2    0    0  0.29518775670E+02  0.22132399139E+02  0.22856623650E+02  0.47787234415E+02  0.19999832991E+02 0.  0.
         12    1    1    2    0    0 -0.29518775670E+02 -0.22132399139E+02 -0.22856623650E+02  0.43400765585E+02  0.00000000000E+00 0. -1.
         11    1    3    3    0    0  0.58356108087E+01  0.70687840290E+01 -0.11654145099E+01  0.92401435270E+01  0.51100000000E-03 0. -1.
        -11    1    3    3    0    0  0.14250570022E+02  0.14241932571E+02  0.12822536805E+02  0.23881558569E+02  0.51100000000E-03 0.  1.
        -12    1    3    3    0    0  0.94325948396E+01  0.82168253885E+00  0.11199501355E+02  0.14665532319E+02  0.00000000000E+00 0.  1.
</event>
<event>
 7    1  0.1384886E-010  0.4778727E+02  0.7816164E-02  0.1312668E+00
        -11   -1    0    0    0    0  0.00000000000E+00  0.00000000000E+00  0.45593999997E+02  0.45594000000E+02  0.51100000000E-03 0. -1.
         11   -1    0    0    0    0 -0.00000000000E+00 -0.00000000000E+00 -0.45593999997E+02  0.45594000000E+02  0.51100000000E-03 0.  1.
    9900012    2    1    2    0    0 -0.10595205871E+02 -0.33584911739E+02 -0.25365701039E+02  0.47787268748E+02  0.19999989532E+02 0.  0.
         12    1    1    2    0    0  0.10595205871E+02  0.33584911739E+02  0.25365701039E+02  0.43400731252E+02  0.00000000000E+00 0. -1.
         11    1    3    3    0    0 -0.49203207172E+01 -0.96934219824E+00 -0.39321586044E+01  0.63726801119E+01  0.51100000000E-03 0. -1.
        -11    1    3    3    0    0  0.26089902395E+01 -0.93105988984E+01 -0.10789050052E+02  0.14487846051E+02  0.51100000000E-03 0.  1.
         12    1    3    3    0    0 -0.82838753930E+01 -0.23304970643E+02 -0.10644492383E+02  0.26926742586E+02  0.00000000000E+00 0. -1.
</event>
<event>
 7    1  0.1384886E-010  0.4778727E+02  0.7816164E-02  0.1312668E+00
        -11   -1    0    0    0    0  0.00000000000E+00  0.00000000000E+00  0.45593999997E+02  0.45594000000E+02  0.51100000000E-03 0.  1.
         11   -1    0    0    0    0 -0.00000000000E+00 -0.00000000000E+00 -0.45593999997E+02  0.45594000000E+02  0.51100000000E-03 0. -1.
    9900012    2    1    2    0    0 -0.85590375063E+01 -0.57720702406E+01  0.42155063951E+02  0.47787270345E+02  0.19999996812E+02 0.  0.
         12    1    1    2    0    0  0.85590375063E+01  0.57720702406E+01 -0.42155063951E+02  0.43400729655E+02  0.00000000000E+00 0. -1.
         11    1    3    3    0    0 -0.19832169003E+01 -0.23243274122E+01  0.79837189967E+00  0.31580128473E+01  0.51100000000E-03 0. -1.
        -11    1    3    3    0    0 -0.70384380480E+01 -0.81212439101E+01  0.35671372335E+02  0.37255080423E+02  0.51100000000E-03 0.  1.
        -12    1    3    3    0    0  0.46261744196E+00  0.46735010817E+01  0.56853197159E+01  0.73741770748E+01  0.00000000000E+00 0.  1.
</event>
<event>
 7    1  0.1384886E-010  0.4778728E+02  0.7816164E-02  0.1312668E+00
        -11   -1    0    0    0    0  0.00000000000E+00  0.00000000000E+00  0.45593999997E+02  0.45594000000E+02  0.51100000000E-03 0.  1.
         11   -1    0    0    0    0 -0.00000000000E+00 -0.00000000000E+00 -0.45593999997E+02  0.45594000000E+02  0.51100000000E-03 0. -1.
    9900012    2    1    2    0    0  0.13130377490E+02 -0.35312571022E+02  0.21546191207E+02  0.47787276034E+02  0.20000022751E+02 0.  0.
         12    1    1    2    0    0 -0.13130377490E+02  0.35312571022E+02 -0.21546191207E+02  0.43400723966E+02  0.00000000000E+00 0. -1.
         11    1    3    3    0    0 -0.86453738829E+00 -0.89724783262E+01 -0.20460376451E+01  0.92433252954E+01  0.51100000000E-03 0. -1.
        -11    1    3    3    0    0  0.40805584442E+01 -0.14361833285E+02  0.11411098882E+02  0.18791657470E+02  0.51100000000E-03 0.  1.
         12    1    3    3    0    0  0.99143564344E+01 -0.11978259411E+02  0.12181129971E+02  0.19752293269E+02  0.00000000000E+00 0. -1.
</event>
<event>
 7    1  0.1384886E-010  0.4778727E+02  0.7816164E-02  0.1312668E+00
        -11   -1    0    0    0    0  0.00000000000E+00  0.00000000000E+00  0.45593999997E+02  0.45594000000E+02  0.51100000000E-03 0. -1.
         11   -1    0    0    0    0 -0.00000000000E+00 -0.00000000000E+00 -0.45593999997E+02  0.45594000000E+02  0.51100000000E-03 0.  1.
    9900012    2    1    2    0    0  0.63590683288E+01  0.40793763577E+02 -0.13381109786E+02  0.47787274247E+02  0.20000014601E+02 0.  0.
         12    1    1    2    0    0 -0.63590683288E+01 -0.40793763577E+02  0.13381109786E+02  0.43400725753E+02  0.00000000000E+00 0. -1.
         11    1    3    3    0    0  0.96767516260E+01  0.33746498941E+02 -0.92139157035E+01  0.36295481202E+02  0.51100000000E-03 0. -1.
        -11    1    3    3    0    0 -0.18658364385E+01  0.44080008264E+01  0.15485502218E+01  0.50308870939E+01  0.51100000000E-03 0.  1.
         12    1    3    3    0    0 -0.14518468586E+01  0.26392638095E+01 -0.57157443040E+01  0.64609059509E+01  0.00000000000E+00 0. -1.
</event>
<event>
 7    1  0.1384886E-010  0.4778727E+02  0.7816164E-02  0.1312668E+00
        -11   -1    0    0    0    0  0.00000000000E+00  0.00000000000E+00  0.45593999997E+02  0.45594000000E+02  0.51100000000E-03 0.  1.
         11   -1    0    0    0    0 -0.00000000000E+00 -0.00000000000E+00 -0.45593999997E+02  0.45594000000E+02  0.51100000000E-03 0. -1.
    9900012    2    1    2    0    0  0.35806576076E+02 -0.15132052458E+02  0.19301131678E+02  0.47787267450E+02  0.19999983610E+02 0.  0.
         12    1    1    2    0    0 -0.35806576076E+02  0.15132052458E+02 -0.19301131678E+02  0.43400732550E+02  0.00000000000E+00 0. -1.
         11    1    3    3    0    0  0.19521060694E+02 -0.73676871020E+01  0.58237328785E+01  0.21662651933E+02  0.51100000000E-03 0. -1.
        -11    1    3    3    0    0  0.13581242280E+02 -0.10393774682E+02  0.14266188299E+02  0.22271165727E+02  0.51100000000E-03 0.  1.
        -12    1    3    3    0    0  0.27042731014E+01  0.26294093257E+01 -0.78878949957E+00  0.38534497899E+01  0.00000000000E+00 0.  1.
</event>
<event>
 7    1  0.1384886E-010  0.4778727E+02  0.7816164E-02  0.1312668E+00
        -11   -1    0    0    0    0  0.00000000000E+00  0.00000000000E+00  0.45593999997E+02  0.45594000000E+02  0.51100000000E-03 0.  1.
         11   -1    0    0    0    0 -0.00000000000E+00 -0.00000000000E+00 -0.45593999997E+02  0.45594000000E+02  0.51100000000E-03 0. -1.
    9900012    2    1    2    0    0 -0.21417881623E+02  0.15985360455E+02  0.34195992604E+02  0.47787270602E+02  0.19999997984E+02 0.  0.
         12    1    1    2    0    0  0.21417881623E+02 -0.15985360455E+02 -0.34195992604E+02  0.43400729398E+02  0.00000000000E+00 0. -1.
         11    1    3    3    0    0 -0.62649051514E+01  0.19907160262E+00 -0.25603194434E+00  0.62732940850E+01  0.51100000000E-03 0. -1.
        -11    1    3    3    0    0 -0.11717106888E+02  0.73080254020E+01  0.23357601019E+02  0.27134394313E+02  0.51100000000E-03 0.  1.
        -12    1    3    3    0    0 -0.34358695831E+01  0.84782634505E+01  0.11094423529E+02  0.14379582205E+02  0.00000000000E+00 0.  1.
</event>
<event>
 7    1  0.1384886E-010  0.4778728E+02  0.7816164E-02  0.1312668E+00
        -11   -1    0    0    0    0  0.00000000000E+00  0.00000000000E+00  0.45593999997E+02  0.45594000000E+02  0.51100000000E-03 0.  1.
         11   -1    0    0    0    0 -0.00000000000E+00 -0.00000000000E+00 -0.45593999997E+02  0.45594000000E+02  0.51100000000E-03 0. -1.
    9900012    2    1    2    0    0  0.36463819937E+02  0.19721384353E+01  0.23454707883E+02  0.47787276316E+02  0.20000024035E+02 0.  0.
         12    1    1    2    0    0 -0.36463819937E+02 -0.19721384353E+01 -0.23454707883E+02  0.43400723684E+02  0.00000000000E+00 0. -1.
         11    1    3    3    0    0  0.20287020456E+02 -0.20591713495E+01  0.60099196104E+01  0.21258469362E+02  0.51100000000E-03 0. -1.
        -11    1    3    3    0    0  0.15759276842E+02  0.34558035391E+01  0.98544197183E+01  0.18905210206E+02  0.51100000000E-03 0.  1.
         12    1    3    3    0    0  0.41752263939E+00  0.57550624564E+00  0.75903685540E+01  0.76235967482E+01  0.00000000000E+00 0. -1.
</event>
<event>
 7    1  0.1384886E-010  0.4778727E+02  0.7816164E-02  0.1312668E+00
        -11   -1    0    0    0    0  0.00000000000E+00  0.00000000000E+00  0.45593999997E+02  0.45594000000E+02  0.51100000000E-03 0. -1.
         11   -1    0    0    0    0 -0.00000000000E+00 -0.00000000000E+00 -0.45593999997E+02  0.45594000000E+02  0.51100000000E-03 0.  1.
    9900012    2    1    2    0    0 -0.36007495255E+01 -0.25712416469E+02 -0.34778295172E+02  0.47787267600E+02  0.19999984293E+02 0.  0.
         12    1    1    2    0    0  0.36007495255E+01  0.25712416469E+02  0.34778295172E+02  0.43400732400E+02  0.00000000000E+00 0. -1.
         11    1    3    3    0    0 -0.53150220300E+00 -0.15117220415E+02 -0.64972216714E+01  0.16462889703E+02  0.51100000000E-03 0. -1.
        -11    1    3    3    0    0  0.34805410794E-01  0.11358380352E+01 -0.43039479757E+01  0.44514388569E+01  0.51100000000E-03 0.  1.
         12    1    3    3    0    0 -0.31040527333E+01 -0.11731034089E+02 -0.23977125525E+02  0.26872939039E+02  0.00000000000E+00 0. -1.
</event>
<event>
 7    1  0.1384886E-010  0.4778727E+02  0.7816164E-02  0.1312668E+00
        -11   -1    0    0    0    0  0.00000000000E+00  0.00000000000E+00  0.45593999997E+02  0.45594000000E+02  0.51100000000E-03 0.  1.
         11   -1    0    0    0    0 -0.00000000000E+00 -0.00000000000E+00 -0.45593999997E+02  0.45594000000E+02  0.51100000000E-03 0. -1.
    9900012    2    1    2    0    0  0.26918035342E+02 -0.16689614927E+02  0.29673208156E+02  0.47787272410E+02  0.20000006224E+02 0.  0.
         12    1    1    2    0    0 -0.26918035342E+02  0.16689614927E+02 -0.29673208156E+02  0.43400727590E+02  0.00000000000E+00 0. -1.
         11    1    3    3    0    0  0.17971326257E+02 -0.93467432116E+01  0.11260275310E+02  0.23175935287E+02  0.51100000000E-03 0. -1.
        -11    1    3    3    0    0  0.36991698294E+01 -0.94357701426E+01  0.86168230384E+01  0.13302904012E+02  0.51100000000E-03 0.  1.
         12    1    3    3    0    0  0.52475392559E+01  0.20928984267E+01  0.97961098071E+01  0.11308433111E+02  0.00000000000E+00 0. -1.
</event>
<event>
 7    1  0.1384886E-010  0.4778727E+02  0.7816164E-02  0.1312668E+00
        -11   -1    0    0    0    0  0.00000000000E+00  0.00000000000E+00  0.45593999997E+02  0.45594000000E+02  0.51100000000E-03 0. -1.
         11   -1    0    0    0    0 -0.00000000000E+00 -0.00000000000E+00 -0.45593999997E+02  0.45594000000E+02  0.51100000000E-03 0.  1.
    9900012    2    1    2    0    0  0.75403344335E+01  0.42261991985E+02 -0.63789113622E+01  0.47787272816E+02  0.20000008079E+02 0.  0.
         12    1    1    2    0    0 -0.75403344335E+01 -0.42261991985E+02  0.63789113622E+01  0.43400727184E+02  0.00000000000E+00 0. -1.
         11    1    3    3    0    0 -0.15722754186E+01  0.34591211740E+01 -0.80009540922E+00  0.38830042767E+01  0.51100000000E-03 0. -1.
        -11    1    3    3    0    0  0.45032580995E+01  0.38179891877E+02 -0.29404910886E+01  0.38556840707E+02  0.51100000000E-03 0.  1.
        -12    1    3    3    0    0  0.46093517526E+01  0.62297893442E+00 -0.26383248644E+01  0.53474278323E+01  0.00000000000E+00 0.  1.
</event>
<event>
 7    1  0.1384886E-010  0.4778727E+02  0.7816164E-02  0.1312668E+00
        -11   -1    0    0    0    0  0.00000000000E+00  0.00000000000E+00  0.45593999997E+02  0.45594000000E+02  0.51100000000E-03 0.  1.
         11   -1    0    0    0    0 -0.00000000000E+00 -0.00000000000E+00 -0.45593999997E+02  0.45594000000E+02  0.51100000000E-03 0. -1.
    9900012    2    1    2    0    0 -0.11255034719E+02  0.39047365838E+02  0.15239767209E+02  0.47787273163E+02  0.20000009660E+02 0.  0.
         12    1    1    2    0    0  0.11255034719E+02 -0.39047365838E+02 -0.15239767209E+02  0.43400726837E+02  0.00000000000E+00 0. -1.
         11    1    3    3    0    0  0.22340952486E+01  0.13100437391E+02  0.42097730485E+01  0.13940402820E+02  0.51100000000E-03 0. -1.
        -11    1    3    3    0    0 -0.50551473527E+01  0.18040460235E+02  0.13764629767E+01  0.18785828990E+02  0.51100000000E-03 0.  1.
         12    1    3    3    0    0 -0.84339826148E+01  0.79064682127E+01  0.96535311834E+01  0.15061041354E+02  0.00000000000E+00 0. -1.
</event>
<event>
 7    1  0.1384886E-010  0.4778727E+02  0.7816164E-02  0.1312668E+00
        -11   -1    0    0    0    0  0.00000000000E+00  0.00000000000E+00  0.45593999997E+02  0.45594000000E+02  0.51100000000E-03 0.  1.
         11   -1    0    0    0    0 -0.00000000000E+00 -0.00000000000E+00 -0.45593999997E+02  0.45594000000E+02  0.51100000000E-03 0. -1.
    9900012    2    1    2    0    0  0.22951345619E+02 -0.30747043049E+02 -0.20284926660E+02  0.47787272223E+02  0.20000005375E+02 0.  0.
         12    1    1    2    0    0 -0.22951345619E+02  0.30747043049E+02  0.20284926660E+02  0.43400727777E+02  0.00000000000E+00 0. -1.
         11    1    3    3    0    0  0.19069516945E+01 -0.99104699672E+01 -0.55551372847E+01  0.11520131520E+02  0.51100000000E-03 0.  1.
        -11    1    3    3    0    0  0.14802440167E+02 -0.53126482438E+01 -0.34868977201E+01  0.16108846087E+02  0.51100000000E-03 0. -1.
         12    1    3    3    0    0  0.62419537568E+01 -0.15523924838E+02 -0.11242891655E+02  0.20158294616E+02  0.00000000000E+00 0. -1.
</event>
<event>
 7    1  0.1384886E-010  0.4778727E+02  0.7816164E-02  0.1312668E+00
        -11   -1    0    0    0    0  0.00000000000E+00  0.00000000000E+00  0.45593999997E+02  0.45594000000E+02  0.51100000000E-03 0.  1.
         11   -1    0    0    0    0 -0.00000000000E+00 -0.00000000000E+00 -0.45593999997E+02  0.45594000000E+02  0.51100000000E-03 0. -1.
    9900012    2    1    2    0    0  0.24940359415E+02 -0.29330722150E+02  0.20032731250E+02  0.47787272922E+02  0.20000008559E+02 0.  0.
         12    1    1    2    0    0 -0.24940359415E+02  0.29330722150E+02 -0.20032731250E+02  0.43400727078E+02  0.00000000000E+00 0. -1.
         11    1    3    3    0    0  0.13631353008E+01 -0.85001676098E+01  0.84377609939E+01  0.12054326945E+02  0.51100000000E-03 0. -1.
        -11    1    3    3    0    0  0.20227588892E+02 -0.17166905837E+02  0.14237602403E+02  0.30109256564E+02  0.51100000000E-03 0.  1.
         12    1    3    3    0    0  0.33496352229E+01 -0.36636487031E+01 -0.26426321471E+01  0.56236894127E+01  0.00000000000E+00 0. -1.
</event>
<event>
 7    1  0.1384886E-010  0.4778727E+02  0.7816164E-02  0.1312668E+00
        -11   -1    0    0    0    0  0.00000000000E+00  0.00000000000E+00  0.45593999997E+02  0.45594000000E+02  0.51100000000E-03 0. -1.
         11   -1    0    0    0    0 -0.00000000000E+00 -0.00000000000E+00 -0.45593999997E+02  0.45594000000E+02  0.51100000000E-03 0.  1.
    9900012    2    1    2    0    0  0.10661649091E+02  0.38157549684E+02 -0.17718739177E+02  0.47787273309E+02  0.20000010326E+02 0.  0.
         12    1    1    2    0    0 -0.10661649091E+02 -0.38157549684E+02  0.17718739177E+02  0.43400726691E+02  0.00000000000E+00 0. -1.
         11    1    3    3    0    0  0.77410145553E+01  0.18608694465E+02  0.70461288073E+00  0.20166886116E+02  0.51100000000E-03 0. -1.
        -11    1    3    3    0    0  0.37238661476E+01  0.13932110823E+02 -0.10342389176E+02  0.17746433590E+02  0.51100000000E-03 0.  1.
        -12    1    3    3    0    0 -0.80323161229E+00  0.56167443970E+01 -0.80809628824E+01  0.98739536028E+01  0.00000000000E+00 0.  1.
</event>
<event>
 7    1  0.1384886E-010  0.4778727E+02  0.7816164E-02  0.1312668E+00
        -11   -1    0    0    0    0  0.00000000000E+00  0.00000000000E+00  0.45593999997E+02  0.45594000000E+02  0.51100000000E-03 0. -1.
         11   -1    0    0    0    0 -0.00000000000E+00 -0.00000000000E+00 -0.45593999997E+02  0.45594000000E+02  0.51100000000E-03 0.  1.
    9900012    2    1    2    0    0 -0.17800328235E+02  0.26124177074E+02 -0.29737167541E+02  0.47787269056E+02  0.19999990936E+02 0.  0.
         12    1    1    2    0    0  0.17800328235E+02 -0.26124177074E+02  0.29737167541E+02  0.43400730944E+02  0.00000000000E+00 0. -1.
         11    1    3    3    0    0 -0.12678385102E+01  0.56993962750E+01  0.16591045443E+01  0.60698567147E+01  0.51100000000E-03 0. -1.
        -11    1    3    3    0    0  0.77166238331E+00  0.35996481400E+00 -0.40236459051E+00  0.94177227925E+00  0.51100000000E-03 0.  1.
        -12    1    3    3    0    0 -0.17304152109E+02  0.20064815985E+02 -0.30993907494E+02  0.40775640062E+02  0.00000000000E+00 0.  1.
</event>
<event>
 7    1  0.1384886E-010  0.4778728E+02  0.7816164E-02  0.1312668E+00
        -11   -1    0    0    0    0  0.00000000000E+00  0.00000000000E+00  0.45593999997E+02  0.45594000000E+02  0.51100000000E-03 0. -1.
         11   -1    0    0    0    0 -0.00000000000E+00 -0.00000000000E+00 -0.45593999997E+02  0.45594000000E+02  0.51100000000E-03 0.  1.
    9900012    2    1    2    0    0 -0.39785464135E+02 -0.12689910413E+02  0.11819714798E+02  0.47787278340E+02  0.20000033262E+02 0.  0.
         12    1    1    2    0    0  0.39785464135E+02  0.12689910413E+02 -0.11819714798E+02  0.43400721660E+02  0.00000000000E+00 0. -1.
         11    1    3    3    0    0 -0.60470960736E+01  0.25108322042E+00  0.57814986409E+01  0.83699546297E+01  0.51100000000E-03 0. -1.
        -11    1    3    3    0    0 -0.29919972655E+02 -0.56160306259E+01  0.28979547839E+01  0.30580103104E+02  0.51100000000E-03 0.  1.
        -12    1    3    3    0    0 -0.38183954060E+01 -0.73249630076E+01  0.31402613731E+01  0.88372206056E+01  0.00000000000E+00 0.  1.
</event>
<event>
 7    1  0.1384886E-010  0.4778726E+02  0.7816164E-02  0.1312668E+00
        -11   -1    0    0    0    0  0.00000000000E+00  0.00000000000E+00  0.45593999997E+02  0.45594000000E+02  0.51100000000E-03 0.  1.
         11   -1    0    0    0    0 -0.00000000000E+00 -0.00000000000E+00 -0.45593999997E+02  0.45594000000E+02  0.51100000000E-03 0. -1.
    9900012    2    1    2    0    0  0.21131533238E+02  0.25479000549E+02  0.28069609686E+02  0.47787260906E+02  0.19999953776E+02 0.  0.
         12    1    1    2    0    0 -0.21131533238E+02 -0.25479000549E+02 -0.28069609686E+02  0.43400739094E+02  0.00000000000E+00 0. -1.
         11    1    3    3    0    0 -0.16049413069E+01 -0.15138537031E+01  0.49161267985E+01  0.53884963202E+01  0.51100000000E-03 0. -1.
        -11    1    3    3    0    0  0.11771354191E+02  0.12706857656E+02  0.13533270616E+02  0.21981319906E+02  0.51100000000E-03 0.  1.
         12    1    3    3    0    0  0.10965120355E+02  0.14285996595E+02  0.96202122711E+01  0.20417444680E+02  0.00000000000E+00 0. -1.
</event>
<event>
 7    1  0.1384886E-010  0.4778729E+02  0.7816164E-02  0.1312668E+00
        -11   -1    0    0    0    0  0.00000000000E+00  0.00000000000E+00  0.45593999997E+02  0.45594000000E+02  0.51100000000E-03 0. -1.
         11   -1    0    0    0    0 -0.00000000000E+00 -0.00000000000E+00 -0.45593999997E+02  0.45594000000E+02  0.51100000000E-03 0.  1.
    9900012    2    1    2    0    0  0.38366424465E+02  0.59349736378E+01  0.19401428456E+02  0.47787287282E+02  0.20000074032E+02 0.  0.
         12    1    1    2    0    0 -0.38366424465E+02 -0.59349736378E+01 -0.19401428456E+02  0.43400712718E+02  0.00000000000E+00 0. -1.
         11    1    3    3    0    0  0.81532865902E+01 -0.37519762843E+01  0.14475519800E+01  0.90911393816E+01  0.51100000000E-03 0. -1.
        -11    1    3    3    0    0  0.49268782628E+01 -0.18828131302E+00 -0.16634722145E+01  0.52035295078E+01  0.51100000000E-03 0.  1.
        -12    1    3    3    0    0  0.25286259612E+02  0.98752312352E+01  0.19617348691E+02  0.33492618392E+02  0.00000000000E+00 0.  1.
</event>
<event>
 7    1  0.1384886E-010  0.4778728E+02  0.7816164E-02  0.1312668E+00
        -11   -1    0    0    0    0  0.00000000000E+00  0.00000000000E+00  0.45593999997E+02  0.45594000000E+02  0.51100000000E-03 0.  1.
         11   -1    0    0    0    0 -0.00000000000E+00 -0.00000000000E+00 -0.45593999997E+02  0.45594000000E+02  0.51100000000E-03 0. -1.
    9900012    2    1    2    0    0  0.12825333736E+01 -0.29443291972E+02  0.31860164569E+02  0.47787280877E+02  0.20000044830E+02 0.  0.
         12    1    1    2    0    0 -0.12825333736E+01  0.29443291972E+02 -0.31860164569E+02  0.43400719123E+02  0.00000000000E+00 0. -1.
         11    1    3    3    0    0  0.19282102515E+01 -0.10919926624E+02  0.17260872620E+02  0.20515860111E+02  0.51100000000E-03 0.  1.
        -11    1    3    3    0    0 -0.18485110590E+01 -0.20564937522E+02  0.12767557116E+02  0.24276411666E+02  0.51100000000E-03 0. -1.
        -12    1    3    3    0    0  0.12028341811E+01  0.20415721735E+01  0.18317348338E+01  0.29950090998E+01  0.00000000000E+00 0.  1.
</event>
<event>
 7    1  0.1384886E-010  0.4778727E+02  0.7816164E-02  0.1312668E+00
        -11   -1    0    0    0    0  0.00000000000E+00  0.00000000000E+00  0.45593999997E+02  0.45594000000E+02  0.51100000000E-03 0. -1.
         11   -1    0    0    0    0 -0.00000000000E+00 -0.00000000000E+00 -0.45593999997E+02  0.45594000000E+02  0.51100000000E-03 0.  1.
    9900012    2    1    2    0    0  0.43214730406E+02  0.38961596047E+01 -0.96478326585E+00  0.47787265093E+02  0.19999972863E+02 0.  0.
         12    1    1    2    0    0 -0.43214730406E+02 -0.38961596047E+01  0.96478326585E+00  0.43400734907E+02  0.00000000000E+00 0. -1.
         11    1    3    3    0    0  0.19992144560E+02 -0.57132442144E+01 -0.19047729360E+01  0.20879539357E+02  0.51100000000E-03 0. -1.
        -11    1    3    3    0    0  0.97406875070E+01  0.86916552210E+00 -0.32463704469E+01  0.10304143009E+02  0.51100000000E-03 0.  1.
        -12    1    3    3    0    0  0.13481898340E+02  0.87402382971E+01  0.41863601170E+01  0.16603582727E+02  0.00000000000E+00 0.  1.
</event>
<event>
 7    1  0.1384886E-010  0.4778727E+02  0.7816164E-02  0.1312668E+00
        -11   -1    0    0    0    0  0.00000000000E+00  0.00000000000E+00  0.45593999997E+02  0.45594000000E+02  0.51100000000E-03 0. -1.
         11   -1    0    0    0    0 -0.00000000000E+00 -0.00000000000E+00 -0.45593999997E+02  0.45594000000E+02  0.51100000000E-03 0.  1.
    9900012    2    1    2    0    0  0.20921620345E+02 -0.29885355138E+02 -0.23511159146E+02  0.47787271274E+02  0.20000001046E+02 0.  0.
         12    1    1    2    0    0 -0.20921620345E+02  0.29885355138E+02  0.23511159146E+02  0.43400728726E+02  0.00000000000E+00 0. -1.
         11    1    3    3    0    0  0.52260665911E+01 -0.11896594260E+02 -0.15044355226E+02  0.19878967565E+02  0.51100000000E-03 0. -1.
        -11    1    3    3    0    0  0.16661691373E+02 -0.12818919194E+02 -0.84280678239E+01  0.22648818429E+02  0.51100000000E-03 0.  1.
         12    1    3    3    0    0 -0.96613761918E+00 -0.51698416834E+01 -0.38736096534E-01  0.52594852805E+01  0.00000000000E+00 0. -1.
</event>
<event>
 7    1  0.1384886E-010  0.4778727E+02  0.7816164E-02  0.1312668E+00
        -11   -1    0    0    0    0  0.00000000000E+00  0.00000000000E+00  0.45593999997E+02  0.45594000000E+02  0.51100000000E-03 0.  1.
         11   -1    0    0    0    0 -0.00000000000E+00 -0.00000000000E+00 -0.45593999997E+02  0.45594000000E+02  0.51100000000E-03 0. -1.
    9900012    2    1    2    0    0  0.10389506711E+02 -0.34542792430E+02  0.24134553153E+02  0.47787274033E+02  0.20000013626E+02 0.  0.
         12    1    1    2    0    0 -0.10389506711E+02  0.34542792430E+02 -0.24134553153E+02  0.43400725967E+02  0.00000000000E+00 0. -1.
         11    1    3    3    0    0 -0.58102210879E-01 -0.21901786846E+01  0.51332421828E+01  0.55812573947E+01  0.51100000000E-03 0. -1.
        -11    1    3    3    0    0  0.11267879955E+02 -0.18066434316E+02  0.43617121478E+01  0.21734435826E+02  0.51100000000E-03 0.  1.
        -12    1    3    3    0    0 -0.82027103315E+00 -0.14286179429E+02  0.14639598822E+02  0.20471580812E+02  0.00000000000E+00 0.  1.
</event>
<event>
 7    1  0.1384886E-010  0.4778727E+02  0.7816164E-02  0.1312668E+00
        -11   -1    0    0    0    0  0.00000000000E+00  0.00000000000E+00  0.45593999997E+02  0.45594000000E+02  0.51100000000E-03 0.  1.
         11   -1    0    0    0    0 -0.00000000000E+00 -0.00000000000E+00 -0.45593999997E+02  0.45594000000E+02  0.51100000000E-03 0. -1.
    9900012    2    1    2    0    0 -0.18760768282E+02  0.44383467753E+01  0.38883904767E+02  0.47787269608E+02  0.19999993451E+02 0.  0.
         12    1    1    2    0    0  0.18760768282E+02 -0.44383467753E+01 -0.38883904767E+02  0.43400730392E+02  0.00000000000E+00 0. -1.
         11    1    3    3    0    0  0.17473545427E+01 -0.17775947620E+01  0.29142345608E+01  0.38348212960E+01  0.51100000000E-03 0. -1.
        -11    1    3    3    0    0 -0.21457439319E+02  0.44509683077E+01  0.35755816987E+02  0.41936991662E+02  0.51100000000E-03 0.  1.
         12    1    3    3    0    0  0.94931649434E+00  0.17649732296E+01  0.21385321905E+00  0.20154566497E+01  0.00000000000E+00 0. -1.
</event>
<event>
 7    1  0.1384886E-010  0.4778727E+02  0.7816164E-02  0.1312668E+00
        -11   -1    0    0    0    0  0.00000000000E+00  0.00000000000E+00  0.45593999997E+02  0.45594000000E+02  0.51100000000E-03 0.  1.
         11   -1    0    0    0    0 -0.00000000000E+00 -0.00000000000E+00 -0.45593999997E+02  0.45594000000E+02  0.51100000000E-03 0. -1.
    9900012    2    1    2    0    0 -0.31566766339E+01  0.14726575153E+02  0.40703644276E+02  0.47787270969E+02  0.19999999655E+02 0.  0.
         12    1    1    2    0    0  0.31566766339E+01 -0.14726575153E+02 -0.40703644276E+02  0.43400729031E+02  0.00000000000E+00 0. -1.
         11    1    3    3    0    0 -0.13623836321E+01 -0.16576536141E+01  0.75151742068E+01  0.78154813214E+01  0.51100000000E-03 0. -1.
        -11    1    3    3    0    0  0.64314355771E+01  0.98112809022E+01  0.18255768011E+02  0.21700176554E+02  0.51100000000E-03 0.  1.
        -12    1    3    3    0    0 -0.82257285789E+01  0.65729478646E+01  0.14932702058E+02  0.18271613094E+02  0.00000000000E+00 0.  1.
</event>
<event>
 7    1  0.1384886E-010  0.4778727E+02  0.7816164E-02  0.1312668E+00
        -11   -1    0    0    0    0  0.00000000000E+00  0.00000000000E+00  0.45593999997E+02  0.45594000000E+02  0.51100000000E-03 0.  1.
         11   -1    0    0    0    0 -0.00000000000E+00 -0.00000000000E+00 -0.45593999997E+02  0.45594000000E+02  0.51100000000E-03 0. -1.
    9900012    2    1    2    0    0  0.20980793142E+02  0.14928428262E+02  0.34936682351E+02  0.47787269305E+02  0.19999992067E+02 0.  0.
         12    1    1    2    0    0 -0.20980793142E+02 -0.14928428262E+02 -0.34936682351E+02  0.43400730695E+02  0.00000000000E+00 0. -1.
         11    1    3    3    0    0  0.31261150906E+01  0.49555402411E+01  0.30150923745E+01  0.65894428390E+01  0.51100000000E-03 0.  1.
        -11    1    3    3    0    0  0.18036501559E+02  0.61598868502E+01  0.32148672891E+02  0.37373744306E+02  0.51100000000E-03 0. -1.
         12    1    3    3    0    0 -0.18182350810E+00  0.38130011705E+01 -0.22708291503E+00  0.38240821597E+01  0.00000000000E+00 0. -1.
</event>
<event>
 7    1  0.1384886E-010  0.4778727E+02  0.7816164E-02  0.1312668E+00
        -11   -1    0    0    0    0  0.00000000000E+00  0.00000000000E+00  0.45593999997E+02  0.45594000000E+02  0.51100000000E-03 0. -1.
         11   -1    0    0    0    0 -0.00000000000E+00 -0.00000000000E+00 -0.45593999997E+02  0.45594000000E+02  0.51100000000E-03 0.  1.
    9900012    2    1    2    0    0  0.16323998609E+02 -0.95238952771E+01 -0.39069755800E+02  0.47787270397E+02  0.19999997046E+02 0.  0.
         12    1    1    2    0    0 -0.16323998609E+02  0.95238952771E+01  0.39069755800E+02  0.43400729603E+02  0.00000000000E+00 0. -1.
         11    1    3    3    0    0  0.13180510081E+01 -0.21523856399E+01  0.13150837333E+01  0.28459564103E+01  0.51100000000E-03 0. -1.
        -11    1    3    3    0    0  0.36869916255E+01 -0.23893687861E+01 -0.24077156866E+02  0.24474731325E+02  0.51100000000E-03 0.  1.
         12    1    3    3    0    0  0.11318955976E+02 -0.49821408511E+01 -0.16307682668E+02  0.20466582661E+02  0.00000000000E+00 0. -1.
</event>
<event>
 7    1  0.1384886E-010  0.4778728E+02  0.7816164E-02  0.1312668E+00
        -11   -1    0    0    0    0  0.00000000000E+00  0.00000000000E+00  0.45593999997E+02  0.45594000000E+02  0.51100000000E-03 0.  1.
         11   -1    0    0    0    0 -0.00000000000E+00 -0.00000000000E+00 -0.45593999997E+02  0.45594000000E+02  0.51100000000E-03 0. -1.
    9900012    2    1    2    0    0 -0.41196610239E+02  0.97766845470E+01  0.95330200832E+01  0.47787277335E+02  0.20000028681E+02 0.  0.
         12    1    1    2    0    0  0.41196610239E+02 -0.97766845470E+01 -0.95330200832E+01  0.43400722665E+02  0.00000000000E+00 0. -1.
         11    1    3    3    0    0  0.10067039924E+01 -0.53371189236E-02  0.31844858517E+00  0.10558840731E+01  0.51100000000E-03 0. -1.
        -11    1    3    3    0    0 -0.34863437524E+02  0.89313221186E+01  0.14581439552E+01  0.36018800297E+02  0.51100000000E-03 0.  1.
         12    1    3    3    0    0 -0.73398767072E+01  0.85069954736E+00  0.77564275428E+01  0.10712592965E+02  0.00000000000E+00 0. -1.
</event>
<event>
 7    1  0.1384886E-010  0.4778727E+02  0.7816164E-02  0.1312668E+00
        -11   -1    0    0    0    0  0.00000000000E+00  0.00000000000E+00  0.45593999997E+02  0.45594000000E+02  0.51100000000E-03 0. -1.
         11   -1    0    0    0    0 -0.00000000000E+00 -0.00000000000E+00 -0.45593999997E+02  0.45594000000E+02  0.51100000000E-03 0.  1.
    9900012    2    1    2    0    0  0.32136603991E+02  0.19195072065E+02 -0.21963861208E+02  0.47787270665E+02  0.19999998270E+02 0.  0.
         12    1    1    2    0    0 -0.32136603991E+02 -0.19195072065E+02  0.21963861208E+02  0.43400729335E+02  0.00000000000E+00 0. -1.
         11    1    3    3    0    0  0.11036718306E+02  0.10022935587E+02 -0.72523499094E+01  0.16579052090E+02  0.51100000000E-03 0.  1.
        -11    1    3    3    0    0  0.92011271995E+01  0.11361593304E+02 -0.42803916402E+01  0.15233788005E+02  0.51100000000E-03 0. -1.
         12    1    3    3    0    0  0.11898758486E+02 -0.21894568257E+01 -0.10431119658E+02  0.15974430569E+02  0.00000000000E+00 0. -1.
</event>
<event>
 7    1  0.1384886E-010  0.4778727E+02  0.7816164E-02  0.1312668E+00
        -11   -1    0    0    0    0  0.00000000000E+00  0.00000000000E+00  0.45593999997E+02  0.45594000000E+02  0.51100000000E-03 0.  1.
         11   -1    0    0    0    0 -0.00000000000E+00 -0.00000000000E+00 -0.45593999997E+02  0.45594000000E+02  0.51100000000E-03 0. -1.
    9900012    2    1    2    0    0  0.57517894608E+01 -0.17796617858E+01  0.42981078717E+02  0.47787269525E+02  0.19999993073E+02 0.  0.
         12    1    1    2    0    0 -0.57517894608E+01  0.17796617858E+01 -0.42981078717E+02  0.43400730475E+02  0.00000000000E+00 0. -1.
         11    1    3    3    0    0  0.15646921746E+01  0.81650395711E+00 -0.15381075164E+01  0.23410927590E+01  0.51100000000E-03 0. -1.
        -11    1    3    3    0    0  0.17752782543E+00 -0.44731015682E+01  0.17326632946E+02  0.17895596198E+02  0.51100000000E-03 0.  1.
        -12    1    3    3    0    0  0.40095694608E+01  0.18769358253E+01  0.27192553287E+02  0.27550580568E+02  0.00000000000E+00 0.  1.
</event>
<event>
 7    1  0.1384886E-010  0.4778728E+02  0.7816164E-02  0.1312668E+00
        -11   -1    0    0    0    0  0.00000000000E+00  0.00000000000E+00  0.45593999997E+02  0.45594000000E+02  0.51100000000E-03 0.  1.
         11   -1    0    0    0    0 -0.00000000000E+00 -0.00000000000E+00 -0.45593999997E+02  0.45594000000E+02  0.51100000000E-03 0. -1.
    9900012    2    1    2    0    0  0.28459795586E+02 -0.13618213258E+02  0.29802803444E+02  0.47787276616E+02  0.20000025402E+02 0.  0.
         12    1    1    2    0    0 -0.28459795586E+02  0.13618213258E+02 -0.29802803444E+02  0.43400723384E+02  0.00000000000E+00 0. -1.
         11    1    3    3    0    0  0.12015349513E+02 -0.19495803166E+01  0.99094678236E+01  0.15696083593E+02  0.51100000000E-03 0. -1.
        -11    1    3    3    0    0 -0.61628353387E+00 -0.26723233336E+01  0.10088711181E+02  0.10454817595E+02  0.51100000000E-03 0.  1.
         12    1    3    3    0    0  0.17060729606E+02 -0.89963096077E+01  0.98046244400E+01  0.21636375428E+02  0.00000000000E+00 0. -1.
</event>
<event>
 7    1  0.1384886E-010  0.4778727E+02  0.7816164E-02  0.1312668E+00
        -11   -1    0    0    0    0  0.00000000000E+00  0.00000000000E+00  0.45593999997E+02  0.45594000000E+02  0.51100000000E-03 0. -1.
         11   -1    0    0    0    0 -0.00000000000E+00 -0.00000000000E+00 -0.45593999997E+02  0.45594000000E+02  0.51100000000E-03 0.  1.
    9900012    2    1    2    0    0 -0.25047079674E+02  0.31411830690E+02 -0.16418400702E+02  0.47787272021E+02  0.20000004452E+02 0.  0.
         12    1    1    2    0    0  0.25047079674E+02 -0.31411830690E+02  0.16418400702E+02  0.43400727979E+02  0.00000000000E+00 0. -1.
         11    1    3    3    0    0 -0.71064081302E+01  0.34135770083E+01 -0.57358733508E+01  0.97495532135E+01  0.51100000000E-03 0.  1.
        -11    1    3    3    0    0 -0.16202431998E+02  0.29793550893E+02 -0.10619599636E+02  0.35538013087E+02  0.51100000000E-03 0. -1.
         12    1    3    3    0    0 -0.17382395453E+01 -0.17952972108E+01 -0.62927714769E-01  0.24997057205E+01  0.00000000000E+00 0. -1.
</event>
<event>
 7    1  0.1384886E-010  0.4778727E+02  0.7816164E-02  0.1312668E+00
        -11   -1    0    0    0    0  0.00000000000E+00  0.00000000000E+00  0.45593999997E+02  0.45594000000E+02  0.51100000000E-03 0.  1.
         11   -1    0    0    0    0 -0.00000000000E+00 -0.00000000000E+00 -0.45593999997E+02  0.45594000000E+02  0.51100000000E-03 0. -1.
    9900012    2    1    2    0    0  0.41431625422E+01  0.60217684107E+01  0.42780785477E+02  0.47787273086E+02  0.20000009308E+02 0.  0.
         12    1    1    2    0    0 -0.41431625422E+01 -0.60217684107E+01 -0.42780785477E+02  0.43400726914E+02  0.00000000000E+00 0. -1.
         11    1    3    3    0    0 -0.35519539490E+01  0.22948852255E+01  0.18452847391E+02  0.18931203135E+02  0.51100000000E-03 0. -1.
        -11    1    3    3    0    0  0.51527904485E+01  0.84487224239E+01  0.13144103216E+02  0.16452951396E+02  0.51100000000E-03 0.  1.
         12    1    3    3    0    0  0.25423260427E+01 -0.47218392387E+01  0.11183834870E+02  0.12403118555E+02  0.00000000000E+00 0. -1.
</event>
<event>
 7    1  0.1384886E-010  0.4778727E+02  0.7816164E-02  0.1312668E+00
        -11   -1    0    0    0    0  0.00000000000E+00  0.00000000000E+00  0.45593999997E+02  0.45594000000E+02  0.51100000000E-03 0.  1.
         11   -1    0    0    0    0 -0.00000000000E+00 -0.00000000000E+00 -0.45593999997E+02  0.45594000000E+02  0.51100000000E-03 0. -1.
    9900012    2    1    2    0    0  0.12905671012E+02 -0.40859125972E+02  0.68991677339E+01  0.47787273797E+02  0.20000012551E+02 0.  0.
         12    1    1    2    0    0 -0.12905671012E+02  0.40859125972E+02 -0.68991677339E+01  0.43400726203E+02  0.00000000000E+00 0. -1.
         11    1    3    3    0    0 -0.11983888063E+01 -0.18204608074E-01 -0.25845067237E+01  0.28488844140E+01  0.51100000000E-03 0. -1.
        -11    1    3    3    0    0  0.30067492474E+01 -0.13179946573E+02  0.64558139110E+01  0.14980956785E+02  0.51100000000E-03 0.  1.
         12    1    3    3    0    0  0.11097310571E+02 -0.27660974792E+02  0.30278605465E+01  0.29957432598E+02  0.00000000000E+00 0. -1.
</event>
<event>
 7    1  0.1384886E-010  0.4778727E+02  0.7816164E-02  0.1312668E+00
        -11   -1    0    0    0    0  0.00000000000E+00  0.00000000000E+00  0.45593999997E+02  0.45594000000E+02  0.51100000000E-03 0.  1.
         11   -1    0    0    0    0 -0.00000000000E+00 -0.00000000000E+00 -0.45593999997E+02  0.45594000000E+02  0.51100000000E-03 0. -1.
    9900012    2    1    2    0    0  0.41178412722E+02 -0.48932972305E+01  0.12806921155E+02  0.47787271187E+02  0.20000000648E+02 0.  0.
         12    1    1    2    0    0 -0.41178412722E+02  0.48932972305E+01 -0.12806921155E+02  0.43400728813E+02  0.00000000000E+00 0. -1.
         11    1    3    3    0    0  0.13044162846E+02  0.22959125440E+01  0.42519745183E+01  0.13910452413E+02  0.51100000000E-03 0. -1.
        -11    1    3    3    0    0  0.20788818857E+02 -0.11678581969E+02  0.83543502425E+01  0.25265775953E+02  0.51100000000E-03 0.  1.
        -12    1    3    3    0    0  0.73454310194E+01  0.44893721943E+01  0.20059639399E+00  0.86110428214E+01  0.00000000000E+00 0.  1.
</event>
<event>
 7    1  0.1384886E-010  0.4778727E+02  0.7816164E-02  0.1312668E+00
        -11   -1    0    0    0    0  0.00000000000E+00  0.00000000000E+00  0.45593999997E+02  0.45594000000E+02  0.51100000000E-03 0. -1.
         11   -1    0    0    0    0 -0.00000000000E+00 -0.00000000000E+00 -0.45593999997E+02  0.45594000000E+02  0.51100000000E-03 0.  1.
    9900012    2    1    2    0    0  0.23493684213E+02 -0.30882522530E+02  0.19440672088E+02  0.47787272737E+02  0.20000007717E+02 0.  0.
         12    1    1    2    0    0 -0.23493684213E+02  0.30882522530E+02 -0.19440672088E+02  0.43400727263E+02  0.00000000000E+00 0. -1.
         11    1    3    3    0    0  0.15940619350E+02 -0.69052907704E+01  0.70409800946E+01  0.18744646885E+02  0.51100000000E-03 0. -1.
        -11    1    3    3    0    0 -0.12570000884E+01 -0.48671187053E+01  0.10553788515E+01  0.51364110520E+01  0.51100000000E-03 0.  1.
        -12    1    3    3    0    0  0.88100649512E+01 -0.19110113054E+02  0.11344313142E+02  0.23906214800E+02  0.00000000000E+00 0.  1.
</event>
<event>
 7    1  0.1384886E-010  0.4778727E+02  0.7816164E-02  0.1312668E+00
        -11   -1    0    0    0    0  0.00000000000E+00  0.00000000000E+00  0.45593999997E+02  0.45594000000E+02  0.51100000000E-03 0.  1.
         11   -1    0    0    0    0 -0.00000000000E+00 -0.00000000000E+00 -0.45593999997E+02  0.45594000000E+02  0.51100000000E-03 0. -1.
    9900012    2    1    2    0    0 -0.31477650526E+02  0.29545924090E+02 -0.44518882184E+01  0.47787269342E+02  0.19999992239E+02 0.  0.
         12    1    1    2    0    0  0.31477650526E+02 -0.29545924090E+02  0.44518882184E+01  0.43400730658E+02  0.00000000000E+00 0. -1.
         11    1    3    3    0    0  0.94748805551E+00 -0.12730615962E+01 -0.17451630474E+01  0.23588161789E+01  0.51100000000E-03 0. -1.
        -11    1    3    3    0    0 -0.99489805954E+01  0.14090666237E+02  0.28244506276E+00  0.17251343871E+02  0.51100000000E-03 0.  1.
         12    1    3    3    0    0 -0.22476157986E+02  0.16728319449E+02 -0.29891702338E+01  0.28177109292E+02  0.00000000000E+00 0. -1.
</event>
<event>
 7    1  0.1384886E-010  0.4778727E+02  0.7816164E-02  0.1312668E+00
        -11   -1    0    0    0    0  0.00000000000E+00  0.00000000000E+00  0.45593999997E+02  0.45594000000E+02  0.51100000000E-03 0.  1.
         11   -1    0    0    0    0 -0.00000000000E+00 -0.00000000000E+00 -0.45593999997E+02  0.45594000000E+02  0.51100000000E-03 0. -1.
    9900012    2    1    2    0    0  0.12472541717E+02  0.31439793358E+02  0.27195558902E+02  0.47787270429E+02  0.19999997195E+02 0.  0.
         12    1    1    2    0    0 -0.12472541717E+02 -0.31439793358E+02 -0.27195558902E+02  0.43400729571E+02  0.00000000000E+00 0. -1.
         11    1    3    3    0    0 -0.34800142923E+01  0.55717905316E+01  0.46767483978E+01  0.80639521973E+01  0.51100000000E-03 0. -1.
        -11    1    3    3    0    0  0.61550023314E+01  0.46024610423E+01  0.69710778690E+00  0.77170370527E+01  0.51100000000E-03 0.  1.
        -12    1    3    3    0    0  0.97975536779E+01  0.21265541784E+02  0.21821702717E+02  0.32006281179E+02  0.00000000000E+00 0.  1.
</event>
<event>
 7    1  0.1384886E-010  0.4778724E+02  0.7816164E-02  0.1312668E+00
        -11   -1    0    0    0    0  0.00000000000E+00  0.00000000000E+00  0.45593999997E+02  0.45594000000E+02  0.51100000000E-03 0.  1.
         11   -1    0    0    0    0 -0.00000000000E+00 -0.00000000000E+00 -0.45593999997E+02  0.45594000000E+02  0.51100000000E-03 0. -1.
    9900012    2    1    2    0    0 -0.11255207858E+02  0.77204778058E+01  0.41198791867E+02  0.47787240412E+02  0.19999860336E+02 0.  0.
         12    1    1    2    0    0  0.11255207858E+02 -0.77204778058E+01 -0.41198791867E+02  0.43400759588E+02  0.00000000000E+00 0. -1.
         11    1    3    3    0    0 -0.44179935133E+01  0.51485881205E+01  0.42339617505E+01  0.79970656295E+01  0.51100000000E-03 0. -1.
        -11    1    3    3    0    0  0.11527976382E+01 -0.40002818723E+01  0.77463438196E+01  0.87941480704E+01  0.51100000000E-03 0.  1.
        -12    1    3    3    0    0 -0.79900119831E+01  0.65721715576E+01  0.29218486297E+02  0.30996026712E+02  0.00000000000E+00 0.  1.
</event>
<event>
 7    1  0.1384886E-010  0.4778727E+02  0.7816164E-02  0.1312668E+00
        -11   -1    0    0    0    0  0.00000000000E+00  0.00000000000E+00  0.45593999997E+02  0.45594000000E+02  0.51100000000E-03 0.  1.
         11   -1    0    0    0    0 -0.00000000000E+00 -0.00000000000E+00 -0.45593999997E+02  0.45594000000E+02  0.51100000000E-03 0. -1.
    9900012    2    1    2    0    0 -0.27752298690E+02 -0.15728864309E+02  0.29428493337E+02  0.47787268726E+02  0.19999989431E+02 0.  0.
         12    1    1    2    0    0  0.27752298690E+02  0.15728864309E+02 -0.29428493337E+02  0.43400731274E+02  0.00000000000E+00 0. -1.
         11    1    3    3    0    0 -0.12036258974E+02 -0.36425035235E+01  0.17043124914E+02  0.21180355736E+02  0.51100000000E-03 0. -1.
        -11    1    3    3    0    0 -0.20809042572E+01  0.23347859009E+01  0.39597656944E+01  0.50459025304E+01  0.51100000000E-03 0.  1.
         12    1    3    3    0    0 -0.13635135459E+02 -0.14421146686E+02  0.84256027283E+01  0.21561010460E+02  0.00000000000E+00 0. -1.
</event>
<event>
 7    1  0.1384886E-010  0.4778727E+02  0.7816164E-02  0.1312668E+00
        -11   -1    0    0    0    0  0.00000000000E+00  0.00000000000E+00  0.45593999997E+02  0.45594000000E+02  0.51100000000E-03 0.  1.
         11   -1    0    0    0    0 -0.00000000000E+00 -0.00000000000E+00 -0.45593999997E+02  0.45594000000E+02  0.51100000000E-03 0. -1.
    9900012    2    1    2    0    0  0.26701292026E+02 -0.33216141783E+01  0.34053353684E+02  0.47787274042E+02  0.20000013666E+02 0.  0.
         12    1    1    2    0    0 -0.26701292026E+02  0.33216141783E+01 -0.34053353684E+02  0.43400725958E+02  0.00000000000E+00 0. -1.
         11    1    3    3    0    0  0.27243666646E+01 -0.16835695665E+01  0.26451142471E+01  0.41536983340E+01  0.51100000000E-03 0.  1.
        -11    1    3    3    0    0 -0.20060654641E+01  0.18979064650E+01  0.57776602125E-01  0.27621886238E+01  0.51100000000E-03 0. -1.
        -12    1    3    3    0    0  0.25982990825E+02 -0.35359510769E+01  0.31350462834E+02  0.40871387084E+02  0.00000000000E+00 0.  1.
</event>
<event>
 7    1  0.1384886E-010  0.4778727E+02  0.7816164E-02  0.1312668E+00
        -11   -1    0    0    0    0  0.00000000000E+00  0.00000000000E+00  0.45593999997E+02  0.45594000000E+02  0.51100000000E-03 0.  1.
         11   -1    0    0    0    0 -0.00000000000E+00 -0.00000000000E+00 -0.45593999997E+02  0.45594000000E+02  0.51100000000E-03 0. -1.
    9900012    2    1    2    0    0 -0.38586615324E+02 -0.19620098606E+02  0.31222215392E+01  0.47787269375E+02  0.19999992387E+02 0.  0.
         12    1    1    2    0    0  0.38586615324E+02  0.19620098606E+02 -0.31222215392E+01  0.43400730625E+02  0.00000000000E+00 0. -1.
         11    1    3    3    0    0 -0.36842643583E+01 -0.10323945705E+01 -0.41614405193E+01  0.56530726042E+01  0.51100000000E-03 0. -1.
        -11    1    3    3    0    0 -0.29089338266E+02 -0.93446247428E+01  0.46894548360E+01  0.30911205076E+02  0.51100000000E-03 0.  1.
         12    1    3    3    0    0 -0.58130126998E+01 -0.92430792928E+01  0.25942072226E+01  0.11222991694E+02  0.00000000000E+00 0. -1.
</event>
<event>
 7    1  0.1384886E-010  0.4778727E+02  0.7816164E-02  0.1312668E+00
        -11   -1    0    0    0    0  0.00000000000E+00  0.00000000000E+00  0.45593999997E+02  0.45594000000E+02  0.51100000000E-03 0.  1.
         11   -1    0    0    0    0 -0.00000000000E+00 -0.00000000000E+00 -0.45593999997E+02  0.45594000000E+02  0.51100000000E-03 0. -1.
    9900012    2    1    2    0    0  0.48825016442E+01 -0.72513699180E+01  0.42511195805E+02  0.47787274698E+02  0.20000016658E+02 0.  0.
         12    1    1    2    0    0 -0.48825016442E+01  0.72513699180E+01 -0.42511195805E+02  0.43400725302E+02  0.00000000000E+00 0. -1.
         11    1    3    3    0    0 -0.58952485011E+00  0.12759907691E+00 -0.10965427663E+01  0.12514900610E+01  0.51100000000E-03 0. -1.
        -11    1    3    3    0    0 -0.10352937027E+01  0.32921163799E+01  0.62069595257E+01  0.71018455435E+01  0.51100000000E-03 0.  1.
         12    1    3    3    0    0  0.65073201970E+01 -0.10671085375E+02  0.37400779045E+02  0.39433939093E+02  0.00000000000E+00 0. -1.
</event>
<event>
 7    1  0.1384886E-010  0.4778727E+02  0.7816164E-02  0.1312668E+00
        -11   -1    0    0    0    0  0.00000000000E+00  0.00000000000E+00  0.45593999997E+02  0.45594000000E+02  0.51100000000E-03 0.  1.
         11   -1    0    0    0    0 -0.00000000000E+00 -0.00000000000E+00 -0.45593999997E+02  0.45594000000E+02  0.51100000000E-03 0. -1.
    9900012    2    1    2    0    0  0.24291806233E+02  0.18179010373E+02  0.31033126927E+02  0.47787271492E+02  0.20000002039E+02 0.  0.
         12    1    1    2    0    0 -0.24291806233E+02 -0.18179010373E+02 -0.31033126927E+02  0.43400728508E+02  0.00000000000E+00 0. -1.
         11    1    3    3    0    0  0.28967245073E+01  0.56484696244E+00  0.11388390549E+02  0.11764586883E+02  0.51100000000E-03 0. -1.
        -11    1    3    3    0    0  0.17161632585E+02  0.66056991209E+01  0.12445636568E+02  0.22204746423E+02  0.51100000000E-03 0.  1.
         12    1    3    3    0    0  0.42334491412E+01  0.11008464289E+02  0.71990998095E+01  0.13817938186E+02  0.00000000000E+00 0. -1.
</event>
<event>
 7    1  0.1384886E-010  0.4778728E+02  0.7816164E-02  0.1312668E+00
        -11   -1    0    0    0    0  0.00000000000E+00  0.00000000000E+00  0.45593999997E+02  0.45594000000E+02  0.51100000000E-03 0.  1.
         11   -1    0    0    0    0 -0.00000000000E+00 -0.00000000000E+00 -0.45593999997E+02  0.45594000000E+02  0.51100000000E-03 0. -1.
    9900012    2    1    2    0    0 -0.17672886565E+02  0.12855801801E+02  0.37496936926E+02  0.47787276062E+02  0.20000022878E+02 0.  0.
         12    1    1    2    0    0  0.17672886565E+02 -0.12855801801E+02 -0.37496936926E+02  0.43400723938E+02  0.00000000000E+00 0. -1.
         11    1    3    3    0    0 -0.12584061349E+02  0.11683456373E+02  0.25020493017E+02  0.30346117115E+02  0.51100000000E-03 0.  1.
        -11    1    3    3    0    0 -0.24262662594E+00  0.43660945072E+01  0.86156853194E+00  0.44568990926E+01  0.51100000000E-03 0. -1.
         12    1    3    3    0    0 -0.48461985902E+01 -0.31937490792E+01  0.11614875377E+02  0.12984259855E+02  0.00000000000E+00 0. -1.
</event>
<event>
 7    1  0.1384886E-010  0.4778729E+02  0.7816164E-02  0.1312668E+00
        -11   -1    0    0    0    0  0.00000000000E+00  0.00000000000E+00  0.45593999997E+02  0.45594000000E+02  0.51100000000E-03 0.  1.
         11   -1    0    0    0    0 -0.00000000000E+00 -0.00000000000E+00 -0.45593999997E+02  0.45594000000E+02  0.51100000000E-03 0. -1.
    9900012    2    1    2    0    0  0.19635784871E+02 -0.35576002853E+02  0.15244868545E+02  0.47787285219E+02  0.20000064629E+02 0.  0.
         12    1    1    2    0    0 -0.19635784871E+02  0.35576002853E+02 -0.15244868545E+02  0.43400714781E+02  0.00000000000E+00 0. -1.
         11    1    3    3    0    0  0.63351717600E+01 -0.16258819257E+02  0.74746028984E+01  0.18982973782E+02  0.51100000000E-03 0. -1.
        -11    1    3    3    0    0  0.98622854585E+01 -0.80432873579E+01 -0.27335276361E+01  0.13016578644E+02  0.51100000000E-03 0.  1.
         12    1    3    3    0    0  0.34383276525E+01 -0.11273896238E+02  0.10503793283E+02  0.15787732794E+02  0.00000000000E+00 0. -1.
</event>
<event>
 7    1  0.1384886E-010  0.4778728E+02  0.7816164E-02  0.1312668E+00
        -11   -1    0    0    0    0  0.00000000000E+00  0.00000000000E+00  0.45593999997E+02  0.45594000000E+02  0.51100000000E-03 0. -1.
         11   -1    0    0    0    0 -0.00000000000E+00 -0.00000000000E+00 -0.45593999997E+02  0.45594000000E+02  0.51100000000E-03 0.  1.
    9900012    2    1    2    0    0  0.79692536984E+01 -0.37039800410E+02 -0.21169950326E+02  0.47787278627E+02  0.20000034571E+02 0.  0.
         12    1    1    2    0    0 -0.79692536984E+01  0.37039800410E+02  0.21169950326E+02  0.43400721373E+02  0.00000000000E+00 0. -1.
         11    1    3    3    0    0 -0.20821702709E+01 -0.26228367189E+02 -0.13533401456E+02  0.29587423573E+02  0.51100000000E-03 0. -1.
        -11    1    3    3    0    0  0.63776210960E+01 -0.90888119184E+01 -0.85823884252E+01  0.14033458030E+02  0.51100000000E-03 0.  1.
         12    1    3    3    0    0  0.36738028733E+01 -0.17226213020E+01  0.94583955436E+00  0.41663970243E+01  0.00000000000E+00 0. -1.
</event>
<event>
 7    1  0.1384886E-010  0.4778727E+02  0.7816164E-02  0.1312668E+00
        -11   -1    0    0    0    0  0.00000000000E+00  0.00000000000E+00  0.45593999997E+02  0.45594000000E+02  0.51100000000E-03 0.  1.
         11   -1    0    0    0    0 -0.00000000000E+00 -0.00000000000E+00 -0.45593999997E+02  0.45594000000E+02  0.51100000000E-03 0. -1.
    9900012    2    1    2    0    0  0.12227136275E+02  0.24349286150E+02  0.33782134274E+02  0.47787271969E+02  0.20000004217E+02 0.  0.
         12    1    1    2    0    0 -0.12227136275E+02 -0.24349286150E+02 -0.33782134274E+02  0.43400728031E+02  0.00000000000E+00 0. -1.
         11    1    3    3    0    0 -0.11723801379E+01  0.35257978909E+01  0.40396614166E+01  0.54885873025E+01  0.51100000000E-03 0. -1.
        -11    1    3    3    0    0  0.11067105360E+02  0.23235123872E+02  0.29161012134E+02  0.38893655413E+02  0.51100000000E-03 0.  1.
         12    1    3    3    0    0  0.23324110524E+01 -0.24116356134E+01  0.58146072317E+00  0.34050292542E+01  0.00000000000E+00 0. -1.
</event>
<event>
 7    1  0.1384886E-010  0.4778727E+02  0.7816164E-02  0.1312668E+00
        -11   -1    0    0    0    0  0.00000000000E+00  0.00000000000E+00  0.45593999997E+02  0.45594000000E+02  0.51100000000E-03 0.  1.
         11   -1    0    0    0    0 -0.00000000000E+00 -0.00000000000E+00 -0.45593999997E+02  0.45594000000E+02  0.51100000000E-03 0. -1.
    9900012    2    1    2    0    0  0.23988215148E+02 -0.24131445048E+02  0.26941833270E+02  0.47787268600E+02  0.19999988854E+02 0.  0.
         12    1    1    2    0    0 -0.23988215148E+02  0.24131445048E+02 -0.26941833270E+02  0.43400731400E+02  0.00000000000E+00 0. -1.
         11    1    3    3    0    0  0.76516085757E+00 -0.25822536805E+01 -0.11477881203E+01  0.29276138814E+01  0.51100000000E-03 0. -1.
        -11    1    3    3    0    0  0.23582613524E+02 -0.16240841132E+02  0.19120103388E+02  0.34430842788E+02  0.51100000000E-03 0.  1.
        -12    1    3    3    0    0 -0.35955923352E+00 -0.53083502358E+01  0.89695180032E+01  0.10428811930E+02  0.00000000000E+00 0.  1.
</event>
<event>
 7    1  0.1384886E-010  0.4778727E+02  0.7816164E-02  0.1312668E+00
        -11   -1    0    0    0    0  0.00000000000E+00  0.00000000000E+00  0.45593999997E+02  0.45594000000E+02  0.51100000000E-03 0.  1.
         11   -1    0    0    0    0 -0.00000000000E+00 -0.00000000000E+00 -0.45593999997E+02  0.45594000000E+02  0.51100000000E-03 0. -1.
    9900012    2    1    2    0    0 -0.76979402198E+01  0.36008060828E+02  0.22973558882E+02  0.47787272633E+02  0.20000007244E+02 0.  0.
         12    1    1    2    0    0  0.76979402198E+01 -0.36008060828E+02 -0.22973558882E+02  0.43400727367E+02  0.00000000000E+00 0. -1.
         11    1    3    3    0    0 -0.79250287036E+00 -0.74379322530E+00 -0.73963244826E+00  0.13146655777E+01  0.51100000000E-03 0. -1.
        -11    1    3    3    0    0  0.19033444740E+01  0.18807898078E+02  0.16891420855E+02  0.25351131120E+02  0.51100000000E-03 0.  1.
         12    1    3    3    0    0 -0.88087818235E+01  0.17943955976E+02  0.68217704756E+01  0.21121475935E+02  0.00000000000E+00 0. -1.
</event>
<event>
 7    1  0.2123890E-010  0.4778727E+02  0.7816164E-02  0.1312668E+00
        -11   -1    0    0    0    0  0.00000000000E+00  0.00000000000E+00  0.45593999997E+02  0.45594000000E+02  0.51100000000E-03 0.  1.
         11   -1    0    0    0    0 -0.00000000000E+00 -0.00000000000E+00 -0.45593999997E+02  0.45594000000E+02  0.51100000000E-03 0. -1.
    9900012    2    1    2    0    0 -0.42072019442E+02  0.10622418926E+02 -0.85604153168E+00  0.47787269466E+02  0.19999992805E+02 0.  0.
         12    1    1    2    0    0  0.42072019442E+02 -0.10622418926E+02  0.85604153168E+00  0.43400730534E+02  0.00000000000E+00 0. -1.
         11    1    3    3    0    0 -0.15376139712E+01  0.36821552352E+01  0.35701997397E+01  0.53543300555E+01  0.51100000000E-03 0. -1.
        -11    1    3    3    0    0 -0.25586254826E+02  0.89755373769E+01 -0.29432245811E+01  0.27274150370E+02  0.51100000000E-03 0.  1.
        -12    1    3    3    0    0 -0.14948150645E+02 -0.20352736862E+01 -0.14830166903E+01  0.15158789041E+02  0.00000000000E+00 0.  1.
</event>
<event>
 7    1  0.1384886E-010  0.4778733E+02  0.7816164E-02  0.1312667E+00
        -11   -1    0    0    0    0  0.00000000000E+00  0.00000000000E+00  0.45593999997E+02  0.45594000000E+02  0.51100000000E-03 0.  1.
         11   -1    0    0    0    0 -0.00000000000E+00 -0.00000000000E+00 -0.45593999997E+02  0.45594000000E+02  0.51100000000E-03 0. -1.
    9900012    2    1    2    0    0  0.32497119918E+02  0.20559602612E+01  0.28693696352E+02  0.47787331964E+02  0.20000277756E+02 0.  0.
         12    1    1    2    0    0 -0.32497119918E+02 -0.20559602612E+01 -0.28693696352E+02  0.43400668036E+02  0.00000000000E+00 0. -1.
         11    1    3    3    0    0  0.43028395208E+01  0.35358155656E+01  0.11505987214E+02  0.12782963729E+02  0.51100000000E-03 0. -1.
        -11    1    3    3    0    0  0.24765356550E+02  0.12032644745E+00  0.18592571682E+02  0.30968065576E+02  0.51100000000E-03 0.  1.
         12    1    3    3    0    0  0.34289238474E+01 -0.16001817519E+01 -0.14048625439E+01  0.40363026593E+01  0.00000000000E+00 0. -1.
</event>
<event>
 7    1  0.1384886E-010  0.4778727E+02  0.7816164E-02  0.1312668E+00
        -11   -1    0    0    0    0  0.00000000000E+00  0.00000000000E+00  0.45593999997E+02  0.45594000000E+02  0.51100000000E-03 0.  1.
         11   -1    0    0    0    0 -0.00000000000E+00 -0.00000000000E+00 -0.45593999997E+02  0.45594000000E+02  0.51100000000E-03 0. -1.
    9900012    2    1    2    0    0 -0.20726121974E+02 -0.15404367171E+02  0.34882042234E+02  0.47787268088E+02  0.19999986522E+02 0.  0.
         12    1    1    2    0    0  0.20726121974E+02  0.15404367171E+02 -0.34882042234E+02  0.43400731912E+02  0.00000000000E+00 0. -1.
         11    1    3    3    0    0 -0.32075445567E+01 -0.91441193424E+01  0.48240648772E+01  0.10824733846E+02  0.51100000000E-03 0.  1.
        -11    1    3    3    0    0 -0.46721472467E+01 -0.72022364674E+01  0.13213695834E+02  0.15757630782E+02  0.51100000000E-03 0. -1.
        -12    1    3    3    0    0 -0.12846430170E+02  0.94198863856E+00  0.16844281524E+02  0.21204903460E+02  0.00000000000E+00 0.  1.
</event>
<event>
 7    1  0.1384886E-010  0.4778727E+02  0.7816164E-02  0.1312668E+00
        -11   -1    0    0    0    0  0.00000000000E+00  0.00000000000E+00  0.45593999997E+02  0.45594000000E+02  0.51100000000E-03 0. -1.
         11   -1    0    0    0    0 -0.00000000000E+00 -0.00000000000E+00 -0.45593999997E+02  0.45594000000E+02  0.51100000000E-03 0.  1.
    9900012    2    1    2    0    0  0.31059372699E+02 -0.14105121112E+02 -0.26832523746E+02  0.47787269538E+02  0.19999993132E+02 0.  0.
         12    1    1    2    0    0 -0.31059372699E+02  0.14105121112E+02  0.26832523746E+02  0.43400730462E+02  0.00000000000E+00 0. -1.
         11    1    3    3    0    0  0.16071682369E+01  0.26211845370E+01  0.44584001191E-01  0.30749936769E+01  0.51100000000E-03 0. -1.
        -11    1    3    3    0    0  0.42705250051E+01  0.22266955074E+00 -0.76994559730E+01  0.88073031110E+01  0.51100000000E-03 0.  1.
        -12    1    3    3    0    0  0.25181679457E+02 -0.16948975200E+02 -0.19177651774E+02  0.35904972750E+02  0.00000000000E+00 0.  1.
</event>
<event>
 7    1  0.1384886E-010  0.4778728E+02  0.7816164E-02  0.1312668E+00
        -11   -1    0    0    0    0  0.00000000000E+00  0.00000000000E+00  0.45593999997E+02  0.45594000000E+02  0.51100000000E-03 0.  1.
         11   -1    0    0    0    0 -0.00000000000E+00 -0.00000000000E+00 -0.45593999997E+02  0.45594000000E+02  0.51100000000E-03 0. -1.
    9900012    2    1    2    0    0 -0.15930532426E+02  0.39770189248E+02  0.69406529372E+01  0.47787280197E+02  0.20000041732E+02 0.  0.
         12    1    1    2    0    0  0.15930532426E+02 -0.39770189248E+02 -0.69406529372E+01  0.43400719803E+02  0.00000000000E+00 0. -1.
         11    1    3    3    0    0 -0.85339498483E+01  0.55256286262E+01 -0.20672770537E+01  0.10374705124E+02  0.51100000000E-03 0. -1.
        -11    1    3    3    0    0 -0.25701554338E+01  0.27828558264E+01  0.34048380741E+01  0.50934181132E+01  0.51100000000E-03 0.  1.
        -12    1    3    3    0    0 -0.48264271435E+01  0.31461704795E+02  0.56030919168E+01  0.32319156960E+02  0.00000000000E+00 0.  1.
</event>
<event>
 7    1  0.1384886E-010  0.4778727E+02  0.7816164E-02  0.1312668E+00
        -11   -1    0    0    0    0  0.00000000000E+00  0.00000000000E+00  0.45593999997E+02  0.45594000000E+02  0.51100000000E-03 0.  1.
         11   -1    0    0    0    0 -0.00000000000E+00 -0.00000000000E+00 -0.45593999997E+02  0.45594000000E+02  0.51100000000E-03 0. -1.
    9900012    2    1    2    0    0 -0.14362335691E+01  0.38523524077E+02  0.19937370112E+02  0.47787269578E+02  0.19999993314E+02 0.  0.
         12    1    1    2    0    0  0.14362335691E+01 -0.38523524077E+02 -0.19937370112E+02  0.43400730422E+02  0.00000000000E+00 0. -1.
         11    1    3    3    0    0 -0.71512859255E+01  0.19859967204E+02  0.11193857548E+02  0.23892710914E+02  0.51100000000E-03 0. -1.
        -11    1    3    3    0    0  0.31715518420E+01  0.18411407747E+02  0.98374725695E+01  0.21114320807E+02  0.51100000000E-03 0.  1.
         12    1    3    3    0    0  0.25435005145E+01  0.25214912508E+00 -0.10939600054E+01  0.27802378571E+01  0.00000000000E+00 0. -1.
</event>
<event>
 7    1  0.1384886E-010  0.4778727E+02  0.7816164E-02  0.1312668E+00
        -11   -1    0    0    0    0  0.00000000000E+00  0.00000000000E+00  0.45593999997E+02  0.45594000000E+02  0.51100000000E-03 0.  1.
         11   -1    0    0    0    0 -0.00000000000E+00 -0.00000000000E+00 -0.45593999997E+02  0.45594000000E+02  0.51100000000E-03 0. -1.
    9900012    2    1    2    0    0 -0.48969227970E+01  0.33623297180E+02  0.27002175151E+02  0.47787269257E+02  0.19999991852E+02 0.  0.
         12    1    1    2    0    0  0.48969227970E+01 -0.33623297180E+02 -0.27002175151E+02  0.43400730743E+02  0.00000000000E+00 0. -1.
         11    1    3    3    0    0 -0.86434962722E+01  0.20748623720E+02  0.11761788118E+02  0.25368387298E+02  0.51100000000E-03 0. -1.
        -11    1    3    3    0    0 -0.10484618697E+01  0.78683264251E+01  0.32678048518E+01  0.85841937207E+01  0.51100000000E-03 0.  1.
        -12    1    3    3    0    0  0.47950353450E+01  0.50063470344E+01  0.11972582181E+02  0.13834688239E+02  0.00000000000E+00 0.  1.
</event>
<event>
 7    1  0.1384886E-010  0.4778729E+02  0.7816164E-02  0.1312668E+00
        -11   -1    0    0    0    0  0.00000000000E+00  0.00000000000E+00  0.45593999997E+02  0.45594000000E+02  0.51100000000E-03 0. -1.
         11   -1    0    0    0    0 -0.00000000000E+00 -0.00000000000E+00 -0.45593999997E+02  0.45594000000E+02  0.51100000000E-03 0.  1.
    9900012    2    1    2    0    0  0.39748787768E+02 -0.21926624718E+01 -0.17287211183E+02  0.47787290695E+02  0.20000089593E+02 0.  0.
         12    1    1    2    0    0 -0.39748787768E+02  0.21926624718E+01  0.17287211183E+02  0.43400709305E+02  0.00000000000E+00 0. -1.
         11    1    3    3    0    0  0.15491207062E+02  0.59035775635E+01 -0.24134315859E+00  0.16579745808E+02  0.51100000000E-03 0. -1.
        -11    1    3    3    0    0  0.59665616197E+01 -0.37051853732E+01 -0.25972977205E+01  0.74882716244E+01  0.51100000000E-03 0.  1.
         12    1    3    3    0    0  0.18291019086E+02 -0.43910546622E+01 -0.14448570304E+02  0.23719273262E+02  0.00000000000E+00 0. -1.
</event>
<event>
 7    1  0.1384886E-010  0.4778727E+02  0.7816164E-02  0.1312668E+00
        -11   -1    0    0    0    0  0.00000000000E+00  0.00000000000E+00  0.45593999997E+02  0.45594000000E+02  0.51100000000E-03 0. -1.
         11   -1    0    0    0    0 -0.00000000000E+00 -0.00000000000E+00 -0.45593999997E+02  0.45594000000E+02  0.51100000000E-03 0.  1.
    9900012    2    1    2    0    0 -0.33491248690E+02  0.53179741517E+00 -0.27598490526E+02  0.47787271589E+02  0.20000002483E+02 0.  0.
         12    1    1    2    0    0  0.33491248690E+02 -0.53179741517E+00  0.27598490526E+02  0.43400728411E+02  0.00000000000E+00 0. -1.
         11    1    3    3    0    0 -0.17732762785E+02 -0.30073931484E+01 -0.59028674326E+01  0.18929847695E+02  0.51100000000E-03 0. -1.
        -11    1    3    3    0    0 -0.29725373453E+01 -0.31984751699E+01 -0.69673001051E+01  0.82224991759E+01  0.51100000000E-03 0.  1.
         12    1    3    3    0    0 -0.12785948559E+02  0.67376657335E+01 -0.14728322988E+02  0.20634924719E+02  0.00000000000E+00 0. -1.
</event>
<event>
 7    1  0.1384886E-010  0.4778727E+02  0.7816164E-02  0.1312668E+00
        -11   -1    0    0    0    0  0.00000000000E+00  0.00000000000E+00  0.45593999997E+02  0.45594000000E+02  0.51100000000E-03 0.  1.
         11   -1    0    0    0    0 -0.00000000000E+00 -0.00000000000E+00 -0.45593999997E+02  0.45594000000E+02  0.51100000000E-03 0. -1.
    9900012    2    1    2    0    0 -0.10340513004E+02  0.17682573685E+01  0.42113779218E+02  0.47787270244E+02  0.19999996350E+02 0.  0.
         12    1    1    2    0    0  0.10340513004E+02 -0.17682573685E+01 -0.42113779218E+02  0.43400729756E+02  0.00000000000E+00 0. -1.
         11    1    3    3    0    0 -0.34402201137E+01 -0.24888032249E+01  0.20557178773E+01  0.47175451429E+01  0.51100000000E-03 0. -1.
        -11    1    3    3    0    0 -0.92472726445E+01  0.41168184675E+00  0.15122867424E+02  0.17730839029E+02  0.51100000000E-03 0.  1.
        -12    1    3    3    0    0  0.23469797539E+01  0.38453787467E+01  0.24935193917E+02  0.25338886072E+02  0.00000000000E+00 0.  1.
</event>
<event>
 7    1  0.1384886E-010  0.4778727E+02  0.7816164E-02  0.1312668E+00
        -11   -1    0    0    0    0  0.00000000000E+00  0.00000000000E+00  0.45593999997E+02  0.45594000000E+02  0.51100000000E-03 0.  1.
         11   -1    0    0    0    0 -0.00000000000E+00 -0.00000000000E+00 -0.45593999997E+02  0.45594000000E+02  0.51100000000E-03 0. -1.
    9900012    2    1    2    0    0 -0.47836450105E+00  0.30909801712E+01  0.43287877177E+02  0.47787270726E+02  0.19999998547E+02 0.  0.
         12    1    1    2    0    0  0.47836450105E+00 -0.30909801712E+01 -0.43287877177E+02  0.43400729274E+02  0.00000000000E+00 0. -1.
         11    1    3    3    0    0  0.17409413779E+01 -0.71058223715E+01  0.10678554807E+02  0.12944308459E+02  0.51100000000E-03 0. -1.
        -11    1    3    3    0    0 -0.41446096294E+01  0.51081550991E+01  0.14261321881E+02  0.15705296545E+02  0.51100000000E-03 0.  1.
        -12    1    3    3    0    0  0.19253037505E+01  0.50886474436E+01  0.18348000489E+02  0.19137665722E+02  0.00000000000E+00 0.  1.
</event>
<event>
 7    1  0.1384886E-010  0.4778725E+02  0.7816164E-02  0.1312668E+00
        -11   -1    0    0    0    0  0.00000000000E+00  0.00000000000E+00  0.45593999997E+02  0.45594000000E+02  0.51100000000E-03 0.  1.
         11   -1    0    0    0    0 -0.00000000000E+00 -0.00000000000E+00 -0.45593999997E+02  0.45594000000E+02  0.51100000000E-03 0. -1.
    9900012    2    1    2    0    0  0.10674961395E+02  0.24634574994E+02  0.34099968781E+02  0.47787251656E+02  0.19999911600E+02 0.  0.
         12    1    1    2    0    0 -0.10674961395E+02 -0.24634574994E+02 -0.34099968781E+02  0.43400748344E+02  0.00000000000E+00 0. -1.
         11    1    3    3    0    0  0.35984866147E+00 -0.70737061180E+00  0.62893837159E+01  0.63392595804E+01  0.51100000000E-03 0. -1.
        -11    1    3    3    0    0  0.22925197148E+01  0.87210024020E+01  0.18927299903E+02  0.20965548203E+02  0.51100000000E-03 0.  1.
         12    1    3    3    0    0  0.80225930184E+01  0.16620943204E+02  0.88832851621E+01  0.20482443873E+02  0.00000000000E+00 0. -1.
</event>
<event>
 7    1  0.1384886E-010  0.4778727E+02  0.7816164E-02  0.1312668E+00
        -11   -1    0    0    0    0  0.00000000000E+00  0.00000000000E+00  0.45593999997E+02  0.45594000000E+02  0.51100000000E-03 0.  1.
         11   -1    0    0    0    0 -0.00000000000E+00 -0.00000000000E+00 -0.45593999997E+02  0.45594000000E+02  0.51100000000E-03 0. -1.
    9900012    2    1    2    0    0 -0.70811119211E+01  0.12771021730E+02  0.40870308722E+02  0.47787271007E+02  0.19999999829E+02 0.  0.
         12    1    1    2    0    0  0.70811119211E+01 -0.12771021730E+02 -0.40870308722E+02  0.43400728993E+02  0.00000000000E+00 0. -1.
         11    1    3    3    0    0 -0.17907018084E+01 -0.77320753970E+00  0.36379377534E+00  0.19841393696E+01  0.51100000000E-03 0. -1.
        -11    1    3    3    0    0 -0.14511543176E+01  0.96250778805E+01  0.38881226278E+02  0.40081139333E+02  0.51100000000E-03 0.  1.
        -12    1    3    3    0    0 -0.38392557950E+01  0.39191513897E+01  0.16252886684E+01  0.57219923043E+01  0.00000000000E+00 0.  1.
</event>
<event>
 7    1  0.1384886E-010  0.4778727E+02  0.7816164E-02  0.1312668E+00
        -11   -1    0    0    0    0  0.00000000000E+00  0.00000000000E+00  0.45593999997E+02  0.45594000000E+02  0.51100000000E-03 0.  1.
         11   -1    0    0    0    0 -0.00000000000E+00 -0.00000000000E+00 -0.45593999997E+02  0.45594000000E+02  0.51100000000E-03 0. -1.
    9900012    2    1    2    0    0  0.23816381517E+02 -0.28556162929E+02  0.22381879377E+02  0.47787274266E+02  0.20000014689E+02 0.  0.
         12    1    1    2    0    0 -0.23816381517E+02  0.28556162929E+02 -0.22381879377E+02  0.43400725734E+02  0.00000000000E+00 0. -1.
         11    1    3    3    0    0  0.12998973111E+02 -0.14516788815E+02  0.87010286546E+01  0.21340533249E+02  0.51100000000E-03 0. -1.
        -11    1    3    3    0    0  0.74271667274E+01 -0.74593869366E+01  0.15582099445E+02  0.18804443157E+02  0.51100000000E-03 0.  1.
         12    1    3    3    0    0  0.33902416789E+01 -0.65799871766E+01 -0.19012487220E+01  0.76422978605E+01  0.00000000000E+00 0. -1.
</event>
<event>
 7    1  0.1384886E-010  0.4778727E+02  0.7816164E-02  0.1312668E+00
        -11   -1    0    0    0    0  0.00000000000E+00  0.00000000000E+00  0.45593999997E+02  0.45594000000E+02  0.51100000000E-03 0.  1.
         11   -1    0    0    0    0 -0.00000000000E+00 -0.00000000000E+00 -0.45593999997E+02  0.45594000000E+02  0.51100000000E-03 0. -1.
    9900012    2    1    2    0    0 -0.34035827060E+02  0.22068872752E+02  0.15432132129E+02  0.47787269934E+02  0.19999994937E+02 0.  0.
         12    1    1    2    0    0  0.34035827060E+02 -0.22068872752E+02 -0.15432132129E+02  0.43400730066E+02  0.00000000000E+00 0. -1.
         11    1    3    3    0    0 -0.19384023115E+02  0.90847455226E+01  0.55090125857E+01  0.22104799779E+02  0.51100000000E-03 0. -1.
        -11    1    3    3    0    0 -0.43198066621E+01  0.88608998430E+01 -0.12247857129E+01  0.99335983374E+01  0.51100000000E-03 0.  1.
        -12    1    3    3    0    0 -0.10331997283E+02  0.41232273867E+01  0.11147905256E+02  0.15748871818E+02  0.00000000000E+00 0.  1.
</event>
<event>
 7    1  0.1384886E-010  0.4778728E+02  0.7816164E-02  0.1312668E+00
        -11   -1    0    0    0    0  0.00000000000E+00  0.00000000000E+00  0.45593999997E+02  0.45594000000E+02  0.51100000000E-03 0.  1.
         11   -1    0    0    0    0 -0.00000000000E+00 -0.00000000000E+00 -0.45593999997E+02  0.45594000000E+02  0.51100000000E-03 0. -1.
    9900012    2    1    2    0    0 -0.19400181791E+02  0.38749605624E+02  0.23923158363E+01  0.47787283824E+02  0.20000058268E+02 0.  0.
         12    1    1    2    0    0  0.19400181791E+02 -0.38749605624E+02 -0.23923158363E+01  0.43400716176E+02  0.00000000000E+00 0. -1.
         11    1    3    3    0    0 -0.40784034325E+01  0.86667682104E+01  0.48991762265E+01  0.10758632521E+02  0.51100000000E-03 0. -1.
        -11    1    3    3    0    0 -0.55435506365E+01  0.18184997625E+02 -0.80715992249E+01  0.20653711690E+02  0.51100000000E-03 0.  1.
        -12    1    3    3    0    0 -0.97782277222E+01  0.11897839789E+02  0.55647388347E+01  0.16374939613E+02  0.00000000000E+00 0.  1.
</event>
<event>
 7    1  0.1384886E-010  0.4778727E+02  0.7816164E-02  0.1312668E+00
        -11   -1    0    0    0    0  0.00000000000E+00  0.00000000000E+00  0.45593999997E+02  0.45594000000E+02  0.51100000000E-03 0.  1.
         11   -1    0    0    0    0 -0.00000000000E+00 -0.00000000000E+00 -0.45593999997E+02  0.45594000000E+02  0.51100000000E-03 0. -1.
    9900012    2    1    2    0    0  0.11276124792E+02  0.16037698292E+02  0.38720337032E+02  0.47787271242E+02  0.20000000901E+02 0.  0.
         12    1    1    2    0    0 -0.11276124792E+02 -0.16037698292E+02 -0.38720337032E+02  0.43400728758E+02  0.00000000000E+00 0. -1.
         11    1    3    3    0    0 -0.24160209592E+01  0.78717237587E+01  0.14137741405E+02  0.16360835080E+02  0.51100000000E-03 0. -1.
        -11    1    3    3    0    0  0.69239107655E+00  0.10294888369E+01 -0.11724360659E+01  0.17070030046E+01  0.51100000000E-03 0.  1.
        -12    1    3    3    0    0  0.12999754675E+02  0.71364856960E+01  0.25755031693E+02  0.29719433157E+02  0.00000000000E+00 0.  1.
</event>
<event>
 7    1  0.1384886E-010  0.4778727E+02  0.7816164E-02  0.1312668E+00
        -11   -1    0    0    0    0  0.00000000000E+00  0.00000000000E+00  0.45593999997E+02  0.45594000000E+02  0.51100000000E-03 0.  1.
         11   -1    0    0    0    0 -0.00000000000E+00 -0.00000000000E+00 -0.45593999997E+02  0.45594000000E+02  0.51100000000E-03 0. -1.
    9900012    2    1    2    0    0  0.56358880288E+01  0.28477124458E+02  0.32263188126E+02  0.47787272364E+02  0.20000006016E+02 0.  0.
         12    1    1    2    0    0 -0.56358880288E+01 -0.28477124458E+02 -0.32263188126E+02  0.43400727636E+02  0.00000000000E+00 0. -1.
         11    1    3    3    0    0 -0.18110901729E+01 -0.70757960022E+00  0.33722373698E+01  0.38926471256E+01  0.51100000000E-03 0. -1.
        -11    1    3    3    0    0  0.12622608336E+01  0.26078310339E+02  0.22266995688E+02  0.34314583923E+02  0.51100000000E-03 0.  1.
         12    1    3    3    0    0  0.61847173680E+01  0.31063937191E+01  0.66239550679E+01  0.95800413152E+01  0.00000000000E+00 0. -1.
</event>
<event>
 7    1  0.1384886E-010  0.4778727E+02  0.7816164E-02  0.1312668E+00
        -11   -1    0    0    0    0  0.00000000000E+00  0.00000000000E+00  0.45593999997E+02  0.45594000000E+02  0.51100000000E-03 0.  1.
         11   -1    0    0    0    0 -0.00000000000E+00 -0.00000000000E+00 -0.45593999997E+02  0.45594000000E+02  0.51100000000E-03 0. -1.
    9900012    2    1    2    0    0  0.20733893466E+02 -0.33672272046E+02  0.17885951707E+02  0.47787268308E+02  0.19999987521E+02 0.  0.
         12    1    1    2    0    0 -0.20733893466E+02  0.33672272046E+02 -0.17885951707E+02  0.43400731692E+02  0.00000000000E+00 0. -1.
         11    1    3    3    0    0  0.24169995828E+01 -0.89812683543E+01 -0.68518022791E+00  0.93260141776E+01  0.51100000000E-03 0. -1.
        -11    1    3    3    0    0  0.63188788092E+01 -0.19363069701E+02  0.93063194755E+01  0.22393398136E+02  0.51100000000E-03 0.  1.
        -12    1    3    3    0    0  0.11998015074E+02 -0.53279339903E+01  0.92648124596E+01  0.16067855994E+02  0.00000000000E+00 0.  1.
</event>
<event>
 7    1  0.1384886E-010  0.4778728E+02  0.7816164E-02  0.1312668E+00
        -11   -1    0    0    0    0  0.00000000000E+00  0.00000000000E+00  0.45593999997E+02  0.45594000000E+02  0.51100000000E-03 0.  1.
         11   -1    0    0    0    0 -0.00000000000E+00 -0.00000000000E+00 -0.45593999997E+02  0.45594000000E+02  0.51100000000E-03 0. -1.
    9900012    2    1    2    0    0  0.70119799236E+01  0.30628658642E+02  0.29938940083E+02  0.47787277357E+02  0.20000028783E+02 0.  0.
         12    1    1    2    0    0 -0.70119799236E+01 -0.30628658642E+02 -0.29938940083E+02  0.43400722643E+02  0.00000000000E+00 0. -1.
         11    1    3    3    0    0  0.91225492737E+01  0.41717242551E+01  0.91391319455E+01  0.13570111329E+02  0.51100000000E-03 0. -1.
        -11    1    3    3    0    0 -0.27229069009E+01  0.82243528912E+01  0.45452692317E+01  0.97833366047E+01  0.51100000000E-03 0.  1.
        -12    1    3    3    0    0  0.61233755083E+00  0.18232581495E+02  0.16254538905E+02  0.24433829423E+02  0.00000000000E+00 0.  1.
</event>
<event>
 7    1  0.1384886E-010  0.4778727E+02  0.7816164E-02  0.1312668E+00
        -11   -1    0    0    0    0  0.00000000000E+00  0.00000000000E+00  0.45593999997E+02  0.45594000000E+02  0.51100000000E-03 0.  1.
         11   -1    0    0    0    0 -0.00000000000E+00 -0.00000000000E+00 -0.45593999997E+02  0.45594000000E+02  0.51100000000E-03 0. -1.
    9900012    2    1    2    0    0 -0.30150190150E+02  0.30230104018E+02  0.77929570421E+01  0.47787270346E+02  0.19999996815E+02 0.  0.
         12    1    1    2    0    0  0.30150190150E+02 -0.30230104018E+02 -0.77929570421E+01  0.43400729654E+02  0.00000000000E+00 0. -1.
         11    1    3    3    0    0 -0.29585790649E+01 -0.10870162868E+01 -0.81909462479E+00  0.32566410236E+01  0.51100000000E-03 0. -1.
        -11    1    3    3    0    0 -0.24478207050E+02  0.29058628863E+02  0.32801288339E+01  0.38135885688E+02  0.51100000000E-03 0.  1.
        -12    1    3    3    0    0 -0.27134040357E+01  0.22584914424E+01  0.53319228330E+01  0.63947436347E+01  0.00000000000E+00 0.  1.
</event>
<event>
 7    1  0.1384886E-010  0.4778727E+02  0.7816164E-02  0.1312668E+00
        -11   -1    0    0    0    0  0.00000000000E+00  0.00000000000E+00  0.45593999997E+02  0.45594000000E+02  0.51100000000E-03 0.  1.
         11   -1    0    0    0    0 -0.00000000000E+00 -0.00000000000E+00 -0.45593999997E+02  0.45594000000E+02  0.51100000000E-03 0. -1.
    9900012    2    1    2    0    0  0.56810248591E+01  0.32826200597E+02  0.27817075359E+02  0.47787272234E+02  0.20000005424E+02 0.  0.
         12    1    1    2    0    0 -0.56810248591E+01 -0.32826200597E+02 -0.27817075359E+02  0.43400727766E+02  0.00000000000E+00 0. -1.
         11    1    3    3    0    0  0.93694274938E+01  0.20354295805E+02  0.20321327619E+02  0.30249626209E+02  0.51100000000E-03 0. -1.
        -11    1    3    3    0    0 -0.23431924572E+01  0.13778812717E+02  0.64995323074E+01  0.15413959623E+02  0.51100000000E-03 0.  1.
         12    1    3    3    0    0 -0.13452101775E+01 -0.13069079256E+01  0.99621543193E+00  0.21236864021E+01  0.00000000000E+00 0. -1.
</event>
<event>
 7    1  0.1384886E-010  0.4778727E+02  0.7816164E-02  0.1312668E+00
        -11   -1    0    0    0    0  0.00000000000E+00  0.00000000000E+00  0.45593999997E+02  0.45594000000E+02  0.51100000000E-03 0.  1.
         11   -1    0    0    0    0 -0.00000000000E+00 -0.00000000000E+00 -0.45593999997E+02  0.45594000000E+02  0.51100000000E-03 0. -1.
    9900012    2    1    2    0    0 -0.26330717958E+02 -0.32813628914E+02  0.10657499034E+02  0.47787271477E+02  0.20000001972E+02 0.  0.
         12    1    1    2    0    0  0.26330717958E+02  0.32813628914E+02 -0.10657499034E+02  0.43400728523E+02  0.00000000000E+00 0. -1.
         11    1    3    3    0    0  0.17806068357E+01 -0.46451843532E+01 -0.27910608754E+00  0.49825895724E+01  0.51100000000E-03 0. -1.
        -11    1    3    3    0    0 -0.14281304009E+02 -0.17470425501E+02  0.76771587489E+00  0.22577882968E+02  0.51100000000E-03 0.  1.
         12    1    3    3    0    0 -0.13830020785E+02 -0.10698019059E+02  0.10168889247E+02  0.20226798936E+02  0.00000000000E+00 0. -1.
</event>
<event>
 7    1  0.1384886E-010  0.4778728E+02  0.7816164E-02  0.1312668E+00
        -11   -1    0    0    0    0  0.00000000000E+00  0.00000000000E+00  0.45593999997E+02  0.45594000000E+02  0.51100000000E-03 0.  1.
         11   -1    0    0    0    0 -0.00000000000E+00 -0.00000000000E+00 -0.45593999997E+02  0.45594000000E+02  0.51100000000E-03 0. -1.
    9900012    2    1    2    0    0  0.43193979190E+02  0.36971010003E+01  0.20576917387E+01  0.47787280083E+02  0.20000041210E+02 0.  0.
         12    1    1    2    0    0 -0.43193979190E+02 -0.36971010003E+01 -0.20576917387E+01  0.43400719917E+02  0.00000000000E+00 0. -1.
         11    1    3    3    0    0  0.15600070264E+01  0.42579703901E+00  0.28797879694E+01  0.33027418989E+01  0.51100000000E-03 0. -1.
        -11    1    3    3    0    0  0.13056885243E+02  0.62191411189E+01  0.47460163410E+01  0.15221190488E+02  0.51100000000E-03 0.  1.
        -12    1    3    3    0    0  0.28577086920E+02 -0.29478371576E+01 -0.55681125718E+01  0.29263347696E+02  0.00000000000E+00 0.  1.
</event>
<event>
 7    1  0.1384886E-010  0.4778727E+02  0.7816164E-02  0.1312668E+00
        -11   -1    0    0    0    0  0.00000000000E+00  0.00000000000E+00  0.45593999997E+02  0.45594000000E+02  0.51100000000E-03 0.  1.
         11   -1    0    0    0    0 -0.00000000000E+00 -0.00000000000E+00 -0.45593999997E+02  0.45594000000E+02  0.51100000000E-03 0. -1.
    9900012    2    1    2    0    0  0.15024754353E+02  0.15947489809E+02  0.37464085737E+02  0.47787269653E+02  0.19999993654E+02 0.  0.
         12    1    1    2    0    0 -0.15024754353E+02 -0.15947489809E+02 -0.37464085737E+02  0.43400730347E+02  0.00000000000E+00 0. -1.
         11    1    3    3    0    0  0.45256768565E+01  0.26847783202E+00  0.19522373094E+01  0.49360978647E+01  0.51100000000E-03 0. -1.
        -11    1    3    3    0    0  0.57872591816E-01 -0.15631744095E+01 -0.44798703775E+00  0.16271312542E+01  0.51100000000E-03 0.  1.
        -12    1    3    3    0    0  0.10441204904E+02  0.17242186386E+02  0.35959835465E+02  0.41224040534E+02  0.00000000000E+00 0.  1.
</event>
<event>
 7    1  0.1384886E-010  0.4778727E+02  0.7816164E-02  0.1312668E+00
        -11   -1    0    0    0    0  0.00000000000E+00  0.00000000000E+00  0.45593999997E+02  0.45594000000E+02  0.51100000000E-03 0. -1.
         11   -1    0    0    0    0 -0.00000000000E+00 -0.00000000000E+00 -0.45593999997E+02  0.45594000000E+02  0.51100000000E-03 0.  1.
    9900012    2    1    2    0    0  0.63748025496E+01 -0.42889255583E+02 -0.18701356407E+01  0.47787265451E+02  0.19999974499E+02 0.  0.
         12    1    1    2    0    0 -0.63748025496E+01  0.42889255583E+02  0.18701356407E+01  0.43400734549E+02  0.00000000000E+00 0. -1.
         11    1    3    3    0    0 -0.41621996256E+01 -0.10666754091E+02  0.79794252567E+00  0.11477816042E+02  0.51100000000E-03 0. -1.
        -11    1    3    3    0    0  0.38432606410E+01 -0.15831738324E+02 -0.75322602260E+01  0.17948524593E+02  0.51100000000E-03 0.  1.
         12    1    3    3    0    0  0.66937415343E+01 -0.16390763169E+02  0.48641820596E+01  0.18360924816E+02  0.00000000000E+00 0. -1.
</event>
<event>
 7    1  0.1384886E-010  0.4778727E+02  0.7816164E-02  0.1312668E+00
        -11   -1    0    0    0    0  0.00000000000E+00  0.00000000000E+00  0.45593999997E+02  0.45594000000E+02  0.51100000000E-03 0. -1.
         11   -1    0    0    0    0 -0.00000000000E+00 -0.00000000000E+00 -0.45593999997E+02  0.45594000000E+02  0.51100000000E-03 0.  1.
    9900012    2    1    2    0    0 -0.12223640140E+02 -0.11012527281E+02 -0.40161302866E+02  0.47787269784E+02  0.19999994251E+02 0.  0.
         12    1    1    2    0    0  0.12223640140E+02  0.11012527281E+02  0.40161302866E+02  0.43400730216E+02  0.00000000000E+00 0. -1.
         11    1    3    3    0    0 -0.47486828919E+01  0.21628596120E+01 -0.14744338297E+01  0.54223524681E+01  0.51100000000E-03 0. -1.
        -11    1    3    3    0    0  0.16286755932E+01 -0.30561682402E+01 -0.10643816185E+02  0.11193014417E+02  0.51100000000E-03 0.  1.
        -12    1    3    3    0    0 -0.91036328415E+01 -0.10119218653E+02 -0.28043052852E+02  0.31171902899E+02  0.00000000000E+00 0.  1.
</event>
<event>
 7    1  0.1384886E-010  0.4778726E+02  0.7816164E-02  0.1312668E+00
        -11   -1    0    0    0    0  0.00000000000E+00  0.00000000000E+00  0.45593999997E+02  0.45594000000E+02  0.51100000000E-03 0. -1.
         11   -1    0    0    0    0 -0.00000000000E+00 -0.00000000000E+00 -0.45593999997E+02  0.45594000000E+02  0.51100000000E-03 0.  1.
    9900012    2    1    2    0    0 -0.39471283955E+02  0.17777151436E+02 -0.31007726050E+01  0.47787260824E+02  0.19999953402E+02 0.  0.
         12    1    1    2    0    0  0.39471283955E+02 -0.17777151436E+02  0.31007726050E+01  0.43400739176E+02  0.00000000000E+00 0. -1.
         11    1    3    3    0    0 -0.18715998649E+02  0.42361871886E+01 -0.20890768563E+01  0.19302801084E+02  0.51100000000E-03 0.  1.
        -11    1    3    3    0    0  0.39824619412E+00 -0.19601842050E+01  0.89244458578E+00  0.21902921605E+01  0.51100000000E-03 0. -1.
         12    1    3    3    0    0 -0.21153531500E+02  0.15501148452E+02 -0.19041403345E+01  0.26294167579E+02  0.00000000000E+00 0. -1.
</event>
<event>
 7    1  0.1384886E-010  0.4778727E+02  0.7816164E-02  0.1312668E+00
        -11   -1    0    0    0    0  0.00000000000E+00  0.00000000000E+00  0.45593999997E+02  0.45594000000E+02  0.51100000000E-03 0. -1.
         11   -1    0    0    0    0 -0.00000000000E+00 -0.00000000000E+00 -0.45593999997E+02  0.45594000000E+02  0.51100000000E-03 0.  1.
    9900012    2    1    2    0    0  0.18181465211E+02 -0.14499063978E+02 -0.36644715174E+02  0.47787266324E+02  0.19999978476E+02 0.  0.
         12    1    1    2    0    0 -0.18181465211E+02  0.14499063978E+02  0.36644715174E+02  0.43400733676E+02  0.00000000000E+00 0. -1.
         11    1    3    3    0    0  0.75887431100E+01 -0.18237714860E+01 -0.88755076040E+01  0.11819043951E+02  0.51100000000E-03 0. -1.
        -11    1    3    3    0    0  0.49497202425E+01 -0.12740756525E+02 -0.89912833088E+01  0.16360616831E+02  0.51100000000E-03 0.  1.
        -12    1    3    3    0    0  0.56430018589E+01  0.65464032402E-01 -0.18777924261E+02  0.19607605541E+02  0.00000000000E+00 0.  1.
</event>
<event>
 7    1  0.1384886E-010  0.4778727E+02  0.7816164E-02  0.1312668E+00
        -11   -1    0    0    0    0  0.00000000000E+00  0.00000000000E+00  0.45593999997E+02  0.45594000000E+02  0.51100000000E-03 0.  1.
         11   -1    0    0    0    0 -0.00000000000E+00 -0.00000000000E+00 -0.45593999997E+02  0.45594000000E+02  0.51100000000E-03 0. -1.
    9900012    2    1    2    0    0 -0.61906209202E+01 -0.24837409468E+01  0.42885090439E+02  0.47787265693E+02  0.19999975600E+02 0.  0.
         12    1    1    2    0    0  0.61906209202E+01  0.24837409468E+01 -0.42885090439E+02  0.43400734307E+02  0.00000000000E+00 0. -1.
         11    1    3    3    0    0 -0.65904955578E+01 -0.46197626018E+01  0.12128181616E+02  0.14555742089E+02  0.51100000000E-03 0. -1.
        -11    1    3    3    0    0 -0.45659991266E+01  0.49451966440E+01  0.19144522811E+02  0.20293251878E+02  0.51100000000E-03 0.  1.
         12    1    3    3    0    0  0.49658737642E+01 -0.28091749891E+01  0.11612386012E+02  0.12938271726E+02  0.00000000000E+00 0. -1.
</event>
<event>
 7    1  0.1384886E-010  0.4778731E+02  0.7816164E-02  0.1312668E+00
        -11   -1    0    0    0    0  0.00000000000E+00  0.00000000000E+00  0.45593999997E+02  0.45594000000E+02  0.51100000000E-03 0.  1.
         11   -1    0    0    0    0 -0.00000000000E+00 -0.00000000000E+00 -0.45593999997E+02  0.45594000000E+02  0.51100000000E-03 0. -1.
    9900012    2    1    2    0    0  0.51220336167E+01 -0.17907341811E+00  0.43097014844E+02  0.47787308944E+02  0.20000172801E+02 0.  0.
         12    1    1    2    0    0 -0.51220336167E+01  0.17907341811E+00 -0.43097014844E+02  0.43400691056E+02  0.00000000000E+00 0. -1.
         11    1    3    3    0    0 -0.43743192523E+01  0.26812485281E+01  0.26377884473E+01  0.57690285789E+01  0.51100000000E-03 0. -1.
        -11    1    3    3    0    0  0.50336659549E+01 -0.25027925869E+01  0.12540187754E+02  0.13742564275E+02  0.51100000000E-03 0.  1.
        -12    1    3    3    0    0  0.44626869142E+01 -0.35752935924E+00  0.27919038642E+02  0.28275716090E+02  0.00000000000E+00 0.  1.
</event>
<event>
 7    1  0.1384886E-010  0.4778727E+02  0.7816164E-02  0.1312668E+00
        -11   -1    0    0    0    0  0.00000000000E+00  0.00000000000E+00  0.45593999997E+02  0.45594000000E+02  0.51100000000E-03 0.  1.
         11   -1    0    0    0    0 -0.00000000000E+00 -0.00000000000E+00 -0.45593999997E+02  0.45594000000E+02  0.51100000000E-03 0. -1.
    9900012    2    1    2    0    0  0.16790554245E+02  0.98160531883E+01  0.38798782930E+02  0.47787272254E+02  0.20000005516E+02 0.  0.
         12    1    1    2    0    0 -0.16790554245E+02 -0.98160531883E+01 -0.38798782930E+02  0.43400727746E+02  0.00000000000E+00 0. -1.
         11    1    3    3    0    0  0.11297379673E+02  0.60593883719E+01  0.18133069367E+02  0.22207097511E+02  0.51100000000E-03 0. -1.
        -11    1    3    3    0    0  0.58339655146E+01  0.83428968874E+01  0.16427563614E+02  0.19326249731E+02  0.51100000000E-03 0.  1.
         12    1    3    3    0    0 -0.34079094310E+00 -0.45862320711E+01  0.42381499485E+01  0.62539250125E+01  0.00000000000E+00 0. -1.
</event>
<event>
 7    1  0.1384886E-010  0.4778726E+02  0.7816164E-02  0.1312668E+00
        -11   -1    0    0    0    0  0.00000000000E+00  0.00000000000E+00  0.45593999997E+02  0.45594000000E+02  0.51100000000E-03 0.  1.
         11   -1    0    0    0    0 -0.00000000000E+00 -0.00000000000E+00 -0.45593999997E+02  0.45594000000E+02  0.51100000000E-03 0. -1.
    9900012    2    1    2    0    0  0.15083763700E+02 -0.21474994987E+02  0.34567737608E+02  0.47787264748E+02  0.19999971294E+02 0.  0.
         12    1    1    2    0    0 -0.15083763700E+02  0.21474994987E+02 -0.34567737608E+02  0.43400735252E+02  0.00000000000E+00 0. -1.
         11    1    3    3    0    0  0.70072931178E+00 -0.29345922831E+01  0.11272378712E+00  0.30191986271E+01  0.51100000000E-03 0. -1.
        -11    1    3    3    0    0 -0.97781890820E+00 -0.96968866986E+01  0.66663158387E+01  0.11807857917E+02  0.51100000000E-03 0.  1.
        -12    1    3    3    0    0  0.15360853296E+02 -0.88435160052E+01  0.27788697982E+02  0.32960208204E+02  0.00000000000E+00 0.  1.
</event>
<event>
 7    1  0.1384886E-010  0.4778727E+02  0.7816164E-02  0.1312668E+00
        -11   -1    0    0    0    0  0.00000000000E+00  0.00000000000E+00  0.45593999997E+02  0.45594000000E+02  0.51100000000E-03 0.  1.
         11   -1    0    0    0    0 -0.00000000000E+00 -0.00000000000E+00 -0.45593999997E+02  0.45594000000E+02  0.51100000000E-03 0. -1.
    9900012    2    1    2    0    0 -0.10849614709E+02 -0.41922202294E+02 -0.29049091286E+01  0.47787266348E+02  0.19999978588E+02 0.  0.
         12    1    1    2    0    0  0.10849614709E+02  0.41922202294E+02  0.29049091286E+01  0.43400733652E+02  0.00000000000E+00 0. -1.
         11    1    3    3    0    0 -0.24168982245E+01 -0.13800148833E+01  0.24536608873E+01  0.37102951523E+01  0.51100000000E-03 0. -1.
        -11    1    3    3    0    0 -0.30387380394E+01 -0.33992859676E+01  0.32133278847E+01  0.55780417995E+01  0.51100000000E-03 0.  1.
        -12    1    3    3    0    0 -0.53939784447E+01 -0.37142901443E+02 -0.85718979006E+01  0.38498929396E+02  0.00000000000E+00 0.  1.
</event>
<event>
 7    1  0.1384886E-010  0.4778731E+02  0.7816164E-02  0.1312668E+00
        -11   -1    0    0    0    0  0.00000000000E+00  0.00000000000E+00  0.45593999997E+02  0.45594000000E+02  0.51100000000E-03 0.  1.
         11   -1    0    0    0    0 -0.00000000000E+00 -0.00000000000E+00 -0.45593999997E+02  0.45594000000E+02  0.51100000000E-03 0. -1.
    9900012    2    1    2    0    0 -0.15980901036E+02  0.30844584152E+02  0.26016192430E+02  0.47787310628E+02  0.20000180476E+02 0.  0.
         12    1    1    2    0    0  0.15980901036E+02 -0.30844584152E+02 -0.26016192430E+02  0.43400689372E+02  0.00000000000E+00 0. -1.
         11    1    3    3    0    0 -0.42706292843E+01  0.38911479821E+01 -0.56536924232E+00  0.58050796501E+01  0.51100000000E-03 0. -1.
        -11    1    3    3    0    0 -0.11119294785E+02  0.13568918749E+02  0.21267640325E+02  0.27569308983E+02  0.51100000000E-03 0.  1.
         12    1    3    3    0    0 -0.59097696674E+00  0.13384517420E+02  0.53139213475E+01  0.14412921995E+02  0.00000000000E+00 0. -1.
</event>
<event>
 7    1  0.1384886E-010  0.4778727E+02  0.7816164E-02  0.1312668E+00
        -11   -1    0    0    0    0  0.00000000000E+00  0.00000000000E+00  0.45593999997E+02  0.45594000000E+02  0.51100000000E-03 0. -1.
         11   -1    0    0    0    0 -0.00000000000E+00 -0.00000000000E+00 -0.45593999997E+02  0.45594000000E+02  0.51100000000E-03 0.  1.
    9900012    2    1    2    0    0  0.94268395798E+01 -0.36199886314E+02 -0.22007410511E+02  0.47787271999E+02  0.20000004352E+02 0.  0.
         12    1    1    2    0    0 -0.94268395798E+01  0.36199886314E+02  0.22007410511E+02  0.43400728001E+02  0.00000000000E+00 0. -1.
         11    1    3    3    0    0  0.15132951412E+01 -0.24819282053E+02 -0.20538571970E+02  0.32250887780E+02  0.51100000000E-03 0. -1.
        -11    1    3    3    0    0  0.55918112052E+01 -0.11039727061E+02 -0.30010590102E+01  0.12733824311E+02  0.51100000000E-03 0.  1.
         12    1    3    3    0    0  0.23217332334E+01 -0.34087720021E+00  0.15322204687E+01  0.28025599079E+01  0.00000000000E+00 0. -1.
</event>
<event>
 7    1  0.1384886E-010  0.4778727E+02  0.7816164E-02  0.1312668E+00
        -11   -1    0    0    0    0  0.00000000000E+00  0.00000000000E+00  0.45593999997E+02  0.45594000000E+02  0.51100000000E-03 0.  1.
         11   -1    0    0    0    0 -0.00000000000E+00 -0.00000000000E+00 -0.45593999997E+02  0.45594000000E+02  0.51100000000E-03 0. -1.
    9900012    2    1    2    0    0  0.28641699354E+02 -0.20972677255E+02  0.24968444333E+02  0.47787270219E+02  0.19999996235E+02 0.  0.
         12    1    1    2    0    0 -0.28641699354E+02  0.20972677255E+02 -0.24968444333E+02  0.43400729781E+02  0.00000000000E+00 0. -1.
         11    1    3    3    0    0 -0.26550308513E+01 -0.10119357275E+01  0.38656861140E+01  0.47975756514E+01  0.51100000000E-03 0.  1.
        -11    1    3    3    0    0  0.20055108072E+02 -0.10801274852E+02  0.14892655307E+02  0.27215181068E+02  0.51100000000E-03 0. -1.
        -12    1    3    3    0    0  0.11241622133E+02 -0.91594666749E+01  0.62101029125E+01  0.15774513499E+02  0.00000000000E+00 0.  1.
</event>
<event>
 7    1  0.1384886E-010  0.4778727E+02  0.7816164E-02  0.1312668E+00
        -11   -1    0    0    0    0  0.00000000000E+00  0.00000000000E+00  0.45593999997E+02  0.45594000000E+02  0.51100000000E-03 0.  1.
         11   -1    0    0    0    0 -0.00000000000E+00 -0.00000000000E+00 -0.45593999997E+02  0.45594000000E+02  0.51100000000E-03 0. -1.
    9900012    2    1    2    0    0  0.39237887442E+02  0.69670711760E+01  0.17189280466E+02  0.47787271266E+02  0.20000001011E+02 0.  0.
         12    1    1    2    0    0 -0.39237887442E+02 -0.69670711760E+01 -0.17189280466E+02  0.43400728734E+02  0.00000000000E+00 0. -1.
         11    1    3    3    0    0  0.24430141015E+02  0.67111766234E+01  0.10703507234E+02  0.27503395228E+02  0.51100000000E-03 0. -1.
        -11    1    3    3    0    0  0.12459990944E+02  0.43448731522E+01  0.78767830226E+01  0.15367921398E+02  0.51100000000E-03 0.  1.
         12    1    3    3    0    0  0.23477554827E+01 -0.40889785996E+01 -0.13910097901E+01  0.49159546408E+01  0.00000000000E+00 0. -1.
</event>
<event>
 7    1  0.1384886E-010  0.4778727E+02  0.7816164E-02  0.1312668E+00
        -11   -1    0    0    0    0  0.00000000000E+00  0.00000000000E+00  0.45593999997E+02  0.45594000000E+02  0.51100000000E-03 0.  1.
         11   -1    0    0    0    0 -0.00000000000E+00 -0.00000000000E+00 -0.45593999997E+02  0.45594000000E+02  0.51100000000E-03 0. -1.
    9900012    2    1    2    0    0 -0.21400692836E+02  0.23019432301E+02  0.29928904394E+02  0.47787271486E+02  0.20000002012E+02 0.  0.
         12    1    1    2    0    0  0.21400692836E+02 -0.23019432301E+02 -0.29928904394E+02  0.43400728514E+02  0.00000000000E+00 0. -1.
         11    1    3    3    0    0 -0.58381086811E+01  0.11203479227E+02  0.14313724659E+02  0.19091468608E+02  0.51100000000E-03 0. -1.
        -11    1    3    3    0    0 -0.88351947931E+00  0.21845573121E+01  0.99836679090E+01  0.10257997977E+02  0.51100000000E-03 0.  1.
         12    1    3    3    0    0 -0.14679064676E+02  0.96313957620E+01  0.56315118262E+01  0.18437804900E+02  0.00000000000E+00 0. -1.
</event>
<event>
 7    1  0.1384886E-010  0.4778727E+02  0.7816164E-02  0.1312668E+00
        -11   -1    0    0    0    0  0.00000000000E+00  0.00000000000E+00  0.45593999997E+02  0.45594000000E+02  0.51100000000E-03 0.  1.
         11   -1    0    0    0    0 -0.00000000000E+00 -0.00000000000E+00 -0.45593999997E+02  0.45594000000E+02  0.51100000000E-03 0. -1.
    9900012    2    1    2    0    0  0.12869853309E+02 -0.12493053099E+02  0.39521057903E+02  0.47787268235E+02  0.19999987191E+02 0.  0.
         12    1    1    2    0    0 -0.12869853309E+02  0.12493053099E+02 -0.39521057903E+02  0.43400731765E+02  0.00000000000E+00 0. -1.
         11    1    3    3    0    0  0.16116809572E+02 -0.95665532305E+01  0.27689636686E+02  0.33436304693E+02  0.51100000000E-03 0. -1.
        -11    1    3    3    0    0 -0.46332546015E-01  0.64088807367E+00  0.84761846609E+01  0.85005053317E+01  0.51100000000E-03 0.  1.
         12    1    3    3    0    0 -0.32006237176E+01 -0.35673879424E+01  0.33552365570E+01  0.58504582100E+01  0.00000000000E+00 0. -1.
</event>
<event>
 7    1  0.1465870E-010  0.4778727E+02  0.7816164E-02  0.1312668E+00
        -11   -1    0    0    0    0  0.00000000000E+00  0.00000000000E+00  0.45593999997E+02  0.45594000000E+02  0.51100000000E-03 0.  1.
         11   -1    0    0    0    0 -0.00000000000E+00 -0.00000000000E+00 -0.45593999997E+02  0.45594000000E+02  0.51100000000E-03 0. -1.
    9900012    2    1    2    0    0  0.15910419260E+02  0.21335010560E+02  0.34282636183E+02  0.47787271201E+02  0.20000000712E+02 0.  0.
         12    1    1    2    0    0 -0.15910419260E+02 -0.21335010560E+02 -0.34282636183E+02  0.43400728799E+02  0.00000000000E+00 0. -1.
         11    1    3    3    0    0  0.39301448170E+00  0.10258447965E+02  0.60152830307E+01  0.11898480795E+02  0.51100000000E-03 0. -1.
        -11    1    3    3    0    0  0.22113201594E+01 -0.17928532627E+01  0.77424416776E+01  0.82492219670E+01  0.51100000000E-03 0.  1.
        -12    1    3    3    0    0  0.13306084619E+02  0.12869415858E+02  0.20524911475E+02  0.27639568439E+02  0.00000000000E+00 0.  1.
</event>
<event>
 7    1 -0.1384886E-010  0.4778729E+02  0.7816164E-02  0.1312668E+00
        -11   -1    0    0    0    0  0.00000000000E+00  0.00000000000E+00  0.45593999997E+02  0.45594000000E+02  0.51100000000E-03 0. -1.
         11   -1    0    0    0    0 -0.00000000000E+00 -0.00000000000E+00 -0.45593999997E+02  0.45594000000E+02  0.51100000000E-03 0.  1.
    9900012    2    1    2    0    0  0.30344964806E+02 -0.62104539632E+01 -0.30401235149E+02  0.47787288876E+02  0.20000081301E+02 0.  0.
         12    1    1    2    0    0 -0.30344964806E+02  0.62104539632E+01  0.30401235149E+02  0.43400711124E+02  0.00000000000E+00 0. -1.
         11    1    3    3    0    0  0.31583473271E+01  0.44266851257E+01 -0.56964644868E+01  0.78753036101E+01  0.51100000000E-03 0. -1.
        -11    1    3    3    0    0  0.65236895916E+01 -0.44590847640E+01 -0.13414006785E+02  0.15568479088E+02  0.51100000000E-03 0.  1.
        -12    1    3    3    0    0  0.20662927887E+02 -0.61780543249E+01 -0.11290763877E+02  0.24343506178E+02  0.00000000000E+00 0.  1.
</event>
<event>
 7    1  0.1384886E-010  0.4778727E+02  0.7816164E-02  0.1312668E+00
        -11   -1    0    0    0    0  0.00000000000E+00  0.00000000000E+00  0.45593999997E+02  0.45594000000E+02  0.51100000000E-03 0. -1.
         11   -1    0    0    0    0 -0.00000000000E+00 -0.00000000000E+00 -0.45593999997E+02  0.45594000000E+02  0.51100000000E-03 0.  1.
    9900012    2    1    2    0    0 -0.41164198913E+02 -0.94606149391E-01 -0.13752190845E+02  0.47787274481E+02  0.20000015671E+02 0.  0.
         12    1    1    2    0    0  0.41164198913E+02  0.94606149391E-01  0.13752190845E+02  0.43400725519E+02  0.00000000000E+00 0. -1.
         11    1    3    3    0    0 -0.14540642416E+02  0.37342453019E+01 -0.10397628315E+02  0.18261586588E+02  0.51100000000E-03 0. -1.
        -11    1    3    3    0    0 -0.32546056425E+01  0.21872923967E+01  0.25568239758E+01  0.46812450290E+01  0.51100000000E-03 0.  1.
        -12    1    3    3    0    0 -0.23368950855E+02 -0.60161438480E+01 -0.59113865052E+01  0.24844442865E+02  0.00000000000E+00 0.  1.
</event>
<event>
 7    1  0.1384886E-010  0.4778727E+02  0.7816164E-02  0.1312668E+00
        -11   -1    0    0    0    0  0.00000000000E+00  0.00000000000E+00  0.45593999997E+02  0.45594000000E+02  0.51100000000E-03 0.  1.
         11   -1    0    0    0    0 -0.00000000000E+00 -0.00000000000E+00 -0.45593999997E+02  0.45594000000E+02  0.51100000000E-03 0. -1.
    9900012    2    1    2    0    0  0.16917768170E+02  0.36888715541E+02  0.15382942462E+02  0.47787272669E+02  0.20000007406E+02 0.  0.
         12    1    1    2    0    0 -0.16917768170E+02 -0.36888715541E+02 -0.15382942462E+02  0.43400727331E+02  0.00000000000E+00 0. -1.
         11    1    3    3    0    0  0.32249580117E+01  0.19695653087E+02  0.11038370351E+02  0.22807120050E+02  0.51100000000E-03 0. -1.
        -11    1    3    3    0    0  0.49388290941E+01  0.14682239810E+02  0.28840349828E+01  0.15756835237E+02  0.51100000000E-03 0.  1.
         12    1    3    3    0    0  0.87539810640E+01  0.25108226436E+01  0.14605371282E+01  0.92233173815E+01  0.00000000000E+00 0. -1.
</event>
<event>
 7    1  0.1384886E-010  0.4778727E+02  0.7816164E-02  0.1312668E+00
        -11   -1    0    0    0    0  0.00000000000E+00  0.00000000000E+00  0.45593999997E+02  0.45594000000E+02  0.51100000000E-03 0.  1.
         11   -1    0    0    0    0 -0.00000000000E+00 -0.00000000000E+00 -0.45593999997E+02  0.45594000000E+02  0.51100000000E-03 0. -1.
    9900012    2    1    2    0    0 -0.34558856844E+02  0.26209765439E+02  0.15351453414E+01  0.47787273486E+02  0.20000011132E+02 0.  0.
         12    1    1    2    0    0  0.34558856844E+02 -0.26209765439E+02 -0.15351453414E+01  0.43400726514E+02  0.00000000000E+00 0. -1.
         11    1    3    3    0    0 -0.18861191734E+02  0.44874669864E+01  0.88527367820E+00  0.19407875292E+02  0.51100000000E-03 0. -1.
        -11    1    3    3    0    0 -0.11551521801E+02  0.81633105225E+01 -0.50348893486E+00  0.14153826195E+02  0.51100000000E-03 0.  1.
        -12    1    3    3    0    0 -0.41461433090E+01  0.13558987930E+02  0.11533605981E+01  0.14225571999E+02  0.00000000000E+00 0.  1.
</event>
<event>
 7    1  0.1384886E-010  0.4778727E+02  0.7816164E-02  0.1312668E+00
        -11   -1    0    0    0    0  0.00000000000E+00  0.00000000000E+00  0.45593999997E+02  0.45594000000E+02  0.51100000000E-03 0.  1.
         11   -1    0    0    0    0 -0.00000000000E+00 -0.00000000000E+00 -0.45593999997E+02  0.45594000000E+02  0.51100000000E-03 0. -1.
    9900012    2    1    2    0    0 -0.28583208233E+02 -0.29181299427E+02  0.14665454144E+02  0.47787267582E+02  0.19999984215E+02 0.  0.
         12    1    1    2    0    0  0.28583208233E+02  0.29181299427E+02 -0.14665454144E+02  0.43400732418E+02  0.00000000000E+00 0. -1.
         11    1    3    3    0    0 -0.15288223127E+02 -0.15856426400E+02  0.34992455206E+01  0.22302482912E+02  0.51100000000E-03 0. -1.
        -11    1    3    3    0    0 -0.13062573177E+02 -0.42447529716E+01  0.78188255782E+01  0.15804517692E+02  0.51100000000E-03 0.  1.
        -12    1    3    3    0    0 -0.23241192901E+00 -0.90801200550E+01  0.33473830455E+01  0.96802669783E+01  0.00000000000E+00 0.  1.
</event>
<event>
 7    1  0.1384886E-010  0.4778727E+02  0.7816164E-02  0.1312668E+00
        -11   -1    0    0    0    0  0.00000000000E+00  0.00000000000E+00  0.45593999997E+02  0.45594000000E+02  0.51100000000E-03 0.  1.
         11   -1    0    0    0    0 -0.00000000000E+00 -0.00000000000E+00 -0.45593999997E+02  0.45594000000E+02  0.51100000000E-03 0. -1.
    9900012    2    1    2    0    0  0.18613380726E+01 -0.10583227012E+02  0.42049421059E+02  0.47787273222E+02  0.20000009930E+02 0.  0.
         12    1    1    2    0    0 -0.18613380726E+01  0.10583227012E+02 -0.42049421059E+02  0.43400726778E+02  0.00000000000E+00 0. -1.
         11    1    3    3    0    0 -0.28509678208E+01  0.21003127995E+01  0.55157036089E+01  0.65545646639E+01  0.51100000000E-03 0. -1.
        -11    1    3    3    0    0 -0.41728663123E+01 -0.76713673951E+01  0.14048532890E+02  0.16541582983E+02  0.51100000000E-03 0.  1.
        -12    1    3    3    0    0  0.88851722057E+01 -0.50121724160E+01  0.22485184560E+02  0.24691125575E+02  0.00000000000E+00 0.  1.
</event>
<event>
 7    1  0.1384886E-010  0.4778727E+02  0.7816164E-02  0.1312668E+00
        -11   -1    0    0    0    0  0.00000000000E+00  0.00000000000E+00  0.45593999997E+02  0.45594000000E+02  0.51100000000E-03 0. -1.
         11   -1    0    0    0    0 -0.00000000000E+00 -0.00000000000E+00 -0.45593999997E+02  0.45594000000E+02  0.51100000000E-03 0.  1.
    9900012    2    1    2    0    0 -0.20124899144E+02 -0.37764916357E+02 -0.72403499580E+01  0.47787272581E+02  0.20000007004E+02 0.  0.
         12    1    1    2    0    0  0.20124899144E+02  0.37764916357E+02  0.72403499580E+01  0.43400727419E+02  0.00000000000E+00 0. -1.
         11    1    3    3    0    0 -0.17903976951E+02 -0.18156113925E+02 -0.35321197400E+00  0.25501404324E+02  0.51100000000E-03 0.  1.
        -11    1    3    3    0    0  0.15920754353E+01 -0.55888824387E+00 -0.43231688883E-01  0.16878772174E+01  0.51100000000E-03 0. -1.
         12    1    3    3    0    0 -0.38129976280E+01 -0.19049914188E+02 -0.68439062951E+01  0.20597991040E+02  0.00000000000E+00 0. -1.
</event>
<event>
 7    1  0.1384886E-010  0.4778728E+02  0.7816164E-02  0.1312668E+00
        -11   -1    0    0    0    0  0.00000000000E+00  0.00000000000E+00  0.45593999997E+02  0.45594000000E+02  0.51100000000E-03 0.  1.
         11   -1    0    0    0    0 -0.00000000000E+00 -0.00000000000E+00 -0.45593999997E+02  0.45594000000E+02  0.51100000000E-03 0. -1.
    9900012    2    1    2    0    0 -0.42354756723E+02  0.39263144199E+01  0.86186592494E+01  0.47787278240E+02  0.20000032808E+02 0.  0.
         12    1    1    2    0    0  0.42354756723E+02 -0.39263144199E+01 -0.86186592494E+01  0.43400721760E+02  0.00000000000E+00 0. -1.
         11    1    3    3    0    0 -0.56288505957E-01 -0.17875609791E+01  0.12093073764E+01  0.21589273359E+01  0.51100000000E-03 0.  1.
        -11    1    3    3    0    0 -0.23144572057E+01  0.41209131604E+01 -0.76039429812E+00  0.47871533486E+01  0.51100000000E-03 0. -1.
        -12    1    3    3    0    0 -0.39984011012E+02  0.15929622385E+01  0.81697461711E+01  0.40841197556E+02  0.00000000000E+00 0.  1.
</event>
<event>
 7    1  0.1384886E-010  0.4778727E+02  0.7816164E-02  0.1312668E+00
        -11   -1    0    0    0    0  0.00000000000E+00  0.00000000000E+00  0.45593999997E+02  0.45594000000E+02  0.51100000000E-03 0.  1.
         11   -1    0    0    0    0 -0.00000000000E+00 -0.00000000000E+00 -0.45593999997E+02  0.45594000000E+02  0.51100000000E-03 0. -1.
    9900012    2    1    2    0    0 -0.31236729543E+02 -0.28400815665E+02  0.10063994947E+02  0.47787267318E+02  0.19999983012E+02 0.  0.
         12    1    1    2    0    0  0.31236729543E+02  0.28400815665E+02 -0.10063994947E+02  0.43400732682E+02  0.00000000000E+00 0. -1.
         11    1    3    3    0    0 -0.55195991771E+01 -0.46124689708E+01 -0.25556750350E+01  0.76336308679E+01  0.51100000000E-03 0. -1.
        -11    1    3    3    0    0  0.75562915386E+00 -0.59145634670E+01  0.47707169422E+00  0.59816915740E+01  0.51100000000E-03 0.  1.
         12    1    3    3    0    0 -0.26472759520E+02 -0.17873783228E+02  0.12142598288E+02  0.34171944876E+02  0.00000000000E+00 0. -1.
</event>
<event>
 7    1  0.1384886E-010  0.4778727E+02  0.7816164E-02  0.1312668E+00
        -11   -1    0    0    0    0  0.00000000000E+00  0.00000000000E+00  0.45593999997E+02  0.45594000000E+02  0.51100000000E-03 0. -1.
         11   -1    0    0    0    0 -0.00000000000E+00 -0.00000000000E+00 -0.45593999997E+02  0.45594000000E+02  0.51100000000E-03 0.  1.
    9900012    2    1    2    0    0 -0.25994559518E+02  0.22416491783E+02 -0.26559495984E+02  0.47787273562E+02  0.20000011478E+02 0.  0.
         12    1    1    2    0    0  0.25994559518E+02 -0.22416491783E+02  0.26559495984E+02  0.43400726438E+02  0.00000000000E+00 0. -1.
         11    1    3    3    0    0 -0.95160385966E+01  0.15920592860E+02 -0.89902100443E+01  0.20611747730E+02  0.51100000000E-03 0. -1.
        -11    1    3    3    0    0 -0.16095355436E+02  0.84081073450E+01 -0.17507422589E+02  0.25224325199E+02  0.51100000000E-03 0.  1.
        -12    1    3    3    0    0 -0.38316548534E+00 -0.19122084217E+01 -0.61863350816E-01  0.19512006333E+01  0.00000000000E+00 0.  1.
</event>
<event>
 7    1  0.1384886E-010  0.4778726E+02  0.7816164E-02  0.1312668E+00
        -11   -1    0    0    0    0  0.00000000000E+00  0.00000000000E+00  0.45593999997E+02  0.45594000000E+02  0.51100000000E-03 0.  1.
         11   -1    0    0    0    0 -0.00000000000E+00 -0.00000000000E+00 -0.45593999997E+02  0.45594000000E+02  0.51100000000E-03 0. -1.
    9900012    2    1    2    0    0 -0.11724446863E+02  0.17042817403E+02  0.38153684548E+02  0.47787263556E+02  0.19999965858E+02 0.  0.
         12    1    1    2    0    0  0.11724446863E+02 -0.17042817403E+02 -0.38153684548E+02  0.43400736444E+02  0.00000000000E+00 0. -1.
         11    1    3    3    0    0 -0.14179513881E+02  0.68757212425E+01  0.30536862491E+02  0.34363267126E+02  0.51100000000E-03 0. -1.
        -11    1    3    3    0    0 -0.44447700443E+00  0.45634292746E+01  0.21009023332E+01  0.50434350820E+01  0.51100000000E-03 0.  1.
        -12    1    3    3    0    0  0.28995440223E+01  0.56036668864E+01  0.55159197235E+01  0.83805613480E+01  0.00000000000E+00 0.  1.
</event>
<event>
 7    1  0.1384886E-010  0.4778727E+02  0.7816164E-02  0.1312668E+00
        -11   -1    0    0    0    0  0.00000000000E+00  0.00000000000E+00  0.45593999997E+02  0.45594000000E+02  0.51100000000E-03 0.  1.
         11   -1    0    0    0    0 -0.00000000000E+00 -0.00000000000E+00 -0.45593999997E+02  0.45594000000E+02  0.51100000000E-03 0. -1.
    9900012    2    1    2    0    0  0.13508061726E+02  0.39999278309E+02  0.10060477147E+02  0.47787271927E+02  0.20000004026E+02 0.  0.
         12    1    1    2    0    0 -0.13508061726E+02 -0.39999278309E+02 -0.10060477147E+02  0.43400728073E+02  0.00000000000E+00 0. -1.
         11    1    3    3    0    0  0.22376964689E+01  0.16886674469E+02  0.10353678952E+02  0.19934034419E+02  0.51100000000E-03 0. -1.
        -11    1    3    3    0    0 -0.17190763033E+00  0.64573527537E+00 -0.24584282229E+01  0.25476255352E+01  0.51100000000E-03 0.  1.
        -12    1    3    3    0    0  0.11442272887E+02  0.22466868564E+02  0.21652264176E+01  0.25305611973E+02  0.00000000000E+00 0.  1.
</event>
<event>
 7    1  0.1384886E-010  0.4778727E+02  0.7816164E-02  0.1312668E+00
        -11   -1    0    0    0    0  0.00000000000E+00  0.00000000000E+00  0.45593999997E+02  0.45594000000E+02  0.51100000000E-03 0.  1.
         11   -1    0    0    0    0 -0.00000000000E+00 -0.00000000000E+00 -0.45593999997E+02  0.45594000000E+02  0.51100000000E-03 0. -1.
    9900012    2    1    2    0    0 -0.29271477290E+02  0.86799836674E+00  0.32032022422E+02  0.47787271154E+02  0.20000000500E+02 0.  0.
         12    1    1    2    0    0  0.29271477290E+02 -0.86799836674E+00 -0.32032022422E+02  0.43400728846E+02  0.00000000000E+00 0. -1.
         11    1    3    3    0    0 -0.25090750336E+02 -0.74040632510E+00  0.22910531987E+02  0.33985091292E+02  0.51100000000E-03 0. -1.
        -11    1    3    3    0    0 -0.68020954806E+01 -0.12921625391E+00  0.43087785898E+01  0.80529977626E+01  0.51100000000E-03 0.  1.
        -12    1    3    3    0    0  0.26213685269E+01  0.17376209458E+01  0.48127118455E+01  0.57491820994E+01  0.00000000000E+00 0.  1.
</event>
<event>
 7    1  0.1384886E-010  0.4778727E+02  0.7816164E-02  0.1312668E+00
        -11   -1    0    0    0    0  0.00000000000E+00  0.00000000000E+00  0.45593999997E+02  0.45594000000E+02  0.51100000000E-03 0. -1.
         11   -1    0    0    0    0 -0.00000000000E+00 -0.00000000000E+00 -0.45593999997E+02  0.45594000000E+02  0.51100000000E-03 0.  1.
    9900012    2    1    2    0    0 -0.38455218320E+02 -0.11252741010E+02 -0.16679183042E+02  0.47787272549E+02  0.20000006862E+02 0.  0.
         12    1    1    2    0    0  0.38455218320E+02  0.11252741010E+02  0.16679183042E+02  0.43400727451E+02  0.00000000000E+00 0. -1.
         11    1    3    3    0    0 -0.26336899231E+01  0.16752509380E+01  0.32296311336E+01  0.44914703424E+01  0.51100000000E-03 0. -1.
        -11    1    3    3    0    0 -0.14208160180E+02 -0.25503693654E+01 -0.83939776642E+01  0.16698355036E+02  0.51100000000E-03 0.  1.
         12    1    3    3    0    0 -0.21613368217E+02 -0.10377622583E+02 -0.11514836511E+02  0.26597447171E+02  0.00000000000E+00 0. -1.
</event>
<event>
 7    1  0.1384886E-010  0.4778727E+02  0.7816164E-02  0.1312668E+00
        -11   -1    0    0    0    0  0.00000000000E+00  0.00000000000E+00  0.45593999997E+02  0.45594000000E+02  0.51100000000E-03 0.  1.
         11   -1    0    0    0    0 -0.00000000000E+00 -0.00000000000E+00 -0.45593999997E+02  0.45594000000E+02  0.51100000000E-03 0. -1.
    9900012    2    1    2    0    0  0.25414162121E+02  0.34492269623E+02  0.69301395189E+01  0.47787272657E+02  0.20000007355E+02 0.  0.
         12    1    1    2    0    0 -0.25414162121E+02 -0.34492269623E+02 -0.69301395189E+01  0.43400727343E+02  0.00000000000E+00 0. -1.
         11    1    3    3    0    0  0.11334892500E+02  0.29061126780E+02  0.41029165252E+01  0.31462085150E+02  0.51100000000E-03 0. -1.
        -11    1    3    3    0    0  0.52549335858E+01  0.29121941641E+01  0.37814144437E+01  0.70988940897E+01  0.51100000000E-03 0.  1.
         12    1    3    3    0    0  0.88243360351E+01  0.25189486797E+01 -0.95419145000E+00  0.92262934180E+01  0.00000000000E+00 0. -1.
</event>
<event>
 7    1  0.1384886E-010  0.4778726E+02  0.7816164E-02  0.1312668E+00
        -11   -1    0    0    0    0  0.00000000000E+00  0.00000000000E+00  0.45593999997E+02  0.45594000000E+02  0.51100000000E-03 0. -1.
         11   -1    0    0    0    0 -0.00000000000E+00 -0.00000000000E+00 -0.45593999997E+02  0.45594000000E+02  0.51100000000E-03 0.  1.
    9900012    2    1    2    0    0  0.29039829084E+02 -0.20191723035E+02 -0.25151670860E+02  0.47787263838E+02  0.19999967142E+02 0.  0.
         12    1    1    2    0    0 -0.29039829084E+02  0.20191723035E+02  0.25151670860E+02  0.43400736162E+02  0.00000000000E+00 0. -1.
         11    1    3    3    0    0 -0.13549702067E+01 -0.81451917515E+00 -0.18609875487E+00  0.15918601557E+01  0.51100000000E-03 0. -1.
        -11    1    3    3    0    0 -0.56882723985E+00  0.14454366178E+01 -0.93579325720E+00  0.18134389226E+01  0.51100000000E-03 0.  1.
        -12    1    3    3    0    0  0.30963626531E+02 -0.20822640478E+02 -0.24029778848E+02  0.44381964759E+02  0.00000000000E+00 0.  1.
</event>
<event>
 7    1  0.1384886E-010  0.4778729E+02  0.7816164E-02  0.1312668E+00
        -11   -1    0    0    0    0  0.00000000000E+00  0.00000000000E+00  0.45593999997E+02  0.45594000000E+02  0.51100000000E-03 0.  1.
         11   -1    0    0    0    0 -0.00000000000E+00 -0.00000000000E+00 -0.45593999997E+02  0.45594000000E+02  0.51100000000E-03 0. -1.
    9900012    2    1    2    0    0 -0.20029390809E+02  0.18904583926E+02  0.33541942928E+02  0.47787288888E+02  0.20000081357E+02 0.  0.
         12    1    1    2    0    0  0.20029390809E+02 -0.18904583926E+02 -0.33541942928E+02  0.43400711112E+02  0.00000000000E+00 0. -1.
         11    1    3    3    0    0 -0.12363208604E+02  0.92050505048E+01  0.76639682232E+01  0.17213898192E+02  0.51100000000E-03 0. -1.
        -11    1    3    3    0    0 -0.41303081710E+01  0.10961553992E+02  0.14788933523E+02  0.18866045333E+02  0.51100000000E-03 0.  1.
        -12    1    3    3    0    0 -0.35358740342E+01 -0.12620205711E+01  0.11089041182E+02  0.11707345363E+02  0.00000000000E+00 0.  1.
</event>
<event>
 7    1  0.1384886E-010  0.4778727E+02  0.7816164E-02  0.1312668E+00
        -11   -1    0    0    0    0  0.00000000000E+00  0.00000000000E+00  0.45593999997E+02  0.45594000000E+02  0.51100000000E-03 0. -1.
         11   -1    0    0    0    0 -0.00000000000E+00 -0.00000000000E+00 -0.45593999997E+02  0.45594000000E+02  0.51100000000E-03 0.  1.
    9900012    2    1    2    0    0  0.20806415194E+02 -0.10197893343E+02 -0.36697676003E+02  0.47787269984E+02  0.19999995166E+02 0.  0.
         12    1    1    2    0    0 -0.20806415194E+02  0.10197893343E+02  0.36697676003E+02  0.43400730016E+02  0.00000000000E+00 0. -1.
         11    1    3    3    0    0 -0.17545682562E+01 -0.89821544179E+00 -0.17082593096E+01  0.26083425533E+01  0.51100000000E-03 0. -1.
        -11    1    3    3    0    0 -0.13038289642E+01  0.85571824777E+00  0.79263964167E-01  0.15615718762E+01  0.51100000000E-03 0.  1.
        -12    1    3    3    0    0  0.23864812414E+02 -0.10155396149E+02 -0.35068680658E+02  0.43617355555E+02  0.00000000000E+00 0.  1.
</event>
<event>
 7    1  0.1384886E-010  0.4778726E+02  0.7816164E-02  0.1312668E+00
        -11   -1    0    0    0    0  0.00000000000E+00  0.00000000000E+00  0.45593999997E+02  0.45594000000E+02  0.51100000000E-03 0. -1.
         11   -1    0    0    0    0 -0.00000000000E+00 -0.00000000000E+00 -0.45593999997E+02  0.45594000000E+02  0.51100000000E-03 0.  1.
    9900012    2    1    2    0    0  0.31094869301E+00 -0.75466797788E+01 -0.42738450568E+02  0.47787260124E+02  0.19999950212E+02 0.  0.
         12    1    1    2    0    0 -0.31094869301E+00  0.75466797788E+01  0.42738450568E+02  0.43400739876E+02  0.00000000000E+00 0. -1.
         11    1    3    3    0    0 -0.28152770319E+01  0.22948541046E+01 -0.18798241420E+02  0.19145913947E+02  0.51100000000E-03 0. -1.
        -11    1    3    3    0    0  0.63231200933E+01 -0.27103745262E+01 -0.16388476001E+02  0.17773860686E+02  0.51100000000E-03 0.  1.
         12    1    3    3    0    0 -0.31968943684E+01 -0.71311593572E+01 -0.75517331474E+01  0.10867485492E+02  0.00000000000E+00 0. -1.
</event>
<event>
 7    1  0.1384886E-010  0.4778727E+02  0.7816164E-02  0.1312668E+00
        -11   -1    0    0    0    0  0.00000000000E+00  0.00000000000E+00  0.45593999997E+02  0.45594000000E+02  0.51100000000E-03 0. -1.
         11   -1    0    0    0    0 -0.00000000000E+00 -0.00000000000E+00 -0.45593999997E+02  0.45594000000E+02  0.51100000000E-03 0.  1.
    9900012    2    1    2    0    0 -0.22013690077E+02 -0.35681163171E+02  0.11219412909E+02  0.47787272102E+02  0.20000004821E+02 0.  0.
         12    1    1    2    0    0  0.22013690077E+02  0.35681163171E+02 -0.11219412909E+02  0.43400727898E+02  0.00000000000E+00 0. -1.
         11    1    3    3    0    0 -0.62404349481E+01 -0.92380745348E+01 -0.32959426795E+01  0.11625329581E+02  0.51100000000E-03 0. -1.
        -11    1    3    3    0    0 -0.79364906765E+01 -0.15055761548E+02  0.13510232234E+01  0.17073051984E+02  0.51100000000E-03 0.  1.
        -12    1    3    3    0    0 -0.78367644523E+01 -0.11387327089E+02  0.13164332365E+02  0.19088890537E+02  0.00000000000E+00 0.  1.
</event>
<event>
 7    1  0.1384886E-010  0.4778727E+02  0.7816164E-02  0.1312668E+00
        -11   -1    0    0    0    0  0.00000000000E+00  0.00000000000E+00  0.45593999997E+02  0.45594000000E+02  0.51100000000E-03 0.  1.
         11   -1    0    0    0    0 -0.00000000000E+00 -0.00000000000E+00 -0.45593999997E+02  0.45594000000E+02  0.51100000000E-03 0. -1.
    9900012    2    1    2    0    0 -0.15781077439E+02  0.22841370738E+02  0.33359444181E+02  0.47787272606E+02  0.20000007120E+02 0.  0.
         12    1    1    2    0    0  0.15781077439E+02 -0.22841370738E+02 -0.33359444181E+02  0.43400727394E+02  0.00000000000E+00 0. -1.
         11    1    3    3    0    0 -0.11644903476E+01  0.92084914942E+01  0.33990360895E+01  0.98846244222E+01  0.51100000000E-03 0. -1.
        -11    1    3    3    0    0 -0.85177454199E+01  0.12368847947E+02  0.27240878481E+02  0.31106363453E+02  0.51100000000E-03 0.  1.
         12    1    3    3    0    0 -0.60988416710E+01  0.12640312966E+01  0.27195296100E+01  0.67962847311E+01  0.00000000000E+00 0. -1.
</event>
<event>
 7    1  0.1384886E-010  0.4778727E+02  0.7816164E-02  0.1312668E+00
        -11   -1    0    0    0    0  0.00000000000E+00  0.00000000000E+00  0.45593999997E+02  0.45594000000E+02  0.51100000000E-03 0.  1.
         11   -1    0    0    0    0 -0.00000000000E+00 -0.00000000000E+00 -0.45593999997E+02  0.45594000000E+02  0.51100000000E-03 0. -1.
    9900012    2    1    2    0    0  0.39305866791E+02 -0.17964442208E+02 -0.39938564042E+01  0.47787271470E+02  0.20000001938E+02 0.  0.
         12    1    1    2    0    0 -0.39305866791E+02  0.17964442208E+02  0.39938564042E+01  0.43400728530E+02  0.00000000000E+00 0. -1.
         11    1    3    3    0    0  0.50727016245E+00 -0.30285197196E+01 -0.33140834946E+01  0.45180088955E+01  0.51100000000E-03 0. -1.
        -11    1    3    3    0    0  0.25563633536E+02 -0.10361807391E+02 -0.61060692845E+01  0.28251557380E+02  0.51100000000E-03 0.  1.
         12    1    3    3    0    0  0.13234963092E+02 -0.45741150969E+01  0.54262963750E+01  0.15017705195E+02  0.00000000000E+00 0. -1.
</event>
<event>
 7    1  0.1384886E-010  0.4778727E+02  0.7816164E-02  0.1312668E+00
        -11   -1    0    0    0    0  0.00000000000E+00  0.00000000000E+00  0.45593999997E+02  0.45594000000E+02  0.51100000000E-03 0. -1.
         11   -1    0    0    0    0 -0.00000000000E+00 -0.00000000000E+00 -0.45593999997E+02  0.45594000000E+02  0.51100000000E-03 0.  1.
    9900012    2    1    2    0    0  0.25475571955E+02 -0.33051940157E+02 -0.11924249159E+02  0.47787271520E+02  0.20000002167E+02 0.  0.
         12    1    1    2    0    0 -0.25475571955E+02  0.33051940157E+02  0.11924249159E+02  0.43400728480E+02  0.00000000000E+00 0. -1.
         11    1    3    3    0    0  0.14967436979E+01 -0.73474089574E+01  0.44904002439E+01  0.87400431747E+01  0.51100000000E-03 0. -1.
        -11    1    3    3    0    0  0.67098097181E+01 -0.98605868206E+01 -0.44163217840E+01  0.12718357491E+02  0.51100000000E-03 0.  1.
        -12    1    3    3    0    0  0.17269018539E+02 -0.15843944379E+02 -0.11998327619E+02  0.26328870854E+02  0.00000000000E+00 0.  1.
</event>
<event>
 7    1  0.1384886E-010  0.4778727E+02  0.7816164E-02  0.1312668E+00
        -11   -1    0    0    0    0  0.00000000000E+00  0.00000000000E+00  0.45593999997E+02  0.45594000000E+02  0.51100000000E-03 0.  1.
         11   -1    0    0    0    0 -0.00000000000E+00 -0.00000000000E+00 -0.45593999997E+02  0.45594000000E+02  0.51100000000E-03 0. -1.
    9900012    2    1    2    0    0 -0.35804666264E+02 -0.35374536243E+01  0.24272116671E+02  0.47787270144E+02  0.19999995893E+02 0.  0.
         12    1    1    2    0    0  0.35804666264E+02  0.35374536243E+01 -0.24272116671E+02  0.43400729856E+02  0.00000000000E+00 0. -1.
         11    1    3    3    0    0 -0.37032339931E+01  0.23672151070E+01 -0.14296417744E+01  0.46218530088E+01  0.51100000000E-03 0. -1.
        -11    1    3    3    0    0 -0.26398957480E+02  0.78205245531E-01  0.19020617094E+02  0.32537592827E+02  0.51100000000E-03 0.  1.
         12    1    3    3    0    0 -0.57024747907E+01 -0.59828739769E+01  0.66811413509E+01  0.10627824308E+02  0.00000000000E+00 0. -1.
</event>
<event>
 7    1  0.1384886E-010  0.4778725E+02  0.7816164E-02  0.1312668E+00
        -11   -1    0    0    0    0  0.00000000000E+00  0.00000000000E+00  0.45593999997E+02  0.45594000000E+02  0.51100000000E-03 0. -1.
         11   -1    0    0    0    0 -0.00000000000E+00 -0.00000000000E+00 -0.45593999997E+02  0.45594000000E+02  0.51100000000E-03 0.  1.
    9900012    2    1    2    0    0  0.29293615281E+02  0.28597630089E+02 -0.14411262588E+02  0.47787253090E+02  0.19999918137E+02 0.  0.
         12    1    1    2    0    0 -0.29293615281E+02 -0.28597630089E+02  0.14411262588E+02  0.43400746910E+02  0.00000000000E+00 0. -1.
         11    1    3    3    0    0  0.67585583528E+01  0.17643998215E+01 -0.76633686753E+01  0.10369109771E+02  0.51100000000E-03 0. -1.
        -11    1    3    3    0    0  0.12986760087E+01  0.88493128958E+01 -0.97034858073E+00  0.89965812802E+01  0.51100000000E-03 0.  1.
        -12    1    3    3    0    0  0.21236380920E+02  0.17983917372E+02 -0.57775453322E+01  0.28421562038E+02  0.00000000000E+00 0.  1.
</event>
<event>
 7    1  0.1384886E-010  0.4778728E+02  0.7816164E-02  0.1312668E+00
        -11   -1    0    0    0    0  0.00000000000E+00  0.00000000000E+00  0.45593999997E+02  0.45594000000E+02  0.51100000000E-03 0.  1.
         11   -1    0    0    0    0 -0.00000000000E+00 -0.00000000000E+00 -0.45593999997E+02  0.45594000000E+02  0.51100000000E-03 0. -1.
    9900012    2    1    2    0    0 -0.67453872079E+00  0.65215757587E+01  0.42902639088E+02  0.47787281186E+02  0.20000046241E+02 0.  0.
         12    1    1    2    0    0  0.67453872079E+00 -0.65215757587E+01 -0.42902639088E+02  0.43400718814E+02  0.00000000000E+00 0. -1.
         11    1    3    3    0    0 -0.19631164232E+01  0.90093685101E+01  0.23140906663E+02  0.24910321324E+02  0.51100000000E-03 0. -1.
        -11    1    3    3    0    0 -0.45034505775E+01 -0.22102211735E+01  0.13194973764E+02  0.14116425810E+02  0.51100000000E-03 0.  1.
         12    1    3    3    0    0  0.57920282799E+01 -0.27757157788E+00  0.65667586606E+01  0.87605340523E+01  0.00000000000E+00 0. -1.
</event>
<event>
 7    1  0.1384886E-010  0.4778727E+02  0.7816164E-02  0.1312668E+00
        -11   -1    0    0    0    0  0.00000000000E+00  0.00000000000E+00  0.45593999997E+02  0.45594000000E+02  0.51100000000E-03 0.  1.
         11   -1    0    0    0    0 -0.00000000000E+00 -0.00000000000E+00 -0.45593999997E+02  0.45594000000E+02  0.51100000000E-03 0. -1.
    9900012    2    1    2    0    0  0.19891667328E+02 -0.42265899171E+01  0.38341631693E+02  0.47787271754E+02  0.20000003235E+02 0.  0.
         12    1    1    2    0    0 -0.19891667328E+02  0.42265899171E+01 -0.38341631693E+02  0.43400728246E+02  0.00000000000E+00 0. -1.
         11    1    3    3    0    0  0.12270317255E+02 -0.82401119424E+01  0.19054674526E+02  0.24115156063E+02  0.51100000000E-03 0. -1.
        -11    1    3    3    0    0 -0.11616664427E+00 -0.37910591065E+00  0.12436956447E+02  0.12443275369E+02  0.51100000000E-03 0.  1.
         12    1    3    3    0    0  0.77375167172E+01  0.43926279359E+01  0.68500007195E+01  0.11228840323E+02  0.00000000000E+00 0. -1.
</event>
<event>
 7    1  0.1384886E-010  0.4778727E+02  0.7816164E-02  0.1312668E+00
        -11   -1    0    0    0    0  0.00000000000E+00  0.00000000000E+00  0.45593999997E+02  0.45594000000E+02  0.51100000000E-03 0. -1.
         11   -1    0    0    0    0 -0.00000000000E+00 -0.00000000000E+00 -0.45593999997E+02  0.45594000000E+02  0.51100000000E-03 0.  1.
    9900012    2    1    2    0    0 -0.21887894693E+02  0.35765076430E+02 -0.11198334455E+02  0.47787270505E+02  0.19999997539E+02 0.  0.
         12    1    1    2    0    0  0.21887894693E+02 -0.35765076430E+02  0.11198334455E+02  0.43400729495E+02  0.00000000000E+00 0. -1.
         11    1    3    3    0    0 -0.86453537073E+01  0.18391126192E+02 -0.28538786970E+01  0.20521215539E+02  0.51100000000E-03 0.  1.
        -11    1    3    3    0    0 -0.62767070249E+01  0.90694563570E+01 -0.11542446070E+02  0.15964966371E+02  0.51100000000E-03 0. -1.
         12    1    3    3    0    0 -0.69658339605E+01  0.83044938818E+01  0.31979903113E+01  0.11301088595E+02  0.00000000000E+00 0. -1.
</event>
<event>
 7    1  0.1384886E-010  0.4778727E+02  0.7816164E-02  0.1312668E+00
        -11   -1    0    0    0    0  0.00000000000E+00  0.00000000000E+00  0.45593999997E+02  0.45594000000E+02  0.51100000000E-03 0.  1.
         11   -1    0    0    0    0 -0.00000000000E+00 -0.00000000000E+00 -0.45593999997E+02  0.45594000000E+02  0.51100000000E-03 0. -1.
    9900012    2    1    2    0    0 -0.42954104411E+02 -0.62077298273E+01 -0.17939616197E+00  0.47787272145E+02  0.20000005018E+02 0.  0.
         12    1    1    2    0    0  0.42954104411E+02  0.62077298273E+01  0.17939616197E+00  0.43400727855E+02  0.00000000000E+00 0. -1.
         11    1    3    3    0    0 -0.14143252175E+02 -0.10384350538E+02  0.21552195708E+01  0.17677988852E+02  0.51100000000E-03 0. -1.
        -11    1    3    3    0    0 -0.18557556238E+02 -0.51581688701E+00  0.13841802800E+00  0.18565239573E+02  0.51100000000E-03 0.  1.
         12    1    3    3    0    0 -0.10253295998E+02  0.46924375981E+01 -0.24730337608E+01  0.11544043720E+02  0.00000000000E+00 0. -1.
</event>
<event>
 7    1  0.1384886E-010  0.4778727E+02  0.7816164E-02  0.1312668E+00
        -11   -1    0    0    0    0  0.00000000000E+00  0.00000000000E+00  0.45593999997E+02  0.45594000000E+02  0.51100000000E-03 0.  1.
         11   -1    0    0    0    0 -0.00000000000E+00 -0.00000000000E+00 -0.45593999997E+02  0.45594000000E+02  0.51100000000E-03 0. -1.
    9900012    2    1    2    0    0  0.20048741401E+02  0.38375147475E+02  0.30032508188E+01  0.47787268543E+02  0.19999988595E+02 0.  0.
         12    1    1    2    0    0 -0.20048741401E+02 -0.38375147475E+02 -0.30032508188E+01  0.43400731457E+02  0.00000000000E+00 0. -1.
         11    1    3    3    0    0  0.81135810941E+01  0.26699253248E+02  0.31239083179E+01  0.28079158207E+02  0.51100000000E-03 0. -1.
        -11    1    3    3    0    0  0.88299592648E+00  0.80786838879E+00  0.35776822555E+01  0.37725513545E+01  0.51100000000E-03 0.  1.
         12    1    3    3    0    0  0.11052164381E+02  0.10868025839E+02 -0.36983397546E+01  0.15935558982E+02  0.00000000000E+00 0. -1.
</event>
<event>
 7    1  0.1384886E-010  0.4778727E+02  0.7816164E-02  0.1312668E+00
        -11   -1    0    0    0    0  0.00000000000E+00  0.00000000000E+00  0.45593999997E+02  0.45594000000E+02  0.51100000000E-03 0.  1.
         11   -1    0    0    0    0 -0.00000000000E+00 -0.00000000000E+00 -0.45593999997E+02  0.45594000000E+02  0.51100000000E-03 0. -1.
    9900012    2    1    2    0    0 -0.98390973421E+01 -0.25642496174E+02  0.33604736866E+02  0.47787265140E+02  0.19999973081E+02 0.  0.
         12    1    1    2    0    0  0.98390973421E+01  0.25642496174E+02 -0.33604736866E+02  0.43400734860E+02  0.00000000000E+00 0. -1.
         11    1    3    3    0    0  0.14063006358E+01 -0.25759941513E-02 -0.50787684568E+00  0.14952014130E+01  0.51100000000E-03 0. -1.
        -11    1    3    3    0    0  0.23455419706E+01 -0.68833165124E+01  0.39939921914E+01  0.82966009445E+01  0.51100000000E-03 0.  1.
        -12    1    3    3    0    0 -0.13590939948E+02 -0.18756603667E+02  0.30118621520E+02  0.37995462783E+02  0.00000000000E+00 0.  1.
</event>
<event>
 7    1  0.1384886E-010  0.4778727E+02  0.7816164E-02  0.1312668E+00
        -11   -1    0    0    0    0  0.00000000000E+00  0.00000000000E+00  0.45593999997E+02  0.45594000000E+02  0.51100000000E-03 0.  1.
         11   -1    0    0    0    0 -0.00000000000E+00 -0.00000000000E+00 -0.45593999997E+02  0.45594000000E+02  0.51100000000E-03 0. -1.
    9900012    2    1    2    0    0 -0.27012297088E+02 -0.14594043476E+02  0.30675281473E+02  0.47787271983E+02  0.20000004280E+02 0.  0.
         12    1    1    2    0    0  0.27012297088E+02  0.14594043476E+02 -0.30675281473E+02  0.43400728017E+02  0.00000000000E+00 0. -1.
         11    1    3    3    0    0 -0.10094345331E+02 -0.15289767936E+02  0.16941679807E+02  0.24953823878E+02  0.51100000000E-03 0.  1.
        -11    1    3    3    0    0 -0.15952744320E+01  0.17683238130E+01  0.24991793714E+00  0.23946458730E+01  0.51100000000E-03 0. -1.
        -12    1    3    3    0    0 -0.15322677325E+02 -0.10725993530E+01  0.13483683729E+02  0.20438802232E+02  0.00000000000E+00 0.  1.
</event>
<event>
 7    1  0.1384886E-010  0.4778727E+02  0.7816164E-02  0.1312668E+00
        -11   -1    0    0    0    0  0.00000000000E+00  0.00000000000E+00  0.45593999997E+02  0.45594000000E+02  0.51100000000E-03 0. -1.
         11   -1    0    0    0    0 -0.00000000000E+00 -0.00000000000E+00 -0.45593999997E+02  0.45594000000E+02  0.51100000000E-03 0.  1.
    9900012    2    1    2    0    0 -0.42525717658E+02  0.65862460863E+01 -0.56398585438E+01  0.47787270695E+02  0.19999998407E+02 0.  0.
         12    1    1    2    0    0  0.42525717658E+02 -0.65862460863E+01  0.56398585438E+01  0.43400729305E+02  0.00000000000E+00 0. -1.
         11    1    3    3    0    0 -0.15346834285E+01 -0.16878599485E+01 -0.20713030962E+01  0.30813018692E+01  0.51100000000E-03 0. -1.
        -11    1    3    3    0    0 -0.27989459932E+02  0.11187613866E+02 -0.70052752581E+01  0.30945863261E+02  0.51100000000E-03 0.  1.
        -12    1    3    3    0    0 -0.13001574297E+02 -0.29135078310E+01  0.34367198106E+01  0.13760105565E+02  0.00000000000E+00 0.  1.
</event>
<event>
 7    1  0.1384886E-010  0.4778727E+02  0.7816164E-02  0.1312668E+00
        -11   -1    0    0    0    0  0.00000000000E+00  0.00000000000E+00  0.45593999997E+02  0.45594000000E+02  0.51100000000E-03 0. -1.
         11   -1    0    0    0    0 -0.00000000000E+00 -0.00000000000E+00 -0.45593999997E+02  0.45594000000E+02  0.51100000000E-03 0.  1.
    9900012    2    1    2    0    0  0.11154457315E+02 -0.10332818516E+02 -0.40650148020E+02  0.47787267397E+02  0.19999983369E+02 0.  0.
         12    1    1    2    0    0 -0.11154457315E+02  0.10332818516E+02  0.40650148020E+02  0.43400732603E+02  0.00000000000E+00 0. -1.
         11    1    3    3    0    0 -0.28702750696E+00  0.18550813723E+01  0.12864055231E+01  0.22756430121E+01  0.51100000000E-03 0. -1.
        -11    1    3    3    0    0  0.13602156521E+01 -0.21456968466E+01 -0.13232130543E+02  0.13473807203E+02  0.51100000000E-03 0.  1.
        -12    1    3    3    0    0  0.10081269170E+02 -0.10042203042E+02 -0.28704423000E+02  0.32037817182E+02  0.00000000000E+00 0.  1.
</event>
<event>
 7    1  0.1384886E-010  0.4778727E+02  0.7816164E-02  0.1312668E+00
        -11   -1    0    0    0    0  0.00000000000E+00  0.00000000000E+00  0.45593999997E+02  0.45594000000E+02  0.51100000000E-03 0. -1.
         11   -1    0    0    0    0 -0.00000000000E+00 -0.00000000000E+00 -0.45593999997E+02  0.45594000000E+02  0.51100000000E-03 0.  1.
    9900012    2    1    2    0    0 -0.38794948885E+02 -0.18520814548E+02  0.59627721198E+01  0.47787270952E+02  0.19999999580E+02 0.  0.
         12    1    1    2    0    0  0.38794948885E+02  0.18520814548E+02 -0.59627721198E+01  0.43400729048E+02  0.00000000000E+00 0. -1.
         11    1    3    3    0    0 -0.34004405170E+00  0.19383096345E+01 -0.21723411506E+00  0.19798649242E+01  0.51100000000E-03 0. -1.
        -11    1    3    3    0    0 -0.19373259561E+02 -0.69708002825E+01  0.86035337799E+01  0.22314480418E+02  0.51100000000E-03 0.  1.
         12    1    3    3    0    0 -0.19081645273E+02 -0.13488323900E+02 -0.24235275451E+01  0.23492925610E+02  0.00000000000E+00 0. -1.
</event>
<event>
 7    1  0.1384886E-010  0.4778726E+02  0.7816164E-02  0.1312668E+00
        -11   -1    0    0    0    0  0.00000000000E+00  0.00000000000E+00  0.45593999997E+02  0.45594000000E+02  0.51100000000E-03 0. -1.
         11   -1    0    0    0    0 -0.00000000000E+00 -0.00000000000E+00 -0.45593999997E+02  0.45594000000E+02  0.51100000000E-03 0.  1.
    9900012    2    1    2    0    0  0.61056808591E+01 -0.79596206912E+01 -0.42225454759E+02  0.47787263486E+02  0.19999965539E+02 0.  0.
         12    1    1    2    0    0 -0.61056808591E+01  0.79596206912E+01  0.42225454759E+02  0.43400736514E+02  0.00000000000E+00 0. -1.
         11    1    3    3    0    0  0.11400160520E+01 -0.63186316987E+01 -0.59831280992E+01  0.87762500680E+01  0.51100000000E-03 0. -1.
        -11    1    3    3    0    0  0.56392058450E+01 -0.55547128721E+01 -0.32843483251E+02  0.33783869967E+02  0.51100000000E-03 0.  1.
        -12    1    3    3    0    0 -0.67354103789E+00  0.39137238797E+01 -0.33988434093E+01  0.52271434509E+01  0.00000000000E+00 0.  1.
</event>
<event>
 7    1  0.1384886E-010  0.4778727E+02  0.7816164E-02  0.1312668E+00
        -11   -1    0    0    0    0  0.00000000000E+00  0.00000000000E+00  0.45593999997E+02  0.45594000000E+02  0.51100000000E-03 0.  1.
         11   -1    0    0    0    0 -0.00000000000E+00 -0.00000000000E+00 -0.45593999997E+02  0.45594000000E+02  0.51100000000E-03 0. -1.
    9900012    2    1    2    0    0 -0.22389651093E+02 -0.19599896116E+02  0.31593837123E+02  0.47787274799E+02  0.20000017118E+02 0.  0.
         12    1    1    2    0    0  0.22389651093E+02  0.19599896116E+02 -0.31593837123E+02  0.43400725201E+02  0.00000000000E+00 0. -1.
         11    1    3    3    0    0 -0.85857278242E+01 -0.64627769149E+01  0.79722569582E+01  0.13380548905E+02  0.51100000000E-03 0. -1.
        -11    1    3    3    0    0 -0.16593418486E+02 -0.78927849515E+01  0.14005526727E+02  0.23103947076E+02  0.51100000000E-03 0.  1.
        -12    1    3    3    0    0  0.27894952172E+01 -0.52443342492E+01  0.96160534380E+01  0.11302778818E+02  0.00000000000E+00 0.  1.
</event>
<event>
 7    1  0.1384886E-010  0.4778726E+02  0.7816164E-02  0.1312668E+00
        -11   -1    0    0    0    0  0.00000000000E+00  0.00000000000E+00  0.45593999997E+02  0.45594000000E+02  0.51100000000E-03 0.  1.
         11   -1    0    0    0    0 -0.00000000000E+00 -0.00000000000E+00 -0.45593999997E+02  0.45594000000E+02  0.51100000000E-03 0. -1.
    9900012    2    1    2    0    0  0.21849206748E+02  0.24136994695E+02  0.28699161959E+02  0.47787259850E+02  0.19999948959E+02 0.  0.
         12    1    1    2    0    0 -0.21849206748E+02 -0.24136994695E+02 -0.28699161959E+02  0.43400740150E+02  0.00000000000E+00 0. -1.
         11    1    3    3    0    0  0.59002714509E+01  0.22698028314E+01  0.17716978149E+01  0.65653729137E+01  0.51100000000E-03 0. -1.
        -11    1    3    3    0    0  0.14002983682E+02  0.17060009255E+02  0.28269532365E+02  0.35864940097E+02  0.51100000000E-03 0.  1.
        -12    1    3    3    0    0  0.19459516149E+01  0.48071826087E+01 -0.13420682209E+01  0.53569468385E+01  0.00000000000E+00 0.  1.
</event>
<event>
 7    1  0.1384886E-010  0.4778727E+02  0.7816164E-02  0.1312668E+00
        -11   -1    0    0    0    0  0.00000000000E+00  0.00000000000E+00  0.45593999997E+02  0.45594000000E+02  0.51100000000E-03 0.  1.
         11   -1    0    0    0    0 -0.00000000000E+00 -0.00000000000E+00 -0.45593999997E+02  0.45594000000E+02  0.51100000000E-03 0. -1.
    9900012    2    1    2    0    0 -0.26785434718E+02 -0.28217164427E+02  0.19234220268E+02  0.47787272924E+02  0.20000008572E+02 0.  0.
         12    1    1    2    0    0  0.26785434718E+02  0.28217164427E+02 -0.19234220268E+02  0.43400727076E+02  0.00000000000E+00 0. -1.
         11    1    3    3    0    0 -0.13270075399E+02 -0.46059089651E+01  0.48931104191E+01  0.14874536239E+02  0.51100000000E-03 0. -1.
        -11    1    3    3    0    0 -0.16827091267E+01 -0.70125122520E+01 -0.11594633476E+01  0.73041901402E+01  0.51100000000E-03 0.  1.
        -12    1    3    3    0    0 -0.11832650193E+02 -0.16598743210E+02  0.15500573197E+02  0.25608546545E+02  0.00000000000E+00 0.  1.
</event>
<event>
 7    1  0.1384886E-010  0.4778727E+02  0.7816164E-02  0.1312668E+00
        -11   -1    0    0    0    0  0.00000000000E+00  0.00000000000E+00  0.45593999997E+02  0.45594000000E+02  0.51100000000E-03 0.  1.
         11   -1    0    0    0    0 -0.00000000000E+00 -0.00000000000E+00 -0.45593999997E+02  0.45594000000E+02  0.51100000000E-03 0. -1.
    9900012    2    1    2    0    0  0.10814076742E+01  0.40590368130E+02  0.15325666278E+02  0.47787268735E+02  0.19999989470E+02 0.  0.
         12    1    1    2    0    0 -0.10814076742E+01 -0.40590368130E+02 -0.15325666278E+02  0.43400731265E+02  0.00000000000E+00 0. -1.
         11    1    3    3    0    0 -0.24729531101E+01  0.60561514879E+01 -0.24717644154E+01  0.69930027538E+01  0.51100000000E-03 0. -1.
        -11    1    3    3    0    0 -0.24848453953E+01  0.26391102030E+02  0.11805980887E+02  0.29018027293E+02  0.51100000000E-03 0.  1.
        -12    1    3    3    0    0  0.60392061795E+01  0.81431146114E+01  0.59914498067E+01  0.11776238688E+02  0.00000000000E+00 0.  1.
</event>
<event>
 7    1  0.1384886E-010  0.4778727E+02  0.7816164E-02  0.1312668E+00
        -11   -1    0    0    0    0  0.00000000000E+00  0.00000000000E+00  0.45593999997E+02  0.45594000000E+02  0.51100000000E-03 0. -1.
         11   -1    0    0    0    0 -0.00000000000E+00 -0.00000000000E+00 -0.45593999997E+02  0.45594000000E+02  0.51100000000E-03 0.  1.
    9900012    2    1    2    0    0 -0.18626878815E+02 -0.19018193142E+02 -0.34277847875E+02  0.47787272590E+02  0.20000007045E+02 0.  0.
         12    1    1    2    0    0  0.18626878815E+02  0.19018193142E+02  0.34277847875E+02  0.43400727410E+02  0.00000000000E+00 0. -1.
         11    1    3    3    0    0 -0.15131348436E+02 -0.16034457985E+02 -0.22920118139E+02  0.31802411294E+02  0.51100000000E-03 0.  1.
        -11    1    3    3    0    0  0.11800582504E+01 -0.56331678329E+01 -0.47129562761E+01  0.74388893277E+01  0.51100000000E-03 0. -1.
        -12    1    3    3    0    0 -0.46755886292E+01  0.26494326756E+01 -0.66447734605E+01  0.85459719677E+01  0.00000000000E+00 0.  1.
</event>
<event>
 7    1  0.1384886E-010  0.4778727E+02  0.7816164E-02  0.1312668E+00
        -11   -1    0    0    0    0  0.00000000000E+00  0.00000000000E+00  0.45593999997E+02  0.45594000000E+02  0.51100000000E-03 0. -1.
         11   -1    0    0    0    0 -0.00000000000E+00 -0.00000000000E+00 -0.45593999997E+02  0.45594000000E+02  0.51100000000E-03 0.  1.
    9900012    2    1    2    0    0 -0.16167100504E+02  0.36448632986E+02  0.17138998841E+02  0.47787271129E+02  0.20000000385E+02 0.  0.
         12    1    1    2    0    0  0.16167100504E+02 -0.36448632986E+02 -0.17138998841E+02  0.43400728871E+02  0.00000000000E+00 0. -1.
         11    1    3    3    0    0  0.95230557605E+00  0.65417465772E+01 -0.39346368405E+00  0.66223974603E+01  0.51100000000E-03 0. -1.
        -11    1    3    3    0    0 -0.16253616460E+02  0.16330354348E+02  0.14511203369E+02  0.27229314068E+02  0.51100000000E-03 0.  1.
        -12    1    3    3    0    0 -0.86578962012E+00  0.13576532062E+02  0.30212591560E+01  0.13935559600E+02  0.00000000000E+00 0.  1.
</event>
<event>
 7    1  0.1384886E-010  0.4778727E+02  0.7816164E-02  0.1312668E+00
        -11   -1    0    0    0    0  0.00000000000E+00  0.00000000000E+00  0.45593999997E+02  0.45594000000E+02  0.51100000000E-03 0.  1.
         11   -1    0    0    0    0 -0.00000000000E+00 -0.00000000000E+00 -0.45593999997E+02  0.45594000000E+02  0.51100000000E-03 0. -1.
    9900012    2    1    2    0    0  0.12723425595E+02 -0.14666789202E+02  0.38815241520E+02  0.47787271451E+02  0.20000001852E+02 0.  0.
         12    1    1    2    0    0 -0.12723425595E+02  0.14666789202E+02 -0.38815241520E+02  0.43400728549E+02  0.00000000000E+00 0. -1.
         11    1    3    3    0    0  0.71667754179E+01 -0.44439579148E+01  0.11741176983E+02  0.14455679474E+02  0.51100000000E-03 0. -1.
        -11    1    3    3    0    0 -0.30115832540E+01 -0.10444252396E+02  0.14961765649E+02  0.18493417029E+02  0.51100000000E-03 0.  1.
        -12    1    3    3    0    0  0.85682334311E+01  0.22142110864E+00  0.12112298888E+02  0.14838174948E+02  0.00000000000E+00 0.  1.
</event>
<event>
 7    1  0.1384886E-010  0.4778727E+02  0.7816164E-02  0.1312668E+00
        -11   -1    0    0    0    0  0.00000000000E+00  0.00000000000E+00  0.45593999997E+02  0.45594000000E+02  0.51100000000E-03 0.  1.
         11   -1    0    0    0    0 -0.00000000000E+00 -0.00000000000E+00 -0.45593999997E+02  0.45594000000E+02  0.51100000000E-03 0. -1.
    9900012    2    1    2    0    0  0.13887784045E+02  0.29201222348E+02  0.28948940373E+02  0.47787273266E+02  0.20000010129E+02 0.  0.
         12    1    1    2    0    0 -0.13887784045E+02 -0.29201222348E+02 -0.28948940373E+02  0.43400726734E+02  0.00000000000E+00 0. -1.
         11    1    3    3    0    0  0.49483012915E+01  0.13951527298E+02  0.56772160906E+01  0.15854386851E+02  0.51100000000E-03 0. -1.
        -11    1    3    3    0    0  0.85197177026E+01  0.15798914401E+02  0.24589999855E+02  0.30444365310E+02  0.51100000000E-03 0.  1.
         12    1    3    3    0    0  0.41976505125E+00 -0.54921935163E+00 -0.13182755726E+01  0.14885211049E+01  0.00000000000E+00 0. -1.
</event>
<event>
 7    1  0.1384886E-010  0.4778727E+02  0.7816164E-02  0.1312668E+00
        -11   -1    0    0    0    0  0.00000000000E+00  0.00000000000E+00  0.45593999997E+02  0.45594000000E+02  0.51100000000E-03 0.  1.
         11   -1    0    0    0    0 -0.00000000000E+00 -0.00000000000E+00 -0.45593999997E+02  0.45594000000E+02  0.51100000000E-03 0. -1.
    9900012    2    1    2    0    0  0.26048318589E+02 -0.29422436414E+02  0.18423591151E+02  0.47787269859E+02  0.19999994595E+02 0.  0.
         12    1    1    2    0    0 -0.26048318589E+02  0.29422436414E+02 -0.18423591151E+02  0.43400730141E+02  0.00000000000E+00 0. -1.
         11    1    3    3    0    0  0.78347114565E+00 -0.16906136260E+01 -0.21057964486E+01  0.28118286599E+01  0.51100000000E-03 0. -1.
        -11    1    3    3    0    0  0.11205606746E+02 -0.22238743702E+02  0.13469884721E+02  0.28311925731E+02  0.51100000000E-03 0.  1.
         12    1    3    3    0    0  0.14059240698E+02 -0.54930790862E+01  0.70595028790E+01  0.16663515468E+02  0.00000000000E+00 0. -1.
</event>
<event>
 7    1  0.1384886E-010  0.4778727E+02  0.7816164E-02  0.1312668E+00
        -11   -1    0    0    0    0  0.00000000000E+00  0.00000000000E+00  0.45593999997E+02  0.45594000000E+02  0.51100000000E-03 0. -1.
         11   -1    0    0    0    0 -0.00000000000E+00 -0.00000000000E+00 -0.45593999997E+02  0.45594000000E+02  0.51100000000E-03 0.  1.
    9900012    2    1    2    0    0 -0.91176495521E+01  0.37575791615E+02 -0.19711710274E+02  0.47787272232E+02  0.20000005415E+02 0.  0.
         12    1    1    2    0    0  0.91176495521E+01 -0.37575791615E+02  0.19711710274E+02  0.43400727768E+02  0.00000000000E+00 0. -1.
         11    1    3    3    0    0 -0.19566551129E-03  0.15448118787E+02 -0.73936651389E+01  0.17126314798E+02  0.51100000000E-03 0. -1.
        -11    1    3    3    0    0 -0.12918251775E+02  0.19489828488E+02 -0.94643137601E+01  0.25225143778E+02  0.51100000000E-03 0.  1.
        -12    1    3    3    0    0  0.38007978880E+01  0.26378443398E+01 -0.28537313750E+01  0.54358136564E+01  0.00000000000E+00 0.  1.
</event>
<event>
 7    1  0.1384886E-010  0.4778727E+02  0.7816164E-02  0.1312668E+00
        -11   -1    0    0    0    0  0.00000000000E+00  0.00000000000E+00  0.45593999997E+02  0.45594000000E+02  0.51100000000E-03 0.  1.
         11   -1    0    0    0    0 -0.00000000000E+00 -0.00000000000E+00 -0.45593999997E+02  0.45594000000E+02  0.51100000000E-03 0. -1.
    9900012    2    1    2    0    0  0.35401170265E+02 -0.16221638991E+02  0.19163475014E+02  0.47787271869E+02  0.20000003759E+02 0.  0.
         12    1    1    2    0    0 -0.35401170265E+02  0.16221638991E+02 -0.19163475014E+02  0.43400728131E+02  0.00000000000E+00 0. -1.
         11    1    3    3    0    0  0.86092163304E+00 -0.28898437044E+01  0.16121760617E+01  0.34192827624E+01  0.51100000000E-03 0. -1.
        -11    1    3    3    0    0  0.15975730997E+02 -0.20714738951E+01 -0.52162868283E+00  0.16117911829E+02  0.51100000000E-03 0.  1.
        -12    1    3    3    0    0  0.18564517635E+02 -0.11260321392E+02  0.18072927635E+02  0.28250077277E+02  0.00000000000E+00 0.  1.
</event>
<event>
 7    1  0.1384886E-010  0.4778728E+02  0.7816164E-02  0.1312668E+00
        -11   -1    0    0    0    0  0.00000000000E+00  0.00000000000E+00  0.45593999997E+02  0.45594000000E+02  0.51100000000E-03 0. -1.
         11   -1    0    0    0    0 -0.00000000000E+00 -0.00000000000E+00 -0.45593999997E+02  0.45594000000E+02  0.51100000000E-03 0.  1.
    9900012    2    1    2    0    0 -0.31017843603E+02 -0.19143234420E+02 -0.23559558464E+02  0.47787276033E+02  0.20000022746E+02 0.  0.
         12    1    1    2    0    0  0.31017843603E+02  0.19143234420E+02  0.23559558464E+02  0.43400723967E+02  0.00000000000E+00 0. -1.
         11    1    3    3    0    0  0.21372604524E+01 -0.45161464977E+00 -0.91197543182E+00  0.23671792249E+01  0.51100000000E-03 0. -1.
        -11    1    3    3    0    0 -0.13139078202E+01  0.10820753944E+00 -0.35828403297E+01  0.38176966512E+01  0.51100000000E-03 0.  1.
        -12    1    3    3    0    0 -0.31841196235E+02 -0.18799827310E+02 -0.19064742703E+02  0.41602400157E+02  0.00000000000E+00 0.  1.
</event>
<event>
 7    1  0.1384886E-010  0.4778727E+02  0.7816164E-02  0.1312668E+00
        -11   -1    0    0    0    0  0.00000000000E+00  0.00000000000E+00  0.45593999997E+02  0.45594000000E+02  0.51100000000E-03 0.  1.
         11   -1    0    0    0    0 -0.00000000000E+00 -0.00000000000E+00 -0.45593999997E+02  0.45594000000E+02  0.51100000000E-03 0. -1.
    9900012    2    1    2    0    0 -0.42510911581E+02 -0.62065155483E+01  0.61583474889E+01  0.47787266337E+02  0.19999978538E+02 0.  0.
         12    1    1    2    0    0  0.42510911581E+02  0.62065155483E+01 -0.61583474889E+01  0.43400733663E+02  0.00000000000E+00 0. -1.
         11    1    3    3    0    0  0.89553362738E+00 -0.18605792654E+01 -0.13923677388E+01  0.24904665952E+01  0.51100000000E-03 0. -1.
        -11    1    3    3    0    0 -0.23581459222E+02 -0.69264920157E+01  0.27079641383E+01  0.24726394414E+02  0.51100000000E-03 0.  1.
        -12    1    3    3    0    0 -0.19824985987E+02  0.25805557328E+01  0.48427510894E+01  0.20570405328E+02  0.00000000000E+00 0.  1.
</event>
<event>
 7    1  0.1384886E-010  0.4778727E+02  0.7816164E-02  0.1312668E+00
        -11   -1    0    0    0    0  0.00000000000E+00  0.00000000000E+00  0.45593999997E+02  0.45594000000E+02  0.51100000000E-03 0. -1.
         11   -1    0    0    0    0 -0.00000000000E+00 -0.00000000000E+00 -0.45593999997E+02  0.45594000000E+02  0.51100000000E-03 0.  1.
    9900012    2    1    2    0    0 -0.33936401916E+02 -0.18319146325E+02 -0.19908608150E+02  0.47787272178E+02  0.20000005167E+02 0.  0.
         12    1    1    2    0    0  0.33936401916E+02  0.18319146325E+02  0.19908608150E+02  0.43400727822E+02  0.00000000000E+00 0. -1.
         11    1    3    3    0    0 -0.10590662850E+02 -0.41458734133E+01 -0.32113020977E+01  0.11817904526E+02  0.51100000000E-03 0. -1.
        -11    1    3    3    0    0 -0.18588894200E+01 -0.26386799716E+01 -0.10247427363E+02  0.10743736300E+02  0.51100000000E-03 0.  1.
        -12    1    3    3    0    0 -0.21486849646E+02 -0.11534592940E+02 -0.64498786888E+01  0.25225631352E+02  0.00000000000E+00 0.  1.
</event>
<event>
 7    1  0.1384886E-010  0.4778727E+02  0.7816164E-02  0.1312668E+00
        -11   -1    0    0    0    0  0.00000000000E+00  0.00000000000E+00  0.45593999997E+02  0.45594000000E+02  0.51100000000E-03 0.  1.
         11   -1    0    0    0    0 -0.00000000000E+00 -0.00000000000E+00 -0.45593999997E+02  0.45594000000E+02  0.51100000000E-03 0. -1.
    9900012    2    1    2    0    0  0.29080229143E+01 -0.15248496266E+02  0.40529618806E+02  0.47787271478E+02  0.20000001978E+02 0.  0.
         12    1    1    2    0    0 -0.29080229143E+01  0.15248496266E+02 -0.40529618806E+02  0.43400728522E+02  0.00000000000E+00 0. -1.
         11    1    3    3    0    0  0.21102862486E+01  0.34675654657E-01  0.23448796143E+02  0.23543588326E+02  0.51100000000E-03 0. -1.
        -11    1    3    3    0    0 -0.33675289839E+00 -0.97667384726E+01  0.15620426036E+02  0.18425533716E+02  0.51100000000E-03 0.  1.
        -12    1    3    3    0    0  0.11344895640E+01 -0.55164334478E+01  0.14603966274E+01  0.58181494364E+01  0.00000000000E+00 0.  1.
</event>
<event>
 7    1  0.1384886E-010  0.4778727E+02  0.7816164E-02  0.1312668E+00
        -11   -1    0    0    0    0  0.00000000000E+00  0.00000000000E+00  0.45593999997E+02  0.45594000000E+02  0.51100000000E-03 0.  1.
         11   -1    0    0    0    0 -0.00000000000E+00 -0.00000000000E+00 -0.45593999997E+02  0.45594000000E+02  0.51100000000E-03 0. -1.
    9900012    2    1    2    0    0  0.27243556408E+02 -0.12958915295E+01  0.33759933144E+02  0.47787265139E+02  0.19999973073E+02 0.  0.
         12    1    1    2    0    0 -0.27243556408E+02  0.12958915295E+01 -0.33759933144E+02  0.43400734861E+02  0.00000000000E+00 0. -1.
         11    1    3    3    0    0  0.16030903731E+02 -0.28538675391E+01  0.10762071907E+02  0.19518110214E+02  0.51100000000E-03 0. -1.
        -11    1    3    3    0    0  0.31706044532E+01 -0.28095991319E+01  0.16526257142E+02  0.17060590706E+02  0.51100000000E-03 0.  1.
         12    1    3    3    0    0  0.80420482237E+01  0.43675751416E+01  0.64716040961E+01  0.11208564218E+02  0.00000000000E+00 0. -1.
</event>
<event>
 7    1  0.1384886E-010  0.4778727E+02  0.7816164E-02  0.1312668E+00
        -11   -1    0    0    0    0  0.00000000000E+00  0.00000000000E+00  0.45593999997E+02  0.45594000000E+02  0.51100000000E-03 0. -1.
         11   -1    0    0    0    0 -0.00000000000E+00 -0.00000000000E+00 -0.45593999997E+02  0.45594000000E+02  0.51100000000E-03 0.  1.
    9900012    2    1    2    0    0  0.38159558581E+02  0.12999418396E+02 -0.16077516931E+02  0.47787270278E+02  0.19999996505E+02 0.  0.
         12    1    1    2    0    0 -0.38159558581E+02 -0.12999418396E+02  0.16077516931E+02  0.43400729722E+02  0.00000000000E+00 0. -1.
         11    1    3    3    0    0  0.29055842674E+01  0.35725923274E+01 -0.71319302615E+01  0.84894207923E+01  0.51100000000E-03 0. -1.
        -11    1    3    3    0    0  0.22605339070E+02  0.47838762557E+01 -0.11131952728E+02  0.25647752305E+02  0.51100000000E-03 0.  1.
         12    1    3    3    0    0  0.12648635244E+02  0.46429498126E+01  0.21863660588E+01  0.13650097181E+02  0.00000000000E+00 0. -1.
</event>
<event>
 7    1  0.1384886E-010  0.4778727E+02  0.7816164E-02  0.1312668E+00
        -11   -1    0    0    0    0  0.00000000000E+00  0.00000000000E+00  0.45593999997E+02  0.45594000000E+02  0.51100000000E-03 0. -1.
         11   -1    0    0    0    0 -0.00000000000E+00 -0.00000000000E+00 -0.45593999997E+02  0.45594000000E+02  0.51100000000E-03 0.  1.
    9900012    2    1    2    0    0 -0.35647911391E+02  0.11668361086E+02 -0.21833446096E+02  0.47787267225E+02  0.19999982585E+02 0.  0.
         12    1    1    2    0    0  0.35647911391E+02 -0.11668361086E+02  0.21833446096E+02  0.43400732775E+02  0.00000000000E+00 0. -1.
         11    1    3    3    0    0 -0.11759095366E+02  0.51742418752E+01 -0.54290952762E+01  0.13947192498E+02  0.51100000000E-03 0. -1.
        -11    1    3    3    0    0 -0.25051045557E+02  0.22229000568E+01 -0.13473733452E+02  0.28531345246E+02  0.51100000000E-03 0.  1.
         12    1    3    3    0    0  0.11622295312E+01  0.42712191539E+01 -0.29306173677E+01  0.53087294807E+01  0.00000000000E+00 0. -1.
</event>
<event>
 7    1  0.1384886E-010  0.4778726E+02  0.7816164E-02  0.1312668E+00
        -11   -1    0    0    0    0  0.00000000000E+00  0.00000000000E+00  0.45593999997E+02  0.45594000000E+02  0.51100000000E-03 0.  1.
         11   -1    0    0    0    0 -0.00000000000E+00 -0.00000000000E+00 -0.45593999997E+02  0.45594000000E+02  0.51100000000E-03 0. -1.
    9900012    2    1    2    0    0  0.25248622649E+02  0.18943940952E+02  0.29786884503E+02  0.47787258844E+02  0.19999944375E+02 0.  0.
         12    1    1    2    0    0 -0.25248622649E+02 -0.18943940952E+02 -0.29786884503E+02  0.43400741156E+02  0.00000000000E+00 0. -1.
         11    1    3    3    0    0  0.43448551444E+00 -0.22426149954E+01  0.15771348702E+00  0.22897540228E+01  0.51100000000E-03 0. -1.
        -11    1    3    3    0    0  0.17709250355E+02  0.79802659514E+01  0.18482272872E+02  0.26812247268E+02  0.51100000000E-03 0.  1.
         12    1    3    3    0    0  0.71048867793E+01  0.13206289996E+02  0.11146898144E+02  0.18685257553E+02  0.00000000000E+00 0. -1.
</event>
<event>
 7    1  0.1384886E-010  0.4778727E+02  0.7816164E-02  0.1312668E+00
        -11   -1    0    0    0    0  0.00000000000E+00  0.00000000000E+00  0.45593999997E+02  0.45594000000E+02  0.51100000000E-03 0.  1.
         11   -1    0    0    0    0 -0.00000000000E+00 -0.00000000000E+00 -0.45593999997E+02  0.45594000000E+02  0.51100000000E-03 0. -1.
    9900012    2    1    2    0    0 -0.92147409121E+01 -0.15985181778E+02  0.39283403559E+02  0.47787270954E+02  0.19999999589E+02 0.  0.
         12    1    1    2    0    0  0.92147409121E+01  0.15985181778E+02 -0.39283403559E+02  0.43400729046E+02  0.00000000000E+00 0. -1.
         11    1    3    3    0    0 -0.25840607812E+01 -0.52073739183E+01  0.53042202764E+01  0.78694895799E+01  0.51100000000E-03 0. -1.
        -11    1    3    3    0    0 -0.40820140466E+00  0.35977556382E+01  0.14374744735E+02  0.14823756625E+02  0.51100000000E-03 0.  1.
        -12    1    3    3    0    0 -0.62224787262E+01 -0.14375563498E+02  0.19604438547E+02  0.25094024750E+02  0.00000000000E+00 0.  1.
</event>
<event>
 7    1  0.1384886E-010  0.4778727E+02  0.7816164E-02  0.1312668E+00
        -11   -1    0    0    0    0  0.00000000000E+00  0.00000000000E+00  0.45593999997E+02  0.45594000000E+02  0.51100000000E-03 0.  1.
         11   -1    0    0    0    0 -0.00000000000E+00 -0.00000000000E+00 -0.45593999997E+02  0.45594000000E+02  0.51100000000E-03 0. -1.
    9900012    2    1    2    0    0  0.34780397828E+02 -0.26151020940E+01  0.25828443001E+02  0.47787270745E+02  0.19999998634E+02 0.  0.
         12    1    1    2    0    0 -0.34780397828E+02  0.26151020940E+01 -0.25828443001E+02  0.43400729255E+02  0.00000000000E+00 0. -1.
         11    1    3    3    0    0  0.23377224310E+01 -0.36853648700E+01  0.94544109333E+01  0.10413104568E+02  0.51100000000E-03 0. -1.
        -11    1    3    3    0    0  0.19958144812E+02 -0.30376786277E+01  0.12182416222E+02  0.23578937658E+02  0.51100000000E-03 0.  1.
        -12    1    3    3    0    0  0.12484530585E+02  0.41079414037E+01  0.41916158455E+01  0.13795228519E+02  0.00000000000E+00 0.  1.
</event>
<event>
 7    1  0.1384886E-010  0.4778727E+02  0.7816164E-02  0.1312668E+00
        -11   -1    0    0    0    0  0.00000000000E+00  0.00000000000E+00  0.45593999997E+02  0.45594000000E+02  0.51100000000E-03 0.  1.
         11   -1    0    0    0    0 -0.00000000000E+00 -0.00000000000E+00 -0.45593999997E+02  0.45594000000E+02  0.51100000000E-03 0. -1.
    9900012    2    1    2    0    0 -0.16653588955E+02  0.60678100660E+01  0.39616449190E+02  0.47787269701E+02  0.19999993875E+02 0.  0.
         12    1    1    2    0    0  0.16653588955E+02 -0.60678100660E+01 -0.39616449190E+02  0.43400730299E+02  0.00000000000E+00 0. -1.
         11    1    3    3    0    0  0.34372868696E+01  0.91080810890E+00  0.63391325907E+01  0.72683639630E+01  0.51100000000E-03 0. -1.
        -11    1    3    3    0    0 -0.11205614792E+02  0.49807186807E+01  0.26952558570E+02  0.29611041440E+02  0.51100000000E-03 0.  1.
        -12    1    3    3    0    0 -0.88852610330E+01  0.17628327636E+00  0.63247580289E+01  0.10907864298E+02  0.00000000000E+00 0.  1.
</event>
<event>
 7    1  0.1384886E-010  0.4778726E+02  0.7816164E-02  0.1312668E+00
        -11   -1    0    0    0    0  0.00000000000E+00  0.00000000000E+00  0.45593999997E+02  0.45594000000E+02  0.51100000000E-03 0.  1.
         11   -1    0    0    0    0 -0.00000000000E+00 -0.00000000000E+00 -0.45593999997E+02  0.45594000000E+02  0.51100000000E-03 0. -1.
    9900012    2    1    2    0    0  0.41972742603E+02 -0.12885919791E+00  0.11040673882E+02  0.47787260305E+02  0.19999951033E+02 0.  0.
         12    1    1    2    0    0 -0.41972742603E+02  0.12885919791E+00 -0.11040673882E+02  0.43400739695E+02  0.00000000000E+00 0. -1.
         11    1    3    3    0    0  0.13475836271E+02 -0.73255132500E+00 -0.54730445433E+01  0.14563276124E+02  0.51100000000E-03 0. -1.
        -11    1    3    3    0    0  0.47583134961E+01 -0.37255773108E-01  0.47470560792E+01  0.67214192698E+01  0.51100000000E-03 0.  1.
         12    1    3    3    0    0  0.23738592837E+02  0.64094790020E+00  0.11766662346E+02  0.26502564911E+02  0.00000000000E+00 0. -1.
</event>
<event>
 7    1  0.1384886E-010  0.4778727E+02  0.7816164E-02  0.1312668E+00
        -11   -1    0    0    0    0  0.00000000000E+00  0.00000000000E+00  0.45593999997E+02  0.45594000000E+02  0.51100000000E-03 0.  1.
         11   -1    0    0    0    0 -0.00000000000E+00 -0.00000000000E+00 -0.45593999997E+02  0.45594000000E+02  0.51100000000E-03 0. -1.
    9900012    2    1    2    0    0 -0.62230478921E+01  0.12861459674E+02  0.40981454061E+02  0.47787273659E+02  0.20000011921E+02 0.  0.
         12    1    1    2    0    0  0.62230478921E+01 -0.12861459674E+02 -0.40981454061E+02  0.43400726341E+02  0.00000000000E+00 0. -1.
         11    1    3    3    0    0  0.45651476152E+01  0.36232002119E+01  0.62895519600E+01  0.85747662733E+01  0.51100000000E-03 0.  1.
        -11    1    3    3    0    0 -0.57975342021E+01  0.11129792818E+02  0.20333170227E+02  0.23893963730E+02  0.51100000000E-03 0. -1.
        -12    1    3    3    0    0 -0.49906613051E+01 -0.18915333566E+01  0.14358731874E+02  0.15318543656E+02  0.00000000000E+00 0.  1.
</event>
<event>
 7    1  0.1384886E-010  0.4778728E+02  0.7816164E-02  0.1312668E+00
        -11   -1    0    0    0    0  0.00000000000E+00  0.00000000000E+00  0.45593999997E+02  0.45594000000E+02  0.51100000000E-03 0.  1.
         11   -1    0    0    0    0 -0.00000000000E+00 -0.00000000000E+00 -0.45593999997E+02  0.45594000000E+02  0.51100000000E-03 0. -1.
    9900012    2    1    2    0    0  0.98886019390E+01  0.39708069591E+02 -0.14460542459E+02  0.47787279647E+02  0.20000039222E+02 0.  0.
         12    1    1    2    0    0 -0.98886019390E+01 -0.39708069591E+02  0.14460542459E+02  0.43400720353E+02  0.00000000000E+00 0. -1.
         11    1    3    3    0    0 -0.26188918580E+01  0.14130432774E+02 -0.64180699113E+01  0.15739102471E+02  0.51100000000E-03 0. -1.
        -11    1    3    3    0    0 -0.14291540088E+01  0.85967741481E+01 -0.44619038993E+01  0.97905869897E+01  0.51100000000E-03 0.  1.
         12    1    3    3    0    0  0.13936647806E+02  0.16980862669E+02 -0.35805686482E+01  0.22257590186E+02  0.00000000000E+00 0. -1.
</event>
<event>
 7    1  0.1384886E-010  0.4778727E+02  0.7816164E-02  0.1312668E+00
        -11   -1    0    0    0    0  0.00000000000E+00  0.00000000000E+00  0.45593999997E+02  0.45594000000E+02  0.51100000000E-03 0. -1.
         11   -1    0    0    0    0 -0.00000000000E+00 -0.00000000000E+00 -0.45593999997E+02  0.45594000000E+02  0.51100000000E-03 0.  1.
    9900012    2    1    2    0    0  0.23574209465E+02  0.34690466665E+02 -0.11155795110E+02  0.47787267358E+02  0.19999983191E+02 0.  0.
         12    1    1    2    0    0 -0.23574209465E+02 -0.34690466665E+02  0.11155795110E+02  0.43400732642E+02  0.00000000000E+00 0. -1.
         11    1    3    3    0    0 -0.81960518689E+00  0.17850229201E+00  0.14448465629E+01  0.16706877572E+01  0.51100000000E-03 0. -1.
        -11    1    3    3    0    0  0.39115727921E+01 -0.30578904362E+00 -0.54972216453E+00  0.39618308099E+01  0.51100000000E-03 0.  1.
        -12    1    3    3    0    0  0.20482241860E+02  0.34817753417E+02 -0.12050919508E+02  0.42154748791E+02  0.00000000000E+00 0.  1.
</event>
<event>
 7    1  0.1749000E-010  0.4778727E+02  0.7816164E-02  0.1312668E+00
        -11   -1    0    0    0    0  0.00000000000E+00  0.00000000000E+00  0.45593999997E+02  0.45594000000E+02  0.51100000000E-03 0. -1.
         11   -1    0    0    0    0 -0.00000000000E+00 -0.00000000000E+00 -0.45593999997E+02  0.45594000000E+02  0.51100000000E-03 0.  1.
    9900012    2    1    2    0    0  0.14262740841E+02  0.39246368272E+02 -0.11828770212E+02  0.47787274159E+02  0.20000014199E+02 0.  0.
         12    1    1    2    0    0 -0.14262740841E+02 -0.39246368272E+02  0.11828770212E+02  0.43400725841E+02  0.00000000000E+00 0. -1.
         11    1    3    3    0    0  0.25232498561E+01  0.52821266681E+01  0.31883571500E+01  0.66658287970E+01  0.51100000000E-03 0. -1.
        -11    1    3    3    0    0 -0.14886761584E+01  0.12448568190E+02 -0.81295407893E+01  0.14942303718E+02  0.51100000000E-03 0.  1.
        -12    1    3    3    0    0  0.13228167144E+02  0.21515673414E+02 -0.68875865729E+01  0.26179141644E+02  0.00000000000E+00 0.  1.
</event>
<event>
 7    1  0.1384886E-010  0.4778727E+02  0.7816164E-02  0.1312668E+00
        -11   -1    0    0    0    0  0.00000000000E+00  0.00000000000E+00  0.45593999997E+02  0.45594000000E+02  0.51100000000E-03 0.  1.
         11   -1    0    0    0    0 -0.00000000000E+00 -0.00000000000E+00 -0.45593999997E+02  0.45594000000E+02  0.51100000000E-03 0. -1.
    9900012    2    1    2    0    0  0.30104250307E+02  0.30919709819E+02 -0.46183057604E+01  0.47787273164E+02  0.20000009663E+02 0.  0.
         12    1    1    2    0    0 -0.30104250307E+02 -0.30919709819E+02  0.46183057604E+01  0.43400726836E+02  0.00000000000E+00 0. -1.
         11    1    3    3    0    0  0.11877172870E+02  0.19130394510E+02  0.14759654500E+01  0.22565852604E+02  0.51100000000E-03 0. -1.
        -11    1    3    3    0    0  0.19697430440E+02  0.11607627818E+02 -0.50652133969E+01  0.23417561285E+02  0.51100000000E-03 0.  1.
         12    1    3    3    0    0 -0.14703530037E+01  0.18168749142E+00 -0.10290578135E+01  0.18038592749E+01  0.00000000000E+00 0. -1.
</event>
<event>
 7    1  0.1384886E-010  0.4778727E+02  0.7816164E-02  0.1312668E+00
        -11   -1    0    0    0    0  0.00000000000E+00  0.00000000000E+00  0.45593999997E+02  0.45594000000E+02  0.51100000000E-03 0.  1.
         11   -1    0    0    0    0 -0.00000000000E+00 -0.00000000000E+00 -0.45593999997E+02  0.45594000000E+02  0.51100000000E-03 0. -1.
    9900012    2    1    2    0    0 -0.31230565803E+02 -0.30088887856E+02 -0.17129347986E+01  0.47787267766E+02  0.19999985054E+02 0.  0.
         12    1    1    2    0    0  0.31230565803E+02  0.30088887856E+02  0.17129347986E+01  0.43400732234E+02  0.00000000000E+00 0. -1.
         11    1    3    3    0    0 -0.77078587531E+01 -0.15514867241E+02  0.27100359394E+01  0.17534722328E+02  0.51100000000E-03 0. -1.
        -11    1    3    3    0    0 -0.10120123948E+02 -0.11910142242E+02  0.73589571818E+00  0.15646403412E+02  0.51100000000E-03 0.  1.
         12    1    3    3    0    0 -0.13402583102E+02 -0.26638783726E+01 -0.51588664562E+01  0.14606142027E+02  0.00000000000E+00 0. -1.
</event>
<event>
 7    1  0.1384886E-010  0.4778727E+02  0.7816164E-02  0.1312668E+00
        -11   -1    0    0    0    0  0.00000000000E+00  0.00000000000E+00  0.45593999997E+02  0.45594000000E+02  0.51100000000E-03 0.  1.
         11   -1    0    0    0    0 -0.00000000000E+00 -0.00000000000E+00 -0.45593999997E+02  0.45594000000E+02  0.51100000000E-03 0. -1.
    9900012    2    1    2    0    0  0.88425245152E+01  0.41155447594E+02  0.10567021057E+02  0.47787273734E+02  0.20000012261E+02 0.  0.
         12    1    1    2    0    0 -0.88425245152E+01 -0.41155447594E+02 -0.10567021057E+02  0.43400726266E+02  0.00000000000E+00 0. -1.
         11    1    3    3    0    0  0.25288602501E+01  0.53915247131E+01  0.76797972087E+01  0.97181766975E+01  0.51100000000E-03 0. -1.
        -11    1    3    3    0    0  0.14614421931E+01  0.16555406204E+02  0.66539638622E+01  0.17902304969E+02  0.51100000000E-03 0.  1.
         12    1    3    3    0    0  0.48522220720E+01  0.19208516676E+02 -0.37667400134E+01  0.20166792067E+02  0.00000000000E+00 0. -1.
</event>
<event>
 7    1  0.1384886E-010  0.4778727E+02  0.7816164E-02  0.1312668E+00
        -11   -1    0    0    0    0  0.00000000000E+00  0.00000000000E+00  0.45593999997E+02  0.45594000000E+02  0.51100000000E-03 0.  1.
         11   -1    0    0    0    0 -0.00000000000E+00 -0.00000000000E+00 -0.45593999997E+02  0.45594000000E+02  0.51100000000E-03 0. -1.
    9900012    2    1    2    0    0 -0.37677988505E+02 -0.20812972484E+02  0.55509061605E+01  0.47787271889E+02  0.20000003850E+02 0.  0.
         12    1    1    2    0    0  0.37677988505E+02  0.20812972484E+02 -0.55509061605E+01  0.43400728111E+02  0.00000000000E+00 0. -1.
         11    1    3    3    0    0  0.22291746167E+00 -0.33042823360E+01 -0.20276666973E+01  0.38832211432E+01  0.51100000000E-03 0. -1.
        -11    1    3    3    0    0 -0.24584883195E+02 -0.10223228662E+02 -0.65933119948E+00  0.26633918298E+02  0.51100000000E-03 0.  1.
        -12    1    3    3    0    0 -0.13316022771E+02 -0.72854614865E+01  0.82379040572E+01  0.17270132448E+02  0.00000000000E+00 0.  1.
</event>
<event>
 7    1  0.1384886E-010  0.4778727E+02  0.7816164E-02  0.1312668E+00
        -11   -1    0    0    0    0  0.00000000000E+00  0.00000000000E+00  0.45593999997E+02  0.45594000000E+02  0.51100000000E-03 0. -1.
         11   -1    0    0    0    0 -0.00000000000E+00 -0.00000000000E+00 -0.45593999997E+02  0.45594000000E+02  0.51100000000E-03 0.  1.
    9900012    2    1    2    0    0 -0.13449960318E+02  0.28649091813E+02 -0.29697669099E+02  0.47787269082E+02  0.19999991053E+02 0.  0.
         12    1    1    2    0    0  0.13449960318E+02 -0.28649091813E+02  0.29697669099E+02  0.43400730918E+02  0.00000000000E+00 0. -1.
         11    1    3    3    0    0  0.44549513448E+00  0.53885631295E+01 -0.14784853043E+02  0.15742520709E+02  0.51100000000E-03 0. -1.
        -11    1    3    3    0    0 -0.32678383228E+01  0.31577301292E+01  0.50399370744E+00  0.45720932614E+01  0.51100000000E-03 0.  1.
        -12    1    3    3    0    0 -0.10627617130E+02  0.20102798554E+02 -0.15416809764E+02  0.27472655112E+02  0.00000000000E+00 0.  1.
</event>
<event>
 7    1  0.1384886E-010  0.4778727E+02  0.7816164E-02  0.1312668E+00
        -11   -1    0    0    0    0  0.00000000000E+00  0.00000000000E+00  0.45593999997E+02  0.45594000000E+02  0.51100000000E-03 0.  1.
         11   -1    0    0    0    0 -0.00000000000E+00 -0.00000000000E+00 -0.45593999997E+02  0.45594000000E+02  0.51100000000E-03 0. -1.
    9900012    2    1    2    0    0 -0.18105285536E+02 -0.18155068989E+02  0.35017354158E+02  0.47787274354E+02  0.20000015092E+02 0.  0.
         12    1    1    2    0    0  0.18105285536E+02  0.18155068989E+02 -0.35017354158E+02  0.43400725646E+02  0.00000000000E+00 0. -1.
         11    1    3    3    0    0 -0.78159001230E-01 -0.22266036529E+01 -0.14948832597E+01  0.26830111587E+01  0.51100000000E-03 0. -1.
        -11    1    3    3    0    0 -0.42023713518E+01 -0.94934176671E+01  0.20580352575E+02  0.23050722686E+02  0.51100000000E-03 0.  1.
        -12    1    3    3    0    0 -0.13824755183E+02 -0.64350476694E+01  0.15931884842E+02  0.22053540510E+02  0.00000000000E+00 0.  1.
</event>
<event>
 7    1  0.1384886E-010  0.4778727E+02  0.7816164E-02  0.1312668E+00
        -11   -1    0    0    0    0  0.00000000000E+00  0.00000000000E+00  0.45593999997E+02  0.45594000000E+02  0.51100000000E-03 0.  1.
         11   -1    0    0    0    0 -0.00000000000E+00 -0.00000000000E+00 -0.45593999997E+02  0.45594000000E+02  0.51100000000E-03 0. -1.
    9900012    2    1    2    0    0  0.33111264469E+02  0.73543723314E+01  0.27077314130E+02  0.47787267660E+02  0.19999984569E+02 0.  0.
         12    1    1    2    0    0 -0.33111264469E+02 -0.73543723314E+01 -0.27077314130E+02  0.43400732340E+02  0.00000000000E+00 0. -1.
         11    1    3    3    0    0  0.12920517289E+02  0.66237472954E+01  0.61707316074E+01  0.15776302611E+02  0.51100000000E-03 0. -1.
        -11    1    3    3    0    0  0.17803645306E+02 -0.39818463371E+01  0.12617381531E+02  0.22181596052E+02  0.51100000000E-03 0.  1.
         12    1    3    3    0    0  0.23871018740E+01  0.47124713731E+01  0.82892009914E+01  0.98293689967E+01  0.00000000000E+00 0. -1.
</event>
<event>
 7    1  0.1384886E-010  0.4778727E+02  0.7816164E-02  0.1312668E+00
        -11   -1    0    0    0    0  0.00000000000E+00  0.00000000000E+00  0.45593999997E+02  0.45594000000E+02  0.51100000000E-03 0.  1.
         11   -1    0    0    0    0 -0.00000000000E+00 -0.00000000000E+00 -0.45593999997E+02  0.45594000000E+02  0.51100000000E-03 0. -1.
    9900012    2    1    2    0    0  0.51160882492E+01  0.11117298902E+02  0.41639577624E+02  0.47787272834E+02  0.20000008159E+02 0.  0.
         12    1    1    2    0    0 -0.51160882492E+01 -0.11117298902E+02 -0.41639577624E+02  0.43400727166E+02  0.00000000000E+00 0. -1.
         11    1    3    3    0    0  0.64484740671E+01  0.84058569129E+00  0.39778445809E+01  0.76231653445E+01  0.51100000000E-03 0. -1.
        -11    1    3    3    0    0  0.32055556154E+01  0.32726933722E+01  0.21411948211E+02  0.21896521074E+02  0.51100000000E-03 0.  1.
        -12    1    3    3    0    0 -0.45379414334E+01  0.70040198384E+01  0.16249784832E+02  0.18267586415E+02  0.00000000000E+00 0.  1.
</event>
<event>
 7    1  0.1384886E-010  0.4778727E+02  0.7816164E-02  0.1312668E+00
        -11   -1    0    0    0    0  0.00000000000E+00  0.00000000000E+00  0.45593999997E+02  0.45594000000E+02  0.51100000000E-03 0. -1.
         11   -1    0    0    0    0 -0.00000000000E+00 -0.00000000000E+00 -0.45593999997E+02  0.45594000000E+02  0.51100000000E-03 0.  1.
    9900012    2    1    2    0    0 -0.12005829659E+02  0.22141707310E+02 -0.35344418768E+02  0.47787273204E+02  0.20000009845E+02 0.  0.
         12    1    1    2    0    0  0.12005829659E+02 -0.22141707310E+02  0.35344418768E+02  0.43400726796E+02  0.00000000000E+00 0. -1.
         11    1    3    3    0    0 -0.56364346048E+01  0.28323504641E+01 -0.26293333957E-01  0.63081134902E+01  0.51100000000E-03 0. -1.
        -11    1    3    3    0    0 -0.14424555708E+01  0.32042531339E+01 -0.13311044537E+02  0.13767055718E+02  0.51100000000E-03 0.  1.
        -12    1    3    3    0    0 -0.49269394836E+01  0.16105103712E+02 -0.22007080897E+02  0.27712103995E+02  0.00000000000E+00 0.  1.
</event>
<event>
 7    1  0.1384886E-010  0.4778727E+02  0.7816164E-02  0.1312668E+00
        -11   -1    0    0    0    0  0.00000000000E+00  0.00000000000E+00  0.45593999997E+02  0.45594000000E+02  0.51100000000E-03 0.  1.
         11   -1    0    0    0    0 -0.00000000000E+00 -0.00000000000E+00 -0.45593999997E+02  0.45594000000E+02  0.51100000000E-03 0. -1.
    9900012    2    1    2    0    0  0.16845540618E+02 -0.34557311972E+02  0.20140586455E+02  0.47787271064E+02  0.20000000091E+02 0.  0.
         12    1    1    2    0    0 -0.16845540618E+02  0.34557311972E+02 -0.20140586455E+02  0.43400728936E+02  0.00000000000E+00 0. -1.
         11    1    3    3    0    0  0.48822560370E+01 -0.11254368335E+02  0.13992190969E+02  0.18608563593E+02  0.51100000000E-03 0. -1.
        -11    1    3    3    0    0  0.12022118556E+02 -0.24517773986E+02  0.59267632519E+01  0.27942424711E+02  0.51100000000E-03 0.  1.
         12    1    3    3    0    0 -0.58833975427E-01  0.12148303500E+01  0.22163223422E+00  0.12362827602E+01  0.00000000000E+00 0. -1.
</event>
<event>
 7    1  0.1384886E-010  0.4778727E+02  0.7816164E-02  0.1312668E+00
        -11   -1    0    0    0    0  0.00000000000E+00  0.00000000000E+00  0.45593999997E+02  0.45594000000E+02  0.51100000000E-03 0. -1.
         11   -1    0    0    0    0 -0.00000000000E+00 -0.00000000000E+00 -0.45593999997E+02  0.45594000000E+02  0.51100000000E-03 0.  1.
    9900012    2    1    2    0    0  0.27580764888E+02 -0.32321857342E+02 -0.88443155479E+01  0.47787274530E+02  0.20000015891E+02 0.  0.
         12    1    1    2    0    0 -0.27580764888E+02  0.32321857342E+02  0.88443155479E+01  0.43400725470E+02  0.00000000000E+00 0. -1.
         11    1    3    3    0    0  0.27736800699E+01  0.22991634364E+01 -0.21836453415E+01  0.42128091431E+01  0.51100000000E-03 0. -1.
        -11    1    3    3    0    0  0.83617152865E+01 -0.12789667050E+02 -0.54223597835E+01  0.16214063392E+02  0.51100000000E-03 0.  1.
         12    1    3    3    0    0  0.16445369531E+02 -0.21831353728E+02 -0.12383104228E+01  0.27360401995E+02  0.00000000000E+00 0. -1.
</event>
<event>
 7    1  0.1384886E-010  0.4778727E+02  0.7816164E-02  0.1312668E+00
        -11   -1    0    0    0    0  0.00000000000E+00  0.00000000000E+00  0.45593999997E+02  0.45594000000E+02  0.51100000000E-03 0. -1.
         11   -1    0    0    0    0 -0.00000000000E+00 -0.00000000000E+00 -0.45593999997E+02  0.45594000000E+02  0.51100000000E-03 0.  1.
    9900012    2    1    2    0    0 -0.34478785205E+01 -0.42947684312E+02 -0.52184174798E+01  0.47787270340E+02  0.19999996787E+02 0.  0.
         12    1    1    2    0    0  0.34478785205E+01  0.42947684312E+02  0.52184174798E+01  0.43400729660E+02  0.00000000000E+00 0. -1.
         11    1    3    3    0    0  0.38269964874E+01 -0.23591779676E+02  0.18275688939E-01  0.23900173737E+02  0.51100000000E-03 0.  1.
        -11    1    3    3    0    0 -0.16385417329E+01  0.70918515188E+00  0.11077219022E+01  0.21011450839E+01  0.51100000000E-03 0. -1.
        -12    1    3    3    0    0 -0.56363332750E+01 -0.20065089788E+02 -0.63444150710E+01  0.21785951518E+02  0.00000000000E+00 0.  1.
</event>
<event>
 7    1  0.1384886E-010  0.4778727E+02  0.7816164E-02  0.1312668E+00
        -11   -1    0    0    0    0  0.00000000000E+00  0.00000000000E+00  0.45593999997E+02  0.45594000000E+02  0.51100000000E-03 0.  1.
         11   -1    0    0    0    0 -0.00000000000E+00 -0.00000000000E+00 -0.45593999997E+02  0.45594000000E+02  0.51100000000E-03 0. -1.
    9900012    2    1    2    0    0  0.15921702556E+02 -0.20891205396E+02  0.34549678139E+02  0.47787270344E+02  0.19999996806E+02 0.  0.
         12    1    1    2    0    0 -0.15921702556E+02  0.20891205396E+02 -0.34549678139E+02  0.43400729656E+02  0.00000000000E+00 0. -1.
         11    1    3    3    0    0 -0.20063686635E+01  0.14618740132E+01  0.10230031339E+01  0.26849816606E+01  0.51100000000E-03 0.  1.
        -11    1    3    3    0    0  0.49850793468E+00 -0.25694767900E+01  0.22559903757E+00  0.26270927510E+01  0.51100000000E-03 0. -1.
        -12    1    3    3    0    0  0.17429563285E+02 -0.19783602620E+02  0.33301075967E+02  0.42475195932E+02  0.00000000000E+00 0.  1.
</event>
<event>
 7    1  0.1384886E-010  0.4778728E+02  0.7816164E-02  0.1312668E+00
        -11   -1    0    0    0    0  0.00000000000E+00  0.00000000000E+00  0.45593999997E+02  0.45594000000E+02  0.51100000000E-03 0.  1.
         11   -1    0    0    0    0 -0.00000000000E+00 -0.00000000000E+00 -0.45593999997E+02  0.45594000000E+02  0.51100000000E-03 0. -1.
    9900012    2    1    2    0    0 -0.22678422787E+02  0.15790204592E+02  0.33466119101E+02  0.47787279397E+02  0.20000038083E+02 0.  0.
         12    1    1    2    0    0  0.22678422787E+02 -0.15790204592E+02 -0.33466119101E+02  0.43400720603E+02  0.00000000000E+00 0. -1.
         11    1    3    3    0    0 -0.64709088291E+01 -0.60677418146E+00  0.19219479295E+01  0.67775157755E+01  0.51100000000E-03 0. -1.
        -11    1    3    3    0    0 -0.84271097624E-01  0.55721722642E+01  0.25881176241E+01  0.61444738145E+01  0.51100000000E-03 0.  1.
        -12    1    3    3    0    0 -0.16123242860E+02  0.10824806510E+02  0.28956053548E+02  0.34865289807E+02  0.00000000000E+00 0.  1.
</event>
<event>
 7    1  0.1384886E-010  0.4778726E+02  0.7816164E-02  0.1312668E+00
        -11   -1    0    0    0    0  0.00000000000E+00  0.00000000000E+00  0.45593999997E+02  0.45594000000E+02  0.51100000000E-03 0.  1.
         11   -1    0    0    0    0 -0.00000000000E+00 -0.00000000000E+00 -0.45593999997E+02  0.45594000000E+02  0.51100000000E-03 0. -1.
    9900012    2    1    2    0    0 -0.27111572803E+02  0.21037864948E+02  0.26570564788E+02  0.47787262050E+02  0.19999958991E+02 0.  0.
         12    1    1    2    0    0  0.27111572803E+02 -0.21037864948E+02 -0.26570564788E+02  0.43400737950E+02  0.00000000000E+00 0. -1.
         11    1    3    3    0    0 -0.25489672267E+01  0.36767641820E+01  0.12544816233E+02  0.13318717782E+02  0.51100000000E-03 0. -1.
        -11    1    3    3    0    0 -0.41442264936E+01  0.71694575975E+01  0.14331763005E+01  0.84041495728E+01  0.51100000000E-03 0.  1.
        -12    1    3    3    0    0 -0.20418379083E+02  0.10191643169E+02  0.12592572254E+02  0.26064394695E+02  0.00000000000E+00 0.  1.
</event>
<event>
 7    1  0.1384886E-010  0.4778726E+02  0.7816164E-02  0.1312668E+00
        -11   -1    0    0    0    0  0.00000000000E+00  0.00000000000E+00  0.45593999997E+02  0.45594000000E+02  0.51100000000E-03 0. -1.
         11   -1    0    0    0    0 -0.00000000000E+00 -0.00000000000E+00 -0.45593999997E+02  0.45594000000E+02  0.51100000000E-03 0.  1.
    9900012    2    1    2    0    0  0.30643213338E+02  0.19269755686E+02 -0.23943565717E+02  0.47787258680E+02  0.19999943626E+02 0.  0.
         12    1    1    2    0    0 -0.30643213338E+02 -0.19269755686E+02  0.23943565717E+02  0.43400741320E+02  0.00000000000E+00 0. -1.
         11    1    3    3    0    0  0.12433033468E+02  0.15900890697E+02 -0.69748956896E+01  0.21355744340E+02  0.51100000000E-03 0. -1.
        -11    1    3    3    0    0  0.10813992084E+02  0.51716350051E+01 -0.69751245443E+01  0.13868691217E+02  0.51100000000E-03 0.  1.
        -12    1    3    3    0    0  0.73961877864E+01 -0.18027700161E+01 -0.99935454828E+01  0.12562823123E+02  0.00000000000E+00 0.  1.
</event>
<event>
 7    1  0.1384886E-010  0.4778730E+02  0.7816164E-02  0.1312668E+00
        -11   -1    0    0    0    0  0.00000000000E+00  0.00000000000E+00  0.45593999997E+02  0.45594000000E+02  0.51100000000E-03 0. -1.
         11   -1    0    0    0    0 -0.00000000000E+00 -0.00000000000E+00 -0.45593999997E+02  0.45594000000E+02  0.51100000000E-03 0.  1.
    9900012    2    1    2    0    0 -0.10830944534E+02 -0.27092150482E+02 -0.32129843809E+02  0.47787299079E+02  0.20000127819E+02 0.  0.
         12    1    1    2    0    0  0.10830944534E+02  0.27092150482E+02  0.32129843809E+02  0.43400700921E+02  0.00000000000E+00 0. -1.
         11    1    3    3    0    0 -0.38886264106E+01 -0.21498150781E+02 -0.31547454486E+02  0.38373607951E+02  0.51100000000E-03 0.  1.
        -11    1    3    3    0    0 -0.53225925526E+01 -0.47083642575E+01 -0.16304497991E+01  0.72908883046E+01  0.51100000000E-03 0. -1.
        -12    1    3    3    0    0 -0.16197255706E+01 -0.88563544346E+00  0.10480604762E+01  0.21228028228E+01  0.00000000000E+00 0.  1.
</event>
<event>
 7    1  0.1384886E-010  0.4778727E+02  0.7816164E-02  0.1312668E+00
        -11   -1    0    0    0    0  0.00000000000E+00  0.00000000000E+00  0.45593999997E+02  0.45594000000E+02  0.51100000000E-03 0.  1.
         11   -1    0    0    0    0 -0.00000000000E+00 -0.00000000000E+00 -0.45593999997E+02  0.45594000000E+02  0.51100000000E-03 0. -1.
    9900012    2    1    2    0    0 -0.18929554999E+02  0.35908489257E+02  0.15358248658E+02  0.47787268957E+02  0.19999990483E+02 0.  0.
         12    1    1    2    0    0  0.18929554999E+02 -0.35908489257E+02 -0.15358248658E+02  0.43400731043E+02  0.00000000000E+00 0. -1.
         11    1    3    3    0    0 -0.17363244701E+01  0.88648222351E+01  0.10462031139E+02  0.13822228176E+02  0.51100000000E-03 0. -1.
        -11    1    3    3    0    0 -0.13499105026E+02  0.16132157967E+02  0.71689708338E+01  0.22223107349E+02  0.51100000000E-03 0.  1.
         12    1    3    3    0    0 -0.36941255031E+01  0.10911509055E+02 -0.22727533151E+01  0.11741933432E+02  0.00000000000E+00 0. -1.
</event>
<event>
 7    1  0.1384886E-010  0.4778727E+02  0.7816164E-02  0.1312668E+00
        -11   -1    0    0    0    0  0.00000000000E+00  0.00000000000E+00  0.45593999997E+02  0.45594000000E+02  0.51100000000E-03 0. -1.
         11   -1    0    0    0    0 -0.00000000000E+00 -0.00000000000E+00 -0.45593999997E+02  0.45594000000E+02  0.51100000000E-03 0.  1.
    9900012    2    1    2    0    0 -0.37973748180E+02  0.17558848883E+02 -0.11545772079E+02  0.47787267543E+02  0.19999984035E+02 0.  0.
         12    1    1    2    0    0  0.37973748180E+02 -0.17558848883E+02  0.11545772079E+02  0.43400732457E+02  0.00000000000E+00 0. -1.
         11    1    3    3    0    0 -0.26788970716E+02  0.42657217629E+01 -0.38051441050E+01  0.27392050965E+02  0.51100000000E-03 0. -1.
        -11    1    3    3    0    0 -0.27253871131E+01  0.47536024970E+00  0.72353560754E+00  0.28595814939E+01  0.51100000000E-03 0.  1.
        -12    1    3    3    0    0 -0.84593903509E+01  0.12817766870E+02 -0.84641635814E+01  0.17535635084E+02  0.00000000000E+00 0.  1.
</event>
<event>
 7    1  0.1384886E-010  0.4778727E+02  0.7816164E-02  0.1312668E+00
        -11   -1    0    0    0    0  0.00000000000E+00  0.00000000000E+00  0.45593999997E+02  0.45594000000E+02  0.51100000000E-03 0.  1.
         11   -1    0    0    0    0 -0.00000000000E+00 -0.00000000000E+00 -0.45593999997E+02  0.45594000000E+02  0.51100000000E-03 0. -1.
    9900012    2    1    2    0    0  0.60352630807E+01 -0.35913302577E+01  0.42828748353E+02  0.47787265686E+02  0.19999975570E+02 0.  0.
         12    1    1    2    0    0 -0.60352630807E+01  0.35913302577E+01 -0.42828748353E+02  0.43400734314E+02  0.00000000000E+00 0. -1.
         11    1    3    3    0    0  0.66099279175E+01 -0.53867984672E+01  0.17773272698E+02  0.19712888359E+02  0.51100000000E-03 0. -1.
        -11    1    3    3    0    0 -0.45320406275E+01 -0.40767539491E+00  0.22328627596E+02  0.22787566830E+02  0.51100000000E-03 0.  1.
         12    1    3    3    0    0  0.39573757907E+01  0.22031436044E+01  0.27268480592E+01  0.52868104967E+01  0.00000000000E+00 0. -1.
</event>
<event>
 7    1  0.1384886E-010  0.4778731E+02  0.7816164E-02  0.1312668E+00
        -11   -1    0    0    0    0  0.00000000000E+00  0.00000000000E+00  0.45593999997E+02  0.45594000000E+02  0.51100000000E-03 0.  1.
         11   -1    0    0    0    0 -0.00000000000E+00 -0.00000000000E+00 -0.45593999997E+02  0.45594000000E+02  0.51100000000E-03 0. -1.
    9900012    2    1    2    0    0 -0.15669921232E+02  0.77125577727E+01  0.39731473767E+02  0.47787308917E+02  0.20000172674E+02 0.  0.
         12    1    1    2    0    0  0.15669921232E+02 -0.77125577727E+01 -0.39731473767E+02  0.43400691083E+02  0.00000000000E+00 0. -1.
         11    1    3    3    0    0 -0.73072808170E+01  0.80719653393E+01  0.14645637419E+02  0.18249593778E+02  0.51100000000E-03 0. -1.
        -11    1    3    3    0    0 -0.50893761217E+01  0.57039267671E+00  0.25590345525E+02  0.26097756253E+02  0.51100000000E-03 0.  1.
        -12    1    3    3    0    0 -0.32732642932E+01 -0.92980024329E+00 -0.50450917703E+00  0.34399588857E+01  0.00000000000E+00 0.  1.
</event>
<event>
 7    1  0.1384886E-010  0.4778728E+02  0.7816164E-02  0.1312668E+00
        -11   -1    0    0    0    0  0.00000000000E+00  0.00000000000E+00  0.45593999997E+02  0.45594000000E+02  0.51100000000E-03 0.  1.
         11   -1    0    0    0    0 -0.00000000000E+00 -0.00000000000E+00 -0.45593999997E+02  0.45594000000E+02  0.51100000000E-03 0. -1.
    9900012    2    1    2    0    0  0.46045448903E+01 -0.42133619060E+02 -0.93369613887E+01  0.47787279537E+02  0.20000038722E+02 0.  0.
         12    1    1    2    0    0 -0.46045448903E+01  0.42133619060E+02  0.93369613887E+01  0.43400720463E+02  0.00000000000E+00 0. -1.
         11    1    3    3    0    0  0.20986580378E+01  0.18804141408E+00  0.18744638773E+01  0.28201667010E+01  0.51100000000E-03 0. -1.
        -11    1    3    3    0    0  0.13541988645E+01 -0.14592405484E+01 -0.24557224937E+01  0.31612989055E+01  0.51100000000E-03 0.  1.
        -12    1    3    3    0    0  0.11516879880E+01 -0.40862419925E+02 -0.87557027723E+01  0.41805813931E+02  0.00000000000E+00 0.  1.
</event>
<event>
 7    1  0.1384886E-010  0.4778727E+02  0.7816164E-02  0.1312668E+00
        -11   -1    0    0    0    0  0.00000000000E+00  0.00000000000E+00  0.45593999997E+02  0.45594000000E+02  0.51100000000E-03 0.  1.
         11   -1    0    0    0    0 -0.00000000000E+00 -0.00000000000E+00 -0.45593999997E+02  0.45594000000E+02  0.51100000000E-03 0. -1.
    9900012    2    1    2    0    0  0.10285359142E+02 -0.29652263996E+02  0.29976291326E+02  0.47787269426E+02  0.19999992619E+02 0.  0.
         12    1    1    2    0    0 -0.10285359142E+02  0.29652263996E+02 -0.29976291326E+02  0.43400730574E+02  0.00000000000E+00 0. -1.
         11    1    3    3    0    0  0.28714048746E+01 -0.11846249902E+01  0.20911822926E+01  0.37445087746E+01  0.51100000000E-03 0. -1.
        -11    1    3    3    0    0  0.80878982223E+00 -0.24931895604E+02  0.26554698114E+02  0.36433577255E+02  0.51100000000E-03 0.  1.
        -12    1    3    3    0    0  0.66051644447E+01 -0.35357434017E+01  0.13304109191E+01  0.76091833962E+01  0.00000000000E+00 0.  1.
</event>
<event>
 7    1  0.1742861E-010  0.4778730E+02  0.7816164E-02  0.1312668E+00
        -11   -1    0    0    0    0  0.00000000000E+00  0.00000000000E+00  0.45593999997E+02  0.45594000000E+02  0.51100000000E-03 0. -1.
         11   -1    0    0    0    0 -0.00000000000E+00 -0.00000000000E+00 -0.45593999997E+02  0.45594000000E+02  0.51100000000E-03 0.  1.
    9900012    2    1    2    0    0 -0.69123474327E+01  0.36074769393E+02 -0.23118210091E+02  0.47787295264E+02  0.20000110424E+02 0.  0.
         12    1    1    2    0    0  0.69123474327E+01 -0.36074769393E+02  0.23118210091E+02  0.43400704736E+02  0.00000000000E+00 0. -1.
         11    1    3    3    0    0 -0.31615178320E+00  0.13304113243E+02 -0.17180361919E+00  0.13308978093E+02  0.51100000000E-03 0. -1.
        -11    1    3    3    0    0 -0.30234941313E+01  0.20454294439E+02 -0.15283683712E+02  0.25712072375E+02  0.51100000000E-03 0.  1.
         12    1    3    3    0    0 -0.35727015182E+01  0.23163617113E+01 -0.76627227603E+01  0.87662447956E+01  0.00000000000E+00 0. -1.
</event>
<event>
 7    1  0.1384886E-010  0.4778727E+02  0.7816164E-02  0.1312668E+00
        -11   -1    0    0    0    0  0.00000000000E+00  0.00000000000E+00  0.45593999997E+02  0.45594000000E+02  0.51100000000E-03 0.  1.
         11   -1    0    0    0    0 -0.00000000000E+00 -0.00000000000E+00 -0.45593999997E+02  0.45594000000E+02  0.51100000000E-03 0. -1.
    9900012    2    1    2    0    0 -0.34598757483E+01  0.27108952747E+02  0.33715834633E+02  0.47787267699E+02  0.19999984749E+02 0.  0.
         12    1    1    2    0    0  0.34598757483E+01 -0.27108952747E+02 -0.33715834633E+02  0.43400732301E+02  0.00000000000E+00 0. -1.
         11    1    3    3    0    0 -0.69469285065E+01  0.11465235021E+02  0.77220618195E+01  0.15470671245E+02  0.51100000000E-03 0. -1.
        -11    1    3    3    0    0 -0.11702469928E+01  0.45196412596E+00  0.88623281424E+01  0.89506765085E+01  0.51100000000E-03 0.  1.
        -12    1    3    3    0    0  0.46572997510E+01  0.15191753600E+02  0.17131444671E+02  0.23365919946E+02  0.00000000000E+00 0.  1.
</event>
<event>
 7    1  0.1384886E-010  0.4778728E+02  0.7816164E-02  0.1312668E+00
        -11   -1    0    0    0    0  0.00000000000E+00  0.00000000000E+00  0.45593999997E+02  0.45594000000E+02  0.51100000000E-03 0. -1.
         11   -1    0    0    0    0 -0.00000000000E+00 -0.00000000000E+00 -0.45593999997E+02  0.45594000000E+02  0.51100000000E-03 0.  1.
    9900012    2    1    2    0    0  0.34835879281E+02  0.21671965816E+02 -0.14156623445E+02  0.47787279097E+02  0.20000036713E+02 0.  0.
         12    1    1    2    0    0 -0.34835879281E+02 -0.21671965816E+02  0.14156623445E+02  0.43400720903E+02  0.00000000000E+00 0. -1.
         11    1    3    3    0    0  0.19007628186E+02  0.88825237087E+01 -0.83954995557E+01  0.22598087745E+02  0.51100000000E-03 0. -1.
        -11    1    3    3    0    0  0.12559905492E+02  0.11476682702E+02 -0.99553119895E+01  0.19712273052E+02  0.51100000000E-03 0.  1.
         12    1    3    3    0    0  0.32683456026E+01  0.13127594052E+01  0.41941881005E+01  0.54769182993E+01  0.00000000000E+00 0. -1.
</event>
<event>
 7    1  0.1384886E-010  0.4778727E+02  0.7816164E-02  0.1312668E+00
        -11   -1    0    0    0    0  0.00000000000E+00  0.00000000000E+00  0.45593999997E+02  0.45594000000E+02  0.51100000000E-03 0.  1.
         11   -1    0    0    0    0 -0.00000000000E+00 -0.00000000000E+00 -0.45593999997E+02  0.45594000000E+02  0.51100000000E-03 0. -1.
    9900012    2    1    2    0    0 -0.29308829384E+01 -0.33417584349E+02  0.27537216432E+02  0.47787270659E+02  0.19999998243E+02 0.  0.
         12    1    1    2    0    0  0.29308829384E+01  0.33417584349E+02 -0.27537216432E+02  0.43400729341E+02  0.00000000000E+00 0. -1.
         11    1    3    3    0    0  0.33171248913E+01 -0.51194942933E+01  0.28327842006E+00  0.61067819912E+01  0.51100000000E-03 0. -1.
        -11    1    3    3    0    0  0.36548744799E+00 -0.99450730278E+01  0.16855079381E+02  0.19573751807E+02  0.51100000000E-03 0.  1.
        -12    1    3    3    0    0 -0.66134952777E+01 -0.18353017028E+02  0.10398858630E+02  0.22106736861E+02  0.00000000000E+00 0.  1.
</event>
<event>
 7    1  0.1384886E-010  0.4778727E+02  0.7816164E-02  0.1312668E+00
        -11   -1    0    0    0    0  0.00000000000E+00  0.00000000000E+00  0.45593999997E+02  0.45594000000E+02  0.51100000000E-03 0.  1.
         11   -1    0    0    0    0 -0.00000000000E+00 -0.00000000000E+00 -0.45593999997E+02  0.45594000000E+02  0.51100000000E-03 0. -1.
    9900012    2    1    2    0    0  0.27836880993E+02 -0.26846906148E+02  0.19697077063E+02  0.47787272379E+02  0.20000006085E+02 0.  0.
         12    1    1    2    0    0 -0.27836880993E+02  0.26846906148E+02 -0.19697077063E+02  0.43400727621E+02  0.00000000000E+00 0. -1.
         11    1    3    3    0    0  0.19040643636E+02 -0.15395829039E+02  0.57986532801E+01  0.25163506154E+02  0.51100000000E-03 0. -1.
        -11    1    3    3    0    0  0.27204681645E+01 -0.10131613077E+02  0.46385853361E+01  0.11470266116E+02  0.51100000000E-03 0.  1.
        -12    1    3    3    0    0  0.60757691931E+01 -0.13194640325E+01  0.92598384472E+01  0.11153500109E+02  0.00000000000E+00 0.  1.
</event>
<event>
 7    1  0.1490916E-010  0.4778727E+02  0.7816164E-02  0.1312668E+00
        -11   -1    0    0    0    0  0.00000000000E+00  0.00000000000E+00  0.45593999997E+02  0.45594000000E+02  0.51100000000E-03 0. -1.
         11   -1    0    0    0    0 -0.00000000000E+00 -0.00000000000E+00 -0.45593999997E+02  0.45594000000E+02  0.51100000000E-03 0.  1.
    9900012    2    1    2    0    0  0.23588226468E+02  0.26202187759E+02 -0.25311348296E+02  0.47787269317E+02  0.19999992124E+02 0.  0.
         12    1    1    2    0    0 -0.23588226468E+02 -0.26202187759E+02  0.25311348296E+02  0.43400730683E+02  0.00000000000E+00 0. -1.
         11    1    3    3    0    0  0.97230613989E+01  0.11798264085E+01 -0.21643523593E+01  0.10030669704E+02  0.51100000000E-03 0. -1.
        -11    1    3    3    0    0  0.23520060399E+01  0.81552847158E+01 -0.11348869429E+02  0.14171712627E+02  0.51100000000E-03 0.  1.
        -12    1    3    3    0    0  0.11513159030E+02  0.16867076635E+02 -0.11798126507E+02  0.23584886986E+02  0.00000000000E+00 0.  1.
</event>
<event>
 7    1  0.1384886E-010  0.4778727E+02  0.7816164E-02  0.1312668E+00
        -11   -1    0    0    0    0  0.00000000000E+00  0.00000000000E+00  0.45593999997E+02  0.45594000000E+02  0.51100000000E-03 0.  1.
         11   -1    0    0    0    0 -0.00000000000E+00 -0.00000000000E+00 -0.45593999997E+02  0.45594000000E+02  0.51100000000E-03 0. -1.
    9900012    2    1    2    0    0 -0.25062930066E+02  0.33052826517E+02 -0.12766496040E+02  0.47787271603E+02  0.20000002546E+02 0.  0.
         12    1    1    2    0    0  0.25062930066E+02 -0.33052826517E+02  0.12766496040E+02  0.43400728397E+02  0.00000000000E+00 0. -1.
         11    1    3    3    0    0 -0.20864868174E+01  0.10731322379E+02 -0.96243586823E+00  0.10974561052E+02  0.51100000000E-03 0. -1.
        -11    1    3    3    0    0 -0.12397571501E+02  0.52830682945E+01  0.12655689496E+00  0.13476891579E+02  0.51100000000E-03 0.  1.
         12    1    3    3    0    0 -0.10578871748E+02  0.17038435844E+02 -0.11930617067E+02  0.23335818972E+02  0.00000000000E+00 0. -1.
</event>
<event>
 7    1  0.1384886E-010  0.4778727E+02  0.7816164E-02  0.1312668E+00
        -11   -1    0    0    0    0  0.00000000000E+00  0.00000000000E+00  0.45593999997E+02  0.45594000000E+02  0.51100000000E-03 0.  1.
         11   -1    0    0    0    0 -0.00000000000E+00 -0.00000000000E+00 -0.45593999997E+02  0.45594000000E+02  0.51100000000E-03 0. -1.
    9900012    2    1    2    0    0  0.65368450277E+01 -0.23087309824E+02  0.36164473497E+02  0.47787270039E+02  0.19999995416E+02 0.  0.
         12    1    1    2    0    0 -0.65368450277E+01  0.23087309824E+02 -0.36164473497E+02  0.43400729961E+02  0.00000000000E+00 0. -1.
         11    1    3    3    0    0  0.48113069372E+01 -0.86314058006E+01  0.68644894489E+01  0.12032084449E+02  0.51100000000E-03 0.  1.
        -11    1    3    3    0    0  0.35687294910E-01 -0.15577300551E+02  0.29835796676E+02  0.33657515202E+02  0.51100000000E-03 0. -1.
         12    1    3    3    0    0  0.16898507955E+01  0.11213965277E+01 -0.53581262742E+00  0.20976703876E+01  0.00000000000E+00 0. -1.
</event>
<event>
 7    1  0.1384886E-010  0.4778727E+02  0.7816164E-02  0.1312668E+00
        -11   -1    0    0    0    0  0.00000000000E+00  0.00000000000E+00  0.45593999997E+02  0.45594000000E+02  0.51100000000E-03 0.  1.
         11   -1    0    0    0    0 -0.00000000000E+00 -0.00000000000E+00 -0.45593999997E+02  0.45594000000E+02  0.51100000000E-03 0. -1.
    9900012    2    1    2    0    0  0.18448276764E+02  0.18423296415E+02  0.34696777957E+02  0.47787272276E+02  0.20000005615E+02 0.  0.
         12    1    1    2    0    0 -0.18448276764E+02 -0.18423296415E+02 -0.34696777957E+02  0.43400727724E+02  0.00000000000E+00 0. -1.
         11    1    3    3    0    0  0.10327004639E+02  0.14595585519E+02  0.25510374940E+02  0.31152164793E+02  0.51100000000E-03 0. -1.
        -11    1    3    3    0    0 -0.14263979368E+01  0.38356192255E+01  0.41989568421E+01  0.58632605895E+01  0.51100000000E-03 0.  1.
         12    1    3    3    0    0  0.95476700617E+01 -0.79083292199E-02  0.49874461751E+01  0.10771846894E+02  0.00000000000E+00 0. -1.
</event>
<event>
 7    1  0.1384886E-010  0.4778727E+02  0.7816164E-02  0.1312668E+00
        -11   -1    0    0    0    0  0.00000000000E+00  0.00000000000E+00  0.45593999997E+02  0.45594000000E+02  0.51100000000E-03 0.  1.
         11   -1    0    0    0    0 -0.00000000000E+00 -0.00000000000E+00 -0.45593999997E+02  0.45594000000E+02  0.51100000000E-03 0. -1.
    9900012    2    1    2    0    0  0.19980888649E+01 -0.39074195490E+02  0.18783985629E+02  0.47787271568E+02  0.20000002389E+02 0.  0.
         12    1    1    2    0    0 -0.19980888649E+01  0.39074195490E+02 -0.18783985629E+02  0.43400728432E+02  0.00000000000E+00 0. -1.
         11    1    3    3    0    0 -0.73664123079E+01 -0.81975018085E+01  0.28382059768E+01  0.11380618596E+02  0.51100000000E-03 0. -1.
        -11    1    3    3    0    0  0.26459410863E+01 -0.14379739519E+02  0.96297460366E+01  0.17507424763E+02  0.51100000000E-03 0.  1.
        -12    1    3    3    0    0  0.67185600864E+01 -0.16496954163E+02  0.63160336157E+01  0.18899228209E+02  0.00000000000E+00 0.  1.
</event>
<event>
 7    1  0.1384886E-010  0.4778728E+02  0.7816164E-02  0.1312668E+00
        -11   -1    0    0    0    0  0.00000000000E+00  0.00000000000E+00  0.45593999997E+02  0.45594000000E+02  0.51100000000E-03 0. -1.
         11   -1    0    0    0    0 -0.00000000000E+00 -0.00000000000E+00 -0.45593999997E+02  0.45594000000E+02  0.51100000000E-03 0.  1.
    9900012    2    1    2    0    0  0.27907038146E+02  0.23615265744E+02 -0.23391009638E+02  0.47787275512E+02  0.20000020369E+02 0.  0.
         12    1    1    2    0    0 -0.27907038146E+02 -0.23615265744E+02  0.23391009638E+02  0.43400724488E+02  0.00000000000E+00 0. -1.
         11    1    3    3    0    0  0.16938218781E+02  0.28095529752E+01 -0.92801509639E+01  0.19517121856E+02  0.51100000000E-03 0. -1.
        -11    1    3    3    0    0  0.98941330322E+01  0.11876118467E+02 -0.97400905484E+01  0.18270342702E+02  0.51100000000E-03 0.  1.
         12    1    3    3    0    0  0.10746863328E+01  0.89295943008E+01 -0.43707681257E+01  0.99998109532E+01  0.00000000000E+00 0. -1.
</event>
<event>
 7    1  0.1384886E-010  0.4778727E+02  0.7816164E-02  0.1312668E+00
        -11   -1    0    0    0    0  0.00000000000E+00  0.00000000000E+00  0.45593999997E+02  0.45594000000E+02  0.51100000000E-03 0.  1.
         11   -1    0    0    0    0 -0.00000000000E+00 -0.00000000000E+00 -0.45593999997E+02  0.45594000000E+02  0.51100000000E-03 0. -1.
    9900012    2    1    2    0    0  0.39347879346E+02 -0.13722621436E+02 -0.12126728070E+02  0.47787268649E+02  0.19999989080E+02 0.  0.
         12    1    1    2    0    0 -0.39347879346E+02  0.13722621436E+02  0.12126728070E+02  0.43400731351E+02  0.00000000000E+00 0. -1.
         11    1    3    3    0    0  0.88716675291E+01  0.16015969589E+01  0.11312761674E+01  0.90857791957E+01  0.51100000000E-03 0.  1.
        -11    1    3    3    0    0  0.13088938639E+02 -0.12499059260E+02 -0.10347139853E+02  0.20847304394E+02  0.51100000000E-03 0. -1.
         12    1    3    3    0    0  0.17387273178E+02 -0.28251591344E+01 -0.29108643848E+01  0.17854185060E+02  0.00000000000E+00 0. -1.
</event>
<event>
 7    1  0.1384886E-010  0.4778727E+02  0.7816164E-02  0.1312668E+00
        -11   -1    0    0    0    0  0.00000000000E+00  0.00000000000E+00  0.45593999997E+02  0.45594000000E+02  0.51100000000E-03 0. -1.
         11   -1    0    0    0    0 -0.00000000000E+00 -0.00000000000E+00 -0.45593999997E+02  0.45594000000E+02  0.51100000000E-03 0.  1.
    9900012    2    1    2    0    0  0.35783647325E+02  0.19164698420E+02 -0.15358008210E+02  0.47787268467E+02  0.19999988250E+02 0.  0.
         12    1    1    2    0    0 -0.35783647325E+02 -0.19164698420E+02  0.15358008210E+02  0.43400731533E+02  0.00000000000E+00 0. -1.
         11    1    3    3    0    0  0.19158196063E+02 -0.14452291116E+00 -0.95895096653E+01  0.21424660071E+02  0.51100000000E-03 0. -1.
        -11    1    3    3    0    0  0.91844906632E+01  0.12201272353E+02 -0.48869335958E+01  0.16034588738E+02  0.51100000000E-03 0.  1.
         12    1    3    3    0    0  0.74409605987E+01  0.71079489785E+01 -0.88156494896E+00  0.10328019659E+02  0.00000000000E+00 0. -1.
</event>
<event>
 7    1  0.1384886E-010  0.4778727E+02  0.7816164E-02  0.1312668E+00
        -11   -1    0    0    0    0  0.00000000000E+00  0.00000000000E+00  0.45593999997E+02  0.45594000000E+02  0.51100000000E-03 0.  1.
         11   -1    0    0    0    0 -0.00000000000E+00 -0.00000000000E+00 -0.45593999997E+02  0.45594000000E+02  0.51100000000E-03 0. -1.
    9900012    2    1    2    0    0  0.29800796652E+02  0.11273569010E+02  0.29469344586E+02  0.47787272937E+02  0.20000008628E+02 0.  0.
         12    1    1    2    0    0 -0.29800796652E+02 -0.11273569010E+02 -0.29469344586E+02  0.43400727063E+02  0.00000000000E+00 0. -1.
         11    1    3    3    0    0  0.11884121541E+02  0.93700403061E+01  0.20081804723E+02  0.25145752749E+02  0.51100000000E-03 0. -1.
        -11    1    3    3    0    0  0.12421934556E+02  0.59426997843E+01  0.58857488476E+01  0.14975385758E+02  0.51100000000E-03 0.  1.
         12    1    3    3    0    0  0.54947405546E+01 -0.40391710802E+01  0.35017910152E+01  0.76661344296E+01  0.00000000000E+00 0. -1.
</event>
<event>
 7    1  0.1384886E-010  0.4778729E+02  0.7816164E-02  0.1312668E+00
        -11   -1    0    0    0    0  0.00000000000E+00  0.00000000000E+00  0.45593999997E+02  0.45594000000E+02  0.51100000000E-03 0.  1.
         11   -1    0    0    0    0 -0.00000000000E+00 -0.00000000000E+00 -0.45593999997E+02  0.45594000000E+02  0.51100000000E-03 0. -1.
    9900012    2    1    2    0    0  0.31320240074E+02 -0.29529528107E+02  0.55381502079E+01  0.47787290602E+02  0.20000089170E+02 0.  0.
         12    1    1    2    0    0 -0.31320240074E+02  0.29529528107E+02 -0.55381502079E+01  0.43400709398E+02  0.00000000000E+00 0. -1.
         11    1    3    3    0    0  0.96833975652E+00  0.14735846100E+01  0.37975756302E+01  0.41869695980E+01  0.51100000000E-03 0. -1.
        -11    1    3    3    0    0  0.88543394170E+01 -0.11704974222E+02  0.55585076454E+00  0.14687229772E+02  0.51100000000E-03 0.  1.
         12    1    3    3    0    0  0.21497560901E+02 -0.19298138495E+02  0.11847238132E+01  0.28913091232E+02  0.00000000000E+00 0. -1.
</event>
<event>
 7    1  0.1384886E-010  0.4778729E+02  0.7816164E-02  0.1312668E+00
        -11   -1    0    0    0    0  0.00000000000E+00  0.00000000000E+00  0.45593999997E+02  0.45594000000E+02  0.51100000000E-03 0.  1.
         11   -1    0    0    0    0 -0.00000000000E+00 -0.00000000000E+00 -0.45593999997E+02  0.45594000000E+02  0.51100000000E-03 0. -1.
    9900012    2    1    2    0    0  0.25032485132E+02  0.11948954085E+02  0.33379922288E+02  0.47787285403E+02  0.20000065464E+02 0.  0.
         12    1    1    2    0    0 -0.25032485132E+02 -0.11948954085E+02 -0.33379922288E+02  0.43400714597E+02  0.00000000000E+00 0. -1.
         11    1    3    3    0    0 -0.14148564584E+01 -0.10213669194E+01  0.63237733197E-01  0.17461410177E+01  0.51100000000E-03 0. -1.
        -11    1    3    3    0    0  0.54815366977E+00  0.38955537162E+01  0.20391957034E+01  0.44310417036E+01  0.51100000000E-03 0.  1.
        -12    1    3    3    0    0  0.25899187921E+02  0.90747672887E+01  0.31277488851E+02  0.41610102681E+02  0.00000000000E+00 0.  1.
</event>
<event>
 7    1  0.1848115E-010  0.4778727E+02  0.7816164E-02  0.1312668E+00
        -11   -1    0    0    0    0  0.00000000000E+00  0.00000000000E+00  0.45593999997E+02  0.45594000000E+02  0.51100000000E-03 0.  1.
         11   -1    0    0    0    0 -0.00000000000E+00 -0.00000000000E+00 -0.45593999997E+02  0.45594000000E+02  0.51100000000E-03 0. -1.
    9900012    2    1    2    0    0  0.30942360794E+02 -0.22689570906E+02  0.20282429406E+02  0.47787271181E+02  0.20000000622E+02 0.  0.
         12    1    1    2    0    0 -0.30942360794E+02  0.22689570906E+02 -0.20282429406E+02  0.43400728819E+02  0.00000000000E+00 0. -1.
         11    1    3    3    0    0 -0.29178653111E+00  0.15463356895E+01  0.33908774304E+01  0.37382273143E+01  0.51100000000E-03 0. -1.
        -11    1    3    3    0    0  0.14795103692E+02 -0.60756719210E+01  0.45993026702E+01  0.16642189395E+02  0.51100000000E-03 0.  1.
        -12    1    3    3    0    0  0.16439043633E+02 -0.18160234675E+02  0.12292249306E+02  0.27406854471E+02  0.00000000000E+00 0.  1.
</event>
<event>
 7    1  0.1384886E-010  0.4778727E+02  0.7816164E-02  0.1312668E+00
        -11   -1    0    0    0    0  0.00000000000E+00  0.00000000000E+00  0.45593999997E+02  0.45594000000E+02  0.51100000000E-03 0.  1.
         11   -1    0    0    0    0 -0.00000000000E+00 -0.00000000000E+00 -0.45593999997E+02  0.45594000000E+02  0.51100000000E-03 0. -1.
    9900012    2    1    2    0    0  0.30966578736E+01 -0.20706921757E+02  0.38016542301E+02  0.47787269740E+02  0.19999994051E+02 0.  0.
         12    1    1    2    0    0 -0.30966578736E+01  0.20706921757E+02 -0.38016542301E+02  0.43400730260E+02  0.00000000000E+00 0. -1.
         11    1    3    3    0    0 -0.62212411290E+01 -0.25510682451E+01  0.49397861357E+01  0.83434571794E+01  0.51100000000E-03 0. -1.
        -11    1    3    3    0    0  0.23197953579E+01 -0.33126202726E+01  0.12421422541E+02  0.13063178854E+02  0.51100000000E-03 0.  1.
         12    1    3    3    0    0  0.69981036447E+01 -0.14843233239E+02  0.20655333624E+02  0.26380633706E+02  0.00000000000E+00 0. -1.
</event>
<event>
 7    1  0.1384886E-010  0.4778727E+02  0.7816164E-02  0.1312668E+00
        -11   -1    0    0    0    0  0.00000000000E+00  0.00000000000E+00  0.45593999997E+02  0.45594000000E+02  0.51100000000E-03 0. -1.
         11   -1    0    0    0    0 -0.00000000000E+00 -0.00000000000E+00 -0.45593999997E+02  0.45594000000E+02  0.51100000000E-03 0.  1.
    9900012    2    1    2    0    0  0.71866444663E+01 -0.10398422392E+02 -0.41519250301E+02  0.47787271982E+02  0.20000004277E+02 0.  0.
         12    1    1    2    0    0 -0.71866444663E+01  0.10398422392E+02  0.41519250301E+02  0.43400728018E+02  0.00000000000E+00 0. -1.
         11    1    3    3    0    0 -0.71248888251E+00 -0.38773533887E+01 -0.19898351453E+01  0.44159884369E+01  0.51100000000E-03 0. -1.
        -11    1    3    3    0    0 -0.78981614348E+00 -0.67329280415E+01 -0.71801444585E+01  0.98747457820E+01  0.51100000000E-03 0.  1.
        -12    1    3    3    0    0  0.86889494923E+01  0.21185903831E+00 -0.32349270697E+02  0.33496537764E+02  0.00000000000E+00 0.  1.
</event>
<event>
 7    1  0.1384886E-010  0.4778727E+02  0.7816164E-02  0.1312668E+00
        -11   -1    0    0    0    0  0.00000000000E+00  0.00000000000E+00  0.45593999997E+02  0.45594000000E+02  0.51100000000E-03 0. -1.
         11   -1    0    0    0    0 -0.00000000000E+00 -0.00000000000E+00 -0.45593999997E+02  0.45594000000E+02  0.51100000000E-03 0.  1.
    9900012    2    1    2    0    0 -0.19956235931E+02 -0.38423136138E+02  0.30057557512E+01  0.47787270618E+02  0.19999998057E+02 0.  0.
         12    1    1    2    0    0  0.19956235931E+02  0.38423136138E+02 -0.30057557512E+01  0.43400729382E+02  0.00000000000E+00 0. -1.
         11    1    3    3    0    0  0.19420928610E+01 -0.10688353045E+02  0.19169978475E+01  0.11031205578E+02  0.51100000000E-03 0.  1.
        -11    1    3    3    0    0 -0.14842785789E+01 -0.83382774520E+01  0.14591024633E+01  0.85941220625E+01  0.51100000000E-03 0. -1.
        -12    1    3    3    0    0 -0.20414050213E+02 -0.19396505641E+02 -0.37034455961E+00  0.28161942978E+02  0.00000000000E+00 0.  1.
</event>
<event>
 7    1  0.1384886E-010  0.4778727E+02  0.7816164E-02  0.1312668E+00
        -11   -1    0    0    0    0  0.00000000000E+00  0.00000000000E+00  0.45593999997E+02  0.45594000000E+02  0.51100000000E-03 0.  1.
         11   -1    0    0    0    0 -0.00000000000E+00 -0.00000000000E+00 -0.45593999997E+02  0.45594000000E+02  0.51100000000E-03 0. -1.
    9900012    2    1    2    0    0  0.50616045282E+01 -0.12483999685E+02  0.41257159675E+02  0.47787270594E+02  0.19999997945E+02 0.  0.
         12    1    1    2    0    0 -0.50616045282E+01  0.12483999685E+02 -0.41257159675E+02  0.43400729406E+02  0.00000000000E+00 0. -1.
         11    1    3    3    0    0  0.78972770867E+00 -0.13711675625E+01  0.69103139429E+01  0.70891614023E+01  0.51100000000E-03 0. -1.
        -11    1    3    3    0    0  0.24120990662E+00 -0.13858277260E+02  0.32756948569E+02  0.35568633804E+02  0.51100000000E-03 0.  1.
         12    1    3    3    0    0  0.40306669129E+01  0.27454451372E+01  0.15898971629E+01  0.51294753877E+01  0.00000000000E+00 0. -1.
</event>
<event>
 7    1  0.1384886E-010  0.4778727E+02  0.7816164E-02  0.1312668E+00
        -11   -1    0    0    0    0  0.00000000000E+00  0.00000000000E+00  0.45593999997E+02  0.45594000000E+02  0.51100000000E-03 0. -1.
         11   -1    0    0    0    0 -0.00000000000E+00 -0.00000000000E+00 -0.45593999997E+02  0.45594000000E+02  0.51100000000E-03 0.  1.
    9900012    2    1    2    0    0  0.35474647970E+02 -0.24957535911E+02  0.15146761087E+01  0.47787268542E+02  0.19999988592E+02 0.  0.
         12    1    1    2    0    0 -0.35474647970E+02  0.24957535911E+02 -0.15146761087E+01  0.43400731458E+02  0.00000000000E+00 0. -1.
         11    1    3    3    0    0  0.69166936703E+00 -0.30345239355E+00 -0.15393816140E+01  0.17146970237E+01  0.51100000000E-03 0. -1.
        -11    1    3    3    0    0  0.31423343117E+02 -0.24618983275E+02  0.73797575964E+01  0.40595340282E+02  0.51100000000E-03 0.  1.
        -12    1    3    3    0    0  0.33596354858E+01 -0.35100242432E-01 -0.43256998738E+01  0.54772312369E+01  0.00000000000E+00 0.  1.
</event>
<event>
 7    1  0.1384886E-010  0.4778727E+02  0.7816164E-02  0.1312668E+00
        -11   -1    0    0    0    0  0.00000000000E+00  0.00000000000E+00  0.45593999997E+02  0.45594000000E+02  0.51100000000E-03 0.  1.
         11   -1    0    0    0    0 -0.00000000000E+00 -0.00000000000E+00 -0.45593999997E+02  0.45594000000E+02  0.51100000000E-03 0. -1.
    9900012    2    1    2    0    0 -0.87059197913E+01  0.17605250444E+02  0.38702524773E+02  0.47787270669E+02  0.19999998289E+02 0.  0.
         12    1    1    2    0    0  0.87059197913E+01 -0.17605250444E+02 -0.38702524773E+02  0.43400729331E+02  0.00000000000E+00 0. -1.
         11    1    3    3    0    0  0.42013762845E+01  0.68841955799E+01  0.14401510703E+02  0.16505975350E+02  0.51100000000E-03 0. -1.
        -11    1    3    3    0    0 -0.53547324054E+01  0.85850769970E+01  0.70598931136E+01  0.12337698214E+02  0.51100000000E-03 0.  1.
         12    1    3    3    0    0 -0.75525636704E+01  0.21359778675E+01  0.17241120956E+02  0.18943597105E+02  0.00000000000E+00 0. -1.
</event>
<event>
 7    1  0.1384886E-010  0.4778727E+02  0.7816164E-02  0.1312668E+00
        -11   -1    0    0    0    0  0.00000000000E+00  0.00000000000E+00  0.45593999997E+02  0.45594000000E+02  0.51100000000E-03 0.  1.
         11   -1    0    0    0    0 -0.00000000000E+00 -0.00000000000E+00 -0.45593999997E+02  0.45594000000E+02  0.51100000000E-03 0. -1.
    9900012    2    1    2    0    0  0.42200129885E+02  0.10134161595E+02 -0.26655448890E+00  0.47787271379E+02  0.20000001525E+02 0.  0.
         12    1    1    2    0    0 -0.42200129885E+02 -0.10134161595E+02  0.26655448890E+00  0.43400728621E+02  0.00000000000E+00 0. -1.
         11    1    3    3    0    0  0.16712365212E+02 -0.92456913137E+00 -0.79739453651E+01  0.18540274648E+02  0.51100000000E-03 0. -1.
        -11    1    3    3    0    0  0.11022092301E+02  0.65313553315E+01  0.16249566337E+01  0.12914550146E+02  0.51100000000E-03 0.  1.
        -12    1    3    3    0    0  0.14465672372E+02  0.45273753945E+01  0.60824342424E+01  0.16332446585E+02  0.00000000000E+00 0.  1.
</event>
<event>
 7    1  0.1384886E-010  0.4778728E+02  0.7816164E-02  0.1312668E+00
        -11   -1    0    0    0    0  0.00000000000E+00  0.00000000000E+00  0.45593999997E+02  0.45594000000E+02  0.51100000000E-03 0. -1.
         11   -1    0    0    0    0 -0.00000000000E+00 -0.00000000000E+00 -0.45593999997E+02  0.45594000000E+02  0.51100000000E-03 0.  1.
    9900012    2    1    2    0    0  0.25597168735E+02 -0.35044589673E+02  0.53341318879E+00  0.47787276018E+02  0.20000022675E+02 0.  0.
         12    1    1    2    0    0 -0.25597168735E+02  0.35044589673E+02 -0.53341318879E+00  0.43400723982E+02  0.00000000000E+00 0. -1.
         11    1    3    3    0    0 -0.20462355678E+01  0.64065568467E+00 -0.40550741686E+00  0.21821906955E+01  0.51100000000E-03 0. -1.
        -11    1    3    3    0    0  0.78702802795E+01 -0.15131513390E+02  0.98476083735E+00  0.17084313370E+02  0.51100000000E-03 0.  1.
        -12    1    3    3    0    0  0.19773124023E+02 -0.20553731967E+02 -0.45840231703E-01  0.28520771952E+02  0.00000000000E+00 0.  1.
</event>
<event>
 7    1  0.1384886E-010  0.4778727E+02  0.7816164E-02  0.1312668E+00
        -11   -1    0    0    0    0  0.00000000000E+00  0.00000000000E+00  0.45593999997E+02  0.45594000000E+02  0.51100000000E-03 0.  1.
         11   -1    0    0    0    0 -0.00000000000E+00 -0.00000000000E+00 -0.45593999997E+02  0.45594000000E+02  0.51100000000E-03 0. -1.
    9900012    2    1    2    0    0  0.91838317507E+01  0.39537547269E+02  0.15364352599E+02  0.47787265669E+02  0.19999975491E+02 0.  0.
         12    1    1    2    0    0 -0.91838317507E+01 -0.39537547269E+02 -0.15364352599E+02  0.43400734331E+02  0.00000000000E+00 0. -1.
         11    1    3    3    0    0  0.33199628520E+01  0.12568701127E+02  0.29725713818E+01  0.13335313354E+02  0.51100000000E-03 0. -1.
        -11    1    3    3    0    0 -0.30532346008E+01 -0.61843344114E+00  0.71501790734E+00  0.31962403411E+01  0.51100000000E-03 0.  1.
        -12    1    3    3    0    0  0.89171034995E+01  0.27587279583E+02  0.11676763310E+02  0.31255711974E+02  0.00000000000E+00 0.  1.
</event>
<event>
 7    1  0.1384886E-010  0.4778727E+02  0.7816164E-02  0.1312668E+00
        -11   -1    0    0    0    0  0.00000000000E+00  0.00000000000E+00  0.45593999997E+02  0.45594000000E+02  0.51100000000E-03 0.  1.
         11   -1    0    0    0    0 -0.00000000000E+00 -0.00000000000E+00 -0.45593999997E+02  0.45594000000E+02  0.51100000000E-03 0. -1.
    9900012    2    1    2    0    0 -0.11987820755E+02 -0.35410401719E+02  0.22045838447E+02  0.47787269716E+02  0.19999993942E+02 0.  0.
         12    1    1    2    0    0  0.11987820755E+02  0.35410401719E+02 -0.22045838447E+02  0.43400730284E+02  0.00000000000E+00 0. -1.
         11    1    3    3    0    0 -0.96520929853E+00 -0.11623631074E+02  0.14717767818E+01  0.11756128423E+02  0.51100000000E-03 0. -1.
        -11    1    3    3    0    0 -0.12427094943E+02 -0.23419770748E+02  0.21645922792E+02  0.34226661018E+02  0.51100000000E-03 0.  1.
         12    1    3    3    0    0  0.14044834866E+01 -0.36699989666E+00 -0.10718611269E+01  0.18044802752E+01  0.00000000000E+00 0. -1.
</event>
<event>
 7    1  0.1384886E-010  0.4778727E+02  0.7816164E-02  0.1312668E+00
        -11   -1    0    0    0    0  0.00000000000E+00  0.00000000000E+00  0.45593999997E+02  0.45594000000E+02  0.51100000000E-03 0.  1.
         11   -1    0    0    0    0 -0.00000000000E+00 -0.00000000000E+00 -0.45593999997E+02  0.45594000000E+02  0.51100000000E-03 0. -1.
    9900012    2    1    2    0    0 -0.14337531674E+02  0.12606183186E+02  0.38976182554E+02  0.47787268721E+02  0.19999989408E+02 0.  0.
         12    1    1    2    0    0  0.14337531674E+02 -0.12606183186E+02 -0.38976182554E+02  0.43400731279E+02  0.00000000000E+00 0. -1.
         11    1    3    3    0    0 -0.11870619911E+01 -0.10394947918E+00  0.18646361348E+01  0.22128691424E+01  0.51100000000E-03 0.  1.
        -11    1    3    3    0    0 -0.12182877203E+02  0.55994305576E+01  0.35866770159E+02  0.38291008363E+02  0.51100000000E-03 0. -1.
         12    1    3    3    0    0 -0.96759247997E+00  0.71107021078E+01  0.12447762600E+01  0.72833912164E+01  0.00000000000E+00 0. -1.
</event>
<event>
 7    1  0.1384886E-010  0.4778727E+02  0.7816164E-02  0.1312668E+00
        -11   -1    0    0    0    0  0.00000000000E+00  0.00000000000E+00  0.45593999997E+02  0.45594000000E+02  0.51100000000E-03 0.  1.
         11   -1    0    0    0    0 -0.00000000000E+00 -0.00000000000E+00 -0.45593999997E+02  0.45594000000E+02  0.51100000000E-03 0. -1.
    9900012    2    1    2    0    0 -0.24020516455E+02 -0.27803654593E+02  0.23099669223E+02  0.47787272613E+02  0.20000007152E+02 0.  0.
         12    1    1    2    0    0  0.24020516455E+02  0.27803654593E+02 -0.23099669223E+02  0.43400727387E+02  0.00000000000E+00 0. -1.
         11    1    3    3    0    0 -0.35366673166E+01  0.29100579685E+01  0.89855977978E+00  0.46673186122E+01  0.51100000000E-03 0. -1.
        -11    1    3    3    0    0 -0.51424344945E+01 -0.90965369185E+01  0.58712032669E+01  0.11985935279E+02  0.51100000000E-03 0.  1.
         12    1    3    3    0    0 -0.15341414644E+02 -0.21617175643E+02  0.16329906176E+02  0.31134018722E+02  0.00000000000E+00 0. -1.
</event>
<event>
 7    1  0.1384886E-010  0.4778727E+02  0.7816164E-02  0.1312668E+00
        -11   -1    0    0    0    0  0.00000000000E+00  0.00000000000E+00  0.45593999997E+02  0.45594000000E+02  0.51100000000E-03 0.  1.
         11   -1    0    0    0    0 -0.00000000000E+00 -0.00000000000E+00 -0.45593999997E+02  0.45594000000E+02  0.51100000000E-03 0. -1.
    9900012    2    1    2    0    0 -0.33538842230E+02 -0.71400305031E+01 -0.26604305860E+02  0.47787273462E+02  0.20000011025E+02 0.  0.
         12    1    1    2    0    0  0.33538842230E+02  0.71400305031E+01  0.26604305860E+02  0.43400726538E+02  0.00000000000E+00 0. -1.
         11    1    3    3    0    0  0.18433007549E+01 -0.35026847930E+01 -0.40377700923E+01  0.56542148891E+01  0.51100000000E-03 0. -1.
        -11    1    3    3    0    0 -0.13153789592E+02 -0.93784131362E+00 -0.85372150020E+01  0.15709416514E+02  0.51100000000E-03 0.  1.
         12    1    3    3    0    0 -0.22228353392E+02 -0.26995043964E+01 -0.14029320766E+02  0.26423642059E+02  0.00000000000E+00 0. -1.
</event>
<event>
 7    1  0.1384886E-010  0.4778727E+02  0.7816164E-02  0.1312668E+00
        -11   -1    0    0    0    0  0.00000000000E+00  0.00000000000E+00  0.45593999997E+02  0.45594000000E+02  0.51100000000E-03 0.  1.
         11   -1    0    0    0    0 -0.00000000000E+00 -0.00000000000E+00 -0.45593999997E+02  0.45594000000E+02  0.51100000000E-03 0. -1.
    9900012    2    1    2    0    0  0.20944045804E+02  0.22605651758E+02  0.30560670776E+02  0.47787272537E+02  0.20000006806E+02 0.  0.
         12    1    1    2    0    0 -0.20944045804E+02 -0.22605651758E+02 -0.30560670776E+02  0.43400727463E+02  0.00000000000E+00 0. -1.
         11    1    3    3    0    0  0.94681523198E+01  0.13597802333E+02  0.18877092871E+02  0.25117539134E+02  0.51100000000E-03 0. -1.
        -11    1    3    3    0    0  0.14192250243E+02  0.62348503717E+01  0.87176277760E+01  0.17784553984E+02  0.51100000000E-03 0.  1.
         12    1    3    3    0    0 -0.27163567585E+01  0.27729990525E+01  0.29659501290E+01  0.48851794186E+01  0.00000000000E+00 0. -1.
</event>
<event>
 7    1  0.1384886E-010  0.4778727E+02  0.7816164E-02  0.1312668E+00
        -11   -1    0    0    0    0  0.00000000000E+00  0.00000000000E+00  0.45593999997E+02  0.45594000000E+02  0.51100000000E-03 0. -1.
         11   -1    0    0    0    0 -0.00000000000E+00 -0.00000000000E+00 -0.45593999997E+02  0.45594000000E+02  0.51100000000E-03 0.  1.
    9900012    2    1    2    0    0 -0.41902807811E+02  0.81411156509E+01 -0.78421932180E+01  0.47787273497E+02  0.20000011182E+02 0.  0.
         12    1    1    2    0    0  0.41902807811E+02 -0.81411156509E+01  0.78421932180E+01  0.43400726503E+02  0.00000000000E+00 0. -1.
         11    1    3    3    0    0 -0.26087900736E+02  0.41713869960E+01  0.43100173600E+01  0.26768550281E+02  0.51100000000E-03 0. -1.
        -11    1    3    3    0    0 -0.11834942905E+02  0.29590530223E+01 -0.59312074899E+01  0.13564700177E+02  0.51100000000E-03 0.  1.
         12    1    3    3    0    0 -0.39799641711E+01  0.10106756326E+01 -0.62210030881E+01  0.74540230386E+01  0.00000000000E+00 0. -1.
</event>
<event>
 7    1  0.1384886E-010  0.4778727E+02  0.7816164E-02  0.1312668E+00
        -11   -1    0    0    0    0  0.00000000000E+00  0.00000000000E+00  0.45593999997E+02  0.45594000000E+02  0.51100000000E-03 0.  1.
         11   -1    0    0    0    0 -0.00000000000E+00 -0.00000000000E+00 -0.45593999997E+02  0.45594000000E+02  0.51100000000E-03 0. -1.
    9900012    2    1    2    0    0  0.33040799537E+02 -0.25086177422E+02 -0.12751974725E+02  0.47787267390E+02  0.19999983339E+02 0.  0.
         12    1    1    2    0    0 -0.33040799537E+02  0.25086177422E+02  0.12751974725E+02  0.43400732610E+02  0.00000000000E+00 0. -1.
         11    1    3    3    0    0  0.13691143345E+02 -0.16083140524E+02 -0.40200947283E+01  0.21500604110E+02  0.51100000000E-03 0. -1.
        -11    1    3    3    0    0  0.77012158553E+01 -0.54515876908E+00  0.24049224626E+01  0.80863821358E+01  0.51100000000E-03 0.  1.
         12    1    3    3    0    0  0.11648440337E+02 -0.84578781292E+01 -0.11136802459E+02  0.18200281144E+02  0.00000000000E+00 0. -1.
</event>
<event>
 7    1  0.1384886E-010  0.4778726E+02  0.7816164E-02  0.1312668E+00
        -11   -1    0    0    0    0  0.00000000000E+00  0.00000000000E+00  0.45593999997E+02  0.45594000000E+02  0.51100000000E-03 0.  1.
         11   -1    0    0    0    0 -0.00000000000E+00 -0.00000000000E+00 -0.45593999997E+02  0.45594000000E+02  0.51100000000E-03 0. -1.
    9900012    2    1    2    0    0 -0.11867311784E+02 -0.32025535706E+02  0.26779777870E+02  0.47787256585E+02  0.19999934073E+02 0.  0.
         12    1    1    2    0    0  0.11867311784E+02  0.32025535706E+02 -0.26779777870E+02  0.43400743415E+02  0.00000000000E+00 0. -1.
         11    1    3    3    0    0 -0.12598208276E+02 -0.95136749283E+01  0.86285023467E+01  0.17990995398E+02  0.51100000000E-03 0. -1.
        -11    1    3    3    0    0  0.18969667362E+00 -0.90629417701E+01  0.30431670001E+01  0.95621003973E+01  0.51100000000E-03 0.  1.
         12    1    3    3    0    0  0.54119981831E+00 -0.13448919008E+02  0.15108108523E+02  0.20234160790E+02  0.00000000000E+00 0. -1.
</event>
<event>
 7    1  0.1384886E-010  0.4778732E+02  0.7816164E-02  0.1312668E+00
        -11   -1    0    0    0    0  0.00000000000E+00  0.00000000000E+00  0.45593999997E+02  0.45594000000E+02  0.51100000000E-03 0.  1.
         11   -1    0    0    0    0 -0.00000000000E+00 -0.00000000000E+00 -0.45593999997E+02  0.45594000000E+02  0.51100000000E-03 0. -1.
    9900012    2    1    2    0    0 -0.80331365369E+01  0.94022010687E+01  0.41601521625E+02  0.47787317182E+02  0.20000210357E+02 0.  0.
         12    1    1    2    0    0  0.80331365369E+01 -0.94022010687E+01 -0.41601521625E+02  0.43400682818E+02  0.00000000000E+00 0. -1.
         11    1    3    3    0    0  0.46593265057E+01  0.23153786681E+01  0.23804459365E+02  0.24366423369E+02  0.51100000000E-03 0. -1.
        -11    1    3    3    0    0 -0.20918127025E+01  0.32616278100E+01  0.56512790256E+01  0.68520691210E+01  0.51100000000E-03 0.  1.
        -12    1    3    3    0    0 -0.10600650340E+02  0.38251945905E+01  0.12145783234E+02  0.16568824692E+02  0.00000000000E+00 0.  1.
</event>
<event>
 7    1  0.1384886E-010  0.4778727E+02  0.7816164E-02  0.1312668E+00
        -11   -1    0    0    0    0  0.00000000000E+00  0.00000000000E+00  0.45593999997E+02  0.45594000000E+02  0.51100000000E-03 0.  1.
         11   -1    0    0    0    0 -0.00000000000E+00 -0.00000000000E+00 -0.45593999997E+02  0.45594000000E+02  0.51100000000E-03 0. -1.
    9900012    2    1    2    0    0 -0.18873132463E+02 -0.12938441994E+02  0.36878512308E+02  0.47787273275E+02  0.20000010171E+02 0.  0.
         12    1    1    2    0    0  0.18873132463E+02  0.12938441994E+02 -0.36878512308E+02  0.43400726725E+02  0.00000000000E+00 0. -1.
         11    1    3    3    0    0 -0.32230778800E+01 -0.31628420168E+01  0.37557362146E+01  0.58734449362E+01  0.51100000000E-03 0. -1.
        -11    1    3    3    0    0 -0.49853171468E+01  0.52598485421E+01  0.96341577198E+01  0.12055554279E+02  0.51100000000E-03 0.  1.
        -12    1    3    3    0    0 -0.10664737436E+02 -0.15035448520E+02  0.23488618373E+02  0.29858274060E+02  0.00000000000E+00 0.  1.
</event>
<event>
 7    1  0.1384886E-010  0.4778727E+02  0.7816164E-02  0.1312668E+00
        -11   -1    0    0    0    0  0.00000000000E+00  0.00000000000E+00  0.45593999997E+02  0.45594000000E+02  0.51100000000E-03 0.  1.
         11   -1    0    0    0    0 -0.00000000000E+00 -0.00000000000E+00 -0.45593999997E+02  0.45594000000E+02  0.51100000000E-03 0. -1.
    9900012    2    1    2    0    0  0.57517413794E+01  0.41256645717E+02  0.12183189562E+02  0.47787268985E+02  0.19999990610E+02 0.  0.
         12    1    1    2    0    0 -0.57517413794E+01 -0.41256645717E+02 -0.12183189562E+02  0.43400731015E+02  0.00000000000E+00 0. -1.
         11    1    3    3    0    0  0.64799613491E+01  0.36497978413E+02  0.29451061293E+01  0.37185561414E+02  0.51100000000E-03 0. -1.
        -11    1    3    3    0    0  0.40973321051E+00  0.57148577649E+00  0.24193513946E+01  0.25194719145E+01  0.51100000000E-03 0.  1.
         12    1    3    3    0    0 -0.11379531802E+01  0.41871815277E+01  0.68187320385E+01  0.80822356560E+01  0.00000000000E+00 0. -1.
</event>
<event>
 7    1  0.1384886E-010  0.4778727E+02  0.7816164E-02  0.1312668E+00
        -11   -1    0    0    0    0  0.00000000000E+00  0.00000000000E+00  0.45593999997E+02  0.45594000000E+02  0.51100000000E-03 0. -1.
         11   -1    0    0    0    0 -0.00000000000E+00 -0.00000000000E+00 -0.45593999997E+02  0.45594000000E+02  0.51100000000E-03 0.  1.
    9900012    2    1    2    0    0  0.23182231475E+02  0.23497240747E+02 -0.28179550760E+02  0.47787271205E+02  0.20000000734E+02 0.  0.
         12    1    1    2    0    0 -0.23182231475E+02 -0.23497240747E+02  0.28179550760E+02  0.43400728795E+02  0.00000000000E+00 0. -1.
         11    1    3    3    0    0  0.57133495688E+01  0.16406080764E+01 -0.72401098167E+01  0.93676650546E+01  0.51100000000E-03 0.  1.
        -11    1    3    3    0    0  0.16079354253E+02  0.23564299789E+02 -0.15312651717E+02  0.32377448334E+02  0.51100000000E-03 0. -1.
         12    1    3    3    0    0  0.13895276531E+01 -0.17076671189E+01 -0.56267892264E+01  0.60421578171E+01  0.00000000000E+00 0. -1.
</event>
<event>
 7    1  0.1384886E-010  0.4778727E+02  0.7816164E-02  0.1312668E+00
        -11   -1    0    0    0    0  0.00000000000E+00  0.00000000000E+00  0.45593999997E+02  0.45594000000E+02  0.51100000000E-03 0.  1.
         11   -1    0    0    0    0 -0.00000000000E+00 -0.00000000000E+00 -0.45593999997E+02  0.45594000000E+02  0.51100000000E-03 0. -1.
    9900012    2    1    2    0    0 -0.18239015780E+02  0.21387720545E+02  0.33068521949E+02  0.47787269239E+02  0.19999991767E+02 0.  0.
         12    1    1    2    0    0  0.18239015780E+02 -0.21387720545E+02 -0.33068521949E+02  0.43400730761E+02  0.00000000000E+00 0. -1.
         11    1    3    3    0    0 -0.62099671231E+01  0.13792828930E+02  0.97956028897E+01  0.18021089251E+02  0.51100000000E-03 0. -1.
        -11    1    3    3    0    0 -0.12669016590E+02  0.36531949360E+01  0.12080169640E+02  0.17882402338E+02  0.51100000000E-03 0.  1.
         12    1    3    3    0    0  0.63996793303E+00  0.39416966797E+01  0.11192749419E+02  0.11883777650E+02  0.00000000000E+00 0. -1.
</event>
<event>
 7    1  0.1384886E-010  0.4778727E+02  0.7816164E-02  0.1312668E+00
        -11   -1    0    0    0    0  0.00000000000E+00  0.00000000000E+00  0.45593999997E+02  0.45594000000E+02  0.51100000000E-03 0.  1.
         11   -1    0    0    0    0 -0.00000000000E+00 -0.00000000000E+00 -0.45593999997E+02  0.45594000000E+02  0.51100000000E-03 0. -1.
    9900012    2    1    2    0    0 -0.18174349750E+02  0.37755571541E+02  0.11306333143E+02  0.47787270279E+02  0.19999996509E+02 0.  0.
         12    1    1    2    0    0  0.18174349750E+02 -0.37755571541E+02 -0.11306333143E+02  0.43400729721E+02  0.00000000000E+00 0. -1.
         11    1    3    3    0    0 -0.51084172133E+01  0.99201588234E+01  0.32070757251E+01  0.11609944551E+02  0.51100000000E-03 0. -1.
        -11    1    3    3    0    0 -0.99869413259E+01  0.52288931427E+01  0.71359930397E+01  0.13341765905E+02  0.51100000000E-03 0.  1.
         12    1    3    3    0    0 -0.30789912109E+01  0.22606519575E+02  0.96326437793E+00  0.22835559823E+02  0.00000000000E+00 0. -1.
</event>
<event>
 7    1  0.1384886E-010  0.4778729E+02  0.7816164E-02  0.1312668E+00
        -11   -1    0    0    0    0  0.00000000000E+00  0.00000000000E+00  0.45593999997E+02  0.45594000000E+02  0.51100000000E-03 0. -1.
         11   -1    0    0    0    0 -0.00000000000E+00 -0.00000000000E+00 -0.45593999997E+02  0.45594000000E+02  0.51100000000E-03 0.  1.
    9900012    2    1    2    0    0 -0.43159927908E+02 -0.28353157251E+01  0.35781593409E+01  0.47787290138E+02  0.20000087053E+02 0.  0.
         12    1    1    2    0    0  0.43159927908E+02  0.28353157251E+01 -0.35781593409E+01  0.43400709862E+02  0.00000000000E+00 0. -1.
         11    1    3    3    0    0 -0.19668327781E+02 -0.45295795174E+01  0.12431145037E+01  0.20221412963E+02  0.51100000000E-03 0. -1.
        -11    1    3    3    0    0 -0.51900903956E+01 -0.14021071102E+00 -0.55088479292E+01  0.75699473662E+01  0.51100000000E-03 0.  1.
         12    1    3    3    0    0 -0.18301509732E+02  0.18344745033E+01  0.78438927665E+01  0.19995929808E+02  0.00000000000E+00 0. -1.
</event>
<event>
 7    1  0.1384886E-010  0.4778727E+02  0.7816164E-02  0.1312668E+00
        -11   -1    0    0    0    0  0.00000000000E+00  0.00000000000E+00  0.45593999997E+02  0.45594000000E+02  0.51100000000E-03 0.  1.
         11   -1    0    0    0    0 -0.00000000000E+00 -0.00000000000E+00 -0.45593999997E+02  0.45594000000E+02  0.51100000000E-03 0. -1.
    9900012    2    1    2    0    0 -0.33505560896E+02  0.70213707680E+01  0.26677723786E+02  0.47787271840E+02  0.20000003627E+02 0.  0.
         12    1    1    2    0    0  0.33505560896E+02 -0.70213707680E+01 -0.26677723786E+02  0.43400728160E+02  0.00000000000E+00 0. -1.
         11    1    3    3    0    0 -0.17514193475E+02  0.11481366262E+02  0.73486199671E+01  0.22193939713E+02  0.51100000000E-03 0. -1.
        -11    1    3    3    0    0 -0.79413498429E+01 -0.16803666121E+01  0.77782195886E+01  0.11242302678E+02  0.51100000000E-03 0.  1.
         12    1    3    3    0    0 -0.80500175780E+01 -0.27796288815E+01  0.11550884231E+02  0.14351029449E+02  0.00000000000E+00 0. -1.
</event>
<event>
 7    1  0.1384886E-010  0.4778727E+02  0.7816164E-02  0.1312668E+00
        -11   -1    0    0    0    0  0.00000000000E+00  0.00000000000E+00  0.45593999997E+02  0.45594000000E+02  0.51100000000E-03 0.  1.
         11   -1    0    0    0    0 -0.00000000000E+00 -0.00000000000E+00 -0.45593999997E+02  0.45594000000E+02  0.51100000000E-03 0. -1.
    9900012    2    1    2    0    0 -0.23768034052E+02 -0.24612683314E+02  0.26700560319E+02  0.47787267933E+02  0.19999985813E+02 0.  0.
         12    1    1    2    0    0  0.23768034052E+02  0.24612683314E+02 -0.26700560319E+02  0.43400732067E+02  0.00000000000E+00 0. -1.
         11    1    3    3    0    0 -0.10128828953E+02 -0.69705250327E+01  0.50106249257E+01  0.13277340005E+02  0.51100000000E-03 0. -1.
        -11    1    3    3    0    0 -0.93995337760E+01 -0.18883554067E+02  0.21452757484E+02  0.30085887944E+02  0.51100000000E-03 0.  1.
        -12    1    3    3    0    0 -0.42396713229E+01  0.12413957857E+01  0.23717790890E+00  0.44240399843E+01  0.00000000000E+00 0.  1.
</event>
<event>
 7    1  0.1384886E-010  0.4778727E+02  0.7816164E-02  0.1312668E+00
        -11   -1    0    0    0    0  0.00000000000E+00  0.00000000000E+00  0.45593999997E+02  0.45594000000E+02  0.51100000000E-03 0.  1.
         11   -1    0    0    0    0 -0.00000000000E+00 -0.00000000000E+00 -0.45593999997E+02  0.45594000000E+02  0.51100000000E-03 0. -1.
    9900012    2    1    2    0    0 -0.40665872550E+02  0.14705351936E+02  0.36963444234E+01  0.47787268118E+02  0.19999986658E+02 0.  0.
         12    1    1    2    0    0  0.40665872550E+02 -0.14705351936E+02 -0.36963444234E+01  0.43400731882E+02  0.00000000000E+00 0. -1.
         11    1    3    3    0    0 -0.74947545779E+01  0.68709353860E+00 -0.61929538907E+01  0.97465953988E+01  0.51100000000E-03 0. -1.
        -11    1    3    3    0    0 -0.17761176403E+02  0.35865127399E+01  0.45888434047E+01  0.18691707918E+02  0.51100000000E-03 0.  1.
        -12    1    3    3    0    0 -0.15409941569E+02  0.10431745658E+02  0.53004549095E+01  0.19348964801E+02  0.00000000000E+00 0.  1.
</event>
<event>
 7    1  0.1384886E-010  0.4778727E+02  0.7816164E-02  0.1312668E+00
        -11   -1    0    0    0    0  0.00000000000E+00  0.00000000000E+00  0.45593999997E+02  0.45594000000E+02  0.51100000000E-03 0. -1.
         11   -1    0    0    0    0 -0.00000000000E+00 -0.00000000000E+00 -0.45593999997E+02  0.45594000000E+02  0.51100000000E-03 0.  1.
    9900012    2    1    2    0    0  0.17456956672E+02  0.20116760355E+02 -0.34266509633E+02  0.47787273442E+02  0.20000010930E+02 0.  0.
         12    1    1    2    0    0 -0.17456956672E+02 -0.20116760355E+02  0.34266509633E+02  0.43400726558E+02  0.00000000000E+00 0. -1.
         11    1    3    3    0    0 -0.29740354748E+01  0.77603522613E+01 -0.58055602031E+01  0.10137676448E+02  0.51100000000E-03 0. -1.
        -11    1    3    3    0    0  0.80380881324E+01  0.74636182090E+01 -0.97251166706E+01  0.14659275293E+02  0.51100000000E-03 0.  1.
        -12    1    3    3    0    0  0.12392904014E+02  0.48927898843E+01 -0.18735832759E+02  0.22990321701E+02  0.00000000000E+00 0.  1.
</event>
<event>
 7    1  0.1384886E-010  0.4778727E+02  0.7816164E-02  0.1312668E+00
        -11   -1    0    0    0    0  0.00000000000E+00  0.00000000000E+00  0.45593999997E+02  0.45594000000E+02  0.51100000000E-03 0.  1.
         11   -1    0    0    0    0 -0.00000000000E+00 -0.00000000000E+00 -0.45593999997E+02  0.45594000000E+02  0.51100000000E-03 0. -1.
    9900012    2    1    2    0    0  0.32729904237E+02  0.46802117472E+01  0.28115342723E+02  0.47787268327E+02  0.19999987608E+02 0.  0.
         12    1    1    2    0    0 -0.32729904237E+02 -0.46802117472E+01 -0.28115342723E+02  0.43400731673E+02  0.00000000000E+00 0. -1.
         11    1    3    3    0    0 -0.23802949045E+00 -0.11508591429E+01 -0.66619387490E+00  0.13509068603E+01  0.51100000000E-03 0. -1.
        -11    1    3    3    0    0  0.14187417061E+02  0.37751677090E+01  0.38913458938E+01  0.15188063313E+02  0.51100000000E-03 0.  1.
        -12    1    3    3    0    0  0.18780516666E+02  0.20559031811E+01  0.24890190705E+02  0.31248298153E+02  0.00000000000E+00 0.  1.
</event>
<event>
 7    1  0.1384886E-010  0.4778728E+02  0.7816164E-02  0.1312668E+00
        -11   -1    0    0    0    0  0.00000000000E+00  0.00000000000E+00  0.45593999997E+02  0.45594000000E+02  0.51100000000E-03 0. -1.
         11   -1    0    0    0    0 -0.00000000000E+00 -0.00000000000E+00 -0.45593999997E+02  0.45594000000E+02  0.51100000000E-03 0.  1.
    9900012    2    1    2    0    0 -0.40820575742E+02  0.10523856549E+02 -0.10322395739E+02  0.47787276338E+02  0.20000024135E+02 0.  0.
         12    1    1    2    0    0  0.40820575742E+02 -0.10523856549E+02  0.10322395739E+02  0.43400723662E+02  0.00000000000E+00 0. -1.
         11    1    3    3    0    0 -0.53720339847E+01 -0.17639194052E+01 -0.32526540874E+00  0.56635641295E+01  0.51100000000E-03 0. -1.
        -11    1    3    3    0    0 -0.27332634766E+02  0.11449435361E+02 -0.14295392795E+02  0.32901683069E+02  0.51100000000E-03 0.  1.
        -12    1    3    3    0    0 -0.81159069909E+01  0.83834059377E+00  0.42982624645E+01  0.92220291395E+01  0.00000000000E+00 0.  1.
</event>
<event>
 7    1  0.1384886E-010  0.4778724E+02  0.7816164E-02  0.1312668E+00
        -11   -1    0    0    0    0  0.00000000000E+00  0.00000000000E+00  0.45593999997E+02  0.45594000000E+02  0.51100000000E-03 0. -1.
         11   -1    0    0    0    0 -0.00000000000E+00 -0.00000000000E+00 -0.45593999997E+02  0.45594000000E+02  0.51100000000E-03 0.  1.
    9900012    2    1    2    0    0 -0.32228582566E+01  0.23905645622E+01 -0.43214865380E+02  0.47787237287E+02  0.19999846086E+02 0.  0.
         12    1    1    2    0    0  0.32228582566E+01 -0.23905645622E+01  0.43214865380E+02  0.43400762713E+02  0.00000000000E+00 0. -1.
         11    1    3    3    0    0 -0.45827188749E+01 -0.17643870219E+00 -0.11365946646E+02  0.12256312101E+02  0.51100000000E-03 0. -1.
        -11    1    3    3    0    0 -0.36769550948E+01  0.45183624022E+01 -0.28685784084E+02  0.29271313710E+02  0.51100000000E-03 0.  1.
         12    1    3    3    0    0  0.50368157131E+01 -0.19513591378E+01 -0.31631346503E+01  0.62596114758E+01  0.00000000000E+00 0. -1.
</event>
<event>
 7    1  0.1384886E-010  0.4778727E+02  0.7816164E-02  0.1312668E+00
        -11   -1    0    0    0    0  0.00000000000E+00  0.00000000000E+00  0.45593999997E+02  0.45594000000E+02  0.51100000000E-03 0.  1.
         11   -1    0    0    0    0 -0.00000000000E+00 -0.00000000000E+00 -0.45593999997E+02  0.45594000000E+02  0.51100000000E-03 0. -1.
    9900012    2    1    2    0    0 -0.20555131598E+02  0.30235659294E+02  0.23386204670E+02  0.47787273084E+02  0.20000009299E+02 0.  0.
         12    1    1    2    0    0  0.20555131598E+02 -0.30235659294E+02 -0.23386204670E+02  0.43400726916E+02  0.00000000000E+00 0. -1.
         11    1    3    3    0    0 -0.46379273271E+01  0.14012299212E+02  0.30776839512E+01  0.15077368399E+02  0.51100000000E-03 0. -1.
        -11    1    3    3    0    0 -0.12908220482E+02  0.17795662365E+02  0.19048173136E+02  0.29088496955E+02  0.51100000000E-03 0.  1.
         12    1    3    3    0    0 -0.30089837894E+01 -0.15723022827E+01  0.12603475824E+01  0.36214077292E+01  0.00000000000E+00 0. -1.
</event>
<event>
 7    1  0.1384886E-010  0.4778727E+02  0.7816164E-02  0.1312668E+00
        -11   -1    0    0    0    0  0.00000000000E+00  0.00000000000E+00  0.45593999997E+02  0.45594000000E+02  0.51100000000E-03 0.  1.
         11   -1    0    0    0    0 -0.00000000000E+00 -0.00000000000E+00 -0.45593999997E+02  0.45594000000E+02  0.51100000000E-03 0. -1.
    9900012    2    1    2    0    0  0.26115696197E+02 -0.25735218312E+02 -0.23222670030E+02  0.47787268983E+02  0.19999990603E+02 0.  0.
         12    1    1    2    0    0 -0.26115696197E+02  0.25735218312E+02  0.23222670030E+02  0.43400731017E+02  0.00000000000E+00 0. -1.
         11    1    3    3    0    0 -0.16505050285E+01 -0.73742374181E+00 -0.36867757258E+01  0.41061266588E+01  0.51100000000E-03 0. -1.
        -11    1    3    3    0    0  0.21969234721E+02 -0.23764749625E+02 -0.13051384433E+02  0.34896263910E+02  0.51100000000E-03 0.  1.
        -12    1    3    3    0    0  0.57969665048E+01 -0.12330449453E+01 -0.64845098714E+01  0.87848784151E+01  0.00000000000E+00 0.  1.
</event>
<event>
 7    1  0.1384886E-010  0.4778728E+02  0.7816164E-02  0.1312668E+00
        -11   -1    0    0    0    0  0.00000000000E+00  0.00000000000E+00  0.45593999997E+02  0.45594000000E+02  0.51100000000E-03 0.  1.
         11   -1    0    0    0    0 -0.00000000000E+00 -0.00000000000E+00 -0.45593999997E+02  0.45594000000E+02  0.51100000000E-03 0. -1.
    9900012    2    1    2    0    0 -0.13871669012E+02 -0.33790471390E+02  0.23439358497E+02  0.47787277832E+02  0.20000030949E+02 0.  0.
         12    1    1    2    0    0  0.13871669012E+02  0.33790471390E+02 -0.23439358497E+02  0.43400722168E+02  0.00000000000E+00 0. -1.
         11    1    3    3    0    0  0.17027721521E+01 -0.10502267760E+02  0.12124266038E+02  0.16130557595E+02  0.51100000000E-03 0. -1.
        -11    1    3    3    0    0 -0.93257326323E+01 -0.19266864791E+02  0.11344978298E+02  0.24225810633E+02  0.51100000000E-03 0.  1.
         12    1    3    3    0    0 -0.62487085322E+01 -0.40213388386E+01 -0.29885839627E-01  0.74309096037E+01  0.00000000000E+00 0. -1.
</event>
<event>
 7    1  0.1384886E-010  0.4778730E+02  0.7816164E-02  0.1312668E+00
        -11   -1    0    0    0    0  0.00000000000E+00  0.00000000000E+00  0.45593999997E+02  0.45594000000E+02  0.51100000000E-03 0.  1.
         11   -1    0    0    0    0 -0.00000000000E+00 -0.00000000000E+00 -0.45593999997E+02  0.45594000000E+02  0.51100000000E-03 0. -1.
    9900012    2    1    2    0    0  0.17283401876E+02  0.35971257304E+02  0.17057931079E+02  0.47787304785E+02  0.20000153838E+02 0.  0.
         12    1    1    2    0    0 -0.17283401876E+02 -0.35971257304E+02 -0.17057931079E+02  0.43400695215E+02  0.00000000000E+00 0. -1.
         11    1    3    3    0    0  0.55951982221E+01  0.16477429282E+01  0.29293729532E+01  0.65270610586E+01  0.51100000000E-03 0. -1.
        -11    1    3    3    0    0  0.85101142132E+01  0.20995012927E+02  0.16279427104E+01  0.22712613444E+02  0.51100000000E-03 0.  1.
         12    1    3    3    0    0  0.31780894408E+01  0.13328501449E+02  0.12500615415E+02  0.18547630283E+02  0.00000000000E+00 0. -1.
</event>
<event>
 7    1  0.1384886E-010  0.4778727E+02  0.7816164E-02  0.1312668E+00
        -11   -1    0    0    0    0  0.00000000000E+00  0.00000000000E+00  0.45593999997E+02  0.45594000000E+02  0.51100000000E-03 0. -1.
         11   -1    0    0    0    0 -0.00000000000E+00 -0.00000000000E+00 -0.45593999997E+02  0.45594000000E+02  0.51100000000E-03 0.  1.
    9900012    2    1    2    0    0  0.28202881766E+02  0.32984423050E+02  0.49835942068E+00  0.47787273440E+02  0.20000010922E+02 0.  0.
         12    1    1    2    0    0 -0.28202881766E+02 -0.32984423050E+02 -0.49835942068E+00  0.43400726560E+02  0.00000000000E+00 0. -1.
         11    1    3    3    0    0  0.83016459483E+01  0.98571827299E+01  0.87618093493E+01  0.15583667096E+02  0.51100000000E-03 0. -1.
        -11    1    3    3    0    0  0.15425016123E+02  0.15792416902E+02 -0.34175136322E+01  0.22338553080E+02  0.51100000000E-03 0.  1.
        -12    1    3    3    0    0  0.44762196947E+01  0.73348234176E+01 -0.48459362964E+01  0.98650532645E+01  0.00000000000E+00 0.  1.
</event>
<event>
 7    1  0.1384886E-010  0.4778727E+02  0.7816164E-02  0.1312668E+00
        -11   -1    0    0    0    0  0.00000000000E+00  0.00000000000E+00  0.45593999997E+02  0.45594000000E+02  0.51100000000E-03 0.  1.
         11   -1    0    0    0    0 -0.00000000000E+00 -0.00000000000E+00 -0.45593999997E+02  0.45594000000E+02  0.51100000000E-03 0. -1.
    9900012    2    1    2    0    0 -0.22779059974E+02  0.30030289248E+02  0.21515555078E+02  0.47787274708E+02  0.20000016702E+02 0.  0.
         12    1    1    2    0    0  0.22779059974E+02 -0.30030289248E+02 -0.21515555078E+02  0.43400725292E+02  0.00000000000E+00 0. -1.
         11    1    3    3    0    0 -0.10774661829E+02  0.54897674621E+01  0.51331387580E+01  0.13136970659E+02  0.51100000000E-03 0.  1.
        -11    1    3    3    0    0  0.24137605641E+01  0.35360251323E+01  0.54406093054E+01  0.69231455042E+01  0.51100000000E-03 0. -1.
         12    1    3    3    0    0 -0.14418158709E+02  0.21004496653E+02  0.10941807014E+02  0.27727158545E+02  0.00000000000E+00 0. -1.
</event>
<event>
 7    1  0.1384886E-010  0.4778727E+02  0.7816164E-02  0.1312668E+00
        -11   -1    0    0    0    0  0.00000000000E+00  0.00000000000E+00  0.45593999997E+02  0.45594000000E+02  0.51100000000E-03 0.  1.
         11   -1    0    0    0    0 -0.00000000000E+00 -0.00000000000E+00 -0.45593999997E+02  0.45594000000E+02  0.51100000000E-03 0. -1.
    9900012    2    1    2    0    0  0.15510410633E+02 -0.39136095294E+02  0.10555399485E+02  0.47787271306E+02  0.20000001193E+02 0.  0.
         12    1    1    2    0    0 -0.15510410633E+02  0.39136095294E+02 -0.10555399485E+02  0.43400728694E+02  0.00000000000E+00 0. -1.
         11    1    3    3    0    0  0.45671306144E+01 -0.86950161513E+01 -0.38833450933E+01  0.10561361527E+02  0.51100000000E-03 0. -1.
        -11    1    3    3    0    0  0.57261039167E+00 -0.86662449337E+01 -0.75960568263E+00  0.87182959898E+01  0.51100000000E-03 0.  1.
        -12    1    3    3    0    0  0.10370669627E+02 -0.21774834209E+02  0.15198350261E+02  0.28507613790E+02  0.00000000000E+00 0.  1.
</event>
<event>
 7    1  0.1384886E-010  0.4778727E+02  0.7816164E-02  0.1312668E+00
        -11   -1    0    0    0    0  0.00000000000E+00  0.00000000000E+00  0.45593999997E+02  0.45594000000E+02  0.51100000000E-03 0.  1.
         11   -1    0    0    0    0 -0.00000000000E+00 -0.00000000000E+00 -0.45593999997E+02  0.45594000000E+02  0.51100000000E-03 0. -1.
    9900012    2    1    2    0    0 -0.26425279190E+02 -0.51447575504E+01  0.34042021569E+02  0.47787272552E+02  0.20000006874E+02 0.  0.
         12    1    1    2    0    0  0.26425279190E+02  0.51447575504E+01 -0.34042021569E+02  0.43400727448E+02  0.00000000000E+00 0. -1.
         11    1    3    3    0    0  0.34544630526E+00  0.18499234417E+01  0.34863424194E+01  0.39618346276E+01  0.51100000000E-03 0. -1.
        -11    1    3    3    0    0 -0.25996055413E+02 -0.16856611310E+01  0.25206722689E+02  0.36249347849E+02  0.51100000000E-03 0.  1.
        -12    1    3    3    0    0 -0.77467008260E+00 -0.53090198610E+01  0.53489564604E+01  0.75760900758E+01  0.00000000000E+00 0.  1.
</event>
<event>
 7    1  0.1384886E-010  0.4778727E+02  0.7816164E-02  0.1312668E+00
        -11   -1    0    0    0    0  0.00000000000E+00  0.00000000000E+00  0.45593999997E+02  0.45594000000E+02  0.51100000000E-03 0.  1.
         11   -1    0    0    0    0 -0.00000000000E+00 -0.00000000000E+00 -0.45593999997E+02  0.45594000000E+02  0.51100000000E-03 0. -1.
    9900012    2    1    2    0    0  0.18754153250E+02  0.38655715057E+02  0.61351932057E+01  0.47787272283E+02  0.20000005647E+02 0.  0.
         12    1    1    2    0    0 -0.18754153250E+02 -0.38655715057E+02 -0.61351932057E+01  0.43400727717E+02  0.00000000000E+00 0. -1.
         11    1    3    3    0    0  0.51989272479E+01  0.36874405615E+01  0.49377630928E+01  0.80627270229E+01  0.51100000000E-03 0. -1.
        -11    1    3    3    0    0  0.14896291565E+02  0.24392817116E+02 -0.18379962433E+01  0.28640657459E+02  0.51100000000E-03 0.  1.
        -12    1    3    3    0    0 -0.13410655623E+01  0.10575457380E+02  0.30354263562E+01  0.11083887802E+02  0.00000000000E+00 0.  1.
</event>
<event>
 7    1  0.1384886E-010  0.4778727E+02  0.7816164E-02  0.1312668E+00
        -11   -1    0    0    0    0  0.00000000000E+00  0.00000000000E+00  0.45593999997E+02  0.45594000000E+02  0.51100000000E-03 0. -1.
         11   -1    0    0    0    0 -0.00000000000E+00 -0.00000000000E+00 -0.45593999997E+02  0.45594000000E+02  0.51100000000E-03 0.  1.
    9900012    2    1    2    0    0  0.10003155719E+02 -0.37635550083E+02 -0.19160517044E+02  0.47787272267E+02  0.20000005574E+02 0.  0.
         12    1    1    2    0    0 -0.10003155719E+02  0.37635550083E+02  0.19160517044E+02  0.43400727733E+02  0.00000000000E+00 0. -1.
         11    1    3    3    0    0  0.18607993592E+01 -0.55593259953E+01  0.36671594303E+01  0.69149648102E+01  0.51100000000E-03 0. -1.
        -11    1    3    3    0    0  0.34967655711E+01 -0.22404465314E+02 -0.12110054028E+02  0.25706824858E+02  0.51100000000E-03 0.  1.
        -12    1    3    3    0    0  0.46455907890E+01 -0.96717587732E+01 -0.10717622446E+02  0.15165482599E+02  0.00000000000E+00 0.  1.
</event>
<event>
 7    1  0.1384886E-010  0.4778727E+02  0.7816164E-02  0.1312668E+00
        -11   -1    0    0    0    0  0.00000000000E+00  0.00000000000E+00  0.45593999997E+02  0.45594000000E+02  0.51100000000E-03 0. -1.
         11   -1    0    0    0    0 -0.00000000000E+00 -0.00000000000E+00 -0.45593999997E+02  0.45594000000E+02  0.51100000000E-03 0.  1.
    9900012    2    1    2    0    0 -0.32119882777E+02  0.67844521932E+01 -0.28388514852E+02  0.47787269169E+02  0.19999991449E+02 0.  0.
         12    1    1    2    0    0  0.32119882777E+02 -0.67844521932E+01  0.28388514852E+02  0.43400730831E+02  0.00000000000E+00 0. -1.
         11    1    3    3    0    0 -0.49384819609E+01  0.17730335560E+01 -0.10002615823E+02  0.11295334242E+02  0.51100000000E-03 0. -1.
        -11    1    3    3    0    0 -0.10184443650E+02  0.58834362841E+01 -0.15130160835E+02  0.19164015293E+02  0.51100000000E-03 0.  1.
         12    1    3    3    0    0 -0.16996957166E+02 -0.87201764690E+00 -0.32557381933E+01  0.17327919634E+02  0.00000000000E+00 0. -1.
</event>
<event>
 7    1  0.1384886E-010  0.4778727E+02  0.7816164E-02  0.1312668E+00
        -11   -1    0    0    0    0  0.00000000000E+00  0.00000000000E+00  0.45593999997E+02  0.45594000000E+02  0.51100000000E-03 0.  1.
         11   -1    0    0    0    0 -0.00000000000E+00 -0.00000000000E+00 -0.45593999997E+02  0.45594000000E+02  0.51100000000E-03 0. -1.
    9900012    2    1    2    0    0  0.27694822169E+02  0.92896900042E+01  0.32098626143E+02  0.47787270564E+02  0.19999997808E+02 0.  0.
         12    1    1    2    0    0 -0.27694822169E+02 -0.92896900042E+01 -0.32098626143E+02  0.43400729436E+02  0.00000000000E+00 0. -1.
         11    1    3    3    0    0  0.13852451743E+02  0.13583375613E+02  0.13821053019E+02  0.23820579740E+02  0.51100000000E-03 0. -1.
        -11    1    3    3    0    0  0.52826613474E+01 -0.11424878637E+01  0.11149707123E+02  0.12390631889E+02  0.51100000000E-03 0.  1.
        -12    1    3    3    0    0  0.85597090778E+01 -0.31511977446E+01  0.71278660017E+01  0.11576058935E+02  0.00000000000E+00 0.  1.
</event>
<event>
 7    1  0.1384886E-010  0.4778727E+02  0.7816164E-02  0.1312668E+00
        -11   -1    0    0    0    0  0.00000000000E+00  0.00000000000E+00  0.45593999997E+02  0.45594000000E+02  0.51100000000E-03 0.  1.
         11   -1    0    0    0    0 -0.00000000000E+00 -0.00000000000E+00 -0.45593999997E+02  0.45594000000E+02  0.51100000000E-03 0. -1.
    9900012    2    1    2    0    0  0.13673216889E+02 -0.31653283159E+02  0.26357849662E+02  0.47787269204E+02  0.19999991610E+02 0.  0.
         12    1    1    2    0    0 -0.13673216889E+02  0.31653283159E+02 -0.26357849662E+02  0.43400730796E+02  0.00000000000E+00 0. -1.
         11    1    3    3    0    0 -0.36146508568E+01 -0.38442107551E+01  0.86387177135E+01  0.10122801052E+02  0.51100000000E-03 0. -1.
        -11    1    3    3    0    0  0.54314669264E+01 -0.13234319864E+02  0.93954728628E+01  0.17114992428E+02  0.51100000000E-03 0.  1.
        -12    1    3    3    0    0  0.11856400819E+02 -0.14574752540E+02  0.83236590854E+01  0.20549475724E+02  0.00000000000E+00 0.  1.
</event>
<event>
 7    1  0.1384886E-010  0.4778727E+02  0.7816164E-02  0.1312668E+00
        -11   -1    0    0    0    0  0.00000000000E+00  0.00000000000E+00  0.45593999997E+02  0.45594000000E+02  0.51100000000E-03 0.  1.
         11   -1    0    0    0    0 -0.00000000000E+00 -0.00000000000E+00 -0.45593999997E+02  0.45594000000E+02  0.51100000000E-03 0. -1.
    9900012    2    1    2    0    0  0.29877288448E+02  0.25519391176E+02  0.18431806493E+02  0.47787272107E+02  0.20000004846E+02 0.  0.
         12    1    1    2    0    0 -0.29877288448E+02 -0.25519391176E+02 -0.18431806493E+02  0.43400727893E+02  0.00000000000E+00 0. -1.
         11    1    3    3    0    0  0.38269149071E+01  0.29297690831E+01 -0.31941184522E+01  0.57819734982E+01  0.51100000000E-03 0. -1.
        -11    1    3    3    0    0  0.23725256624E+02  0.23609328176E+02  0.20181529775E+02  0.39084297655E+02  0.51100000000E-03 0.  1.
        -12    1    3    3    0    0  0.23251169165E+01 -0.10197060827E+01  0.14443951697E+01  0.29210009546E+01  0.00000000000E+00 0.  1.
</event>
<event>
 7    1  0.1384886E-010  0.4778727E+02  0.7816164E-02  0.1312668E+00
        -11   -1    0    0    0    0  0.00000000000E+00  0.00000000000E+00  0.45593999997E+02  0.45594000000E+02  0.51100000000E-03 0.  1.
         11   -1    0    0    0    0 -0.00000000000E+00 -0.00000000000E+00 -0.45593999997E+02  0.45594000000E+02  0.51100000000E-03 0. -1.
    9900012    2    1    2    0    0  0.37566429473E+02  0.84860125721E+01  0.20009349771E+02  0.47787272921E+02  0.20000008557E+02 0.  0.
         12    1    1    2    0    0 -0.37566429473E+02 -0.84860125721E+01 -0.20009349771E+02  0.43400727079E+02  0.00000000000E+00 0. -1.
         11    1    3    3    0    0  0.64210174724E+01  0.86611625613E+01  0.28014442439E+01  0.11139716891E+02  0.51100000000E-03 0. -1.
        -11    1    3    3    0    0  0.53213598775E+01  0.25129613573E+01  0.58843897561E+01  0.83221324666E+01  0.51100000000E-03 0.  1.
        -12    1    3    3    0    0  0.25824052123E+02 -0.26881113465E+01  0.11323515771E+02  0.28325423564E+02  0.00000000000E+00 0.  1.
</event>
<event>
 7    1  0.1384886E-010  0.4778726E+02  0.7816164E-02  0.1312668E+00
        -11   -1    0    0    0    0  0.00000000000E+00  0.00000000000E+00  0.45593999997E+02  0.45594000000E+02  0.51100000000E-03 0. -1.
         11   -1    0    0    0    0 -0.00000000000E+00 -0.00000000000E+00 -0.45593999997E+02  0.45594000000E+02  0.51100000000E-03 0.  1.
    9900012    2    1    2    0    0  0.28529702635E+02  0.10204746940E+02 -0.31073194284E+02  0.47787260426E+02  0.19999951588E+02 0.  0.
         12    1    1    2    0    0 -0.28529702635E+02 -0.10204746940E+02  0.31073194284E+02  0.43400739574E+02  0.00000000000E+00 0. -1.
         11    1    3    3    0    0  0.10166020036E+02  0.14079536623E+01 -0.19136730281E+02  0.21715081004E+02  0.51100000000E-03 0.  1.
        -11    1    3    3    0    0  0.11673879443E+01  0.20331238217E+00  0.20023028487E+01  0.23266601591E+01  0.51100000000E-03 0. -1.
         12    1    3    3    0    0  0.17196294655E+02  0.85934808955E+01 -0.13938766851E+02  0.23745519263E+02  0.00000000000E+00 0. -1.
</event>
<event>
 7    1  0.1384886E-010  0.4778727E+02  0.7816164E-02  0.1312668E+00
        -11   -1    0    0    0    0  0.00000000000E+00  0.00000000000E+00  0.45593999997E+02  0.45594000000E+02  0.51100000000E-03 0.  1.
         11   -1    0    0    0    0 -0.00000000000E+00 -0.00000000000E+00 -0.45593999997E+02  0.45594000000E+02  0.51100000000E-03 0. -1.
    9900012    2    1    2    0    0  0.10942547250E+02 -0.40883986101E+02 -0.96116328570E+01  0.47787272518E+02  0.20000006718E+02 0.  0.
         12    1    1    2    0    0 -0.10942547250E+02  0.40883986101E+02  0.96116328570E+01  0.43400727482E+02  0.00000000000E+00 0. -1.
         11    1    3    3    0    0  0.79569233333E+01 -0.11334428535E+02  0.25121323725E+00  0.13850812521E+02  0.51100000000E-03 0. -1.
        -11    1    3    3    0    0  0.65764626511E+00 -0.29815452571E+02 -0.10303190015E+02  0.31552328526E+02  0.51100000000E-03 0.  1.
         12    1    3    3    0    0  0.23279776521E+01  0.26589500577E+00  0.44034392087E+00  0.23841314711E+01  0.00000000000E+00 0. -1.
</event>
<event>
 7    1  0.1384886E-010  0.4778727E+02  0.7816164E-02  0.1312668E+00
        -11   -1    0    0    0    0  0.00000000000E+00  0.00000000000E+00  0.45593999997E+02  0.45594000000E+02  0.51100000000E-03 0. -1.
         11   -1    0    0    0    0 -0.00000000000E+00 -0.00000000000E+00 -0.45593999997E+02  0.45594000000E+02  0.51100000000E-03 0.  1.
    9900012    2    1    2    0    0  0.32233170196E+02  0.28691167677E+02  0.46328362907E+01  0.47787268028E+02  0.19999986248E+02 0.  0.
         12    1    1    2    0    0 -0.32233170196E+02 -0.28691167677E+02 -0.46328362907E+01  0.43400731972E+02  0.00000000000E+00 0. -1.
         11    1    3    3    0    0  0.29365224879E+02  0.26096390471E+02  0.61915553070E+01  0.39770257545E+02  0.51100000000E-03 0. -1.
        -11    1    3    3    0    0  0.29839472970E+01  0.42616125225E+01 -0.28255211739E+01  0.59202071694E+01  0.51100000000E-03 0.  1.
         12    1    3    3    0    0 -0.11600198019E+00 -0.16668353160E+01  0.12668021577E+01  0.20968033138E+01  0.00000000000E+00 0. -1.
</event>
<event>
 7    1  0.1384886E-010  0.4778727E+02  0.7816164E-02  0.1312668E+00
        -11   -1    0    0    0    0  0.00000000000E+00  0.00000000000E+00  0.45593999997E+02  0.45594000000E+02  0.51100000000E-03 0.  1.
         11   -1    0    0    0    0 -0.00000000000E+00 -0.00000000000E+00 -0.45593999997E+02  0.45594000000E+02  0.51100000000E-03 0. -1.
    9900012    2    1    2    0    0 -0.41992450613E+02 -0.48664905919E+01 -0.98272390078E+01  0.47787271139E+02  0.20000000431E+02 0.  0.
         12    1    1    2    0    0  0.41992450613E+02  0.48664905919E+01  0.98272390078E+01  0.43400728861E+02  0.00000000000E+00 0. -1.
         11    1    3    3    0    0  0.99261523959E+00 -0.44483684155E+00 -0.38309347694E-01  0.10884083318E+01  0.51100000000E-03 0. -1.
        -11    1    3    3    0    0 -0.39756576210E+02 -0.24027676593E+01 -0.43590803566E+01  0.40066946804E+02  0.51100000000E-03 0.  1.
        -12    1    3    3    0    0 -0.32284896426E+01 -0.20188860910E+01 -0.54298493036E+01  0.66319160037E+01  0.00000000000E+00 0.  1.
</event>
<event>
 7    1  0.1384886E-010  0.4778727E+02  0.7816164E-02  0.1312668E+00
        -11   -1    0    0    0    0  0.00000000000E+00  0.00000000000E+00  0.45593999997E+02  0.45594000000E+02  0.51100000000E-03 0.  1.
         11   -1    0    0    0    0 -0.00000000000E+00 -0.00000000000E+00 -0.45593999997E+02  0.45594000000E+02  0.51100000000E-03 0. -1.
    9900012    2    1    2    0    0  0.26488008520E+02 -0.32432531090E+02  0.11407862074E+02  0.47787274369E+02  0.20000015157E+02 0.  0.
         12    1    1    2    0    0 -0.26488008520E+02  0.32432531090E+02 -0.11407862074E+02  0.43400725631E+02  0.00000000000E+00 0. -1.
         11    1    3    3    0    0  0.17617714986E+02 -0.24619276550E+02  0.13046883328E+02  0.32965342771E+02  0.51100000000E-03 0.  1.
        -11    1    3    3    0    0 -0.75687109927E+00 -0.43145825921E+01 -0.13151075122E+01  0.45736183525E+01  0.51100000000E-03 0. -1.
        -12    1    3    3    0    0  0.96271646330E+01 -0.34986719478E+01 -0.32391374156E+00  0.10248313246E+02  0.00000000000E+00 0.  1.
</event>
<event>
 7    1  0.1384886E-010  0.4778727E+02  0.7816164E-02  0.1312668E+00
        -11   -1    0    0    0    0  0.00000000000E+00  0.00000000000E+00  0.45593999997E+02  0.45594000000E+02  0.51100000000E-03 0. -1.
         11   -1    0    0    0    0 -0.00000000000E+00 -0.00000000000E+00 -0.45593999997E+02  0.45594000000E+02  0.51100000000E-03 0.  1.
    9900012    2    1    2    0    0 -0.27030123321E+01 -0.30858149192E+02 -0.30398871544E+02  0.47787273757E+02  0.20000012370E+02 0.  0.
         12    1    1    2    0    0  0.27030123321E+01  0.30858149192E+02  0.30398871544E+02  0.43400726243E+02  0.00000000000E+00 0. -1.
         11    1    3    3    0    0 -0.99955875038E+00  0.64736604763E+00 -0.44856199442E+01  0.46410114243E+01  0.51100000000E-03 0. -1.
        -11    1    3    3    0    0  0.42685978773E+01 -0.12269149333E+02 -0.16255479817E+02  0.20808497724E+02  0.51100000000E-03 0.  1.
        -12    1    3    3    0    0 -0.59720514591E+01 -0.19236365906E+02 -0.96577717829E+01  0.22337764609E+02  0.00000000000E+00 0.  1.
</event>
<event>
 7    1  0.1384886E-010  0.4778727E+02  0.7816164E-02  0.1312668E+00
        -11   -1    0    0    0    0  0.00000000000E+00  0.00000000000E+00  0.45593999997E+02  0.45594000000E+02  0.51100000000E-03 0.  1.
         11   -1    0    0    0    0 -0.00000000000E+00 -0.00000000000E+00 -0.45593999997E+02  0.45594000000E+02  0.51100000000E-03 0. -1.
    9900012    2    1    2    0    0 -0.41607260608E+02 -0.11646291989E+02  0.41015868067E+01  0.47787271126E+02  0.20000000373E+02 0.  0.
         12    1    1    2    0    0  0.41607260608E+02  0.11646291989E+02 -0.41015868067E+01  0.43400728874E+02  0.00000000000E+00 0. -1.
         11    1    3    3    0    0 -0.20188571058E+02 -0.70732487476E+01  0.33132611510E+01  0.21646869264E+02  0.51100000000E-03 0.  1.
        -11    1    3    3    0    0 -0.86285505144E+01 -0.90807876015E+01  0.11080447666E+01  0.12575386710E+02  0.51100000000E-03 0. -1.
         12    1    3    3    0    0 -0.12790139036E+02  0.45077443598E+01 -0.31971911098E+00  0.13565015152E+02  0.00000000000E+00 0. -1.
</event>
<event>
 7    1  0.1384886E-010  0.4778726E+02  0.7816164E-02  0.1312668E+00
        -11   -1    0    0    0    0  0.00000000000E+00  0.00000000000E+00  0.45593999997E+02  0.45594000000E+02  0.51100000000E-03 0. -1.
         11   -1    0    0    0    0 -0.00000000000E+00 -0.00000000000E+00 -0.45593999997E+02  0.45594000000E+02  0.51100000000E-03 0.  1.
    9900012    2    1    2    0    0  0.30215758883E+02 -0.28599847271E+02 -0.12356402912E+02  0.47787262199E+02  0.19999959668E+02 0.  0.
         12    1    1    2    0    0 -0.30215758883E+02  0.28599847271E+02  0.12356402912E+02  0.43400737801E+02  0.00000000000E+00 0. -1.
         11    1    3    3    0    0  0.64242949787E+01 -0.84955724515E+01 -0.56089653179E+01  0.12037724430E+02  0.51100000000E-03 0. -1.
        -11    1    3    3    0    0  0.15231669365E+02 -0.13040407235E+02 -0.12109178174E+02  0.23424093767E+02  0.51100000000E-03 0.  1.
         12    1    3    3    0    0  0.85597945395E+01 -0.70638675841E+01  0.53617405793E+01  0.12325444002E+02  0.00000000000E+00 0. -1.
</event>
<event>
 7    1  0.1384886E-010  0.4778727E+02  0.7816164E-02  0.1312668E+00
        -11   -1    0    0    0    0  0.00000000000E+00  0.00000000000E+00  0.45593999997E+02  0.45594000000E+02  0.51100000000E-03 0. -1.
         11   -1    0    0    0    0 -0.00000000000E+00 -0.00000000000E+00 -0.45593999997E+02  0.45594000000E+02  0.51100000000E-03 0.  1.
    9900012    2    1    2    0    0  0.42037504655E+02 -0.23870829882E+00  0.10789555501E+02  0.47787270891E+02  0.19999999301E+02 0.  0.
         12    1    1    2    0    0 -0.42037504655E+02  0.23870829882E+00 -0.10789555501E+02  0.43400729109E+02  0.00000000000E+00 0. -1.
         11    1    3    3    0    0  0.90826023396E+01  0.21214709239E+01 -0.21477937974E+01  0.95711714328E+01  0.51100000000E-03 0. -1.
        -11    1    3    3    0    0  0.32841046973E+02  0.72535612508E+00  0.12201991441E+02  0.35042104720E+02  0.51100000000E-03 0.  1.
        -12    1    3    3    0    0  0.11385534196E+00 -0.30855353478E+01  0.73535785776E+00  0.31739947385E+01  0.00000000000E+00 0.  1.
</event>
<event>
 7    1  0.1384886E-010  0.4778728E+02  0.7816164E-02  0.1312668E+00
        -11   -1    0    0    0    0  0.00000000000E+00  0.00000000000E+00  0.45593999997E+02  0.45594000000E+02  0.51100000000E-03 0.  1.
         11   -1    0    0    0    0 -0.00000000000E+00 -0.00000000000E+00 -0.45593999997E+02  0.45594000000E+02  0.51100000000E-03 0. -1.
    9900012    2    1    2    0    0 -0.27365929391E+02 -0.21111587271E+02  0.26249372683E+02  0.47787276794E+02  0.20000026217E+02 0.  0.
         12    1    1    2    0    0  0.27365929391E+02  0.21111587271E+02 -0.26249372683E+02  0.43400723206E+02  0.00000000000E+00 0. -1.
         11    1    3    3    0    0 -0.47159172041E+01 -0.15786670589E+02  0.96357506767E+01  0.19086815731E+02  0.51100000000E-03 0. -1.
        -11    1    3    3    0    0 -0.10288045068E+02 -0.36854407277E+01  0.74747210979E+01  0.13240007570E+02  0.51100000000E-03 0.  1.
         12    1    3    3    0    0 -0.12361967118E+02 -0.16394759540E+01  0.91389009080E+01  0.15460453494E+02  0.00000000000E+00 0. -1.
</event>
<event>
 7    1  0.1384886E-010  0.4778727E+02  0.7816164E-02  0.1312668E+00
        -11   -1    0    0    0    0  0.00000000000E+00  0.00000000000E+00  0.45593999997E+02  0.45594000000E+02  0.51100000000E-03 0. -1.
         11   -1    0    0    0    0 -0.00000000000E+00 -0.00000000000E+00 -0.45593999997E+02  0.45594000000E+02  0.51100000000E-03 0.  1.
    9900012    2    1    2    0    0 -0.25654794059E+02 -0.34816469334E+02 -0.36426092133E+01  0.47787267322E+02  0.19999983027E+02 0.  0.
         12    1    1    2    0    0  0.25654794059E+02  0.34816469334E+02  0.36426092133E+01  0.43400732678E+02  0.00000000000E+00 0. -1.
         11    1    3    3    0    0 -0.15001365009E+01  0.17728421484E+01 -0.22722694514E+01  0.32490902611E+01  0.51100000000E-03 0. -1.
        -11    1    3    3    0    0 -0.93681183108E+01 -0.21185060682E+02 -0.82502270251E+00  0.23178634548E+02  0.51100000000E-03 0.  1.
        -12    1    3    3    0    0 -0.14786539248E+02 -0.15404250800E+02 -0.54531705944E+00  0.21359542512E+02  0.00000000000E+00 0.  1.
</event>
<event>
 7    1  0.1384886E-010  0.4778727E+02  0.7816164E-02  0.1312668E+00
        -11   -1    0    0    0    0  0.00000000000E+00  0.00000000000E+00  0.45593999997E+02  0.45594000000E+02  0.51100000000E-03 0.  1.
         11   -1    0    0    0    0 -0.00000000000E+00 -0.00000000000E+00 -0.45593999997E+02  0.45594000000E+02  0.51100000000E-03 0. -1.
    9900012    2    1    2    0    0  0.60175250560E+01  0.17366434724E+01  0.42946438452E+02  0.47787272885E+02  0.20000008394E+02 0.  0.
         12    1    1    2    0    0 -0.60175250560E+01 -0.17366434724E+01 -0.42946438452E+02  0.43400727115E+02  0.00000000000E+00 0. -1.
         11    1    3    3    0    0  0.23794365326E+01  0.34251259974E+00 -0.52505459145E+00  0.24606331865E+01  0.51100000000E-03 0. -1.
        -11    1    3    3    0    0 -0.39139095685E+01 -0.17567959949E+01  0.20420312152E+02  0.20866100951E+02  0.51100000000E-03 0.  1.
         12    1    3    3    0    0  0.75519980919E+01  0.31509268675E+01  0.23051180892E+02  0.24460538748E+02  0.00000000000E+00 0. -1.
</event>
<event>
 7    1  0.1384886E-010  0.4778727E+02  0.7816164E-02  0.1312668E+00
        -11   -1    0    0    0    0  0.00000000000E+00  0.00000000000E+00  0.45593999997E+02  0.45594000000E+02  0.51100000000E-03 0. -1.
         11   -1    0    0    0    0 -0.00000000000E+00 -0.00000000000E+00 -0.45593999997E+02  0.45594000000E+02  0.51100000000E-03 0.  1.
    9900012    2    1    2    0    0 -0.13476235674E+02  0.28173230476E+02 -0.30137743945E+02  0.47787268976E+02  0.19999990568E+02 0.  0.
         12    1    1    2    0    0  0.13476235674E+02 -0.28173230476E+02  0.30137743945E+02  0.43400731024E+02  0.00000000000E+00 0. -1.
         11    1    3    3    0    0 -0.28617031599E+01  0.35787313829E+01 -0.10751138335E+02  0.11686900318E+02  0.51100000000E-03 0. -1.
        -11    1    3    3    0    0 -0.11614265862E+00  0.16512185172E+02 -0.69059819137E+01  0.17898556778E+02  0.51100000000E-03 0.  1.
        -12    1    3    3    0    0 -0.10498389855E+02  0.80823139204E+01 -0.12480623696E+02  0.18201811880E+02  0.00000000000E+00 0.  1.
</event>
<event>
 7    1  0.1384886E-010  0.4778728E+02  0.7816164E-02  0.1312668E+00
        -11   -1    0    0    0    0  0.00000000000E+00  0.00000000000E+00  0.45593999997E+02  0.45594000000E+02  0.51100000000E-03 0.  1.
         11   -1    0    0    0    0 -0.00000000000E+00 -0.00000000000E+00 -0.45593999997E+02  0.45594000000E+02  0.51100000000E-03 0. -1.
    9900012    2    1    2    0    0  0.11874150039E+02 -0.16611544045E+02  0.38297308893E+02  0.47787277620E+02  0.20000029978E+02 0.  0.
         12    1    1    2    0    0 -0.11874150039E+02  0.16611544045E+02 -0.38297308893E+02  0.43400722380E+02  0.00000000000E+00 0. -1.
         11    1    3    3    0    0  0.61992017750E+01  0.20227729395E+01  0.89740539473E+01  0.11093031935E+02  0.51100000000E-03 0. -1.
        -11    1    3    3    0    0 -0.12642810800E+01 -0.62368253655E+01  0.36081954045E+01  0.73154269614E+01  0.51100000000E-03 0.  1.
        -12    1    3    3    0    0  0.69392293436E+01 -0.12397491619E+02  0.25715059541E+02  0.29378818723E+02  0.00000000000E+00 0.  1.
</event>
<event>
 7    1  0.1384886E-010  0.4778727E+02  0.7816164E-02  0.1312668E+00
        -11   -1    0    0    0    0  0.00000000000E+00  0.00000000000E+00  0.45593999997E+02  0.45594000000E+02  0.51100000000E-03 0.  1.
         11   -1    0    0    0    0 -0.00000000000E+00 -0.00000000000E+00 -0.45593999997E+02  0.45594000000E+02  0.51100000000E-03 0. -1.
    9900012    2    1    2    0    0 -0.27061684170E+02 -0.33253080767E+02  0.67469325755E+01  0.47787271552E+02  0.20000002316E+02 0.  0.
         12    1    1    2    0    0  0.27061684170E+02  0.33253080767E+02 -0.67469325755E+01  0.43400728448E+02  0.00000000000E+00 0. -1.
         11    1    3    3    0    0 -0.10927928521E+02 -0.12682242973E+02 -0.45667340401E+01  0.17352635784E+02  0.51100000000E-03 0. -1.
        -11    1    3    3    0    0 -0.16245692805E+02 -0.15207957841E+02  0.63875109458E+01  0.23151777745E+02  0.51100000000E-03 0.  1.
        -12    1    3    3    0    0  0.11193715543E+00 -0.53628799521E+01  0.49261556698E+01  0.72828580235E+01  0.00000000000E+00 0.  1.
</event>
<event>
 7    1  0.1384886E-010  0.4778727E+02  0.7816164E-02  0.1312668E+00
        -11   -1    0    0    0    0  0.00000000000E+00  0.00000000000E+00  0.45593999997E+02  0.45594000000E+02  0.51100000000E-03 0. -1.
         11   -1    0    0    0    0 -0.00000000000E+00 -0.00000000000E+00 -0.45593999997E+02  0.45594000000E+02  0.51100000000E-03 0.  1.
    9900012    2    1    2    0    0  0.19013423787E+02 -0.26556962450E+02 -0.28580422613E+02  0.47787273101E+02  0.20000009375E+02 0.  0.
         12    1    1    2    0    0 -0.19013423787E+02  0.26556962450E+02  0.28580422613E+02  0.43400726899E+02  0.00000000000E+00 0. -1.
         11    1    3    3    0    0 -0.85171209810E+00  0.16538165542E+01 -0.61604373422E+01  0.64351776355E+01  0.51100000000E-03 0. -1.
        -11    1    3    3    0    0  0.95452138979E+01 -0.10081510147E+02 -0.87079090669E+01  0.16388277389E+02  0.51100000000E-03 0.  1.
         12    1    3    3    0    0  0.10319921987E+02 -0.18129268857E+02 -0.13712076204E+02  0.24963818076E+02  0.00000000000E+00 0. -1.
</event>
<event>
 7    1  0.1384886E-010  0.4778727E+02  0.7816164E-02  0.1312668E+00
        -11   -1    0    0    0    0  0.00000000000E+00  0.00000000000E+00  0.45593999997E+02  0.45594000000E+02  0.51100000000E-03 0. -1.
         11   -1    0    0    0    0 -0.00000000000E+00 -0.00000000000E+00 -0.45593999997E+02  0.45594000000E+02  0.51100000000E-03 0.  1.
    9900012    2    1    2    0    0  0.29567278738E+02 -0.29752211921E+02 -0.11144743750E+02  0.47787269598E+02  0.19999993407E+02 0.  0.
         12    1    1    2    0    0 -0.29567278738E+02  0.29752211921E+02  0.11144743750E+02  0.43400730402E+02  0.00000000000E+00 0. -1.
         11    1    3    3    0    0  0.12688471340E+02 -0.14083535353E+02  0.44046515785E+01  0.19461352183E+02  0.51100000000E-03 0. -1.
        -11    1    3    3    0    0  0.60373692920E+01 -0.87199832417E+01 -0.52374656657E+01  0.11828735459E+02  0.51100000000E-03 0.  1.
         12    1    3    3    0    0  0.10841438106E+02 -0.69486933259E+01 -0.10311929663E+02  0.16497181957E+02  0.00000000000E+00 0. -1.
</event>
<event>
 7    1  0.1384886E-010  0.4778727E+02  0.7816164E-02  0.1312668E+00
        -11   -1    0    0    0    0  0.00000000000E+00  0.00000000000E+00  0.45593999997E+02  0.45594000000E+02  0.51100000000E-03 0.  1.
         11   -1    0    0    0    0 -0.00000000000E+00 -0.00000000000E+00 -0.45593999997E+02  0.45594000000E+02  0.51100000000E-03 0. -1.
    9900012    2    1    2    0    0  0.17239021462E+02 -0.27971389654E+02  0.28355613512E+02  0.47787270539E+02  0.19999997694E+02 0.  0.
         12    1    1    2    0    0 -0.17239021462E+02  0.27971389654E+02 -0.28355613512E+02  0.43400729461E+02  0.00000000000E+00 0. -1.
         11    1    3    3    0    0  0.62565436605E+01 -0.88723433103E+01  0.77932837164E+00  0.10884400184E+02  0.51100000000E-03 0. -1.
        -11    1    3    3    0    0  0.85795827586E+01 -0.14050128969E+02  0.12052862390E+02  0.20403108989E+02  0.51100000000E-03 0.  1.
         12    1    3    3    0    0  0.24028950425E+01 -0.50489173748E+01  0.15523422751E+02  0.16499761366E+02  0.00000000000E+00 0. -1.
</event>
<event>
 7    1  0.1384886E-010  0.4778727E+02  0.7816164E-02  0.1312668E+00
        -11   -1    0    0    0    0  0.00000000000E+00  0.00000000000E+00  0.45593999997E+02  0.45594000000E+02  0.51100000000E-03 0. -1.
         11   -1    0    0    0    0 -0.00000000000E+00 -0.00000000000E+00 -0.45593999997E+02  0.45594000000E+02  0.51100000000E-03 0.  1.
    9900012    2    1    2    0    0  0.23141277489E+01 -0.19882651222E+02 -0.38509067622E+02  0.47787270790E+02  0.19999998838E+02 0.  0.
         12    1    1    2    0    0 -0.23141277489E+01  0.19882651222E+02  0.38509067622E+02  0.43400729210E+02  0.00000000000E+00 0. -1.
         11    1    3    3    0    0 -0.19302893881E+01 -0.34409131005E+01 -0.68023295604E+01  0.78636879259E+01  0.51100000000E-03 0. -1.
        -11    1    3    3    0    0 -0.97561236436E+00 -0.17812056673E+02 -0.28568562237E+02  0.33680616546E+02  0.51100000000E-03 0.  1.
         12    1    3    3    0    0  0.52200295014E+01  0.13703185518E+01 -0.31381758252E+01  0.62429663173E+01  0.00000000000E+00 0. -1.
</event>
<event>
 7    1  0.1384886E-010  0.4778727E+02  0.7816164E-02  0.1312668E+00
        -11   -1    0    0    0    0  0.00000000000E+00  0.00000000000E+00  0.45593999997E+02  0.45594000000E+02  0.51100000000E-03 0. -1.
         11   -1    0    0    0    0 -0.00000000000E+00 -0.00000000000E+00 -0.45593999997E+02  0.45594000000E+02  0.51100000000E-03 0.  1.
    9900012    2    1    2    0    0 -0.18872794991E+02 -0.29849158296E+02 -0.25228328430E+02  0.47787271929E+02  0.20000004031E+02 0.  0.
         12    1    1    2    0    0  0.18872794991E+02  0.29849158296E+02  0.25228328430E+02  0.43400728071E+02  0.00000000000E+00 0. -1.
         11    1    3    3    0    0 -0.18269904780E+02 -0.20442129753E+02 -0.18336434782E+02  0.32983252270E+02  0.51100000000E-03 0. -1.
        -11    1    3    3    0    0 -0.16096291250E+01  0.14683679923E+01 -0.10695490490E+01  0.24271270898E+01  0.51100000000E-03 0.  1.
        -12    1    3    3    0    0  0.10067389140E+01 -0.10875396535E+02 -0.58223445994E+01  0.12376892569E+02  0.00000000000E+00 0.  1.
</event>
<event>
 7    1  0.1384886E-010  0.4778726E+02  0.7816164E-02  0.1312668E+00
        -11   -1    0    0    0    0  0.00000000000E+00  0.00000000000E+00  0.45593999997E+02  0.45594000000E+02  0.51100000000E-03 0. -1.
         11   -1    0    0    0    0 -0.00000000000E+00 -0.00000000000E+00 -0.45593999997E+02  0.45594000000E+02  0.51100000000E-03 0.  1.
    9900012    2    1    2    0    0  0.29207453675E+02  0.16532749386E+02 -0.27517571757E+02  0.47787263741E+02  0.19999966700E+02 0.  0.
         12    1    1    2    0    0 -0.29207453675E+02 -0.16532749386E+02  0.27517571757E+02  0.43400736259E+02  0.00000000000E+00 0. -1.
         11    1    3    3    0    0  0.66870644654E+01 -0.26557860798E+01 -0.75081316669E+01  0.10399138053E+02  0.51100000000E-03 0. -1.
        -11    1    3    3    0    0  0.20294286474E+02  0.12209817458E+02 -0.18127085784E+02  0.29824971838E+02  0.51100000000E-03 0.  1.
        -12    1    3    3    0    0  0.22261027358E+01  0.69787180075E+01 -0.18823543060E+01  0.75631538496E+01  0.00000000000E+00 0.  1.
</event>
<event>
 7    1  0.1384886E-010  0.4778731E+02  0.7816164E-02  0.1312668E+00
        -11   -1    0    0    0    0  0.00000000000E+00  0.00000000000E+00  0.45593999997E+02  0.45594000000E+02  0.51100000000E-03 0.  1.
         11   -1    0    0    0    0 -0.00000000000E+00 -0.00000000000E+00 -0.45593999997E+02  0.45594000000E+02  0.51100000000E-03 0. -1.
    9900012    2    1    2    0    0 -0.37597601754E+02  0.49882392781E+01  0.21098762793E+02  0.47787308990E+02  0.20000173007E+02 0.  0.
         12    1    1    2    0    0  0.37597601754E+02 -0.49882392781E+01 -0.21098762793E+02  0.43400691010E+02  0.00000000000E+00 0. -1.
         11    1    3    3    0    0  0.16151838735E+00 -0.28091930892E+01  0.49750765241E+01  0.57156837460E+01  0.51100000000E-03 0.  1.
        -11    1    3    3    0    0 -0.13333337937E+02  0.45274954237E+01  0.41946259375E+01  0.14692549213E+02  0.51100000000E-03 0. -1.
        -12    1    3    3    0    0 -0.24425782204E+02  0.32699369436E+01  0.11929060331E+02  0.27379076031E+02  0.00000000000E+00 0.  1.
</event>
<event>
 7    1  0.1384886E-010  0.4778727E+02  0.7816164E-02  0.1312668E+00
        -11   -1    0    0    0    0  0.00000000000E+00  0.00000000000E+00  0.45593999997E+02  0.45594000000E+02  0.51100000000E-03 0. -1.
         11   -1    0    0    0    0 -0.00000000000E+00 -0.00000000000E+00 -0.45593999997E+02  0.45594000000E+02  0.51100000000E-03 0.  1.
    9900012    2    1    2    0    0  0.35648935952E+02 -0.10268191490E+02 -0.22524227421E+02  0.47787271758E+02  0.20000003253E+02 0.  0.
         12    1    1    2    0    0 -0.35648935952E+02  0.10268191490E+02  0.22524227421E+02  0.43400728242E+02  0.00000000000E+00 0. -1.
         11    1    3    3    0    0  0.11282141581E+02 -0.11658264192E+02 -0.59046787537E+01  0.17264619140E+02  0.51100000000E-03 0. -1.
        -11    1    3    3    0    0  0.10173219831E+02 -0.14650585670E+01 -0.10827890081E+02  0.14929300124E+02  0.51100000000E-03 0.  1.
        -12    1    3    3    0    0  0.14193574540E+02  0.28551312687E+01 -0.57916585870E+01  0.15593352493E+02  0.00000000000E+00 0.  1.
</event>
<event>
 7    1  0.1445300E-010  0.4778727E+02  0.7816164E-02  0.1312668E+00
        -11   -1    0    0    0    0  0.00000000000E+00  0.00000000000E+00  0.45593999997E+02  0.45594000000E+02  0.51100000000E-03 0. -1.
         11   -1    0    0    0    0 -0.00000000000E+00 -0.00000000000E+00 -0.45593999997E+02  0.45594000000E+02  0.51100000000E-03 0.  1.
    9900012    2    1    2    0    0  0.22635667378E+02 -0.31940462047E+02  0.18736504603E+02  0.47787272378E+02  0.20000006078E+02 0.  0.
         12    1    1    2    0    0 -0.22635667378E+02  0.31940462047E+02 -0.18736504603E+02  0.43400727622E+02  0.00000000000E+00 0. -1.
         11    1    3    3    0    0  0.35038025519E+01 -0.44411070249E+01 -0.99380618054E+00  0.57434932676E+01  0.51100000000E-03 0. -1.
        -11    1    3    3    0    0  0.76926948192E+01 -0.81765692809E+01  0.15588119544E+02  0.19209979437E+02  0.51100000000E-03 0.  1.
        -12    1    3    3    0    0  0.11439170007E+02 -0.19322785741E+02  0.41421912397E+01  0.22833799673E+02  0.00000000000E+00 0.  1.
</event>
<event>
 7    1  0.1384886E-010  0.4778727E+02  0.7816164E-02  0.1312668E+00
        -11   -1    0    0    0    0  0.00000000000E+00  0.00000000000E+00  0.45593999997E+02  0.45594000000E+02  0.51100000000E-03 0. -1.
         11   -1    0    0    0    0 -0.00000000000E+00 -0.00000000000E+00 -0.45593999997E+02  0.45594000000E+02  0.51100000000E-03 0.  1.
    9900012    2    1    2    0    0 -0.26269364045E+02  0.22647298012E+02 -0.26089154142E+02  0.47787267767E+02  0.19999985057E+02 0.  0.
         12    1    1    2    0    0  0.26269364045E+02 -0.22647298012E+02  0.26089154142E+02  0.43400732233E+02  0.00000000000E+00 0. -1.
         11    1    3    3    0    0 -0.15245836501E+02  0.51213867094E+01 -0.30059509220E+01  0.16361536409E+02  0.51100000000E-03 0. -1.
        -11    1    3    3    0    0 -0.71851472135E+01  0.67347850907E+01 -0.11404420156E+02  0.15067994892E+02  0.51100000000E-03 0.  1.
         12    1    3    3    0    0 -0.38383803300E+01  0.10791126212E+02 -0.11678783063E+02  0.16357736467E+02  0.00000000000E+00 0. -1.
</event>
<event>
 7    1  0.1384886E-010  0.4778727E+02  0.7816164E-02  0.1312668E+00
        -11   -1    0    0    0    0  0.00000000000E+00  0.00000000000E+00  0.45593999997E+02  0.45594000000E+02  0.51100000000E-03 0.  1.
         11   -1    0    0    0    0 -0.00000000000E+00 -0.00000000000E+00 -0.45593999997E+02  0.45594000000E+02  0.51100000000E-03 0. -1.
    9900012    2    1    2    0    0  0.26961123318E+02 -0.11837752305E+02  0.31883989642E+02  0.47787270217E+02  0.19999996225E+02 0.  0.
         12    1    1    2    0    0 -0.26961123318E+02  0.11837752305E+02 -0.31883989642E+02  0.43400729783E+02  0.00000000000E+00 0. -1.
         11    1    3    3    0    0  0.18663005271E+00 -0.48367541448E+01  0.48011524469E+01  0.68176305644E+01  0.51100000000E-03 0. -1.
        -11    1    3    3    0    0  0.24544591964E+02 -0.92282174609E+01  0.19258474322E+02  0.32534379135E+02  0.51100000000E-03 0.  1.
        -12    1    3    3    0    0  0.22299013013E+01  0.22272193004E+01  0.78243628732E+01  0.84352605175E+01  0.00000000000E+00 0.  1.
</event>
<event>
 7    1  0.1384886E-010  0.4778727E+02  0.7816164E-02  0.1312668E+00
        -11   -1    0    0    0    0  0.00000000000E+00  0.00000000000E+00  0.45593999997E+02  0.45594000000E+02  0.51100000000E-03 0. -1.
         11   -1    0    0    0    0 -0.00000000000E+00 -0.00000000000E+00 -0.45593999997E+02  0.45594000000E+02  0.51100000000E-03 0.  1.
    9900012    2    1    2    0    0 -0.12056152206E+02  0.34844196625E+01 -0.41546733603E+02  0.47787273514E+02  0.20000011259E+02 0.  0.
         12    1    1    2    0    0  0.12056152206E+02 -0.34844196625E+01  0.41546733603E+02  0.43400726486E+02  0.00000000000E+00 0. -1.
         11    1    3    3    0    0 -0.57856526419E+01  0.16251078143E+01 -0.21042572009E+02  0.21883888798E+02  0.51100000000E-03 0.  1.
        -11    1    3    3    0    0 -0.69766033163E+01  0.19364785440E+01 -0.22578394991E+02  0.23710901788E+02  0.51100000000E-03 0. -1.
         12    1    3    3    0    0  0.70610375185E+00 -0.77166695849E-01  0.20742333963E+01  0.21924829281E+01  0.00000000000E+00 0. -1.
</event>
<event>
 7    1  0.1384886E-010  0.4778727E+02  0.7816164E-02  0.1312668E+00
        -11   -1    0    0    0    0  0.00000000000E+00  0.00000000000E+00  0.45593999997E+02  0.45594000000E+02  0.51100000000E-03 0. -1.
         11   -1    0    0    0    0 -0.00000000000E+00 -0.00000000000E+00 -0.45593999997E+02  0.45594000000E+02  0.51100000000E-03 0.  1.
    9900012    2    1    2    0    0  0.41920292281E+02 -0.10275433490E+02 -0.45528327312E+01  0.47787265856E+02  0.19999976344E+02 0.  0.
         12    1    1    2    0    0 -0.41920292281E+02  0.10275433490E+02  0.45528327312E+01  0.43400734144E+02  0.00000000000E+00 0. -1.
         11    1    3    3    0    0  0.19215873928E+02 -0.78702413029E+01  0.14323515081E+01  0.20814469488E+02  0.51100000000E-03 0. -1.
        -11    1    3    3    0    0  0.93137019733E+01 -0.57705499900E+01 -0.72029182897E+01  0.13112067868E+02  0.51100000000E-03 0.  1.
        -12    1    3    3    0    0  0.13390716380E+02  0.33653578031E+01  0.12177340504E+01  0.13860728500E+02  0.00000000000E+00 0.  1.
</event>
<event>
 7    1  0.1384886E-010  0.4778726E+02  0.7816164E-02  0.1312668E+00
        -11   -1    0    0    0    0  0.00000000000E+00  0.00000000000E+00  0.45593999997E+02  0.45594000000E+02  0.51100000000E-03 0.  1.
         11   -1    0    0    0    0 -0.00000000000E+00 -0.00000000000E+00 -0.45593999997E+02  0.45594000000E+02  0.51100000000E-03 0. -1.
    9900012    2    1    2    0    0 -0.51091540262E+01  0.12585212844E+02  0.41220542435E+02  0.47787260884E+02  0.19999953675E+02 0.  0.
         12    1    1    2    0    0  0.51091540262E+01 -0.12585212844E+02 -0.41220542435E+02  0.43400739116E+02  0.00000000000E+00 0. -1.
         11    1    3    3    0    0 -0.11299369559E+01  0.96897789564E+01  0.70171633674E+01  0.12017036063E+02  0.51100000000E-03 0. -1.
        -11    1    3    3    0    0 -0.19548747459E+01  0.61900620608E+01  0.23874010650E+02  0.24740791991E+02  0.51100000000E-03 0.  1.
        -12    1    3    3    0    0 -0.20243423244E+01 -0.32946281730E+01  0.10329368418E+02  0.11029432830E+02  0.00000000000E+00 0.  1.
</event>
<event>
 7    1  0.1384886E-010  0.4778727E+02  0.7816164E-02  0.1312668E+00
        -11   -1    0    0    0    0  0.00000000000E+00  0.00000000000E+00  0.45593999997E+02  0.45594000000E+02  0.51100000000E-03 0.  1.
         11   -1    0    0    0    0 -0.00000000000E+00 -0.00000000000E+00 -0.45593999997E+02  0.45594000000E+02  0.51100000000E-03 0. -1.
    9900012    2    1    2    0    0  0.19514354739E+02 -0.33800719624E+02  0.18982215887E+02  0.47787271804E+02  0.20000003463E+02 0.  0.
         12    1    1    2    0    0 -0.19514354739E+02  0.33800719624E+02 -0.18982215887E+02  0.43400728196E+02  0.00000000000E+00 0. -1.
         11    1    3    3    0    0  0.27723548137E+01 -0.62551912030E+01  0.32685516081E+01  0.75826643124E+01  0.51100000000E-03 0.  1.
        -11    1    3    3    0    0  0.12289151586E+02 -0.21325285436E+02  0.19748268384E+02  0.31556063602E+02  0.51100000000E-03 0. -1.
         12    1    3    3    0    0  0.44528483391E+01 -0.62202429855E+01 -0.40346041052E+01  0.86485438899E+01  0.00000000000E+00 0. -1.
</event>
<event>
 7    1  0.1384886E-010  0.4778727E+02  0.7816164E-02  0.1312668E+00
        -11   -1    0    0    0    0  0.00000000000E+00  0.00000000000E+00  0.45593999997E+02  0.45594000000E+02  0.51100000000E-03 0.  1.
         11   -1    0    0    0    0 -0.00000000000E+00 -0.00000000000E+00 -0.45593999997E+02  0.45594000000E+02  0.51100000000E-03 0. -1.
    9900012    2    1    2    0    0 -0.21587501724E+02 -0.30824602465E+01  0.37524680374E+02  0.47787269257E+02  0.19999991850E+02 0.  0.
         12    1    1    2    0    0  0.21587501724E+02  0.30824602465E+01 -0.37524680374E+02  0.43400730743E+02  0.00000000000E+00 0. -1.
         11    1    3    3    0    0  0.14394309563E+01 -0.12660903912E+01  0.12301222237E+01  0.22777504919E+01  0.51100000000E-03 0. -1.
        -11    1    3    3    0    0 -0.20232099293E+02 -0.17686243784E+01  0.18421784305E+02  0.27419482330E+02  0.51100000000E-03 0.  1.
        -12    1    3    3    0    0 -0.27948333867E+01 -0.47745476899E-01  0.17872773845E+02  0.18090036435E+02  0.00000000000E+00 0.  1.
</event>
<event>
 7    1  0.1384886E-010  0.4778727E+02  0.7816164E-02  0.1312668E+00
        -11   -1    0    0    0    0  0.00000000000E+00  0.00000000000E+00  0.45593999997E+02  0.45594000000E+02  0.51100000000E-03 0. -1.
         11   -1    0    0    0    0 -0.00000000000E+00 -0.00000000000E+00 -0.45593999997E+02  0.45594000000E+02  0.51100000000E-03 0.  1.
    9900012    2    1    2    0    0 -0.30521431456E+02 -0.19169692001E+02 -0.24178266037E+02  0.47787269383E+02  0.19999992425E+02 0.  0.
         12    1    1    2    0    0  0.30521431456E+02  0.19169692001E+02  0.24178266037E+02  0.43400730617E+02  0.00000000000E+00 0. -1.
         11    1    3    3    0    0 -0.29169064352E+01 -0.24115389098E+01 -0.51425351003E+00  0.38194659311E+01  0.51100000000E-03 0. -1.
        -11    1    3    3    0    0 -0.14963405098E+02 -0.17596054985E+02 -0.95297018955E+01  0.24986793745E+02  0.51100000000E-03 0.  1.
         12    1    3    3    0    0 -0.12641119922E+02  0.83790189335E+00 -0.14134310632E+02  0.18981009707E+02  0.00000000000E+00 0. -1.
</event>
<event>
 7    1  0.1384886E-010  0.4778729E+02  0.7816164E-02  0.1312668E+00
        -11   -1    0    0    0    0  0.00000000000E+00  0.00000000000E+00  0.45593999997E+02  0.45594000000E+02  0.51100000000E-03 0. -1.
         11   -1    0    0    0    0 -0.00000000000E+00 -0.00000000000E+00 -0.45593999997E+02  0.45594000000E+02  0.51100000000E-03 0.  1.
    9900012    2    1    2    0    0  0.25017380901E+01 -0.28396072168E+02 -0.32726536350E+02  0.47787288145E+02  0.20000077968E+02 0.  0.
         12    1    1    2    0    0 -0.25017380901E+01  0.28396072168E+02  0.32726536350E+02  0.43400711855E+02  0.00000000000E+00 0. -1.
         11    1    3    3    0    0  0.61555911908E+01 -0.81668898306E+01 -0.11685526831E+02  0.15528713082E+02  0.51100000000E-03 0. -1.
        -11    1    3    3    0    0  0.27351796697E+01 -0.67244545551E+01 -0.13940198207E+02  0.15717144245E+02  0.51100000000E-03 0.  1.
        -12    1    3    3    0    0 -0.63890327704E+01 -0.13504727782E+02 -0.71008113120E+01  0.16541430818E+02  0.00000000000E+00 0.  1.
</event>
<event>
 7    1  0.1384886E-010  0.4778725E+02  0.7816164E-02  0.1312668E+00
        -11   -1    0    0    0    0  0.00000000000E+00  0.00000000000E+00  0.45593999997E+02  0.45594000000E+02  0.51100000000E-03 0. -1.
         11   -1    0    0    0    0 -0.00000000000E+00 -0.00000000000E+00 -0.45593999997E+02  0.45594000000E+02  0.51100000000E-03 0.  1.
    9900012    2    1    2    0    0 -0.41825937219E+02 -0.77405296633E+01  0.86197571474E+01  0.47787250732E+02  0.19999907387E+02 0.  0.
         12    1    1    2    0    0  0.41825937219E+02  0.77405296633E+01 -0.86197571474E+01  0.43400749268E+02  0.00000000000E+00 0. -1.
         11    1    3    3    0    0 -0.17573950231E+02 -0.10925125090E+02  0.38327891707E+01  0.21045007912E+02  0.51100000000E-03 0. -1.
        -11    1    3    3    0    0 -0.47114326822E+01  0.12217775042E+01 -0.28849471312E+01  0.56580260161E+01  0.51100000000E-03 0.  1.
         12    1    3    3    0    0 -0.19540554306E+02  0.19628179222E+01  0.76719151078E+01  0.21084216803E+02  0.00000000000E+00 0. -1.
</event>
<event>
 7    1  0.1384886E-010  0.4778727E+02  0.7816164E-02  0.1312668E+00
        -11   -1    0    0    0    0  0.00000000000E+00  0.00000000000E+00  0.45593999997E+02  0.45594000000E+02  0.51100000000E-03 0.  1.
         11   -1    0    0    0    0 -0.00000000000E+00 -0.00000000000E+00 -0.45593999997E+02  0.45594000000E+02  0.51100000000E-03 0. -1.
    9900012    2    1    2    0    0  0.26328614869E+02  0.12380624319E+02  0.32204780677E+02  0.47787265929E+02  0.19999976678E+02 0.  0.
         12    1    1    2    0    0 -0.26328614869E+02 -0.12380624319E+02 -0.32204780677E+02  0.43400734071E+02  0.00000000000E+00 0. -1.
         11    1    3    3    0    0  0.13491921094E+02  0.69258647788E+01  0.80648592488E+01  0.17176771894E+02  0.51100000000E-03 0. -1.
        -11    1    3    3    0    0 -0.36591962012E+00  0.54364605285E+01  0.52693576643E+01  0.75799162727E+01  0.51100000000E-03 0.  1.
        -12    1    3    3    0    0  0.13202613395E+02  0.18299011263E-01  0.18870563763E+02  0.23030577762E+02  0.00000000000E+00 0.  1.
</event>
<event>
 7    1  0.1384886E-010  0.4778727E+02  0.7816164E-02  0.1312668E+00
        -11   -1    0    0    0    0  0.00000000000E+00  0.00000000000E+00  0.45593999997E+02  0.45594000000E+02  0.51100000000E-03 0. -1.
         11   -1    0    0    0    0 -0.00000000000E+00 -0.00000000000E+00 -0.45593999997E+02  0.45594000000E+02  0.51100000000E-03 0.  1.
    9900012    2    1    2    0    0  0.15961086814E+02 -0.12033722970E+00 -0.40359049251E+02  0.47787266944E+02  0.19999981305E+02 0.  0.
         12    1    1    2    0    0 -0.15961086814E+02  0.12033722970E+00  0.40359049251E+02  0.43400733056E+02  0.00000000000E+00 0. -1.
         11    1    3    3    0    0  0.56308855138E+00 -0.17441045998E+01 -0.26386500110E+00  0.18516464489E+01  0.51100000000E-03 0. -1.
        -11    1    3    3    0    0  0.11999017862E+02  0.84978133975E+01 -0.27688210754E+02  0.31350060243E+02  0.51100000000E-03 0.  1.
        -12    1    3    3    0    0  0.33989804006E+01 -0.68740460274E+01 -0.12406973496E+02  0.14585560252E+02  0.00000000000E+00 0.  1.
</event>
<event>
 7    1  0.1384886E-010  0.4778727E+02  0.7816164E-02  0.1312668E+00
        -11   -1    0    0    0    0  0.00000000000E+00  0.00000000000E+00  0.45593999997E+02  0.45594000000E+02  0.51100000000E-03 0. -1.
         11   -1    0    0    0    0 -0.00000000000E+00 -0.00000000000E+00 -0.45593999997E+02  0.45594000000E+02  0.51100000000E-03 0.  1.
    9900012    2    1    2    0    0  0.24925238929E+02  0.31894491514E+02 -0.15655582921E+02  0.47787269578E+02  0.19999993313E+02 0.  0.
         12    1    1    2    0    0 -0.24925238929E+02 -0.31894491514E+02  0.15655582921E+02  0.43400730422E+02  0.00000000000E+00 0. -1.
         11    1    3    3    0    0 -0.23732050206E+01  0.56731267701E+01 -0.57644072921E+01  0.84288113700E+01  0.51100000000E-03 0. -1.
        -11    1    3    3    0    0  0.15400823135E+02  0.14513930879E+02 -0.77182417131E+01  0.22525780745E+02  0.51100000000E-03 0.  1.
        -12    1    3    3    0    0  0.11897620815E+02  0.11707433865E+02 -0.21729339154E+01  0.16832677462E+02  0.00000000000E+00 0.  1.
</event>
<event>
 7    1  0.1384886E-010  0.4778730E+02  0.7816164E-02  0.1312668E+00
        -11   -1    0    0    0    0  0.00000000000E+00  0.00000000000E+00  0.45593999997E+02  0.45594000000E+02  0.51100000000E-03 0.  1.
         11   -1    0    0    0    0 -0.00000000000E+00 -0.00000000000E+00 -0.45593999997E+02  0.45594000000E+02  0.51100000000E-03 0. -1.
    9900012    2    1    2    0    0 -0.33905857634E+02  0.10318355854E+02  0.25050849301E+02  0.47787300696E+02  0.20000135191E+02 0.  0.
         12    1    1    2    0    0  0.33905857634E+02 -0.10318355854E+02 -0.25050849301E+02  0.43400699304E+02  0.00000000000E+00 0. -1.
         11    1    3    3    0    0 -0.28213534085E+02  0.86981580462E+01  0.12091147947E+02  0.31903876221E+02  0.51100000000E-03 0. -1.
        -11    1    3    3    0    0 -0.63526707448E+01  0.26104830634E+01  0.70024632545E+01  0.98084422467E+01  0.51100000000E-03 0.  1.
         12    1    3    3    0    0  0.66034719590E+00 -0.99028525516E+00  0.59572380991E+01  0.60749822284E+01  0.00000000000E+00 0. -1.
</event>
<event>
 7    1  0.1384886E-010  0.4778727E+02  0.7816164E-02  0.1312668E+00
        -11   -1    0    0    0    0  0.00000000000E+00  0.00000000000E+00  0.45593999997E+02  0.45594000000E+02  0.51100000000E-03 0. -1.
         11   -1    0    0    0    0 -0.00000000000E+00 -0.00000000000E+00 -0.45593999997E+02  0.45594000000E+02  0.51100000000E-03 0.  1.
    9900012    2    1    2    0    0  0.27656485639E+02  0.11883893306E+02 -0.31265236808E+02  0.47787272463E+02  0.20000006469E+02 0.  0.
         12    1    1    2    0    0 -0.27656485639E+02 -0.11883893306E+02  0.31265236808E+02  0.43400727537E+02  0.00000000000E+00 0. -1.
         11    1    3    3    0    0  0.11799058892E+02 -0.46258958945E+01 -0.10056884540E+02  0.16178925504E+02  0.51100000000E-03 0. -1.
        -11    1    3    3    0    0  0.88505190095E+01  0.62155282357E+01 -0.79767844883E+01  0.13438510670E+02  0.51100000000E-03 0.  1.
         12    1    3    3    0    0  0.70069077381E+01  0.10294260965E+02 -0.13231567781E+02  0.18169836290E+02  0.00000000000E+00 0. -1.
</event>
<event>
 7    1  0.1384886E-010  0.4778727E+02  0.7816164E-02  0.1312668E+00
        -11   -1    0    0    0    0  0.00000000000E+00  0.00000000000E+00  0.45593999997E+02  0.45594000000E+02  0.51100000000E-03 0. -1.
         11   -1    0    0    0    0 -0.00000000000E+00 -0.00000000000E+00 -0.45593999997E+02  0.45594000000E+02  0.51100000000E-03 0.  1.
    9900012    2    1    2    0    0 -0.15450136474E+02 -0.27263100130E+02 -0.30027318245E+02  0.47787272049E+02  0.20000004578E+02 0.  0.
         12    1    1    2    0    0  0.15450136474E+02  0.27263100130E+02  0.30027318245E+02  0.43400727951E+02  0.00000000000E+00 0. -1.
         11    1    3    3    0    0 -0.21878130040E+01 -0.11679757826E+02 -0.69809959742E+01  0.13781784125E+02  0.51100000000E-03 0. -1.
        -11    1    3    3    0    0 -0.10021721448E+01 -0.11820742249E+02 -0.13783095286E+02  0.18185379079E+02  0.51100000000E-03 0.  1.
         12    1    3    3    0    0 -0.12260151325E+02 -0.37626000550E+01 -0.92632269841E+01  0.15820108844E+02  0.00000000000E+00 0. -1.
</event>
<event>
 7    1  0.1384886E-010  0.4778727E+02  0.7816164E-02  0.1312668E+00
        -11   -1    0    0    0    0  0.00000000000E+00  0.00000000000E+00  0.45593999997E+02  0.45594000000E+02  0.51100000000E-03 0. -1.
         11   -1    0    0    0    0 -0.00000000000E+00 -0.00000000000E+00 -0.45593999997E+02  0.45594000000E+02  0.51100000000E-03 0.  1.
    9900012    2    1    2    0    0 -0.20342756988E+01 -0.41618397695E+02  0.12140610193E+02  0.47787265902E+02  0.19999976555E+02 0.  0.
         12    1    1    2    0    0  0.20342756988E+01  0.41618397695E+02 -0.12140610193E+02  0.43400734098E+02  0.00000000000E+00 0. -1.
         11    1    3    3    0    0  0.29848560430E+01 -0.10443236955E+02  0.52984887566E+01  0.12084889204E+02  0.51100000000E-03 0. -1.
        -11    1    3    3    0    0 -0.65401916026E+01 -0.41754751357E+01  0.32880387721E+01  0.84273304216E+01  0.51100000000E-03 0.  1.
        -12    1    3    3    0    0  0.15210598608E+01 -0.26999685604E+02  0.35540826646E+01  0.27275046277E+02  0.00000000000E+00 0.  1.
</event>
<event>
 7    1  0.1384886E-010  0.4778726E+02  0.7816164E-02  0.1312668E+00
        -11   -1    0    0    0    0  0.00000000000E+00  0.00000000000E+00  0.45593999997E+02  0.45594000000E+02  0.51100000000E-03 0. -1.
         11   -1    0    0    0    0 -0.00000000000E+00 -0.00000000000E+00 -0.45593999997E+02  0.45594000000E+02  0.51100000000E-03 0.  1.
    9900012    2    1    2    0    0  0.61470577293E+01  0.88043438559E+00 -0.42954191024E+02  0.47787262564E+02  0.19999961336E+02 0.  0.
         12    1    1    2    0    0 -0.61470577293E+01 -0.88043438559E+00  0.42954191024E+02  0.43400737436E+02  0.00000000000E+00 0. -1.
         11    1    3    3    0    0  0.57892707444E+01 -0.19407980640E-01 -0.22489152324E+02  0.23222360021E+02  0.51100000000E-03 0.  1.
        -11    1    3    3    0    0 -0.49477729367E+01  0.26411807249E+01 -0.17211315801E+02  0.18102090612E+02  0.51100000000E-03 0. -1.
         12    1    3    3    0    0  0.53055599215E+01 -0.17413383587E+01 -0.32537228986E+01  0.64628119314E+01  0.00000000000E+00 0. -1.
</event>
<event>
 7    1  0.1384886E-010  0.4778728E+02  0.7816164E-02  0.1312668E+00
        -11   -1    0    0    0    0  0.00000000000E+00  0.00000000000E+00  0.45593999997E+02  0.45594000000E+02  0.51100000000E-03 0.  1.
         11   -1    0    0    0    0 -0.00000000000E+00 -0.00000000000E+00 -0.45593999997E+02  0.45594000000E+02  0.51100000000E-03 0. -1.
    9900012    2    1    2    0    0  0.41125640631E+02 -0.24414178442E+01 -0.13650759602E+02  0.47787284843E+02  0.20000062915E+02 0.  0.
         12    1    1    2    0    0 -0.41125640631E+02  0.24414178442E+01  0.13650759602E+02  0.43400715157E+02  0.00000000000E+00 0. -1.
         11    1    3    3    0    0  0.14650652957E+02 -0.39400032368E-01 -0.11508987810E+02  0.18630619558E+02  0.51100000000E-03 0. -1.
        -11    1    3    3    0    0  0.18141435540E+02  0.39815862732E+01 -0.10582851268E+01  0.18603351321E+02  0.51100000000E-03 0.  1.
        -12    1    3    3    0    0  0.83335521345E+01 -0.63836040850E+01 -0.10834866645E+01  0.10553313965E+02  0.00000000000E+00 0.  1.
</event>
<event>
 7    1  0.1384886E-010  0.4778727E+02  0.7816164E-02  0.1312668E+00
        -11   -1    0    0    0    0  0.00000000000E+00  0.00000000000E+00  0.45593999997E+02  0.45594000000E+02  0.51100000000E-03 0.  1.
         11   -1    0    0    0    0 -0.00000000000E+00 -0.00000000000E+00 -0.45593999997E+02  0.45594000000E+02  0.51100000000E-03 0. -1.
    9900012    2    1    2    0    0 -0.16053240802E+02 -0.32342584887E+02  0.24080572241E+02  0.47787270780E+02  0.19999998794E+02 0.  0.
         12    1    1    2    0    0  0.16053240802E+02  0.32342584887E+02 -0.24080572241E+02  0.43400729220E+02  0.00000000000E+00 0. -1.
         11    1    3    3    0    0 -0.24973725703E+01 -0.14519933463E+02  0.49902221034E+01  0.15555309526E+02  0.51100000000E-03 0. -1.
        -11    1    3    3    0    0 -0.46618293021E+01 -0.16254234897E+02  0.13169314584E+02  0.21432770502E+02  0.51100000000E-03 0.  1.
         12    1    3    3    0    0 -0.88940389293E+01 -0.15684165262E+01  0.59210355536E+01  0.10799190752E+02  0.00000000000E+00 0. -1.
</event>
<event>
 7    1  0.1384886E-010  0.4778727E+02  0.7816164E-02  0.1312668E+00
        -11   -1    0    0    0    0  0.00000000000E+00  0.00000000000E+00  0.45593999997E+02  0.45594000000E+02  0.51100000000E-03 0. -1.
         11   -1    0    0    0    0 -0.00000000000E+00 -0.00000000000E+00 -0.45593999997E+02  0.45594000000E+02  0.51100000000E-03 0.  1.
    9900012    2    1    2    0    0  0.38691130052E+02 -0.17552891258E+02  0.88609088562E+01  0.47787271412E+02  0.20000001678E+02 0.  0.
         12    1    1    2    0    0 -0.38691130052E+02  0.17552891258E+02 -0.88609088562E+01  0.43400728588E+02  0.00000000000E+00 0. -1.
         11    1    3    3    0    0  0.98862503723E+01  0.35804390520E+01  0.40295861428E+01  0.11260331033E+02  0.51100000000E-03 0. -1.
        -11    1    3    3    0    0  0.17988677497E+02 -0.97053728173E+01  0.19771967436E+01  0.20535240121E+02  0.51100000000E-03 0.  1.
         12    1    3    3    0    0  0.10816202183E+02 -0.11427957492E+02  0.28541259697E+01  0.15991700258E+02  0.00000000000E+00 0. -1.
</event>
<event>
 7    1  0.1384886E-010  0.4778727E+02  0.7816164E-02  0.1312668E+00
        -11   -1    0    0    0    0  0.00000000000E+00  0.00000000000E+00  0.45593999997E+02  0.45594000000E+02  0.51100000000E-03 0.  1.
         11   -1    0    0    0    0 -0.00000000000E+00 -0.00000000000E+00 -0.45593999997E+02  0.45594000000E+02  0.51100000000E-03 0. -1.
    9900012    2    1    2    0    0 -0.26048387923E+02 -0.21964589698E+02  0.26882366116E+02  0.47787270490E+02  0.19999997473E+02 0.  0.
         12    1    1    2    0    0  0.26048387923E+02  0.21964589698E+02 -0.26882366116E+02  0.43400729510E+02  0.00000000000E+00 0. -1.
         11    1    3    3    0    0 -0.56553211213E+00 -0.49644079588E+01  0.43785700734E+01  0.66435720136E+01  0.51100000000E-03 0. -1.
        -11    1    3    3    0    0 -0.16758804038E+02 -0.49446463101E+01  0.19083920766E+02  0.25874757429E+02  0.51100000000E-03 0.  1.
         12    1    3    3    0    0 -0.87240517729E+01 -0.12055535429E+02  0.34198752765E+01  0.15268941048E+02  0.00000000000E+00 0. -1.
</event>
<event>
 7    1  0.1384886E-010  0.4778727E+02  0.7816164E-02  0.1312668E+00
        -11   -1    0    0    0    0  0.00000000000E+00  0.00000000000E+00  0.45593999997E+02  0.45594000000E+02  0.51100000000E-03 0.  1.
         11   -1    0    0    0    0 -0.00000000000E+00 -0.00000000000E+00 -0.45593999997E+02  0.45594000000E+02  0.51100000000E-03 0. -1.
    9900012    2    1    2    0    0 -0.23891485851E+02  0.35644903136E+02 -0.65008880033E+01  0.47787265437E+02  0.19999974435E+02 0.  0.
         12    1    1    2    0    0  0.23891485851E+02 -0.35644903136E+02  0.65008880033E+01  0.43400734563E+02  0.00000000000E+00 0. -1.
         11    1    3    3    0    0 -0.10475001247E+02  0.43475197672E+01 -0.24436930543E+01  0.11601647092E+02  0.51100000000E-03 0. -1.
        -11    1    3    3    0    0 -0.42743213404E+01  0.17744508372E+01 -0.24531736228E+01  0.52379919606E+01  0.51100000000E-03 0.  1.
        -12    1    3    3    0    0 -0.91421632636E+01  0.29522932532E+02 -0.16040213262E+01  0.30947626384E+02  0.00000000000E+00 0.  1.
</event>
<event>
 7    1  0.1384886E-010  0.4778727E+02  0.7816164E-02  0.1312668E+00
        -11   -1    0    0    0    0  0.00000000000E+00  0.00000000000E+00  0.45593999997E+02  0.45594000000E+02  0.51100000000E-03 0.  1.
         11   -1    0    0    0    0 -0.00000000000E+00 -0.00000000000E+00 -0.45593999997E+02  0.45594000000E+02  0.51100000000E-03 0. -1.
    9900012    2    1    2    0    0 -0.83870467656E+01  0.12828085108E+02  0.40604446937E+02  0.47787269223E+02  0.19999991694E+02 0.  0.
         12    1    1    2    0    0  0.83870467656E+01 -0.12828085108E+02 -0.40604446937E+02  0.43400730777E+02  0.00000000000E+00 0. -1.
         11    1    3    3    0    0  0.43931503367E+01  0.31591262354E+01  0.11016899993E+02  0.12274034959E+02  0.51100000000E-03 0. -1.
        -11    1    3    3    0    0 -0.17587676392E+01  0.81860585999E+01  0.10589990722E+02  0.13500100842E+02  0.51100000000E-03 0.  1.
         12    1    3    3    0    0 -0.11021429463E+02  0.14829002723E+01  0.18997556222E+02  0.22013133422E+02  0.00000000000E+00 0. -1.
</event>
<event>
 7    1  0.1384886E-010  0.4778727E+02  0.7816164E-02  0.1312668E+00
        -11   -1    0    0    0    0  0.00000000000E+00  0.00000000000E+00  0.45593999997E+02  0.45594000000E+02  0.51100000000E-03 0. -1.
         11   -1    0    0    0    0 -0.00000000000E+00 -0.00000000000E+00 -0.45593999997E+02  0.45594000000E+02  0.51100000000E-03 0.  1.
    9900012    2    1    2    0    0  0.28635439042E+02  0.18909421891E+02 -0.26571948352E+02  0.47787273685E+02  0.20000012041E+02 0.  0.
         12    1    1    2    0    0 -0.28635439042E+02 -0.18909421891E+02  0.26571948352E+02  0.43400726315E+02  0.00000000000E+00 0. -1.
         11    1    3    3    0    0  0.93099536195E+01  0.39854845888E+01 -0.11320548372E+01  0.10190234159E+02  0.51100000000E-03 0. -1.
        -11    1    3    3    0    0  0.20568643016E+02  0.10571651305E+02 -0.20605828292E+02  0.30974651680E+02  0.51100000000E-03 0.  1.
        -12    1    3    3    0    0 -0.12431575930E+01  0.43522859972E+01 -0.48340652236E+01  0.66223878464E+01  0.00000000000E+00 0.  1.
</event>
<event>
 7    1  0.1384886E-010  0.4778727E+02  0.7816164E-02  0.1312668E+00
        -11   -1    0    0    0    0  0.00000000000E+00  0.00000000000E+00  0.45593999997E+02  0.45594000000E+02  0.51100000000E-03 0. -1.
         11   -1    0    0    0    0 -0.00000000000E+00 -0.00000000000E+00 -0.45593999997E+02  0.45594000000E+02  0.51100000000E-03 0.  1.
    9900012    2    1    2    0    0 -0.27639708501E+02  0.29650329970E+02 -0.15508951448E+02  0.47787272720E+02  0.20000007641E+02 0.  0.
         12    1    1    2    0    0  0.27639708501E+02 -0.29650329970E+02  0.15508951448E+02  0.43400727280E+02  0.00000000000E+00 0. -1.
         11    1    3    3    0    0  0.27514939469E+00  0.10908064339E+00  0.10186695281E+00  0.31302222502E+00  0.51100000000E-03 0. -1.
        -11    1    3    3    0    0 -0.90939808055E+01  0.34719644904E+01 -0.11488320201E+02  0.15057772930E+02  0.51100000000E-03 0.  1.
         12    1    3    3    0    0 -0.18820877091E+02  0.26069284836E+02 -0.41224981999E+01  0.32416477565E+02  0.00000000000E+00 0. -1.
</event>
<event>
 7    1  0.1384886E-010  0.4778727E+02  0.7816164E-02  0.1312668E+00
        -11   -1    0    0    0    0  0.00000000000E+00  0.00000000000E+00  0.45593999997E+02  0.45594000000E+02  0.51100000000E-03 0.  1.
         11   -1    0    0    0    0 -0.00000000000E+00 -0.00000000000E+00 -0.45593999997E+02  0.45594000000E+02  0.51100000000E-03 0. -1.
    9900012    2    1    2    0    0  0.20912910886E+02  0.18790493603E+02  0.33063434583E+02  0.47787271918E+02  0.20000003983E+02 0.  0.
         12    1    1    2    0    0 -0.20912910886E+02 -0.18790493603E+02 -0.33063434583E+02  0.43400728082E+02  0.00000000000E+00 0. -1.
         11    1    3    3    0    0  0.15120986448E+02  0.30391847081E+01  0.13869004557E+02  0.20741990322E+02  0.51100000000E-03 0. -1.
        -11    1    3    3    0    0  0.14150267377E+01  0.39516006883E+01  0.11623764478E+02  0.12358371639E+02  0.51100000000E-03 0.  1.
         12    1    3    3    0    0  0.43768977000E+01  0.11799708207E+02  0.75706655494E+01  0.14686909958E+02  0.00000000000E+00 0. -1.
</event>
<event>
 7    1  0.1384886E-010  0.4778728E+02  0.7816164E-02  0.1312668E+00
        -11   -1    0    0    0    0  0.00000000000E+00  0.00000000000E+00  0.45593999997E+02  0.45594000000E+02  0.51100000000E-03 0.  1.
         11   -1    0    0    0    0 -0.00000000000E+00 -0.00000000000E+00 -0.45593999997E+02  0.45594000000E+02  0.51100000000E-03 0. -1.
    9900012    2    1    2    0    0  0.36843701216E+00  0.40859139678E+02  0.14629340430E+02  0.47787278318E+02  0.20000033165E+02 0.  0.
         12    1    1    2    0    0 -0.36843701216E+00 -0.40859139678E+02 -0.14629340430E+02  0.43400721682E+02  0.00000000000E+00 0. -1.
         11    1    3    3    0    0 -0.42530521320E+01  0.58738391182E+01 -0.11600578957E+01  0.73441250675E+01  0.51100000000E-03 0. -1.
        -11    1    3    3    0    0  0.36243114132E+01  0.13404332265E+02  0.12318235223E+02  0.18562076283E+02  0.51100000000E-03 0.  1.
         12    1    3    3    0    0  0.99717773101E+00  0.21580968295E+02  0.34711631027E+01  0.21881076967E+02  0.00000000000E+00 0. -1.
</event>
<event>
 7    1  0.1384886E-010  0.4778727E+02  0.7816164E-02  0.1312668E+00
        -11   -1    0    0    0    0  0.00000000000E+00  0.00000000000E+00  0.45593999997E+02  0.45594000000E+02  0.51100000000E-03 0. -1.
         11   -1    0    0    0    0 -0.00000000000E+00 -0.00000000000E+00 -0.45593999997E+02  0.45594000000E+02  0.51100000000E-03 0.  1.
    9900012    2    1    2    0    0 -0.26034111703E+02 -0.32763084388E+02  0.11507765803E+02  0.47787270230E+02  0.19999996287E+02 0.  0.
         12    1    1    2    0    0  0.26034111703E+02  0.32763084388E+02 -0.11507765803E+02  0.43400729770E+02  0.00000000000E+00 0. -1.
         11    1    3    3    0    0  0.58651914174E+00 -0.32497916604E+01  0.33911042645E+01  0.47333644412E+01  0.51100000000E-03 0.  1.
        -11    1    3    3    0    0 -0.11211463414E+02 -0.80937386043E+01 -0.34377330761E+01  0.14248632406E+02  0.51100000000E-03 0. -1.
         12    1    3    3    0    0 -0.15409167430E+02 -0.21419554124E+02  0.11554394615E+02  0.28805273383E+02  0.00000000000E+00 0. -1.
</event>
<event>
 7    1  0.1384886E-010  0.4778727E+02  0.7816164E-02  0.1312668E+00
        -11   -1    0    0    0    0  0.00000000000E+00  0.00000000000E+00  0.45593999997E+02  0.45594000000E+02  0.51100000000E-03 0.  1.
         11   -1    0    0    0    0 -0.00000000000E+00 -0.00000000000E+00 -0.45593999997E+02  0.45594000000E+02  0.51100000000E-03 0. -1.
    9900012    2    1    2    0    0  0.18676207138E+02 -0.11178355136E+02  0.37548190454E+02  0.47787274857E+02  0.20000017382E+02 0.  0.
         12    1    1    2    0    0 -0.18676207138E+02  0.11178355136E+02 -0.37548190454E+02  0.43400725143E+02  0.00000000000E+00 0. -1.
         11    1    3    3    0    0  0.76655407362E+00 -0.95845319361E+01  0.66032274594E+01  0.11664196103E+02  0.51100000000E-03 0. -1.
        -11    1    3    3    0    0  0.87462926654E+01 -0.83300555871E+00  0.10400047471E+02  0.13614423283E+02  0.51100000000E-03 0.  1.
        -12    1    3    3    0    0  0.91633603990E+01 -0.76081764135E+00  0.20544915523E+02  0.22508655471E+02  0.00000000000E+00 0.  1.
</event>
<event>
 7    1  0.1384886E-010  0.4778728E+02  0.7816164E-02  0.1312668E+00
        -11   -1    0    0    0    0  0.00000000000E+00  0.00000000000E+00  0.45593999997E+02  0.45594000000E+02  0.51100000000E-03 0.  1.
         11   -1    0    0    0    0 -0.00000000000E+00 -0.00000000000E+00 -0.45593999997E+02  0.45594000000E+02  0.51100000000E-03 0. -1.
    9900012    2    1    2    0    0 -0.33654487404E+02 -0.25512174142E+02  0.10006356068E+02  0.47787277499E+02  0.20000029428E+02 0.  0.
         12    1    1    2    0    0  0.33654487404E+02  0.25512174142E+02 -0.10006356068E+02  0.43400722501E+02  0.00000000000E+00 0. -1.
         11    1    3    3    0    0 -0.55177571008E+01 -0.15575260184E+01 -0.36311910774E+01  0.67865366442E+01  0.51100000000E-03 0. -1.
        -11    1    3    3    0    0  0.34356890224E+00 -0.30412130798E+01  0.25031316605E+01  0.39538190346E+01  0.51100000000E-03 0.  1.
        -12    1    3    3    0    0 -0.28480299206E+02 -0.20913435043E+02  0.11134415484E+02  0.37046921820E+02  0.00000000000E+00 0.  1.
</event>
<event>
 7    1  0.1384886E-010  0.4778728E+02  0.7816164E-02  0.1312668E+00
        -11   -1    0    0    0    0  0.00000000000E+00  0.00000000000E+00  0.45593999997E+02  0.45594000000E+02  0.51100000000E-03 0. -1.
         11   -1    0    0    0    0 -0.00000000000E+00 -0.00000000000E+00 -0.45593999997E+02  0.45594000000E+02  0.51100000000E-03 0.  1.
    9900012    2    1    2    0    0 -0.12742606835E+02 -0.36790683877E+02 -0.19175352434E+02  0.47787278922E+02  0.20000035919E+02 0.  0.
         12    1    1    2    0    0  0.12742606835E+02  0.36790683877E+02  0.19175352434E+02  0.43400721078E+02  0.00000000000E+00 0. -1.
         11    1    3    3    0    0 -0.55280708781E+01 -0.16426178535E+01  0.70958569053E+00  0.58104451774E+01  0.51100000000E-03 0. -1.
        -11    1    3    3    0    0  0.82517887880E+00  0.81416326859E-01 -0.35936119851E+00  0.90370876526E+00  0.51100000000E-03 0.  1.
        -12    1    3    3    0    0 -0.80397148360E+01 -0.35229482350E+02 -0.19525576926E+02  0.41073124980E+02  0.00000000000E+00 0.  1.
</event>
<event>
 7    1  0.1384886E-010  0.4778727E+02  0.7816164E-02  0.1312668E+00
        -11   -1    0    0    0    0  0.00000000000E+00  0.00000000000E+00  0.45593999997E+02  0.45594000000E+02  0.51100000000E-03 0. -1.
         11   -1    0    0    0    0 -0.00000000000E+00 -0.00000000000E+00 -0.45593999997E+02  0.45594000000E+02  0.51100000000E-03 0.  1.
    9900012    2    1    2    0    0 -0.21070899086E+02  0.30639828048E+02 -0.22379498189E+02  0.47787265095E+02  0.19999972875E+02 0.  0.
         12    1    1    2    0    0  0.21070899086E+02 -0.30639828048E+02  0.22379498189E+02  0.43400734905E+02  0.00000000000E+00 0. -1.
         11    1    3    3    0    0 -0.71318455554E+01  0.22899660202E+02 -0.16572928970E+02  0.29153381164E+02  0.51100000000E-03 0. -1.
        -11    1    3    3    0    0 -0.26413075684E+00 -0.11690449322E+01 -0.11512299440E+01  0.16618549140E+01  0.51100000000E-03 0.  1.
         12    1    3    3    0    0 -0.13674922774E+02  0.89092127781E+01 -0.46553392752E+01  0.16972029017E+02  0.00000000000E+00 0. -1.
</event>
<event>
 7    1  0.1384886E-010  0.4778727E+02  0.7816164E-02  0.1312668E+00
        -11   -1    0    0    0    0  0.00000000000E+00  0.00000000000E+00  0.45593999997E+02  0.45594000000E+02  0.51100000000E-03 0.  1.
         11   -1    0    0    0    0 -0.00000000000E+00 -0.00000000000E+00 -0.45593999997E+02  0.45594000000E+02  0.51100000000E-03 0. -1.
    9900012    2    1    2    0    0  0.26427791168E+02  0.33881820903E+02  0.61005982077E+01  0.47787271525E+02  0.20000002189E+02 0.  0.
         12    1    1    2    0    0 -0.26427791168E+02 -0.33881820903E+02 -0.61005982077E+01  0.43400728475E+02  0.00000000000E+00 0. -1.
         11    1    3    3    0    0  0.29118987142E+01  0.20317424373E+01 -0.52690386037E+01  0.63537311496E+01  0.51100000000E-03 0. -1.
        -11    1    3    3    0    0  0.10806693496E+02  0.18194468084E+02  0.52885611921E+01  0.21812660839E+02  0.51100000000E-03 0.  1.
        -12    1    3    3    0    0  0.12709198958E+02  0.13655610382E+02  0.60810756193E+01  0.19620879535E+02  0.00000000000E+00 0.  1.
</event>
<event>
 7    1  0.1384886E-010  0.4778727E+02  0.7816164E-02  0.1312668E+00
        -11   -1    0    0    0    0  0.00000000000E+00  0.00000000000E+00  0.45593999997E+02  0.45594000000E+02  0.51100000000E-03 0.  1.
         11   -1    0    0    0    0 -0.00000000000E+00 -0.00000000000E+00 -0.45593999997E+02  0.45594000000E+02  0.51100000000E-03 0. -1.
    9900012    2    1    2    0    0  0.31872017235E+01  0.15274972634E+02  0.40498642892E+02  0.47787272818E+02  0.20000008088E+02 0.  0.
         12    1    1    2    0    0 -0.31872017235E+01 -0.15274972634E+02 -0.40498642892E+02  0.43400727182E+02  0.00000000000E+00 0. -1.
         11    1    3    3    0    0 -0.37405203042E+01  0.65612845840E+01  0.70374529768E+01  0.10323162897E+02  0.51100000000E-03 0. -1.
        -11    1    3    3    0    0  0.62950685082E+01  0.11567521634E+02  0.22040439337E+02  0.25675210042E+02  0.51100000000E-03 0.  1.
        -12    1    3    3    0    0  0.63265351954E+00 -0.28538335833E+01  0.11420750578E+02  0.11788899879E+02  0.00000000000E+00 0.  1.
</event>
<event>
 7    1  0.1384886E-010  0.4778727E+02  0.7816164E-02  0.1312668E+00
        -11   -1    0    0    0    0  0.00000000000E+00  0.00000000000E+00  0.45593999997E+02  0.45594000000E+02  0.51100000000E-03 0. -1.
         11   -1    0    0    0    0 -0.00000000000E+00 -0.00000000000E+00 -0.45593999997E+02  0.45594000000E+02  0.51100000000E-03 0.  1.
    9900012    2    1    2    0    0 -0.28823035381E+02 -0.43598719000E+01 -0.32153501981E+02  0.47787267964E+02  0.19999985957E+02 0.  0.
         12    1    1    2    0    0  0.28823035381E+02  0.43598719000E+01  0.32153501981E+02  0.43400732036E+02  0.00000000000E+00 0. -1.
         11    1    3    3    0    0 -0.66807446232E+01  0.61316041379E+01 -0.29592601947E+01  0.95386654824E+01  0.51100000000E-03 0.  1.
        -11    1    3    3    0    0 -0.93761857547E+01 -0.59637269690E+01 -0.14420560907E+02  0.18205259564E+02  0.51100000000E-03 0. -1.
        -12    1    3    3    0    0 -0.12766105003E+02 -0.45277490688E+01 -0.14773680879E+02  0.20043342918E+02  0.00000000000E+00 0.  1.
</event>
<event>
 7    1  0.1384886E-010  0.4778727E+02  0.7816164E-02  0.1312668E+00
        -11   -1    0    0    0    0  0.00000000000E+00  0.00000000000E+00  0.45593999997E+02  0.45594000000E+02  0.51100000000E-03 0.  1.
         11   -1    0    0    0    0 -0.00000000000E+00 -0.00000000000E+00 -0.45593999997E+02  0.45594000000E+02  0.51100000000E-03 0. -1.
    9900012    2    1    2    0    0 -0.10972716675E+02 -0.15142853256E+02  0.39165248831E+02  0.47787271527E+02  0.20000002199E+02 0.  0.
         12    1    1    2    0    0  0.10972716675E+02  0.15142853256E+02 -0.39165248831E+02  0.43400728473E+02  0.00000000000E+00 0. -1.
         11    1    3    3    0    0  0.67065176808E+00  0.33428978110E+01  0.97987268204E+00  0.35475188939E+01  0.51100000000E-03 0. -1.
        -11    1    3    3    0    0 -0.37877755448E+01 -0.69670588267E+01  0.18392388033E+02  0.20029156000E+02  0.51100000000E-03 0.  1.
         12    1    3    3    0    0 -0.78555928986E+01 -0.11518692240E+02  0.19792988116E+02  0.24210596632E+02  0.00000000000E+00 0. -1.
</event>
<event>
 7    1  0.1384886E-010  0.4778727E+02  0.7816164E-02  0.1312668E+00
        -11   -1    0    0    0    0  0.00000000000E+00  0.00000000000E+00  0.45593999997E+02  0.45594000000E+02  0.51100000000E-03 0.  1.
         11   -1    0    0    0    0 -0.00000000000E+00 -0.00000000000E+00 -0.45593999997E+02  0.45594000000E+02  0.51100000000E-03 0. -1.
    9900012    2    1    2    0    0  0.10596111428E+02 -0.38952122754E+02  0.15939815388E+02  0.47787272367E+02  0.20000006032E+02 0.  0.
         12    1    1    2    0    0 -0.10596111428E+02  0.38952122754E+02 -0.15939815388E+02  0.43400727633E+02  0.00000000000E+00 0. -1.
         11    1    3    3    0    0 -0.30550913090E+01 -0.10014315549E+02  0.23883387095E+01  0.10738913393E+02  0.51100000000E-03 0.  1.
        -11    1    3    3    0    0  0.41733034290E+01 -0.95362330466E+00  0.43497693735E+01  0.61029790087E+01  0.51100000000E-03 0. -1.
        -12    1    3    3    0    0  0.94778993085E+01 -0.27984183900E+02  0.92017073054E+01  0.30945379965E+02  0.00000000000E+00 0.  1.
</event>
<event>
 7    1  0.1384886E-010  0.4778727E+02  0.7816164E-02  0.1312668E+00
        -11   -1    0    0    0    0  0.00000000000E+00  0.00000000000E+00  0.45593999997E+02  0.45594000000E+02  0.51100000000E-03 0. -1.
         11   -1    0    0    0    0 -0.00000000000E+00 -0.00000000000E+00 -0.45593999997E+02  0.45594000000E+02  0.51100000000E-03 0.  1.
    9900012    2    1    2    0    0  0.21174081725E+02 -0.14726923266E+02 -0.34905583773E+02  0.47787265164E+02  0.19999973188E+02 0.  0.
         12    1    1    2    0    0 -0.21174081725E+02  0.14726923266E+02  0.34905583773E+02  0.43400734836E+02  0.00000000000E+00 0. -1.
         11    1    3    3    0    0  0.20404114172E+01 -0.26929501989E+01 -0.14306883217E+02  0.14700413843E+02  0.51100000000E-03 0. -1.
        -11    1    3    3    0    0  0.17497617112E+02 -0.12755943347E+02 -0.21959337558E+02  0.30839798986E+02  0.51100000000E-03 0.  1.
         12    1    3    3    0    0  0.16360531954E+01  0.72197028008E+00  0.13606370012E+01  0.22470523342E+01  0.00000000000E+00 0. -1.
</event>
<event>
 7    1  0.1384886E-010  0.4778727E+02  0.7816164E-02  0.1312668E+00
        -11   -1    0    0    0    0  0.00000000000E+00  0.00000000000E+00  0.45593999997E+02  0.45594000000E+02  0.51100000000E-03 0.  1.
         11   -1    0    0    0    0 -0.00000000000E+00 -0.00000000000E+00 -0.45593999997E+02  0.45594000000E+02  0.51100000000E-03 0. -1.
    9900012    2    1    2    0    0 -0.35418042709E+01  0.27921224918E+02  0.33037616654E+02  0.47787270828E+02  0.19999999015E+02 0.  0.
         12    1    1    2    0    0  0.35418042709E+01 -0.27921224918E+02 -0.33037616654E+02  0.43400729172E+02  0.00000000000E+00 0. -1.
         11    1    3    3    0    0 -0.48622405190E+01  0.13923786900E+02  0.39781633992E+01  0.15275438088E+02  0.51100000000E-03 0. -1.
        -11    1    3    3    0    0  0.18005717630E+01  0.26011715518E+01  0.68109548714E+01  0.75098108256E+01  0.51100000000E-03 0.  1.
         12    1    3    3    0    0 -0.48013551494E+00  0.11396266467E+02  0.22248498383E+02  0.25002021914E+02  0.00000000000E+00 0. -1.
</event>
<event>
 7    1  0.1384886E-010  0.4778727E+02  0.7816164E-02  0.1312668E+00
        -11   -1    0    0    0    0  0.00000000000E+00  0.00000000000E+00  0.45593999997E+02  0.45594000000E+02  0.51100000000E-03 0.  1.
         11   -1    0    0    0    0 -0.00000000000E+00 -0.00000000000E+00 -0.45593999997E+02  0.45594000000E+02  0.51100000000E-03 0. -1.
    9900012    2    1    2    0    0  0.39886008670E+01 -0.20243620550E+02  0.38182592527E+02  0.47787268647E+02  0.19999989071E+02 0.  0.
         12    1    1    2    0    0 -0.39886008670E+01  0.20243620550E+02 -0.38182592527E+02  0.43400731353E+02  0.00000000000E+00 0. -1.
         11    1    3    3    0    0 -0.47028780579E+00 -0.79343188120E+01  0.13604064875E+01  0.80638261206E+01  0.51100000000E-03 0. -1.
        -11    1    3    3    0    0  0.24593004985E+01 -0.19406765998E+00  0.85744501137E+01  0.89222764030E+01  0.51100000000E-03 0.  1.
         12    1    3    3    0    0  0.19995881743E+01 -0.12115234078E+02  0.28247735926E+02  0.30801166124E+02  0.00000000000E+00 0. -1.
</event>
<event>
 7    1  0.1384886E-010  0.4778727E+02  0.7816164E-02  0.1312668E+00
        -11   -1    0    0    0    0  0.00000000000E+00  0.00000000000E+00  0.45593999997E+02  0.45594000000E+02  0.51100000000E-03 0.  1.
         11   -1    0    0    0    0 -0.00000000000E+00 -0.00000000000E+00 -0.45593999997E+02  0.45594000000E+02  0.51100000000E-03 0. -1.
    9900012    2    1    2    0    0 -0.34968015859E+02  0.25125221648E+02  0.54391495565E+01  0.47787271390E+02  0.20000001575E+02 0.  0.
         12    1    1    2    0    0  0.34968015859E+02 -0.25125221648E+02 -0.54391495565E+01  0.43400728610E+02  0.00000000000E+00 0. -1.
         11    1    3    3    0    0 -0.31884628843E+02  0.15062314829E+02  0.22748539144E+01  0.35336636018E+02  0.51100000000E-03 0. -1.
        -11    1    3    3    0    0 -0.27733064814E+01  0.42853515956E+01 -0.11511469858E+01  0.52326481614E+01  0.51100000000E-03 0.  1.
         12    1    3    3    0    0 -0.31008053463E+00  0.57775552234E+01  0.43154426279E+01  0.72179872106E+01  0.00000000000E+00 0. -1.
</event>
<event>
 7    1  0.1384886E-010  0.4778728E+02  0.7816164E-02  0.1312668E+00
        -11   -1    0    0    0    0  0.00000000000E+00  0.00000000000E+00  0.45593999997E+02  0.45594000000E+02  0.51100000000E-03 0.  1.
         11   -1    0    0    0    0 -0.00000000000E+00 -0.00000000000E+00 -0.45593999997E+02  0.45594000000E+02  0.51100000000E-03 0. -1.
    9900012    2    1    2    0    0  0.16112493771E+02 -0.24661863129E+02  0.31871661061E+02  0.47787277341E+02  0.20000028708E+02 0.  0.
         12    1    1    2    0    0 -0.16112493771E+02  0.24661863129E+02 -0.31871661061E+02  0.43400722659E+02  0.00000000000E+00 0. -1.
         11    1    3    3    0    0  0.73575331463E+01 -0.12957608454E+02  0.19867036285E+02  0.24834090317E+02  0.51100000000E-03 0. -1.
        -11    1    3    3    0    0  0.38583026830E+01 -0.13727980159E+02  0.85103698327E+01  0.16606334147E+02  0.51100000000E-03 0.  1.
         12    1    3    3    0    0  0.48966579418E+01  0.20237254845E+01  0.34942549440E+01  0.63468528776E+01  0.00000000000E+00 0. -1.
</event>
<event>
 7    1  0.1384886E-010  0.4778727E+02  0.7816164E-02  0.1312668E+00
        -11   -1    0    0    0    0  0.00000000000E+00  0.00000000000E+00  0.45593999997E+02  0.45594000000E+02  0.51100000000E-03 0.  1.
         11   -1    0    0    0    0 -0.00000000000E+00 -0.00000000000E+00 -0.45593999997E+02  0.45594000000E+02  0.51100000000E-03 0. -1.
    9900012    2    1    2    0    0 -0.28251152890E+02 -0.18089127223E+01  0.32897166211E+02  0.47787270172E+02  0.19999996023E+02 0.  0.
         12    1    1    2    0    0  0.28251152890E+02  0.18089127223E+01 -0.32897166211E+02  0.43400729828E+02  0.00000000000E+00 0. -1.
         11    1    3    3    0    0 -0.13984168764E+02  0.66106014206E+01  0.15853111689E+02  0.22148999473E+02  0.51100000000E-03 0. -1.
        -11    1    3    3    0    0 -0.42864412168E+01 -0.20273847611E+01 -0.16287965259E+00  0.47445123371E+01  0.51100000000E-03 0.  1.
        -12    1    3    3    0    0 -0.99805429091E+01 -0.63921293818E+01  0.17206934175E+02  0.20893758362E+02  0.00000000000E+00 0.  1.
</event>
<event>
 7    1  0.1384886E-010  0.4778727E+02  0.7816164E-02  0.1312668E+00
        -11   -1    0    0    0    0  0.00000000000E+00  0.00000000000E+00  0.45593999997E+02  0.45594000000E+02  0.51100000000E-03 0.  1.
         11   -1    0    0    0    0 -0.00000000000E+00 -0.00000000000E+00 -0.45593999997E+02  0.45594000000E+02  0.51100000000E-03 0. -1.
    9900012    2    1    2    0    0 -0.42644305133E+02  0.27546381550E+01  0.75827668548E+01  0.47787272532E+02  0.20000006781E+02 0.  0.
         12    1    1    2    0    0  0.42644305133E+02 -0.27546381550E+01 -0.75827668548E+01  0.43400727468E+02  0.00000000000E+00 0. -1.
         11    1    3    3    0    0 -0.15690981501E+02 -0.19753511075E+01  0.50336865919E+01  0.16596593428E+02  0.51100000000E-03 0.  1.
        -11    1    3    3    0    0 -0.22972886348E+02 -0.16204672856E+01 -0.65601691540E+00  0.23039309448E+02  0.51100000000E-03 0. -1.
         12    1    3    3    0    0 -0.39804372838E+01  0.63504565481E+01  0.32050971783E+01  0.81513696556E+01  0.00000000000E+00 0. -1.
</event>
<event>
 7    1  0.1384886E-010  0.4778727E+02  0.7816164E-02  0.1312668E+00
        -11   -1    0    0    0    0  0.00000000000E+00  0.00000000000E+00  0.45593999997E+02  0.45594000000E+02  0.51100000000E-03 0.  1.
         11   -1    0    0    0    0 -0.00000000000E+00 -0.00000000000E+00 -0.45593999997E+02  0.45594000000E+02  0.51100000000E-03 0. -1.
    9900012    2    1    2    0    0  0.15909752194E+02  0.13057910321E+02  0.38209868555E+02  0.47787270838E+02  0.19999999060E+02 0.  0.
         12    1    1    2    0    0 -0.15909752194E+02 -0.13057910321E+02 -0.38209868555E+02  0.43400729162E+02  0.00000000000E+00 0. -1.
         11    1    3    3    0    0  0.11031416992E+01  0.22416608037E+01 -0.29474811031E+00  0.25157188787E+01  0.51100000000E-03 0. -1.
        -11    1    3    3    0    0 -0.21444270255E+01  0.13405487381E+01  0.47877693264E+00  0.25738814657E+01  0.51100000000E-03 0.  1.
        -12    1    3    3    0    0  0.16951037520E+02  0.94757007791E+01  0.38025839732E+02  0.42697670494E+02  0.00000000000E+00 0.  1.
</event>
<event>
 7    1  0.1384886E-010  0.4778727E+02  0.7816164E-02  0.1312668E+00
        -11   -1    0    0    0    0  0.00000000000E+00  0.00000000000E+00  0.45593999997E+02  0.45594000000E+02  0.51100000000E-03 0.  1.
         11   -1    0    0    0    0 -0.00000000000E+00 -0.00000000000E+00 -0.45593999997E+02  0.45594000000E+02  0.51100000000E-03 0. -1.
    9900012    2    1    2    0    0 -0.19741129458E+02  0.32063774638E+02  0.21583000459E+02  0.47787265615E+02  0.19999975244E+02 0.  0.
         12    1    1    2    0    0  0.19741129458E+02 -0.32063774638E+02 -0.21583000459E+02  0.43400734385E+02  0.00000000000E+00 0. -1.
         11    1    3    3    0    0 -0.10208789414E+02  0.40519139468E+01  0.59136635515E+01  0.12474325825E+02  0.51100000000E-03 0. -1.
        -11    1    3    3    0    0 -0.11549259944E+02  0.20750993332E+02  0.14089064180E+02  0.27613237030E+02  0.51100000000E-03 0.  1.
         12    1    3    3    0    0  0.20169199001E+01  0.72608673591E+01  0.15802727277E+01  0.76997027595E+01  0.00000000000E+00 0. -1.
</event>
<event>
 7    1  0.1384886E-010  0.4778727E+02  0.7816164E-02  0.1312668E+00
        -11   -1    0    0    0    0  0.00000000000E+00  0.00000000000E+00  0.45593999997E+02  0.45594000000E+02  0.51100000000E-03 0.  1.
         11   -1    0    0    0    0 -0.00000000000E+00 -0.00000000000E+00 -0.45593999997E+02  0.45594000000E+02  0.51100000000E-03 0. -1.
    9900012    2    1    2    0    0 -0.35579573202E+01 -0.25662560954E+02  0.34819498557E+02  0.47787267578E+02  0.19999984194E+02 0.  0.
         12    1    1    2    0    0  0.35579573202E+01  0.25662560954E+02 -0.34819498557E+02  0.43400732422E+02  0.00000000000E+00 0. -1.
         11    1    3    3    0    0 -0.20305579251E+01 -0.62803529430E+01  0.16174115635E+02  0.17469058801E+02  0.51100000000E-03 0. -1.
        -11    1    3    3    0    0  0.57560110706E+01 -0.11287027559E+02  0.74386872683E+01  0.14692267460E+02  0.51100000000E-03 0.  1.
         12    1    3    3    0    0 -0.72834104657E+01 -0.80951804522E+01  0.11206695654E+02  0.15625941317E+02  0.00000000000E+00 0. -1.
</event>
<event>
 7    1  0.1384886E-010  0.4778727E+02  0.7816164E-02  0.1312668E+00
        -11   -1    0    0    0    0  0.00000000000E+00  0.00000000000E+00  0.45593999997E+02  0.45594000000E+02  0.51100000000E-03 0.  1.
         11   -1    0    0    0    0 -0.00000000000E+00 -0.00000000000E+00 -0.45593999997E+02  0.45594000000E+02  0.51100000000E-03 0. -1.
    9900012    2    1    2    0    0  0.21793230277E+02  0.23548286655E+02  0.29225958863E+02  0.47787270032E+02  0.19999995385E+02 0.  0.
         12    1    1    2    0    0 -0.21793230277E+02 -0.23548286655E+02 -0.29225958863E+02  0.43400729968E+02  0.00000000000E+00 0. -1.
         11    1    3    3    0    0 -0.29753722590E+01  0.15078412408E+01  0.35149410103E+01  0.48457440970E+01  0.51100000000E-03 0. -1.
        -11    1    3    3    0    0  0.11204187933E+02  0.89819475185E+01  0.16829401980E+02  0.22123245235E+02  0.51100000000E-03 0.  1.
        -12    1    3    3    0    0  0.13564414603E+02  0.13058497896E+02  0.88816158730E+01  0.20818280701E+02  0.00000000000E+00 0.  1.
</event>
<event>
 7    1  0.1384886E-010  0.4778728E+02  0.7816164E-02  0.1312668E+00
        -11   -1    0    0    0    0  0.00000000000E+00  0.00000000000E+00  0.45593999997E+02  0.45594000000E+02  0.51100000000E-03 0.  1.
         11   -1    0    0    0    0 -0.00000000000E+00 -0.00000000000E+00 -0.45593999997E+02  0.45594000000E+02  0.51100000000E-03 0. -1.
    9900012    2    1    2    0    0  0.30012512112E+02 -0.27428946321E+02  0.15183043902E+02  0.47787276485E+02  0.20000024804E+02 0.  0.
         12    1    1    2    0    0 -0.30012512112E+02  0.27428946321E+02 -0.15183043902E+02  0.43400723515E+02  0.00000000000E+00 0. -1.
         11    1    3    3    0    0  0.95121281048E+01 -0.77548961971E+01 -0.16028703960E+01  0.12376921664E+02  0.51100000000E-03 0. -1.
        -11    1    3    3    0    0  0.22134238306E+02 -0.17474540329E+02  0.13933476661E+02  0.31455140076E+02  0.51100000000E-03 0.  1.
         12    1    3    3    0    0 -0.16338542985E+01 -0.21995097951E+01  0.28524376366E+01  0.39552147449E+01  0.00000000000E+00 0. -1.
</event>
<event>
 7    1  0.1384886E-010  0.4778727E+02  0.7816164E-02  0.1312668E+00
        -11   -1    0    0    0    0  0.00000000000E+00  0.00000000000E+00  0.45593999997E+02  0.45594000000E+02  0.51100000000E-03 0.  1.
         11   -1    0    0    0    0 -0.00000000000E+00 -0.00000000000E+00 -0.45593999997E+02  0.45594000000E+02  0.51100000000E-03 0. -1.
    9900012    2    1    2    0    0  0.18024984043E+02  0.19225912010E+02  0.34483147241E+02  0.47787272056E+02  0.20000004614E+02 0.  0.
         12    1    1    2    0    0 -0.18024984043E+02 -0.19225912010E+02 -0.34483147241E+02  0.43400727944E+02  0.00000000000E+00 0. -1.
         11    1    3    3    0    0 -0.14032693115E+01  0.11205263202E+02  0.10915327039E+02  0.15705777689E+02  0.51100000000E-03 0. -1.
        -11    1    3    3    0    0  0.81165085161E+01  0.52424065752E+01  0.74780688287E+01  0.12218103407E+02  0.51100000000E-03 0.  1.
         12    1    3    3    0    0  0.11311744839E+02  0.27782422329E+01  0.16089751373E+02  0.19863390961E+02  0.00000000000E+00 0. -1.
</event>
<event>
 7    1  0.1384886E-010  0.4778728E+02  0.7816164E-02  0.1312668E+00
        -11   -1    0    0    0    0  0.00000000000E+00  0.00000000000E+00  0.45593999997E+02  0.45594000000E+02  0.51100000000E-03 0.  1.
         11   -1    0    0    0    0 -0.00000000000E+00 -0.00000000000E+00 -0.45593999997E+02  0.45594000000E+02  0.51100000000E-03 0. -1.
    9900012    2    1    2    0    0  0.17710248396E+02 -0.29361646970E+02  0.26605703936E+02  0.47787277737E+02  0.20000030514E+02 0.  0.
         12    1    1    2    0    0 -0.17710248396E+02  0.29361646970E+02 -0.26605703936E+02  0.43400722263E+02  0.00000000000E+00 0. -1.
         11    1    3    3    0    0  0.14766837905E+02 -0.10780727489E+02  0.76537430990E+01  0.19820781281E+02  0.51100000000E-03 0. -1.
        -11    1    3    3    0    0  0.45174990537E+01 -0.15535803121E+02  0.11767231163E+02  0.20005916771E+02  0.51100000000E-03 0.  1.
        -12    1    3    3    0    0 -0.15740885627E+01 -0.30451163598E+01  0.71847296735E+01  0.79605796855E+01  0.00000000000E+00 0.  1.
</event>
<event>
 7    1  0.1384886E-010  0.4778727E+02  0.7816164E-02  0.1312668E+00
        -11   -1    0    0    0    0  0.00000000000E+00  0.00000000000E+00  0.45593999997E+02  0.45594000000E+02  0.51100000000E-03 0. -1.
         11   -1    0    0    0    0 -0.00000000000E+00 -0.00000000000E+00 -0.45593999997E+02  0.45594000000E+02  0.51100000000E-03 0.  1.
    9900012    2    1    2    0    0 -0.19471444255E+02  0.37437533777E+02 -0.10144815485E+02  0.47787270077E+02  0.19999995588E+02 0.  0.
         12    1    1    2    0    0  0.19471444255E+02 -0.37437533777E+02  0.10144815485E+02  0.43400729923E+02  0.00000000000E+00 0. -1.
         11    1    3    3    0    0 -0.19106495119E+01  0.16769795643E+02 -0.34315003883E+00  0.16881776556E+02  0.51100000000E-03 0. -1.
        -11    1    3    3    0    0 -0.82146782401E+01  0.15552365538E+02 -0.10032315938E+02  0.20248564783E+02  0.51100000000E-03 0.  1.
         12    1    3    3    0    0 -0.93461165030E+01  0.51153725958E+01  0.23065049256E+00  0.10656928738E+02  0.00000000000E+00 0. -1.
</event>
<event>
 7    1  0.1384886E-010  0.4778727E+02  0.7816164E-02  0.1312668E+00
        -11   -1    0    0    0    0  0.00000000000E+00  0.00000000000E+00  0.45593999997E+02  0.45594000000E+02  0.51100000000E-03 0.  1.
         11   -1    0    0    0    0 -0.00000000000E+00 -0.00000000000E+00 -0.45593999997E+02  0.45594000000E+02  0.51100000000E-03 0. -1.
    9900012    2    1    2    0    0 -0.19992789130E+02  0.36348992525E+02  0.12753931887E+02  0.47787266673E+02  0.19999980070E+02 0.  0.
         12    1    1    2    0    0  0.19992789130E+02 -0.36348992525E+02 -0.12753931887E+02  0.43400733327E+02  0.00000000000E+00 0. -1.
         11    1    3    3    0    0 -0.62644879090E+01  0.47072153743E+01 -0.31966280564E+01  0.84628669217E+01  0.51100000000E-03 0. -1.
        -11    1    3    3    0    0 -0.67327449892E+00  0.20178412760E+01 -0.14470125886E+01  0.25727082343E+01  0.51100000000E-03 0.  1.
        -12    1    3    3    0    0 -0.13055026722E+02  0.29623935874E+02  0.17397572532E+02  0.36751691517E+02  0.00000000000E+00 0.  1.
</event>
<event>
 7    1  0.1384886E-010  0.4778727E+02  0.7816164E-02  0.1312668E+00
        -11   -1    0    0    0    0  0.00000000000E+00  0.00000000000E+00  0.45593999997E+02  0.45594000000E+02  0.51100000000E-03 0.  1.
         11   -1    0    0    0    0 -0.00000000000E+00 -0.00000000000E+00 -0.45593999997E+02  0.45594000000E+02  0.51100000000E-03 0. -1.
    9900012    2    1    2    0    0 -0.18266106828E+02  0.36350682741E+02  0.15119540935E+02  0.47787270600E+02  0.19999997974E+02 0.  0.
         12    1    1    2    0    0  0.18266106828E+02 -0.36350682741E+02 -0.15119540935E+02  0.43400729400E+02  0.00000000000E+00 0. -1.
         11    1    3    3    0    0 -0.10094086324E+02  0.67727075867E+01  0.85680271058E+01  0.14871826906E+02  0.51100000000E-03 0. -1.
        -11    1    3    3    0    0  0.35183559721E+00 -0.68703932813E+00  0.42682701515E+00  0.88203905120E+00  0.51100000000E-03 0.  1.
        -12    1    3    3    0    0 -0.85238561008E+01  0.30265014482E+02  0.61246868138E+01  0.32033404643E+02  0.00000000000E+00 0.  1.
</event>
<event>
 7    1  0.1384886E-010  0.4778727E+02  0.7816164E-02  0.1312668E+00
        -11   -1    0    0    0    0  0.00000000000E+00  0.00000000000E+00  0.45593999997E+02  0.45594000000E+02  0.51100000000E-03 0.  1.
         11   -1    0    0    0    0 -0.00000000000E+00 -0.00000000000E+00 -0.45593999997E+02  0.45594000000E+02  0.51100000000E-03 0. -1.
    9900012    2    1    2    0    0  0.11125044042E+02 -0.40872998232E+02  0.94474807822E+01  0.47787268640E+02  0.19999989037E+02 0.  0.
         12    1    1    2    0    0 -0.11125044042E+02  0.40872998232E+02 -0.94474807822E+01  0.43400731360E+02  0.00000000000E+00 0. -1.
         11    1    3    3    0    0  0.25311357539E+01 -0.12743535368E+02  0.53647767564E+01  0.14056499272E+02  0.51100000000E-03 0.  1.
        -11    1    3    3    0    0  0.74285332679E+01 -0.14795295006E+02  0.97301854699E+01  0.19203134389E+02  0.51100000000E-03 0. -1.
        -12    1    3    3    0    0  0.11653750206E+01 -0.13334167858E+02 -0.56474814440E+01  0.14527634979E+02  0.00000000000E+00 0.  1.
</event>
<event>
 7    1  0.1384886E-010  0.4778727E+02  0.7816164E-02  0.1312668E+00
        -11   -1    0    0    0    0  0.00000000000E+00  0.00000000000E+00  0.45593999997E+02  0.45594000000E+02  0.51100000000E-03 0. -1.
         11   -1    0    0    0    0 -0.00000000000E+00 -0.00000000000E+00 -0.45593999997E+02  0.45594000000E+02  0.51100000000E-03 0.  1.
    9900012    2    1    2    0    0  0.96272406459E+01 -0.42317811111E+02 -0.37790479522E+00  0.47787266000E+02  0.19999977001E+02 0.  0.
         12    1    1    2    0    0 -0.96272406459E+01  0.42317811111E+02  0.37790479522E+00  0.43400734000E+02  0.00000000000E+00 0. -1.
         11    1    3    3    0    0  0.89452509192E+01 -0.64601328252E+01 -0.24980680398E+00  0.11036903272E+02  0.51100000000E-03 0. -1.
        -11    1    3    3    0    0 -0.30728535819E+00 -0.14697989290E+02  0.38506615638E+01  0.15197134868E+02  0.51100000000E-03 0.  1.
        -12    1    3    3    0    0  0.98927508485E+00 -0.21159688996E+02 -0.39787595551E+01  0.21553227860E+02  0.00000000000E+00 0.  1.
</event>
<event>
 7    1  0.1384886E-010  0.4778723E+02  0.7816164E-02  0.1312668E+00
        -11   -1    0    0    0    0  0.00000000000E+00  0.00000000000E+00  0.45593999997E+02  0.45594000000E+02  0.51100000000E-03 0. -1.
         11   -1    0    0    0    0 -0.00000000000E+00 -0.00000000000E+00 -0.45593999997E+02  0.45594000000E+02  0.51100000000E-03 0.  1.
    9900012    2    1    2    0    0  0.22484150099E+02  0.32075155403E+02 -0.18688868757E+02  0.47787234855E+02  0.19999834996E+02 0.  0.
         12    1    1    2    0    0 -0.22484150099E+02 -0.32075155403E+02  0.18688868757E+02  0.43400765145E+02  0.00000000000E+00 0. -1.
         11    1    3    3    0    0  0.26229805991E+01  0.82786849604E+01 -0.16987423506E+01  0.88488630757E+01  0.51100000000E-03 0.  1.
        -11    1    3    3    0    0 -0.26946580959E+00  0.10287645385E+02 -0.21488341613E+01  0.10513122653E+02  0.51100000000E-03 0. -1.
         12    1    3    3    0    0  0.20130635310E+02  0.13508825057E+02 -0.14841292245E+02  0.28425249126E+02  0.00000000000E+00 0. -1.
</event>
<event>
 7    1  0.1384886E-010  0.4778727E+02  0.7816164E-02  0.1312668E+00
        -11   -1    0    0    0    0  0.00000000000E+00  0.00000000000E+00  0.45593999997E+02  0.45594000000E+02  0.51100000000E-03 0.  1.
         11   -1    0    0    0    0 -0.00000000000E+00 -0.00000000000E+00 -0.45593999997E+02  0.45594000000E+02  0.51100000000E-03 0. -1.
    9900012    2    1    2    0    0  0.40297290483E+02 -0.17215051893E+01  0.16024603984E+02  0.47787272664E+02  0.20000007385E+02 0.  0.
         12    1    1    2    0    0 -0.40297290483E+02  0.17215051893E+01 -0.16024603984E+02  0.43400727336E+02  0.00000000000E+00 0. -1.
         11    1    3    3    0    0  0.48170728490E+01 -0.37484196044E+01  0.44929067885E+01  0.75789875335E+01  0.51100000000E-03 0.  1.
        -11    1    3    3    0    0  0.67712716242E+01  0.52974104379E+01 -0.11111675174E+01  0.86687582888E+01  0.51100000000E-03 0. -1.
         12    1    3    3    0    0  0.28708946010E+02 -0.32704960229E+01  0.12642864713E+02  0.31539526842E+02  0.00000000000E+00 0. -1.
</event>
<event>
 7    1  0.1384886E-010  0.4778727E+02  0.7816164E-02  0.1312668E+00
        -11   -1    0    0    0    0  0.00000000000E+00  0.00000000000E+00  0.45593999997E+02  0.45594000000E+02  0.51100000000E-03 0. -1.
         11   -1    0    0    0    0 -0.00000000000E+00 -0.00000000000E+00 -0.45593999997E+02  0.45594000000E+02  0.51100000000E-03 0.  1.
    9900012    2    1    2    0    0  0.10732443646E+02  0.28168446493E+02 -0.31224615922E+02  0.47787270007E+02  0.19999995270E+02 0.  0.
         12    1    1    2    0    0 -0.10732443646E+02 -0.28168446493E+02  0.31224615922E+02  0.43400729993E+02  0.00000000000E+00 0. -1.
         11    1    3    3    0    0 -0.25677674063E+01  0.89163217829E+00 -0.90534565290E+00  0.28649761616E+01  0.51100000000E-03 0. -1.
        -11    1    3    3    0    0  0.77703715996E+01  0.26380969495E+02 -0.24293430506E+02  0.36694754288E+02  0.51100000000E-03 0.  1.
         12    1    3    3    0    0  0.55298394522E+01  0.89584482014E+00 -0.60258397633E+01  0.82275395570E+01  0.00000000000E+00 0. -1.
</event>
<event>
 7    1  0.1384886E-010  0.4778726E+02  0.7816164E-02  0.1312668E+00
        -11   -1    0    0    0    0  0.00000000000E+00  0.00000000000E+00  0.45593999997E+02  0.45594000000E+02  0.51100000000E-03 0. -1.
         11   -1    0    0    0    0 -0.00000000000E+00 -0.00000000000E+00 -0.45593999997E+02  0.45594000000E+02  0.51100000000E-03 0.  1.
    9900012    2    1    2    0    0 -0.19454722616E+02  0.70266213203E+01 -0.38154479675E+02  0.47787263157E+02  0.19999964036E+02 0.  0.
         12    1    1    2    0    0  0.19454722616E+02 -0.70266213203E+01  0.38154479675E+02  0.43400736843E+02  0.00000000000E+00 0. -1.
         11    1    3    3    0    0 -0.87563531943E+01  0.90638686310E+01 -0.32022357684E+02  0.34413061876E+02  0.51100000000E-03 0. -1.
        -11    1    3    3    0    0 -0.55372023014E+01 -0.32686508124E+01 -0.44050228936E+01  0.77941589934E+01  0.51100000000E-03 0.  1.
         12    1    3    3    0    0 -0.51611671204E+01  0.12314035017E+01 -0.17270990980E+01  0.55800422869E+01  0.00000000000E+00 0. -1.
</event>
<event>
 7    1  0.1384886E-010  0.4778727E+02  0.7816164E-02  0.1312668E+00
        -11   -1    0    0    0    0  0.00000000000E+00  0.00000000000E+00  0.45593999997E+02  0.45594000000E+02  0.51100000000E-03 0.  1.
         11   -1    0    0    0    0 -0.00000000000E+00 -0.00000000000E+00 -0.45593999997E+02  0.45594000000E+02  0.51100000000E-03 0. -1.
    9900012    2    1    2    0    0  0.15387854520E+02  0.10401724741E+02  0.39225515317E+02  0.47787274244E+02  0.20000014587E+02 0.  0.
         12    1    1    2    0    0 -0.15387854520E+02 -0.10401724741E+02 -0.39225515317E+02  0.43400725756E+02  0.00000000000E+00 0. -1.
         11    1    3    3    0    0  0.27310648571E+01  0.18892305915E+01  0.23273076503E+02  0.23508806810E+02  0.51100000000E-03 0. -1.
        -11    1    3    3    0    0  0.14185177909E+02  0.61056676346E+01  0.13209396243E+02  0.20322071718E+02  0.51100000000E-03 0.  1.
         12    1    3    3    0    0 -0.15283882462E+01  0.24068265153E+01  0.27430425714E+01  0.39563957151E+01  0.00000000000E+00 0. -1.
</event>
<event>
 7    1  0.1384886E-010  0.4778728E+02  0.7816164E-02  0.1312668E+00
        -11   -1    0    0    0    0  0.00000000000E+00  0.00000000000E+00  0.45593999997E+02  0.45594000000E+02  0.51100000000E-03 0. -1.
         11   -1    0    0    0    0 -0.00000000000E+00 -0.00000000000E+00 -0.45593999997E+02  0.45594000000E+02  0.51100000000E-03 0.  1.
    9900012    2    1    2    0    0 -0.17555640767E+01  0.26995685212E+02 -0.33937784021E+02  0.47787283307E+02  0.20000055908E+02 0.  0.
         12    1    1    2    0    0  0.17555640767E+01 -0.26995685212E+02  0.33937784021E+02  0.43400716693E+02  0.00000000000E+00 0. -1.
         11    1    3    3    0    0  0.24361672280E+01  0.63430413546E+00 -0.59727126765E+01  0.64815545571E+01  0.51100000000E-03 0. -1.
        -11    1    3    3    0    0 -0.13021018642E+01  0.21965814311E+02 -0.13266461240E+02  0.25694191206E+02  0.51100000000E-03 0.  1.
        -12    1    3    3    0    0 -0.28896294404E+01  0.43955667649E+01 -0.14698610104E+02  0.15611537543E+02  0.00000000000E+00 0.  1.
</event>
<event>
 7    1  0.1384886E-010  0.4778727E+02  0.7816164E-02  0.1312668E+00
        -11   -1    0    0    0    0  0.00000000000E+00  0.00000000000E+00  0.45593999997E+02  0.45594000000E+02  0.51100000000E-03 0.  1.
         11   -1    0    0    0    0 -0.00000000000E+00 -0.00000000000E+00 -0.45593999997E+02  0.45594000000E+02  0.51100000000E-03 0. -1.
    9900012    2    1    2    0    0 -0.17963665573E+02 -0.18372556199E+02  0.34976834852E+02  0.47787273297E+02  0.20000010270E+02 0.  0.
         12    1    1    2    0    0  0.17963665573E+02  0.18372556199E+02 -0.34976834852E+02  0.43400726703E+02  0.00000000000E+00 0. -1.
         11    1    3    3    0    0  0.28120074598E+01 -0.84880540367E+01  0.93346659586E+01  0.12926346588E+02  0.51100000000E-03 0. -1.
        -11    1    3    3    0    0 -0.87978206413E+01 -0.25141307632E+01  0.13335866311E+02  0.16173058834E+02  0.51100000000E-03 0.  1.
        -12    1    3    3    0    0 -0.11977852391E+02 -0.73703713994E+01  0.12306302582E+02  0.18687867875E+02  0.00000000000E+00 0.  1.
</event>
<event>
 7    1  0.1384886E-010  0.4778727E+02  0.7816164E-02  0.1312668E+00
        -11   -1    0    0    0    0  0.00000000000E+00  0.00000000000E+00  0.45593999997E+02  0.45594000000E+02  0.51100000000E-03 0.  1.
         11   -1    0    0    0    0 -0.00000000000E+00 -0.00000000000E+00 -0.45593999997E+02  0.45594000000E+02  0.51100000000E-03 0. -1.
    9900012    2    1    2    0    0  0.11239392464E+02  0.14624800156E+02  0.39286313135E+02  0.47787272791E+02  0.20000007962E+02 0.  0.
         12    1    1    2    0    0 -0.11239392464E+02 -0.14624800156E+02 -0.39286313135E+02  0.43400727209E+02  0.00000000000E+00 0. -1.
         11    1    3    3    0    0  0.78885083479E+01  0.14043758639E+02  0.15141005826E+02  0.22106690805E+02  0.51100000000E-03 0. -1.
        -11    1    3    3    0    0  0.56377658796E-01 -0.25160675109E+01  0.24260742201E+01  0.34956559531E+01  0.51100000000E-03 0.  1.
        -12    1    3    3    0    0  0.32945064572E+01  0.30971090286E+01  0.21719233088E+02  0.22184926033E+02  0.00000000000E+00 0.  1.
</event>
<event>
 7    1  0.1384886E-010  0.4778725E+02  0.7816164E-02  0.1312668E+00
        -11   -1    0    0    0    0  0.00000000000E+00  0.00000000000E+00  0.45593999997E+02  0.45594000000E+02  0.51100000000E-03 0. -1.
         11   -1    0    0    0    0 -0.00000000000E+00 -0.00000000000E+00 -0.45593999997E+02  0.45594000000E+02  0.51100000000E-03 0.  1.
    9900012    2    1    2    0    0  0.23668092718E+02 -0.31061562128E+02 -0.18937419629E+02  0.47787249811E+02  0.19999903190E+02 0.  0.
         12    1    1    2    0    0 -0.23668092718E+02  0.31061562128E+02  0.18937419629E+02  0.43400750189E+02  0.00000000000E+00 0. -1.
         11    1    3    3    0    0 -0.17282668639E+01 -0.11609502792E+01 -0.34460884629E+01  0.40261939669E+01  0.51100000000E-03 0. -1.
        -11    1    3    3    0    0  0.14953024529E+02 -0.23904171850E+02 -0.70775378041E+01  0.29070499067E+02  0.51100000000E-03 0.  1.
         12    1    3    3    0    0  0.10443335053E+02 -0.59964399989E+01 -0.84137933620E+01  0.14690556777E+02  0.00000000000E+00 0. -1.
</event>
<event>
 7    1  0.1384886E-010  0.4778726E+02  0.7816164E-02  0.1312668E+00
        -11   -1    0    0    0    0  0.00000000000E+00  0.00000000000E+00  0.45593999997E+02  0.45594000000E+02  0.51100000000E-03 0. -1.
         11   -1    0    0    0    0 -0.00000000000E+00 -0.00000000000E+00 -0.45593999997E+02  0.45594000000E+02  0.51100000000E-03 0.  1.
    9900012    2    1    2    0    0  0.40384038911E+02  0.22613991211E+01 -0.15736570698E+02  0.47787260582E+02  0.19999952296E+02 0.  0.
         12    1    1    2    0    0 -0.40384038911E+02 -0.22613991211E+01  0.15736570698E+02  0.43400739418E+02  0.00000000000E+00 0. -1.
         11    1    3    3    0    0  0.51226074567E+01  0.32194007769E+01  0.12544989480E+01  0.61789494567E+01  0.51100000000E-03 0. -1.
        -11    1    3    3    0    0  0.79108552853E+01  0.55116654076E+01 -0.64062636520E+01  0.11575849911E+02  0.51100000000E-03 0.  1.
         12    1    3    3    0    0  0.27350576169E+02 -0.64696670634E+01 -0.10584805994E+02  0.30032461214E+02  0.00000000000E+00 0. -1.
</event>
<event>
 7    1  0.1384886E-010  0.4778727E+02  0.7816164E-02  0.1312668E+00
        -11   -1    0    0    0    0  0.00000000000E+00  0.00000000000E+00  0.45593999997E+02  0.45594000000E+02  0.51100000000E-03 0.  1.
         11   -1    0    0    0    0 -0.00000000000E+00 -0.00000000000E+00 -0.45593999997E+02  0.45594000000E+02  0.51100000000E-03 0. -1.
    9900012    2    1    2    0    0  0.20688625234E+02 -0.71952507581E-02  0.38152377388E+02  0.47787272284E+02  0.20000005654E+02 0.  0.
         12    1    1    2    0    0 -0.20688625234E+02  0.71952507581E-02 -0.38152377388E+02  0.43400727716E+02  0.00000000000E+00 0. -1.
         11    1    3    3    0    0  0.10223786753E+02 -0.73103493061E+01  0.25805835003E+02  0.28703800149E+02  0.51100000000E-03 0. -1.
        -11    1    3    3    0    0  0.70119860252E+00  0.32391096799E+01  0.56974871249E+01  0.65912723201E+01  0.51100000000E-03 0.  1.
         12    1    3    3    0    0  0.97636398786E+01  0.40640443755E+01  0.66490552610E+01  0.12492199815E+02  0.00000000000E+00 0. -1.
</event>
<event>
 7    1  0.1384886E-010  0.4778727E+02  0.7816164E-02  0.1312668E+00
        -11   -1    0    0    0    0  0.00000000000E+00  0.00000000000E+00  0.45593999997E+02  0.45594000000E+02  0.51100000000E-03 0.  1.
         11   -1    0    0    0    0 -0.00000000000E+00 -0.00000000000E+00 -0.45593999997E+02  0.45594000000E+02  0.51100000000E-03 0. -1.
    9900012    2    1    2    0    0  0.11369333044E+02 -0.40990946139E+02  0.86083513233E+01  0.47787272912E+02  0.20000008516E+02 0.  0.
         12    1    1    2    0    0 -0.11369333044E+02  0.40990946139E+02 -0.86083513233E+01  0.43400727088E+02  0.00000000000E+00 0. -1.
         11    1    3    3    0    0  0.36181141188E+01 -0.40755151072E+00 -0.36425832363E+00  0.36591709988E+01  0.51100000000E-03 0. -1.
        -11    1    3    3    0    0  0.10218444203E+02 -0.36623236983E+02  0.57425005227E+01  0.38453275564E+02  0.51100000000E-03 0.  1.
         12    1    3    3    0    0 -0.24672252777E+01 -0.39601576453E+01  0.32301091243E+01  0.56748263498E+01  0.00000000000E+00 0. -1.
</event>
<event>
 7    1  0.1384886E-010  0.4778727E+02  0.7816164E-02  0.1312668E+00
        -11   -1    0    0    0    0  0.00000000000E+00  0.00000000000E+00  0.45593999997E+02  0.45594000000E+02  0.51100000000E-03 0.  1.
         11   -1    0    0    0    0 -0.00000000000E+00 -0.00000000000E+00 -0.45593999997E+02  0.45594000000E+02  0.51100000000E-03 0. -1.
    9900012    2    1    2    0    0 -0.19028604176E+02 -0.29509260253E+02  0.25509583486E+02  0.47787273425E+02  0.20000010855E+02 0.  0.
         12    1    1    2    0    0  0.19028604176E+02  0.29509260253E+02 -0.25509583486E+02  0.43400726575E+02  0.00000000000E+00 0. -1.
         11    1    3    3    0    0 -0.33689828334E+01 -0.99628136981E+01  0.11118363232E+01  0.10575626808E+02  0.51100000000E-03 0. -1.
        -11    1    3    3    0    0 -0.15800499475E+02 -0.13902964851E+02  0.13690425339E+02  0.25107289012E+02  0.51100000000E-03 0.  1.
         12    1    3    3    0    0  0.14087813258E+00 -0.56434817040E+01  0.10707321823E+02  0.12104357605E+02  0.00000000000E+00 0. -1.
</event>
<event>
 7    1  0.1384886E-010  0.4778727E+02  0.7816164E-02  0.1312668E+00
        -11   -1    0    0    0    0  0.00000000000E+00  0.00000000000E+00  0.45593999997E+02  0.45594000000E+02  0.51100000000E-03 0.  1.
         11   -1    0    0    0    0 -0.00000000000E+00 -0.00000000000E+00 -0.45593999997E+02  0.45594000000E+02  0.51100000000E-03 0. -1.
    9900012    2    1    2    0    0  0.40096674739E+02  0.11984496488E+02 -0.11500082669E+02  0.47787269792E+02  0.19999994289E+02 0.  0.
         12    1    1    2    0    0 -0.40096674739E+02 -0.11984496488E+02  0.11500082669E+02  0.43400730208E+02  0.00000000000E+00 0. -1.
         11    1    3    3    0    0  0.94056116730E+01  0.73078957202E+01 -0.46208972890E+01  0.12775897730E+02  0.51100000000E-03 0. -1.
        -11    1    3    3    0    0  0.16230911362E+02  0.93076969701E+01 -0.10253802341E+01  0.18738386041E+02  0.51100000000E-03 0.  1.
         12    1    3    3    0    0  0.14460151704E+02 -0.46310962026E+01 -0.58538051457E+01  0.16272986020E+02  0.00000000000E+00 0. -1.
</event>
<event>
 7    1  0.1384886E-010  0.4778727E+02  0.7816164E-02  0.1312668E+00
        -11   -1    0    0    0    0  0.00000000000E+00  0.00000000000E+00  0.45593999997E+02  0.45594000000E+02  0.51100000000E-03 0. -1.
         11   -1    0    0    0    0 -0.00000000000E+00 -0.00000000000E+00 -0.45593999997E+02  0.45594000000E+02  0.51100000000E-03 0.  1.
    9900012    2    1    2    0    0  0.18770584977E+02 -0.37505421100E+02 -0.11163867284E+02  0.47787269534E+02  0.19999993115E+02 0.  0.
         12    1    1    2    0    0 -0.18770584977E+02  0.37505421100E+02  0.11163867284E+02  0.43400730466E+02  0.00000000000E+00 0. -1.
         11    1    3    3    0    0 -0.11483361153E+01 -0.71949542385E+01 -0.25909697312E+01  0.77329920947E+01  0.51100000000E-03 0. -1.
        -11    1    3    3    0    0  0.14395075688E+02 -0.21841999387E+02  0.93439998946E+00  0.26175642205E+02  0.51100000000E-03 0.  1.
        -12    1    3    3    0    0  0.55238454043E+01 -0.84684674742E+01 -0.95072975420E+01  0.13878635234E+02  0.00000000000E+00 0.  1.
</event>
<event>
 7    1  0.1384886E-010  0.4778728E+02  0.7816164E-02  0.1312668E+00
        -11   -1    0    0    0    0  0.00000000000E+00  0.00000000000E+00  0.45593999997E+02  0.45594000000E+02  0.51100000000E-03 0.  1.
         11   -1    0    0    0    0 -0.00000000000E+00 -0.00000000000E+00 -0.45593999997E+02  0.45594000000E+02  0.51100000000E-03 0. -1.
    9900012    2    1    2    0    0  0.31221305036E+02 -0.14637114981E+02  0.26355405852E+02  0.47787280642E+02  0.20000043760E+02 0.  0.
         12    1    1    2    0    0 -0.31221305036E+02  0.14637114981E+02 -0.26355405852E+02  0.43400719358E+02  0.00000000000E+00 0. -1.
         11    1    3    3    0    0  0.13939359961E+02 -0.83054451220E+01  0.18305873777E+02  0.24462035683E+02  0.51100000000E-03 0. -1.
        -11    1    3    3    0    0  0.13813010127E+02 -0.97880735569E+01  0.54748481825E+01  0.17792683767E+02  0.51100000000E-03 0.  1.
         12    1    3    3    0    0  0.34689349485E+01  0.34564036976E+01  0.25746838931E+01  0.55325611923E+01  0.00000000000E+00 0. -1.
</event>
<event>
 7    1  0.1384886E-010  0.4778727E+02  0.7816164E-02  0.1312668E+00
        -11   -1    0    0    0    0  0.00000000000E+00  0.00000000000E+00  0.45593999997E+02  0.45594000000E+02  0.51100000000E-03 0. -1.
         11   -1    0    0    0    0 -0.00000000000E+00 -0.00000000000E+00 -0.45593999997E+02  0.45594000000E+02  0.51100000000E-03 0.  1.
    9900012    2    1    2    0    0  0.14228862597E+02 -0.21931589504E+02 -0.34643443745E+02  0.47787270242E+02  0.19999996343E+02 0.  0.
         12    1    1    2    0    0 -0.14228862597E+02  0.21931589504E+02  0.34643443745E+02  0.43400729758E+02  0.00000000000E+00 0. -1.
         11    1    3    3    0    0  0.70573092176E+01 -0.60102598074E+01 -0.71427768760E+01  0.11702482562E+02  0.51100000000E-03 0. -1.
        -11    1    3    3    0    0 -0.16230366412E+01 -0.14125111829E+02 -0.14704061983E+02  0.20453910902E+02  0.51100000000E-03 0.  1.
         12    1    3    3    0    0  0.87945900208E+01 -0.17962178675E+01 -0.12796604886E+02  0.15630876779E+02  0.00000000000E+00 0. -1.
</event>
<event>
 7    1  0.1384886E-010  0.4778726E+02  0.7816164E-02  0.1312668E+00
        -11   -1    0    0    0    0  0.00000000000E+00  0.00000000000E+00  0.45593999997E+02  0.45594000000E+02  0.51100000000E-03 0.  1.
         11   -1    0    0    0    0 -0.00000000000E+00 -0.00000000000E+00 -0.45593999997E+02  0.45594000000E+02  0.51100000000E-03 0. -1.
    9900012    2    1    2    0    0  0.11758718386E+02 -0.30036344880E+02  0.29037464609E+02  0.47787264721E+02  0.19999971168E+02 0.  0.
         12    1    1    2    0    0 -0.11758718386E+02  0.30036344880E+02 -0.29037464609E+02  0.43400735279E+02  0.00000000000E+00 0. -1.
         11    1    3    3    0    0 -0.29198847226E+01 -0.74290245884E+01  0.77764988986E+01  0.11144059786E+02  0.51100000000E-03 0. -1.
        -11    1    3    3    0    0  0.75320122362E+01 -0.68069933384E+01  0.15189148274E+02  0.18269553695E+02  0.51100000000E-03 0.  1.
         12    1    3    3    0    0  0.71465908728E+01 -0.15800326953E+02  0.60718174363E+01  0.18373651240E+02  0.00000000000E+00 0. -1.
</event>
<event>
 7    1  0.1384886E-010  0.4778727E+02  0.7816164E-02  0.1312668E+00
        -11   -1    0    0    0    0  0.00000000000E+00  0.00000000000E+00  0.45593999997E+02  0.45594000000E+02  0.51100000000E-03 0. -1.
         11   -1    0    0    0    0 -0.00000000000E+00 -0.00000000000E+00 -0.45593999997E+02  0.45594000000E+02  0.51100000000E-03 0.  1.
    9900012    2    1    2    0    0  0.33971689642E+02 -0.26903078061E+02 -0.24025315849E+01  0.47787268850E+02  0.19999989996E+02 0.  0.
         12    1    1    2    0    0 -0.33971689642E+02  0.26903078061E+02  0.24025315849E+01  0.43400731150E+02  0.00000000000E+00 0. -1.
         11    1    3    3    0    0  0.22878761857E+02 -0.16426341672E+02 -0.63826485233E+01  0.28879069363E+02  0.51100000000E-03 0. -1.
        -11    1    3    3    0    0  0.12084979173E+02 -0.11639370247E+02  0.43549061659E+01  0.17334557085E+02  0.51100000000E-03 0.  1.
         12    1    3    3    0    0 -0.99205138875E+00  0.11626338574E+01 -0.37478922747E+00  0.15736424020E+01  0.00000000000E+00 0. -1.
</event>
<event>
 7    1  0.1384886E-010  0.4778727E+02  0.7816164E-02  0.1312668E+00
        -11   -1    0    0    0    0  0.00000000000E+00  0.00000000000E+00  0.45593999997E+02  0.45594000000E+02  0.51100000000E-03 0. -1.
         11   -1    0    0    0    0 -0.00000000000E+00 -0.00000000000E+00 -0.45593999997E+02  0.45594000000E+02  0.51100000000E-03 0.  1.
    9900012    2    1    2    0    0 -0.16138626886E+02  0.23037556310E+02 -0.33052064904E+02  0.47787271056E+02  0.20000000051E+02 0.  0.
         12    1    1    2    0    0  0.16138626886E+02 -0.23037556310E+02  0.33052064904E+02  0.43400728944E+02  0.00000000000E+00 0. -1.
         11    1    3    3    0    0 -0.14110970455E+02  0.19976175437E+02 -0.15920000705E+02  0.29182417566E+02  0.51100000000E-03 0. -1.
        -11    1    3    3    0    0  0.15066250189E+01  0.32224141959E+01 -0.66473273274E+01  0.75392859779E+01  0.51100000000E-03 0.  1.
        -12    1    3    3    0    0 -0.35342814497E+01 -0.16103332326E+00 -0.10484736871E+02  0.11065567512E+02  0.00000000000E+00 0.  1.
</event>
<event>
 7    1  0.1384886E-010  0.4778727E+02  0.7816164E-02  0.1312668E+00
        -11   -1    0    0    0    0  0.00000000000E+00  0.00000000000E+00  0.45593999997E+02  0.45594000000E+02  0.51100000000E-03 0. -1.
         11   -1    0    0    0    0 -0.00000000000E+00 -0.00000000000E+00 -0.45593999997E+02  0.45594000000E+02  0.51100000000E-03 0.  1.
    9900012    2    1    2    0    0 -0.20321548790E+02  0.21433667502E+02 -0.31800253134E+02  0.47787267896E+02  0.19999985644E+02 0.  0.
         12    1    1    2    0    0  0.20321548790E+02 -0.21433667502E+02  0.31800253134E+02  0.43400732104E+02  0.00000000000E+00 0. -1.
         11    1    3    3    0    0 -0.21581849048E+01  0.67483346968E+01 -0.54989231989E+01  0.89686085806E+01  0.51100000000E-03 0.  1.
        -11    1    3    3    0    0 -0.14572608017E+02  0.17603838392E+01 -0.10266483664E+02  0.17912580572E+02  0.51100000000E-03 0. -1.
         12    1    3    3    0    0 -0.35907558690E+01  0.12924948966E+02 -0.16034846271E+02  0.20906078743E+02  0.00000000000E+00 0. -1.
</event>
<event>
 7    1  0.1384886E-010  0.4778727E+02  0.7816164E-02  0.1312668E+00
        -11   -1    0    0    0    0  0.00000000000E+00  0.00000000000E+00  0.45593999997E+02  0.45594000000E+02  0.51100000000E-03 0.  1.
         11   -1    0    0    0    0 -0.00000000000E+00 -0.00000000000E+00 -0.45593999997E+02  0.45594000000E+02  0.51100000000E-03 0. -1.
    9900012    2    1    2    0    0 -0.28962585083E+02 -0.15260658036E+02 -0.28493929471E+02  0.47787273796E+02  0.20000012545E+02 0.  0.
         12    1    1    2    0    0  0.28962585083E+02  0.15260658036E+02  0.28493929471E+02  0.43400726204E+02  0.00000000000E+00 0. -1.
         11    1    3    3    0    0 -0.44680036360E+01 -0.45935792057E+01  0.83618362881E+00  0.64624476580E+01  0.51100000000E-03 0. -1.
        -11    1    3    3    0    0 -0.45686866659E+01  0.12069810555E+01 -0.10261996052E+02  0.11297710580E+02  0.51100000000E-03 0.  1.
        -12    1    3    3    0    0 -0.19925894781E+02 -0.11874059886E+02 -0.19068117048E+02  0.30027115558E+02  0.00000000000E+00 0.  1.
</event>
<event>
 7    1  0.1384886E-010  0.4778727E+02  0.7816164E-02  0.1312668E+00
        -11   -1    0    0    0    0  0.00000000000E+00  0.00000000000E+00  0.45593999997E+02  0.45594000000E+02  0.51100000000E-03 0.  1.
         11   -1    0    0    0    0 -0.00000000000E+00 -0.00000000000E+00 -0.45593999997E+02  0.45594000000E+02  0.51100000000E-03 0. -1.
    9900012    2    1    2    0    0 -0.18218639284E+02  0.79033384926E+00  0.39383748127E+02  0.47787273491E+02  0.20000011155E+02 0.  0.
         12    1    1    2    0    0  0.18218639284E+02 -0.79033384926E+00 -0.39383748127E+02  0.43400726509E+02  0.00000000000E+00 0. -1.
         11    1    3    3    0    0 -0.11427636981E+02 -0.28127423933E+01  0.31340405506E+02  0.33477207534E+02  0.51100000000E-03 0. -1.
        -11    1    3    3    0    0 -0.87108474393E+01  0.18485917389E+01  0.75240938897E+01  0.11657964816E+02  0.51100000000E-03 0.  1.
         12    1    3    3    0    0  0.19198451357E+01  0.17544845036E+01  0.51924873164E+00  0.26521011413E+01  0.00000000000E+00 0. -1.
</event>
<event>
 7    1  0.1384886E-010  0.4778727E+02  0.7816164E-02  0.1312668E+00
        -11   -1    0    0    0    0  0.00000000000E+00  0.00000000000E+00  0.45593999997E+02  0.45594000000E+02  0.51100000000E-03 0.  1.
         11   -1    0    0    0    0 -0.00000000000E+00 -0.00000000000E+00 -0.45593999997E+02  0.45594000000E+02  0.51100000000E-03 0. -1.
    9900012    2    1    2    0    0  0.16788055687E+02 -0.21423425568E+02  0.33805637296E+02  0.47787273165E+02  0.20000009669E+02 0.  0.
         12    1    1    2    0    0 -0.16788055687E+02  0.21423425568E+02 -0.33805637296E+02  0.43400726835E+02  0.00000000000E+00 0. -1.
         11    1    3    3    0    0  0.13133365622E+02 -0.11333804288E+02  0.91937308000E+01  0.19633265100E+02  0.51100000000E-03 0. -1.
        -11    1    3    3    0    0  0.26628239031E+01 -0.10215505363E+02  0.14200326141E+02  0.17694531464E+02  0.51100000000E-03 0.  1.
         12    1    3    3    0    0  0.99186616207E+00  0.12588408347E+00  0.10411580354E+02  0.10459476601E+02  0.00000000000E+00 0. -1.
</event>
<event>
 7    1  0.1384886E-010  0.4778727E+02  0.7816164E-02  0.1312668E+00
        -11   -1    0    0    0    0  0.00000000000E+00  0.00000000000E+00  0.45593999997E+02  0.45594000000E+02  0.51100000000E-03 0.  1.
         11   -1    0    0    0    0 -0.00000000000E+00 -0.00000000000E+00 -0.45593999997E+02  0.45594000000E+02  0.51100000000E-03 0. -1.
    9900012    2    1    2    0    0 -0.47590232383E+01  0.18729032431E+02  0.38861270190E+02  0.47787270988E+02  0.19999999744E+02 0.  0.
         12    1    1    2    0    0  0.47590232383E+01 -0.18729032431E+02 -0.38861270190E+02  0.43400729012E+02  0.00000000000E+00 0. -1.
         11    1    3    3    0    0  0.39448032433E+01 -0.19541284281E+01  0.47844694174E+01  0.65016335185E+01  0.51100000000E-03 0. -1.
        -11    1    3    3    0    0 -0.63287179581E+01  0.83004019300E+01  0.18541986399E+02  0.21278030996E+02  0.51100000000E-03 0.  1.
        -12    1    3    3    0    0 -0.23751085234E+01  0.12382758929E+02  0.15534814373E+02  0.20007606473E+02  0.00000000000E+00 0.  1.
</event>
<event>
 7    1  0.1384886E-010  0.4778727E+02  0.7816164E-02  0.1312668E+00
        -11   -1    0    0    0    0  0.00000000000E+00  0.00000000000E+00  0.45593999997E+02  0.45594000000E+02  0.51100000000E-03 0. -1.
         11   -1    0    0    0    0 -0.00000000000E+00 -0.00000000000E+00 -0.45593999997E+02  0.45594000000E+02  0.51100000000E-03 0.  1.
    9900012    2    1    2    0    0  0.36323451134E+02 -0.90957866855E+01 -0.21943038120E+02  0.47787270056E+02  0.19999995495E+02 0.  0.
         12    1    1    2    0    0 -0.36323451134E+02  0.90957866855E+01  0.21943038120E+02  0.43400729944E+02  0.00000000000E+00 0. -1.
         11    1    3    3    0    0  0.99243936332E+01 -0.29582229252E+01  0.22349166964E+01  0.10594315682E+02  0.51100000000E-03 0. -1.
        -11    1    3    3    0    0  0.87546723807E+01 -0.31909447757E+01 -0.37627227556E+01  0.10049104430E+02  0.51100000000E-03 0.  1.
        -12    1    3    3    0    0  0.17644385120E+02 -0.29466189846E+01 -0.20415232061E+02  0.27143849944E+02  0.00000000000E+00 0.  1.
</event>
<event>
 7    1  0.1592468E-010  0.4778727E+02  0.7816164E-02  0.1312668E+00
        -11   -1    0    0    0    0  0.00000000000E+00  0.00000000000E+00  0.45593999997E+02  0.45594000000E+02  0.51100000000E-03 0.  1.
         11   -1    0    0    0    0 -0.00000000000E+00 -0.00000000000E+00 -0.45593999997E+02  0.45594000000E+02  0.51100000000E-03 0. -1.
    9900012    2    1    2    0    0 -0.39033970738E+02  0.17923498047E+02  0.62226101372E+01  0.47787268085E+02  0.19999986506E+02 0.  0.
         12    1    1    2    0    0  0.39033970738E+02 -0.17923498047E+02 -0.62226101372E+01  0.43400731915E+02  0.00000000000E+00 0. -1.
         11    1    3    3    0    0  0.79503667379E+00  0.12903343427E+01 -0.20046952191E+01  0.25131353349E+01  0.51100000000E-03 0. -1.
        -11    1    3    3    0    0 -0.19501773372E+02  0.13788847174E+02  0.28308179611E+01  0.24051299375E+02  0.51100000000E-03 0.  1.
        -12    1    3    3    0    0 -0.20327234040E+02  0.28443165306E+01  0.53964873952E+01  0.21222833375E+02  0.00000000000E+00 0.  1.
</event>
<event>
 7    1  0.1384886E-010  0.4778727E+02  0.7816164E-02  0.1312668E+00
        -11   -1    0    0    0    0  0.00000000000E+00  0.00000000000E+00  0.45593999997E+02  0.45594000000E+02  0.51100000000E-03 0. -1.
         11   -1    0    0    0    0 -0.00000000000E+00 -0.00000000000E+00 -0.45593999997E+02  0.45594000000E+02  0.51100000000E-03 0.  1.
    9900012    2    1    2    0    0 -0.31205850375E+02 -0.15026379441E+02 -0.26153889331E+02  0.47787273003E+02  0.20000008928E+02 0.  0.
         12    1    1    2    0    0  0.31205850375E+02  0.15026379441E+02  0.26153889331E+02  0.43400726997E+02  0.00000000000E+00 0. -1.
         11    1    3    3    0    0 -0.93327227843E+01 -0.35681061893E+01 -0.52744123735E+00  0.10005463051E+02  0.51100000000E-03 0. -1.
        -11    1    3    3    0    0 -0.21539397249E+02 -0.12316038265E+02 -0.19421920856E+02  0.31509386576E+02  0.51100000000E-03 0.  1.
         12    1    3    3    0    0 -0.33373034193E+00  0.85776501277E+00 -0.62045272375E+01  0.62724233753E+01  0.00000000000E+00 0. -1.
</event>
<event>
 7    1  0.1384886E-010  0.4778727E+02  0.7816164E-02  0.1312668E+00
        -11   -1    0    0    0    0  0.00000000000E+00  0.00000000000E+00  0.45593999997E+02  0.45594000000E+02  0.51100000000E-03 0.  1.
         11   -1    0    0    0    0 -0.00000000000E+00 -0.00000000000E+00 -0.45593999997E+02  0.45594000000E+02  0.51100000000E-03 0. -1.
    9900012    2    1    2    0    0  0.57228321846E+00  0.30188495961E+02  0.31176126158E+02  0.47787266842E+02  0.19999980838E+02 0.  0.
         12    1    1    2    0    0 -0.57228321846E+00 -0.30188495961E+02 -0.31176126158E+02  0.43400733158E+02  0.00000000000E+00 0. -1.
         11    1    3    3    0    0 -0.92845231570E-01 -0.22120610332E+01  0.24636023026E+01  0.33122757763E+01  0.51100000000E-03 0. -1.
        -11    1    3    3    0    0  0.16190702345E+01  0.42613152083E+00  0.29915079546E+01  0.34281331072E+01  0.51100000000E-03 0.  1.
        -12    1    3    3    0    0 -0.95394178443E+00  0.31974425473E+02  0.25721015901E+02  0.41046857958E+02  0.00000000000E+00 0.  1.
</event>
<event>
 7    1  0.1384886E-010  0.4778727E+02  0.7816164E-02  0.1312668E+00
        -11   -1    0    0    0    0  0.00000000000E+00  0.00000000000E+00  0.45593999997E+02  0.45594000000E+02  0.51100000000E-03 0. -1.
         11   -1    0    0    0    0 -0.00000000000E+00 -0.00000000000E+00 -0.45593999997E+02  0.45594000000E+02  0.51100000000E-03 0.  1.
    9900012    2    1    2    0    0  0.81055690618E+01  0.42625832129E+02 -0.98051551778E+00  0.47787271605E+02  0.20000002557E+02 0.  0.
         12    1    1    2    0    0 -0.81055690618E+01 -0.42625832129E+02  0.98051551778E+00  0.43400728395E+02  0.00000000000E+00 0. -1.
         11    1    3    3    0    0  0.37039067617E+01  0.25484910650E+02 -0.10101078298E+02  0.27662815822E+02  0.51100000000E-03 0.  1.
        -11    1    3    3    0    0  0.79946852901E-01  0.30804618602E+01  0.26104821846E+01  0.40385955812E+01  0.51100000000E-03 0. -1.
        -12    1    3    3    0    0  0.43217154472E+01  0.14060459619E+02  0.65100805953E+01  0.16085860202E+02  0.00000000000E+00 0.  1.
</event>
<event>
 7    1  0.1384886E-010  0.4778727E+02  0.7816164E-02  0.1312668E+00
        -11   -1    0    0    0    0  0.00000000000E+00  0.00000000000E+00  0.45593999997E+02  0.45594000000E+02  0.51100000000E-03 0.  1.
         11   -1    0    0    0    0 -0.00000000000E+00 -0.00000000000E+00 -0.45593999997E+02  0.45594000000E+02  0.51100000000E-03 0. -1.
    9900012    2    1    2    0    0 -0.29214734292E+02 -0.18520177204E+02  0.26213076736E+02  0.47787273561E+02  0.20000011475E+02 0.  0.
         12    1    1    2    0    0  0.29214734292E+02  0.18520177204E+02 -0.26213076736E+02  0.43400726439E+02  0.00000000000E+00 0. -1.
         11    1    3    3    0    0 -0.32799545076E+01 -0.57952671932E+01 -0.10117627416E+01  0.67354946009E+01  0.51100000000E-03 0. -1.
        -11    1    3    3    0    0 -0.27390443282E+01  0.17892503385E+01  0.39531194020E+01  0.51313676416E+01  0.51100000000E-03 0.  1.
        -12    1    3    3    0    0 -0.23195735457E+02 -0.14514160349E+02  0.23271720076E+02  0.35920411319E+02  0.00000000000E+00 0.  1.
</event>
<event>
 7    1  0.1384886E-010  0.4778727E+02  0.7816164E-02  0.1312668E+00
        -11   -1    0    0    0    0  0.00000000000E+00  0.00000000000E+00  0.45593999997E+02  0.45594000000E+02  0.51100000000E-03 0.  1.
         11   -1    0    0    0    0 -0.00000000000E+00 -0.00000000000E+00 -0.45593999997E+02  0.45594000000E+02  0.51100000000E-03 0. -1.
    9900012    2    1    2    0    0 -0.16661328613E+02  0.24782760933E+02  0.31493458514E+02  0.47787273741E+02  0.20000012296E+02 0.  0.
         12    1    1    2    0    0  0.16661328613E+02 -0.24782760933E+02 -0.31493458514E+02  0.43400726259E+02  0.00000000000E+00 0. -1.
         11    1    3    3    0    0 -0.62529220610E+00  0.12892895043E+01 -0.19613307077E+01  0.24290072406E+01  0.51100000000E-03 0. -1.
        -11    1    3    3    0    0 -0.13713587486E+02  0.19859295238E+02  0.20371590306E+02  0.31582523347E+02  0.51100000000E-03 0.  1.
         12    1    3    3    0    0 -0.23224489204E+01  0.36341761903E+01  0.13083198916E+02  0.13775743154E+02  0.00000000000E+00 0. -1.
</event>
<event>
 7    1  0.1384886E-010  0.4778727E+02  0.7816164E-02  0.1312668E+00
        -11   -1    0    0    0    0  0.00000000000E+00  0.00000000000E+00  0.45593999997E+02  0.45594000000E+02  0.51100000000E-03 0. -1.
         11   -1    0    0    0    0 -0.00000000000E+00 -0.00000000000E+00 -0.45593999997E+02  0.45594000000E+02  0.51100000000E-03 0.  1.
    9900012    2    1    2    0    0  0.16274869870E+02  0.32424019528E+02  0.23820892265E+02  0.47787270284E+02  0.19999996533E+02 0.  0.
         12    1    1    2    0    0 -0.16274869870E+02 -0.32424019528E+02 -0.23820892265E+02  0.43400729716E+02  0.00000000000E+00 0. -1.
         11    1    3    3    0    0  0.55550563341E+01  0.13540522101E+01  0.57335026069E+01  0.80972316669E+01  0.51100000000E-03 0. -1.
        -11    1    3    3    0    0  0.27152619314E+01  0.75926714031E+00  0.49545471306E+01  0.57005851872E+01  0.51100000000E-03 0.  1.
        -12    1    3    3    0    0  0.80045516041E+01  0.30310700177E+02  0.13132842527E+02  0.33989453430E+02  0.00000000000E+00 0.  1.
</event>
<event>
 7    1  0.1384886E-010  0.4778726E+02  0.7816164E-02  0.1312668E+00
        -11   -1    0    0    0    0  0.00000000000E+00  0.00000000000E+00  0.45593999997E+02  0.45594000000E+02  0.51100000000E-03 0.  1.
         11   -1    0    0    0    0 -0.00000000000E+00 -0.00000000000E+00 -0.45593999997E+02  0.45594000000E+02  0.51100000000E-03 0. -1.
    9900012    2    1    2    0    0  0.25520792250E+02 -0.26833743102E+02  0.22633233682E+02  0.47787264144E+02  0.19999968538E+02 0.  0.
         12    1    1    2    0    0 -0.25520792250E+02  0.26833743102E+02 -0.22633233682E+02  0.43400735856E+02  0.00000000000E+00 0. -1.
         11    1    3    3    0    0  0.28857005286E+01  0.18394134981E+01  0.42246801403E+01  0.54367850893E+01  0.51100000000E-03 0. -1.
        -11    1    3    3    0    0  0.12433352176E+02 -0.18756403395E+02  0.16695892563E+02  0.28020416546E+02  0.51100000000E-03 0.  1.
         12    1    3    3    0    0  0.10201739545E+02 -0.99167532053E+01  0.17126609784E+01  0.14330062509E+02  0.00000000000E+00 0. -1.
</event>
<event>
 7    1  0.1384886E-010  0.4778728E+02  0.7816164E-02  0.1312668E+00
        -11   -1    0    0    0    0  0.00000000000E+00  0.00000000000E+00  0.45593999997E+02  0.45594000000E+02  0.51100000000E-03 0.  1.
         11   -1    0    0    0    0 -0.00000000000E+00 -0.00000000000E+00 -0.45593999997E+02  0.45594000000E+02  0.51100000000E-03 0. -1.
    9900012    2    1    2    0    0  0.20664707031E+02  0.25608679726E+02  0.28298198547E+02  0.47787278405E+02  0.20000033560E+02 0.  0.
         12    1    1    2    0    0 -0.20664707031E+02 -0.25608679726E+02 -0.28298198547E+02  0.43400721595E+02  0.00000000000E+00 0. -1.
         11    1    3    3    0    0 -0.23363956745E+01  0.30981760417E+01  0.29712523091E+01  0.48873080606E+01  0.51100000000E-03 0. -1.
        -11    1    3    3    0    0  0.21151085855E+01  0.59163212017E+00  0.73892439438E+01  0.77087378485E+01  0.51100000000E-03 0.  1.
        -12    1    3    3    0    0  0.20885994120E+02  0.21918871564E+02  0.17937702294E+02  0.35191232496E+02  0.00000000000E+00 0.  1.
</event>
<event>
 7    1  0.1384886E-010  0.4778727E+02  0.7816164E-02  0.1312668E+00
        -11   -1    0    0    0    0  0.00000000000E+00  0.00000000000E+00  0.45593999997E+02  0.45594000000E+02  0.51100000000E-03 0.  1.
         11   -1    0    0    0    0 -0.00000000000E+00 -0.00000000000E+00 -0.45593999997E+02  0.45594000000E+02  0.51100000000E-03 0. -1.
    9900012    2    1    2    0    0 -0.38861063298E+02 -0.18520033439E+02  0.55180988472E+01  0.47787270811E+02  0.19999998935E+02 0.  0.
         12    1    1    2    0    0  0.38861063298E+02  0.18520033439E+02 -0.55180988472E+01  0.43400729189E+02  0.00000000000E+00 0. -1.
         11    1    3    3    0    0 -0.20742494654E+02 -0.75804562881E+01 -0.56481035785E+01  0.22795075703E+02  0.51100000000E-03 0. -1.
        -11    1    3    3    0    0 -0.68587097061E+01 -0.41787733320E+00  0.44149191263E+01  0.81674984818E+01  0.51100000000E-03 0.  1.
         12    1    3    3    0    0 -0.11259858938E+02 -0.10521699818E+02  0.67512832994E+01  0.16824696626E+02  0.00000000000E+00 0. -1.
</event>
<event>
 7    1  0.1384886E-010  0.4778728E+02  0.7816164E-02  0.1312668E+00
        -11   -1    0    0    0    0  0.00000000000E+00  0.00000000000E+00  0.45593999997E+02  0.45594000000E+02  0.51100000000E-03 0.  1.
         11   -1    0    0    0    0 -0.00000000000E+00 -0.00000000000E+00 -0.45593999997E+02  0.45594000000E+02  0.51100000000E-03 0. -1.
    9900012    2    1    2    0    0 -0.20575686466E+02 -0.18532767869E+02  0.33418566069E+02  0.47787275161E+02  0.20000018769E+02 0.  0.
         12    1    1    2    0    0  0.20575686466E+02  0.18532767869E+02 -0.33418566069E+02  0.43400724839E+02  0.00000000000E+00 0. -1.
         11    1    3    3    0    0 -0.66438913568E+01 -0.35541636829E+01  0.10096343091E+02  0.12597996504E+02  0.51100000000E-03 0. -1.
        -11    1    3    3    0    0 -0.14832926424E+02 -0.15959809840E+02  0.24924627264E+02  0.33105411656E+02  0.51100000000E-03 0.  1.
         12    1    3    3    0    0  0.90113131514E+00  0.98120565383E+00 -0.16024042855E+01  0.20838670006E+01  0.00000000000E+00 0. -1.
</event>
<event>
 7    1  0.1384886E-010  0.4778728E+02  0.7816164E-02  0.1312668E+00
        -11   -1    0    0    0    0  0.00000000000E+00  0.00000000000E+00  0.45593999997E+02  0.45594000000E+02  0.51100000000E-03 0. -1.
         11   -1    0    0    0    0 -0.00000000000E+00 -0.00000000000E+00 -0.45593999997E+02  0.45594000000E+02  0.51100000000E-03 0.  1.
    9900012    2    1    2    0    0  0.27434699692E+02  0.15491685339E+02 -0.29849078328E+02  0.47787279512E+02  0.20000038607E+02 0.  0.
         12    1    1    2    0    0 -0.27434699692E+02 -0.15491685339E+02  0.29849078328E+02  0.43400720488E+02  0.00000000000E+00 0. -1.
         11    1    3    3    0    0  0.20068229287E+02  0.14652381493E+02 -0.13537562845E+02  0.28296496571E+02  0.51100000000E-03 0.  1.
        -11    1    3    3    0    0 -0.11196018942E+01 -0.12212899434E+01 -0.12300809171E+01  0.20635301915E+01  0.51100000000E-03 0. -1.
        -12    1    3    3    0    0  0.84860722991E+01  0.20605937896E+01 -0.15081434566E+02  0.17427252750E+02  0.00000000000E+00 0.  1.
</event>
<event>
 7    1  0.1384886E-010  0.4778727E+02  0.7816164E-02  0.1312668E+00
        -11   -1    0    0    0    0  0.00000000000E+00  0.00000000000E+00  0.45593999997E+02  0.45594000000E+02  0.51100000000E-03 0.  1.
         11   -1    0    0    0    0 -0.00000000000E+00 -0.00000000000E+00 -0.45593999997E+02  0.45594000000E+02  0.51100000000E-03 0. -1.
    9900012    2    1    2    0    0  0.30723515522E+02  0.30129373933E+02  0.56488615575E+01  0.47787271706E+02  0.20000003014E+02 0.  0.
         12    1    1    2    0    0 -0.30723515522E+02 -0.30129373933E+02 -0.56488615575E+01  0.43400728294E+02  0.00000000000E+00 0. -1.
         11    1    3    3    0    0  0.18911493908E+02  0.20114005340E+02  0.81911644623E+01  0.28797794849E+02  0.51100000000E-03 0. -1.
        -11    1    3    3    0    0  0.51105690551E+01  0.10673051847E+02 -0.30998535623E+01  0.12232785626E+02  0.51100000000E-03 0.  1.
         12    1    3    3    0    0  0.67014525584E+01 -0.65768325395E+00  0.55755065738E+00  0.67566912309E+01  0.00000000000E+00 0. -1.
</event>
<event>
 7    1  0.1384886E-010  0.4778727E+02  0.7816164E-02  0.1312668E+00
        -11   -1    0    0    0    0  0.00000000000E+00  0.00000000000E+00  0.45593999997E+02  0.45594000000E+02  0.51100000000E-03 0.  1.
         11   -1    0    0    0    0 -0.00000000000E+00 -0.00000000000E+00 -0.45593999997E+02  0.45594000000E+02  0.51100000000E-03 0. -1.
    9900012    2    1    2    0    0 -0.55443894674E+01  0.21027071557E+02  0.37559890503E+02  0.47787269967E+02  0.19999995087E+02 0.  0.
         12    1    1    2    0    0  0.55443894674E+01 -0.21027071557E+02 -0.37559890503E+02  0.43400730033E+02  0.00000000000E+00 0. -1.
         11    1    3    3    0    0 -0.33953064812E+01  0.88662592141E+01  0.67283208942E+01  0.11636535604E+02  0.51100000000E-03 0. -1.
        -11    1    3    3    0    0 -0.70228945426E+01  0.77235725065E+01  0.25882454881E+02  0.27908351634E+02  0.51100000000E-03 0.  1.
         12    1    3    3    0    0  0.48738115563E+01  0.44372398361E+01  0.49491147278E+01  0.82423827282E+01  0.00000000000E+00 0. -1.
</event>
<event>
 7    1  0.1384886E-010  0.4778727E+02  0.7816164E-02  0.1312668E+00
        -11   -1    0    0    0    0  0.00000000000E+00  0.00000000000E+00  0.45593999997E+02  0.45594000000E+02  0.51100000000E-03 0. -1.
         11   -1    0    0    0    0 -0.00000000000E+00 -0.00000000000E+00 -0.45593999997E+02  0.45594000000E+02  0.51100000000E-03 0.  1.
    9900012    2    1    2    0    0  0.14059286367E+02 -0.26575491497E+02 -0.31300205389E+02  0.47787272600E+02  0.20000007094E+02 0.  0.
         12    1    1    2    0    0 -0.14059286367E+02  0.26575491497E+02  0.31300205389E+02  0.43400727400E+02  0.00000000000E+00 0. -1.
         11    1    3    3    0    0  0.83836362427E+01 -0.11462874857E+02 -0.22879076634E+02  0.26928330890E+02  0.51100000000E-03 0. -1.
        -11    1    3    3    0    0 -0.20368684125E+01  0.44482002427E-01 -0.49780973725E+00  0.20972902456E+01  0.51100000000E-03 0.  1.
         12    1    3    3    0    0  0.77125185370E+01 -0.15157098642E+02 -0.79233190171E+01  0.18761651464E+02  0.00000000000E+00 0. -1.
</event>
<event>
 7    1  0.1384886E-010  0.4778727E+02  0.7816164E-02  0.1312668E+00
        -11   -1    0    0    0    0  0.00000000000E+00  0.00000000000E+00  0.45593999997E+02  0.45594000000E+02  0.51100000000E-03 0. -1.
         11   -1    0    0    0    0 -0.00000000000E+00 -0.00000000000E+00 -0.45593999997E+02  0.45594000000E+02  0.51100000000E-03 0.  1.
    9900012    2    1    2    0    0 -0.37298058732E+02 -0.12496539679E+02  0.18338883483E+02  0.47787270323E+02  0.19999996710E+02 0.  0.
         12    1    1    2    0    0  0.37298058732E+02  0.12496539679E+02 -0.18338883483E+02  0.43400729677E+02  0.00000000000E+00 0. -1.
         11    1    3    3    0    0  0.55693977085E-01  0.82981477252E+00 -0.55145219906E+00  0.99789486658E+00  0.51100000000E-03 0. -1.
        -11    1    3    3    0    0 -0.27281605633E+02 -0.66250108649E+01  0.20249772492E+02  0.34615459857E+02  0.51100000000E-03 0.  1.
        -12    1    3    3    0    0 -0.10072147076E+02 -0.67013435869E+01 -0.13594368097E+01  0.12173915599E+02  0.00000000000E+00 0.  1.
</event>
<event>
 7    1  0.1384886E-010  0.4778727E+02  0.7816164E-02  0.1312668E+00
        -11   -1    0    0    0    0  0.00000000000E+00  0.00000000000E+00  0.45593999997E+02  0.45594000000E+02  0.51100000000E-03 0.  1.
         11   -1    0    0    0    0 -0.00000000000E+00 -0.00000000000E+00 -0.45593999997E+02  0.45594000000E+02  0.51100000000E-03 0. -1.
    9900012    2    1    2    0    0 -0.15530643899E+02 -0.12559436790E+02  0.38531581944E+02  0.47787272362E+02  0.20000006006E+02 0.  0.
         12    1    1    2    0    0  0.15530643899E+02  0.12559436790E+02 -0.38531581944E+02  0.43400727638E+02  0.00000000000E+00 0. -1.
         11    1    3    3    0    0  0.12434641279E+01 -0.52011832848E+01  0.45393427502E+01  0.70145665201E+01  0.51100000000E-03 0. -1.
        -11    1    3    3    0    0 -0.44049022535E+01  0.12382129104E+01  0.18913913664E+02  0.19459508355E+02  0.51100000000E-03 0.  1.
        -12    1    3    3    0    0 -0.12369205773E+02 -0.85964664161E+01  0.15078325530E+02  0.21313197487E+02  0.00000000000E+00 0.  1.
</event>
<event>
 7    1  0.1384886E-010  0.4778727E+02  0.7816164E-02  0.1312668E+00
        -11   -1    0    0    0    0  0.00000000000E+00  0.00000000000E+00  0.45593999997E+02  0.45594000000E+02  0.51100000000E-03 0.  1.
         11   -1    0    0    0    0 -0.00000000000E+00 -0.00000000000E+00 -0.45593999997E+02  0.45594000000E+02  0.51100000000E-03 0. -1.
    9900012    2    1    2    0    0 -0.21750963436E+02  0.18573982259E+02  0.32642391991E+02  0.47787274405E+02  0.20000015320E+02 0.  0.
         12    1    1    2    0    0  0.21750963436E+02 -0.18573982259E+02 -0.32642391991E+02  0.43400725595E+02  0.00000000000E+00 0. -1.
         11    1    3    3    0    0 -0.50795343363E+01  0.27183650865E+01 -0.19738220737E+01  0.60899221389E+01  0.51100000000E-03 0. -1.
        -11    1    3    3    0    0 -0.74273127095E+01  0.48375333278E+01  0.13142236435E+02  0.15851974058E+02  0.51100000000E-03 0.  1.
        -12    1    3    3    0    0 -0.92441163902E+01  0.11018083845E+02  0.21473977630E+02  0.25845378207E+02  0.00000000000E+00 0.  1.
</event>
<event>
 7    1  0.1384886E-010  0.4778727E+02  0.7816164E-02  0.1312668E+00
        -11   -1    0    0    0    0  0.00000000000E+00  0.00000000000E+00  0.45593999997E+02  0.45594000000E+02  0.51100000000E-03 0. -1.
         11   -1    0    0    0    0 -0.00000000000E+00 -0.00000000000E+00 -0.45593999997E+02  0.45594000000E+02  0.51100000000E-03 0.  1.
    9900012    2    1    2    0    0 -0.35801086309E+02  0.13543948380E+01 -0.24496352034E+02  0.47787269254E+02  0.19999991837E+02 0.  0.
         12    1    1    2    0    0  0.35801086309E+02 -0.13543948380E+01  0.24496352034E+02  0.43400730746E+02  0.00000000000E+00 0. -1.
         11    1    3    3    0    0 -0.62996982475E+01 -0.42401635960E+00 -0.64873548526E+01  0.90527212002E+01  0.51100000000E-03 0.  1.
        -11    1    3    3    0    0 -0.29011256522E+02  0.52660324475E+01 -0.12133305410E+02  0.31884184217E+02  0.51100000000E-03 0. -1.
         12    1    3    3    0    0 -0.49013153972E+00 -0.34876212498E+01 -0.58756917715E+01  0.68503638372E+01  0.00000000000E+00 0. -1.
</event>
<event>
 7    1  0.1384886E-010  0.4778727E+02  0.7816164E-02  0.1312668E+00
        -11   -1    0    0    0    0  0.00000000000E+00  0.00000000000E+00  0.45593999997E+02  0.45594000000E+02  0.51100000000E-03 0.  1.
         11   -1    0    0    0    0 -0.00000000000E+00 -0.00000000000E+00 -0.45593999997E+02  0.45594000000E+02  0.51100000000E-03 0. -1.
    9900012    2    1    2    0    0  0.37832886797E+02 -0.18087185503E+02  0.11187019288E+02  0.47787274160E+02  0.20000014206E+02 0.  0.
         12    1    1    2    0    0 -0.37832886797E+02  0.18087185503E+02 -0.11187019288E+02  0.43400725840E+02  0.00000000000E+00 0. -1.
         11    1    3    3    0    0  0.39766964472E+02 -0.16709446538E+02  0.12500636869E+02  0.44909720432E+02  0.51100000000E-03 0. -1.
        -11    1    3    3    0    0 -0.95964899415E+00 -0.12212952529E+01 -0.97640153547E+00  0.18346248953E+01  0.51100000000E-03 0.  1.
         12    1    3    3    0    0 -0.97442868040E+00 -0.15644371302E+00 -0.33721604561E+00  0.10429288326E+01  0.00000000000E+00 0. -1.
</event>
<event>
 7    1  0.1384886E-010  0.4778727E+02  0.7816164E-02  0.1312668E+00
        -11   -1    0    0    0    0  0.00000000000E+00  0.00000000000E+00  0.45593999997E+02  0.45594000000E+02  0.51100000000E-03 0. -1.
         11   -1    0    0    0    0 -0.00000000000E+00 -0.00000000000E+00 -0.45593999997E+02  0.45594000000E+02  0.51100000000E-03 0.  1.
    9900012    2    1    2    0    0 -0.34322387283E+01  0.11977304800E+02 -0.41573876834E+02  0.47787270421E+02  0.19999997159E+02 0.  0.
         12    1    1    2    0    0  0.34322387283E+01 -0.11977304800E+02  0.41573876834E+02  0.43400729579E+02  0.00000000000E+00 0. -1.
         11    1    3    3    0    0 -0.30934446078E+01  0.58233636518E+01 -0.31439543458E+02  0.32123602801E+02  0.51100000000E-03 0.  1.
        -11    1    3    3    0    0 -0.42104599442E+01  0.24001760742E+01 -0.88962203963E+01  0.10130723357E+02  0.51100000000E-03 0. -1.
        -12    1    3    3    0    0  0.38716658237E+01  0.37537650736E+01 -0.12381129792E+01  0.55329442639E+01  0.00000000000E+00 0.  1.
</event>
<event>
 7    1  0.1384886E-010  0.4778727E+02  0.7816164E-02  0.1312668E+00
        -11   -1    0    0    0    0  0.00000000000E+00  0.00000000000E+00  0.45593999997E+02  0.45594000000E+02  0.51100000000E-03 0. -1.
         11   -1    0    0    0    0 -0.00000000000E+00 -0.00000000000E+00 -0.45593999997E+02  0.45594000000E+02  0.51100000000E-03 0.  1.
    9900012    2    1    2    0    0 -0.13507656022E+02  0.40119071900E+02  0.95721796023E+01  0.47787270470E+02  0.19999997383E+02 0.  0.
         12    1    1    2    0    0  0.13507656022E+02 -0.40119071900E+02 -0.95721796023E+01  0.43400729530E+02  0.00000000000E+00 0. -1.
         11    1    3    3    0    0  0.35817347521E+00  0.11616700864E+02  0.33946150438E+01  0.12107825518E+02  0.51100000000E-03 0. -1.
        -11    1    3    3    0    0  0.22094201739E+01  0.99777425845E+01  0.42787576890E+01  0.11079018558E+02  0.51100000000E-03 0.  1.
         12    1    3    3    0    0 -0.16075249672E+02  0.18524628451E+02  0.18988068695E+01  0.24600426395E+02  0.00000000000E+00 0. -1.
</event>
<event>
 7    1  0.1384886E-010  0.4778727E+02  0.7816164E-02  0.1312668E+00
        -11   -1    0    0    0    0  0.00000000000E+00  0.00000000000E+00  0.45593999997E+02  0.45594000000E+02  0.51100000000E-03 0. -1.
         11   -1    0    0    0    0 -0.00000000000E+00 -0.00000000000E+00 -0.45593999997E+02  0.45594000000E+02  0.51100000000E-03 0.  1.
    9900012    2    1    2    0    0 -0.29025177118E+02  0.30408987814E+02 -0.10791457209E+02  0.47787274254E+02  0.20000014633E+02 0.  0.
         12    1    1    2    0    0  0.29025177118E+02 -0.30408987814E+02  0.10791457209E+02  0.43400725746E+02  0.00000000000E+00 0. -1.
         11    1    3    3    0    0 -0.18487128226E+02  0.30051386337E+02 -0.68929028783E+01  0.35949573588E+02  0.51100000000E-03 0.  1.
        -11    1    3    3    0    0 -0.43652170651E+01  0.11226130073E+01 -0.33055155889E+01  0.55894376782E+01  0.51100000000E-03 0. -1.
        -12    1    3    3    0    0 -0.61728318273E+01 -0.76501153070E+00 -0.59303874176E+00  0.62482629874E+01  0.00000000000E+00 0.  1.
</event>
<event>
 7    1  0.1384886E-010  0.4778727E+02  0.7816164E-02  0.1312668E+00
        -11   -1    0    0    0    0  0.00000000000E+00  0.00000000000E+00  0.45593999997E+02  0.45594000000E+02  0.51100000000E-03 0.  1.
         11   -1    0    0    0    0 -0.00000000000E+00 -0.00000000000E+00 -0.45593999997E+02  0.45594000000E+02  0.51100000000E-03 0. -1.
    9900012    2    1    2    0    0  0.24420886076E+02 -0.34139659400E+02  0.11033007572E+02  0.47787271011E+02  0.19999999849E+02 0.  0.
         12    1    1    2    0    0 -0.24420886076E+02  0.34139659400E+02 -0.11033007572E+02  0.43400728989E+02  0.00000000000E+00 0. -1.
         11    1    3    3    0    0  0.32329544164E+01  0.63589186546E+00  0.79562118147E+00  0.33895967384E+01  0.51100000000E-03 0. -1.
        -11    1    3    3    0    0 -0.73381137551E+00 -0.59756655209E+01 -0.17510206503E+01  0.62700184315E+01  0.51100000000E-03 0.  1.
        -12    1    3    3    0    0  0.21921743035E+02 -0.28799885744E+02  0.11988407041E+02  0.38127655841E+02  0.00000000000E+00 0.  1.
</event>
<event>
 7    1  0.1384886E-010  0.4778727E+02  0.7816164E-02  0.1312668E+00
        -11   -1    0    0    0    0  0.00000000000E+00  0.00000000000E+00  0.45593999997E+02  0.45594000000E+02  0.51100000000E-03 0.  1.
         11   -1    0    0    0    0 -0.00000000000E+00 -0.00000000000E+00 -0.45593999997E+02  0.45594000000E+02  0.51100000000E-03 0. -1.
    9900012    2    1    2    0    0 -0.19860731618E+02  0.37193709358E+02  0.10286036830E+02  0.47787271552E+02  0.20000002313E+02 0.  0.
         12    1    1    2    0    0  0.19860731618E+02 -0.37193709358E+02 -0.10286036830E+02  0.43400728448E+02  0.00000000000E+00 0. -1.
         11    1    3    3    0    0 -0.11618079675E+02  0.16140257010E+02 -0.21116328163E+00  0.19887992907E+02  0.51100000000E-03 0. -1.
        -11    1    3    3    0    0 -0.69385563103E+01  0.13221428275E+02  0.24688022088E+00  0.14933542092E+02  0.51100000000E-03 0.  1.
        -12    1    3    3    0    0 -0.13040956323E+01  0.78320240721E+01  0.10250319891E+02  0.12965736552E+02  0.00000000000E+00 0.  1.
</event>
<event>
 7    1  0.1384886E-010  0.4778727E+02  0.7816164E-02  0.1312668E+00
        -11   -1    0    0    0    0  0.00000000000E+00  0.00000000000E+00  0.45593999997E+02  0.45594000000E+02  0.51100000000E-03 0.  1.
         11   -1    0    0    0    0 -0.00000000000E+00 -0.00000000000E+00 -0.45593999997E+02  0.45594000000E+02  0.51100000000E-03 0. -1.
    9900012    2    1    2    0    0 -0.37630792471E+02  0.18399472838E+02  0.11358094550E+02  0.47787268963E+02  0.19999990512E+02 0.  0.
         12    1    1    2    0    0  0.37630792471E+02 -0.18399472838E+02 -0.11358094550E+02  0.43400731037E+02  0.00000000000E+00 0. -1.
         11    1    3    3    0    0 -0.16294372231E+02  0.46362121503E+01  0.55060243213E+01  0.17813403201E+02  0.51100000000E-03 0. -1.
        -11    1    3    3    0    0 -0.17470977457E+02  0.15073425975E+02  0.90528496675E+01  0.24787039179E+02  0.51100000000E-03 0.  1.
         12    1    3    3    0    0 -0.38654427825E+01 -0.13101652870E+01 -0.32007794388E+01  0.51868265828E+01  0.00000000000E+00 0. -1.
</event>
<event>
 7    1  0.1384886E-010  0.4778727E+02  0.7816164E-02  0.1312668E+00
        -11   -1    0    0    0    0  0.00000000000E+00  0.00000000000E+00  0.45593999997E+02  0.45594000000E+02  0.51100000000E-03 0. -1.
         11   -1    0    0    0    0 -0.00000000000E+00 -0.00000000000E+00 -0.45593999997E+02  0.45594000000E+02  0.51100000000E-03 0.  1.
    9900012    2    1    2    0    0  0.41989169631E+02  0.97121769796E+01 -0.51192009291E+01  0.47787274590E+02  0.20000016164E+02 0.  0.
         12    1    1    2    0    0 -0.41989169631E+02 -0.97121769796E+01  0.51192009291E+01  0.43400725410E+02  0.00000000000E+00 0. -1.
         11    1    3    3    0    0  0.40824381174E+01 -0.25199646480E+01  0.13071545162E+01  0.49724416538E+01  0.51100000000E-03 0. -1.
        -11    1    3    3    0    0  0.17337312000E+02  0.79071099516E+01 -0.99589800961E+01  0.21500838588E+02  0.51100000000E-03 0.  1.
         12    1    3    3    0    0  0.20569419514E+02  0.43250316760E+01  0.35326246509E+01  0.21313994348E+02  0.00000000000E+00 0. -1.
</event>
<event>
 7    1  0.1384886E-010  0.4778727E+02  0.7816164E-02  0.1312668E+00
        -11   -1    0    0    0    0  0.00000000000E+00  0.00000000000E+00  0.45593999997E+02  0.45594000000E+02  0.51100000000E-03 0.  1.
         11   -1    0    0    0    0 -0.00000000000E+00 -0.00000000000E+00 -0.45593999997E+02  0.45594000000E+02  0.51100000000E-03 0. -1.
    9900012    2    1    2    0    0 -0.23613245470E+02  0.28327638252E+02  0.22881930940E+02  0.47787271733E+02  0.20000003138E+02 0.  0.
         12    1    1    2    0    0  0.23613245470E+02 -0.28327638252E+02 -0.22881930940E+02  0.43400728267E+02  0.00000000000E+00 0. -1.
         11    1    3    3    0    0 -0.46402193073E+01  0.66921830159E+01 -0.27178341424E+01  0.85850784170E+01  0.51100000000E-03 0. -1.
        -11    1    3    3    0    0 -0.11779601129E+02  0.10851907268E+02  0.98450897492E+01  0.18800231024E+02  0.51100000000E-03 0.  1.
        -12    1    3    3    0    0 -0.71934250335E+01  0.10783547968E+02  0.15754675334E+02  0.20401962292E+02  0.00000000000E+00 0.  1.
</event>
<event>
 7    1  0.1384886E-010  0.4778727E+02  0.7816164E-02  0.1312668E+00
        -11   -1    0    0    0    0  0.00000000000E+00  0.00000000000E+00  0.45593999997E+02  0.45594000000E+02  0.51100000000E-03 0.  1.
         11   -1    0    0    0    0 -0.00000000000E+00 -0.00000000000E+00 -0.45593999997E+02  0.45594000000E+02  0.51100000000E-03 0. -1.
    9900012    2    1    2    0    0 -0.11215192121E+02  0.38741171532E+02  0.16030108170E+02  0.47787271044E+02  0.19999999999E+02 0.  0.
         12    1    1    2    0    0  0.11215192121E+02 -0.38741171532E+02 -0.16030108170E+02  0.43400728956E+02  0.00000000000E+00 0. -1.
         11    1    3    3    0    0  0.41168831359E-01  0.65450934176E+01 -0.28749571241E+01  0.71487986015E+01  0.51100000000E-03 0. -1.
        -11    1    3    3    0    0 -0.13431317339E+02  0.24223518367E+02  0.14125671209E+02  0.31092020116E+02  0.51100000000E-03 0.  1.
         12    1    3    3    0    0  0.21749563864E+01  0.79725597474E+01  0.47793940844E+01  0.95464523265E+01  0.00000000000E+00 0. -1.
</event>
<event>
 7    1  0.1384886E-010  0.4778721E+02  0.7816164E-02  0.1312668E+00
        -11   -1    0    0    0    0  0.00000000000E+00  0.00000000000E+00  0.45593999997E+02  0.45594000000E+02  0.51100000000E-03 0. -1.
         11   -1    0    0    0    0 -0.00000000000E+00 -0.00000000000E+00 -0.45593999997E+02  0.45594000000E+02  0.51100000000E-03 0.  1.
    9900012    2    1    2    0    0  0.12470103555E+02 -0.28022875663E+02 -0.30705760721E+02  0.47787207558E+02  0.19999710540E+02 0.  0.
         12    1    1    2    0    0 -0.12470103555E+02  0.28022875663E+02  0.30705760721E+02  0.43400792442E+02  0.00000000000E+00 0. -1.
         11    1    3    3    0    0 -0.15229267901E+01 -0.15790448357E+01 -0.25411444546E+01  0.33570975561E+01  0.51100000000E-03 0. -1.
        -11    1    3    3    0    0 -0.27219408190E+01 -0.11168324370E+02 -0.11937698047E+02  0.16572539515E+02  0.51100000000E-03 0.  1.
        -12    1    3    3    0    0  0.16714971164E+02 -0.15275506457E+02 -0.16226918220E+02  0.27857570487E+02  0.00000000000E+00 0.  1.
</event>
<event>
 7    1  0.1384886E-010  0.4778727E+02  0.7816164E-02  0.1312668E+00
        -11   -1    0    0    0    0  0.00000000000E+00  0.00000000000E+00  0.45593999997E+02  0.45594000000E+02  0.51100000000E-03 0.  1.
         11   -1    0    0    0    0 -0.00000000000E+00 -0.00000000000E+00 -0.45593999997E+02  0.45594000000E+02  0.51100000000E-03 0. -1.
    9900012    2    1    2    0    0  0.52672661009E+01 -0.82421583618E+01  0.42284108630E+02  0.47787272941E+02  0.20000008647E+02 0.  0.
         12    1    1    2    0    0 -0.52672661009E+01  0.82421583618E+01 -0.42284108630E+02  0.43400727059E+02  0.00000000000E+00 0. -1.
         11    1    3    3    0    0  0.91724507331E+01 -0.50048235763E+01  0.86209191747E+01  0.13546304262E+02  0.51100000000E-03 0. -1.
        -11    1    3    3    0    0  0.48479298286E+00  0.14015082917E+00  0.64560532197E+01  0.64757462835E+01  0.51100000000E-03 0.  1.
         12    1    3    3    0    0 -0.43899776150E+01 -0.33774856146E+01  0.27207136235E+02  0.27765222395E+02  0.00000000000E+00 0. -1.
</event>
<event>
 7    1  0.1384886E-010  0.4778727E+02  0.7816164E-02  0.1312668E+00
        -11   -1    0    0    0    0  0.00000000000E+00  0.00000000000E+00  0.45593999997E+02  0.45594000000E+02  0.51100000000E-03 0.  1.
         11   -1    0    0    0    0 -0.00000000000E+00 -0.00000000000E+00 -0.45593999997E+02  0.45594000000E+02  0.51100000000E-03 0. -1.
    9900012    2    1    2    0    0  0.36429444026E+02  0.11139653835E+02  0.20794881813E+02  0.47787269716E+02  0.19999993943E+02 0.  0.
         12    1    1    2    0    0 -0.36429444026E+02 -0.11139653835E+02 -0.20794881813E+02  0.43400730284E+02  0.00000000000E+00 0. -1.
         11    1    3    3    0    0  0.19158950068E+02  0.12628761425E+02  0.68422854520E+01  0.23945100820E+02  0.51100000000E-03 0. -1.
        -11    1    3    3    0    0  0.76991851292E+01  0.81390140150E+00  0.11208444816E+02  0.13622375806E+02  0.51100000000E-03 0.  1.
        -12    1    3    3    0    0  0.95713088283E+01 -0.23030089914E+01  0.27441515453E+01  0.10219793090E+02  0.00000000000E+00 0.  1.
</event>
<event>
 7    1  0.1384886E-010  0.4778727E+02  0.7816164E-02  0.1312668E+00
        -11   -1    0    0    0    0  0.00000000000E+00  0.00000000000E+00  0.45593999997E+02  0.45594000000E+02  0.51100000000E-03 0. -1.
         11   -1    0    0    0    0 -0.00000000000E+00 -0.00000000000E+00 -0.45593999997E+02  0.45594000000E+02  0.51100000000E-03 0.  1.
    9900012    2    1    2    0    0 -0.27454054464E+02  0.32753177486E+02  0.75582951996E+01  0.47787267653E+02  0.19999984536E+02 0.  0.
         12    1    1    2    0    0  0.27454054464E+02 -0.32753177486E+02 -0.75582951996E+01  0.43400732347E+02  0.00000000000E+00 0. -1.
         11    1    3    3    0    0 -0.48487409893E+00 -0.18751339061E+01 -0.99059133144E+00  0.21754313376E+01  0.51100000000E-03 0. -1.
        -11    1    3    3    0    0 -0.18021402721E+02  0.16032732670E+02  0.35735924451E+01  0.24384216948E+02  0.51100000000E-03 0.  1.
        -12    1    3    3    0    0 -0.89477776439E+01  0.18595578722E+02  0.49752940859E+01  0.21227619367E+02  0.00000000000E+00 0.  1.
</event>
<event>
 7    1  0.1384886E-010  0.4778727E+02  0.7816164E-02  0.1312668E+00
        -11   -1    0    0    0    0  0.00000000000E+00  0.00000000000E+00  0.45593999997E+02  0.45594000000E+02  0.51100000000E-03 0.  1.
         11   -1    0    0    0    0 -0.00000000000E+00 -0.00000000000E+00 -0.45593999997E+02  0.45594000000E+02  0.51100000000E-03 0. -1.
    9900012    2    1    2    0    0 -0.25534013963E+02 -0.34809357620E+02  0.44660927313E+01  0.47787271535E+02  0.20000002236E+02 0.  0.
         12    1    1    2    0    0  0.25534013963E+02  0.34809357620E+02 -0.44660927313E+01  0.43400728465E+02  0.00000000000E+00 0. -1.
         11    1    3    3    0    0 -0.16511546724E+00 -0.16382541928E+01 -0.42041433154E+01  0.45150815269E+01  0.51100000000E-03 0. -1.
        -11    1    3    3    0    0 -0.13461742290E+02 -0.21357207213E+02  0.23785695468E+01  0.25357570837E+02  0.51100000000E-03 0.  1.
        -12    1    3    3    0    0 -0.11907156206E+02 -0.11813896215E+02  0.62916664998E+01  0.17914619171E+02  0.00000000000E+00 0.  1.
</event>
<event>
 7    1  0.1384886E-010  0.4778727E+02  0.7816164E-02  0.1312668E+00
        -11   -1    0    0    0    0  0.00000000000E+00  0.00000000000E+00  0.45593999997E+02  0.45594000000E+02  0.51100000000E-03 0.  1.
         11   -1    0    0    0    0 -0.00000000000E+00 -0.00000000000E+00 -0.45593999997E+02  0.45594000000E+02  0.51100000000E-03 0. -1.
    9900012    2    1    2    0    0  0.48930272864E+01  0.17074054438E+02  0.39599979280E+02  0.47787269477E+02  0.19999992853E+02 0.  0.
         12    1    1    2    0    0 -0.48930272864E+01 -0.17074054438E+02 -0.39599979280E+02  0.43400730523E+02  0.00000000000E+00 0. -1.
         11    1    3    3    0    0  0.22165099737E+01  0.22778061989E+01  0.12631385153E+01  0.34200638463E+01  0.51100000000E-03 0. -1.
        -11    1    3    3    0    0 -0.49834253785E+01  0.81070699218E+01  0.29144745665E+02  0.30659016804E+02  0.51100000000E-03 0.  1.
        -12    1    3    3    0    0  0.76599426912E+01  0.66891783174E+01  0.91920950992E+01  0.13708188827E+02  0.00000000000E+00 0.  1.
</event>
<event>
 7    1  0.1384886E-010  0.4778727E+02  0.7816164E-02  0.1312668E+00
        -11   -1    0    0    0    0  0.00000000000E+00  0.00000000000E+00  0.45593999997E+02  0.45594000000E+02  0.51100000000E-03 0.  1.
         11   -1    0    0    0    0 -0.00000000000E+00 -0.00000000000E+00 -0.45593999997E+02  0.45594000000E+02  0.51100000000E-03 0. -1.
    9900012    2    1    2    0    0  0.82286046972E+01 -0.30696307624E+01  0.42502833215E+02  0.47787269596E+02  0.19999993398E+02 0.  0.
         12    1    1    2    0    0 -0.82286046972E+01  0.30696307624E+01 -0.42502833215E+02  0.43400730404E+02  0.00000000000E+00 0. -1.
         11    1    3    3    0    0  0.29376257655E+01 -0.26973892087E+01 -0.38325397728E+00  0.40065493325E+01  0.51100000000E-03 0. -1.
        -11    1    3    3    0    0  0.46586104005E+01  0.19059607759E+01  0.15589673206E+02  0.16382101461E+02  0.51100000000E-03 0.  1.
        -12    1    3    3    0    0  0.63236853120E+00 -0.22782023296E+01  0.27296413986E+02  0.27398618803E+02  0.00000000000E+00 0.  1.
</event>
<event>
 7    1  0.1384886E-010  0.4778725E+02  0.7816164E-02  0.1312668E+00
        -11   -1    0    0    0    0  0.00000000000E+00  0.00000000000E+00  0.45593999997E+02  0.45594000000E+02  0.51100000000E-03 0. -1.
         11   -1    0    0    0    0 -0.00000000000E+00 -0.00000000000E+00 -0.45593999997E+02  0.45594000000E+02  0.51100000000E-03 0.  1.
    9900012    2    1    2    0    0  0.13188152355E+02  0.29017614047E+02 -0.29456331099E+02  0.47787254277E+02  0.19999923549E+02 0.  0.
         12    1    1    2    0    0 -0.13188152355E+02 -0.29017614047E+02  0.29456331099E+02  0.43400745723E+02  0.00000000000E+00 0. -1.
         11    1    3    3    0    0  0.57225817517E+01  0.12219745000E+02 -0.17594351555E+02  0.22172760691E+02  0.51100000000E-03 0. -1.
        -11    1    3    3    0    0  0.89071636801E+01  0.14195986680E+02 -0.14092429432E+02  0.21896578961E+02  0.51100000000E-03 0.  1.
         12    1    3    3    0    0 -0.14415930763E+01  0.26018823677E+01  0.22304498882E+01  0.37179146247E+01  0.00000000000E+00 0. -1.
</event>
<event>
 7    1  0.1384886E-010  0.4778727E+02  0.7816164E-02  0.1312668E+00
        -11   -1    0    0    0    0  0.00000000000E+00  0.00000000000E+00  0.45593999997E+02  0.45594000000E+02  0.51100000000E-03 0.  1.
         11   -1    0    0    0    0 -0.00000000000E+00 -0.00000000000E+00 -0.45593999997E+02  0.45594000000E+02  0.51100000000E-03 0. -1.
    9900012    2    1    2    0    0  0.25221276958E+02  0.95184199354E+01  0.34013382733E+02  0.47787270347E+02  0.19999996821E+02 0.  0.
         12    1    1    2    0    0 -0.25221276958E+02 -0.95184199354E+01 -0.34013382733E+02  0.43400729653E+02  0.00000000000E+00 0. -1.
         11    1    3    3    0    0  0.10719900592E+01  0.52691638992E+01  0.92341986338E+01  0.10685676186E+02  0.51100000000E-03 0. -1.
        -11    1    3    3    0    0  0.12268134181E+02  0.83965033318E+01  0.15414753768E+02  0.21415485483E+02  0.51100000000E-03 0.  1.
        -12    1    3    3    0    0  0.11881152718E+02 -0.41472472956E+01  0.93644303309E+01  0.15686108678E+02  0.00000000000E+00 0.  1.
</event>
<event>
 7    1  0.1384886E-010  0.4778727E+02  0.7816164E-02  0.1312668E+00
        -11   -1    0    0    0    0  0.00000000000E+00  0.00000000000E+00  0.45593999997E+02  0.45594000000E+02  0.51100000000E-03 0. -1.
         11   -1    0    0    0    0 -0.00000000000E+00 -0.00000000000E+00 -0.45593999997E+02  0.45594000000E+02  0.51100000000E-03 0.  1.
    9900012    2    1    2    0    0  0.11969184324E+02  0.37117213731E+02 -0.19044002045E+02  0.47787274863E+02  0.20000017410E+02 0.  0.
         12    1    1    2    0    0 -0.11969184324E+02 -0.37117213731E+02  0.19044002045E+02  0.43400725137E+02  0.00000000000E+00 0. -1.
         11    1    3    3    0    0  0.39533374064E+01  0.77597706299E+01 -0.10260616954E+02  0.13458201121E+02  0.51100000000E-03 0. -1.
        -11    1    3    3    0    0  0.30671327334E+01  0.26886443405E+02 -0.96506248632E+01  0.28730170600E+02  0.51100000000E-03 0.  1.
         12    1    3    3    0    0  0.49487141837E+01  0.24709996961E+01  0.86723977253E+00  0.55989031420E+01  0.00000000000E+00 0. -1.
</event>
<event>
 7    1  0.1384886E-010  0.4778726E+02  0.7816164E-02  0.1312668E+00
        -11   -1    0    0    0    0  0.00000000000E+00  0.00000000000E+00  0.45593999997E+02  0.45594000000E+02  0.51100000000E-03 0.  1.
         11   -1    0    0    0    0 -0.00000000000E+00 -0.00000000000E+00 -0.45593999997E+02  0.45594000000E+02  0.51100000000E-03 0. -1.
    9900012    2    1    2    0    0 -0.56062252529E+01 -0.22410881019E+02  0.36741621499E+02  0.47787261527E+02  0.19999956605E+02 0.  0.
         12    1    1    2    0    0  0.56062252529E+01  0.22410881019E+02 -0.36741621499E+02  0.43400738473E+02  0.00000000000E+00 0. -1.
         11    1    3    3    0    0  0.11323170132E+01  0.25127540552E+01  0.24968843016E+00  0.27673849269E+01  0.51100000000E-03 0. -1.
        -11    1    3    3    0    0 -0.52569888552E+01 -0.13308276540E+02  0.16399679632E+02  0.21764550273E+02  0.51100000000E-03 0.  1.
        -12    1    3    3    0    0 -0.14815534108E+01 -0.11615358534E+02  0.20092253438E+02  0.23255326327E+02  0.00000000000E+00 0.  1.
</event>
<event>
 7    1  0.1384886E-010  0.4778727E+02  0.7816164E-02  0.1312668E+00
        -11   -1    0    0    0    0  0.00000000000E+00  0.00000000000E+00  0.45593999997E+02  0.45594000000E+02  0.51100000000E-03 0.  1.
         11   -1    0    0    0    0 -0.00000000000E+00 -0.00000000000E+00 -0.45593999997E+02  0.45594000000E+02  0.51100000000E-03 0. -1.
    9900012    2    1    2    0    0 -0.27233069430E+02 -0.21382101566E+02  0.26168473402E+02  0.47787270305E+02  0.19999996627E+02 0.  0.
         12    1    1    2    0    0  0.27233069430E+02  0.21382101566E+02 -0.26168473402E+02  0.43400729695E+02  0.00000000000E+00 0. -1.
         11    1    3    3    0    0 -0.59480329329E+01 -0.88355588522E-01  0.35039404754E+01  0.69039482615E+01  0.51100000000E-03 0. -1.
        -11    1    3    3    0    0 -0.17739840343E+02 -0.23713835576E+02  0.20874980294E+02  0.36232757770E+02  0.51100000000E-03 0.  1.
        -12    1    3    3    0    0 -0.35451961539E+01  0.24200895983E+01  0.17895526325E+01  0.46505642731E+01  0.00000000000E+00 0.  1.
</event>
<event>
 7    1  0.1384886E-010  0.4778726E+02  0.7816164E-02  0.1312668E+00
        -11   -1    0    0    0    0  0.00000000000E+00  0.00000000000E+00  0.45593999997E+02  0.45594000000E+02  0.51100000000E-03 0. -1.
         11   -1    0    0    0    0 -0.00000000000E+00 -0.00000000000E+00 -0.45593999997E+02  0.45594000000E+02  0.51100000000E-03 0.  1.
    9900012    2    1    2    0    0  0.30870791612E+01 -0.37727703191E+01 -0.43126102777E+02  0.47787255831E+02  0.19999930638E+02 0.  0.
         12    1    1    2    0    0 -0.30870791612E+01  0.37727703191E+01  0.43126102777E+02  0.43400744169E+02  0.00000000000E+00 0. -1.
         11    1    3    3    0    0  0.44629588354E+01  0.25262576140E+01 -0.10430732650E+02  0.11623259568E+02  0.51100000000E-03 0. -1.
        -11    1    3    3    0    0  0.48283253066E+01  0.15212234984E+01 -0.15203361304E+02  0.16024014522E+02  0.51100000000E-03 0.  1.
         12    1    3    3    0    0 -0.62042049808E+01 -0.78202514315E+01 -0.17492008824E+02  0.20139981742E+02  0.00000000000E+00 0. -1.
</event>
<event>
 7    1  0.1384886E-010  0.4778727E+02  0.7816164E-02  0.1312668E+00
        -11   -1    0    0    0    0  0.00000000000E+00  0.00000000000E+00  0.45593999997E+02  0.45594000000E+02  0.51100000000E-03 0.  1.
         11   -1    0    0    0    0 -0.00000000000E+00 -0.00000000000E+00 -0.45593999997E+02  0.45594000000E+02  0.51100000000E-03 0. -1.
    9900012    2    1    2    0    0 -0.12877412237E+02 -0.40960596569E+02  0.63265563789E+01  0.47787268062E+02  0.19999986400E+02 0.  0.
         12    1    1    2    0    0  0.12877412237E+02  0.40960596569E+02 -0.63265563789E+01  0.43400731938E+02  0.00000000000E+00 0. -1.
         11    1    3    3    0    0 -0.97777221597E+01 -0.28130512331E+02 -0.72755008786E+00  0.29790248472E+02  0.51100000000E-03 0. -1.
        -11    1    3    3    0    0 -0.43455962528E+01 -0.87209719029E+00  0.10338004895E+01  0.45512090718E+01  0.51100000000E-03 0.  1.
        -12    1    3    3    0    0  0.12459061751E+01 -0.11957987047E+02  0.60203059772E+01  0.13445810517E+02  0.00000000000E+00 0.  1.
</event>
<event>
 7    1  0.1384886E-010  0.4778727E+02  0.7816164E-02  0.1312668E+00
        -11   -1    0    0    0    0  0.00000000000E+00  0.00000000000E+00  0.45593999997E+02  0.45594000000E+02  0.51100000000E-03 0.  1.
         11   -1    0    0    0    0 -0.00000000000E+00 -0.00000000000E+00 -0.45593999997E+02  0.45594000000E+02  0.51100000000E-03 0. -1.
    9900012    2    1    2    0    0  0.11828238716E+01  0.30894915158E+02  0.30458629469E+02  0.47787274613E+02  0.20000016271E+02 0.  0.
         12    1    1    2    0    0 -0.11828238716E+01 -0.30894915158E+02 -0.30458629469E+02  0.43400725387E+02  0.00000000000E+00 0. -1.
         11    1    3    3    0    0 -0.21774654110E+01  0.60958162852E+01  0.17781067756E+02  0.18922650518E+02  0.51100000000E-03 0. -1.
        -11    1    3    3    0    0  0.30814984616E+01  0.65483753363E+01  0.12911927010E+01  0.73514645593E+01  0.51100000000E-03 0.  1.
        -12    1    3    3    0    0  0.27879082105E+00  0.18250723537E+02  0.11386369012E+02  0.21513159536E+02  0.00000000000E+00 0.  1.
</event>
<event>
 7    1  0.1384886E-010  0.4778727E+02  0.7816164E-02  0.1312668E+00
        -11   -1    0    0    0    0  0.00000000000E+00  0.00000000000E+00  0.45593999997E+02  0.45594000000E+02  0.51100000000E-03 0. -1.
         11   -1    0    0    0    0 -0.00000000000E+00 -0.00000000000E+00 -0.45593999997E+02  0.45594000000E+02  0.51100000000E-03 0.  1.
    9900012    2    1    2    0    0 -0.36354935231E+02  0.36276674727E+01  0.23426097588E+02  0.47787270339E+02  0.19999996784E+02 0.  0.
         12    1    1    2    0    0  0.36354935231E+02 -0.36276674727E+01 -0.23426097588E+02  0.43400729661E+02  0.00000000000E+00 0. -1.
         11    1    3    3    0    0 -0.23299337600E+02  0.72593945565E+00  0.10711863836E+02  0.25654047396E+02  0.51100000000E-03 0.  1.
        -11    1    3    3    0    0 -0.10897272510E+02  0.20095339043E+01  0.15142641596E+02  0.18764017945E+02  0.51100000000E-03 0. -1.
        -12    1    3    3    0    0 -0.21583251203E+01  0.89219411275E+00 -0.24284078445E+01  0.33692049980E+01  0.00000000000E+00 0.  1.
</event>
<event>
 7    1  0.1384886E-010  0.4778727E+02  0.7816164E-02  0.1312668E+00
        -11   -1    0    0    0    0  0.00000000000E+00  0.00000000000E+00  0.45593999997E+02  0.45594000000E+02  0.51100000000E-03 0.  1.
         11   -1    0    0    0    0 -0.00000000000E+00 -0.00000000000E+00 -0.45593999997E+02  0.45594000000E+02  0.51100000000E-03 0. -1.
    9900012    2    1    2    0    0  0.35840550369E+02 -0.62908382367E+01  0.23653822440E+02  0.47787274056E+02  0.20000013730E+02 0.  0.
         12    1    1    2    0    0 -0.35840550369E+02  0.62908382367E+01 -0.23653822440E+02  0.43400725944E+02  0.00000000000E+00 0. -1.
         11    1    3    3    0    0  0.16942301788E+02 -0.33492970993E+01  0.20009313606E+02  0.26431647928E+02  0.51100000000E-03 0.  1.
        -11    1    3    3    0    0  0.42338146221E-01  0.53331477469E+00  0.20470164265E+01  0.21157725962E+01  0.51100000000E-03 0. -1.
        -12    1    3    3    0    0  0.18855910435E+02 -0.34748559121E+01  0.15974924077E+01  0.19239853532E+02  0.00000000000E+00 0.  1.
</event>
<event>
 7    1  0.1384886E-010  0.4778728E+02  0.7816164E-02  0.1312668E+00
        -11   -1    0    0    0    0  0.00000000000E+00  0.00000000000E+00  0.45593999997E+02  0.45594000000E+02  0.51100000000E-03 0. -1.
         11   -1    0    0    0    0 -0.00000000000E+00 -0.00000000000E+00 -0.45593999997E+02  0.45594000000E+02  0.51100000000E-03 0.  1.
    9900012    2    1    2    0    0  0.30732973864E+02 -0.25373463701E+02 -0.17184115494E+02  0.47787283785E+02  0.20000058088E+02 0.  0.
         12    1    1    2    0    0 -0.30732973864E+02  0.25373463701E+02  0.17184115494E+02  0.43400716215E+02  0.00000000000E+00 0. -1.
         11    1    3    3    0    0  0.84726901236E+01 -0.16710084220E+01  0.50623714044E+00  0.86507238645E+01  0.51100000000E-03 0. -1.
        -11    1    3    3    0    0  0.11346318221E+02 -0.20540257237E+02 -0.10650193093E+02  0.25769511398E+02  0.51100000000E-03 0.  1.
         12    1    3    3    0    0  0.10913965519E+02 -0.31621980420E+01 -0.70401595415E+01  0.13367048522E+02  0.00000000000E+00 0. -1.
</event>
<event>
 7    1  0.1384886E-010  0.4778727E+02  0.7816164E-02  0.1312668E+00
        -11   -1    0    0    0    0  0.00000000000E+00  0.00000000000E+00  0.45593999997E+02  0.45594000000E+02  0.51100000000E-03 0.  1.
         11   -1    0    0    0    0 -0.00000000000E+00 -0.00000000000E+00 -0.45593999997E+02  0.45594000000E+02  0.51100000000E-03 0. -1.
    9900012    2    1    2    0    0 -0.25138267573E+02 -0.23678232209E+02  0.26287490547E+02  0.47787270324E+02  0.19999996717E+02 0.  0.
         12    1    1    2    0    0  0.25138267573E+02  0.23678232209E+02 -0.26287490547E+02  0.43400729676E+02  0.00000000000E+00 0. -1.
         11    1    3    3    0    0 -0.14760363073E+02 -0.13209196100E+02  0.25502488598E+02  0.32291300758E+02  0.51100000000E-03 0.  1.
        -11    1    3    3    0    0 -0.38356021509E+01 -0.24203160245E+01 -0.16770364497E+01  0.48355170389E+01  0.51100000000E-03 0. -1.
        -12    1    3    3    0    0 -0.65423023488E+01 -0.80487200844E+01  0.24620383985E+01  0.10660452528E+02  0.00000000000E+00 0.  1.
</event>
<event>
 7    1  0.1384886E-010  0.4778727E+02  0.7816164E-02  0.1312668E+00
        -11   -1    0    0    0    0  0.00000000000E+00  0.00000000000E+00  0.45593999997E+02  0.45594000000E+02  0.51100000000E-03 0.  1.
         11   -1    0    0    0    0 -0.00000000000E+00 -0.00000000000E+00 -0.45593999997E+02  0.45594000000E+02  0.51100000000E-03 0. -1.
    9900012    2    1    2    0    0 -0.11226701770E+02 -0.23888542193E+02  0.34451732426E+02  0.47787272496E+02  0.20000006616E+02 0.  0.
         12    1    1    2    0    0  0.11226701770E+02  0.23888542193E+02 -0.34451732426E+02  0.43400727504E+02  0.00000000000E+00 0. -1.
         11    1    3    3    0    0 -0.23157290372E+01 -0.37472196920E+01 -0.10310474183E+01  0.45240817227E+01  0.51100000000E-03 0. -1.
        -11    1    3    3    0    0 -0.10436184944E+02 -0.17614097798E+02  0.24691828991E+02  0.32075797989E+02  0.51100000000E-03 0.  1.
         12    1    3    3    0    0  0.15252122110E+01 -0.25272247033E+01  0.10790950853E+02  0.11187392784E+02  0.00000000000E+00 0. -1.
</event>
<event>
 7    1  0.1384886E-010  0.4778727E+02  0.7816164E-02  0.1312668E+00
        -11   -1    0    0    0    0  0.00000000000E+00  0.00000000000E+00  0.45593999997E+02  0.45594000000E+02  0.51100000000E-03 0.  1.
         11   -1    0    0    0    0 -0.00000000000E+00 -0.00000000000E+00 -0.45593999997E+02  0.45594000000E+02  0.51100000000E-03 0. -1.
    9900012    2    1    2    0    0  0.28600359434E+02 -0.31734175650E+02  0.76540714281E+01  0.47787271051E+02  0.20000000028E+02 0.  0.
         12    1    1    2    0    0 -0.28600359434E+02  0.31734175650E+02 -0.76540714281E+01  0.43400728949E+02  0.00000000000E+00 0. -1.
         11    1    3    3    0    0 -0.54424879455E+00 -0.16932673663E+01  0.17633243514E+01  0.25045307252E+01  0.51100000000E-03 0. -1.
        -11    1    3    3    0    0  0.22677436017E+02 -0.14634734371E+02 -0.14592069648E+01  0.27029073969E+02  0.51100000000E-03 0.  1.
        -12    1    3    3    0    0  0.64671722118E+01 -0.15406173912E+02  0.73499540415E+01  0.18253666356E+02  0.00000000000E+00 0.  1.
</event>
<event>
 7    1  0.1384886E-010  0.4778727E+02  0.7816164E-02  0.1312668E+00
        -11   -1    0    0    0    0  0.00000000000E+00  0.00000000000E+00  0.45593999997E+02  0.45594000000E+02  0.51100000000E-03 0. -1.
         11   -1    0    0    0    0 -0.00000000000E+00 -0.00000000000E+00 -0.45593999997E+02  0.45594000000E+02  0.51100000000E-03 0.  1.
    9900012    2    1    2    0    0  0.80669241181E+00 -0.40251658458E+02 -0.16210385237E+02  0.47787270158E+02  0.19999995959E+02 0.  0.
         12    1    1    2    0    0 -0.80669241181E+00  0.40251658458E+02  0.16210385237E+02  0.43400729842E+02  0.00000000000E+00 0. -1.
         11    1    3    3    0    0  0.34250997717E+01 -0.22415170571E+01  0.75082105934E+00  0.41616630916E+01  0.51100000000E-03 0. -1.
        -11    1    3    3    0    0 -0.57681162021E+01 -0.18503423344E+02 -0.34443630674E+01  0.19685311203E+02  0.51100000000E-03 0.  1.
         12    1    3    3    0    0  0.31497088422E+01 -0.19506718057E+02 -0.13516843229E+02  0.23940295863E+02  0.00000000000E+00 0. -1.
</event>
<event>
 7    1  0.1384886E-010  0.4778728E+02  0.7816164E-02  0.1312668E+00
        -11   -1    0    0    0    0  0.00000000000E+00  0.00000000000E+00  0.45593999997E+02  0.45594000000E+02  0.51100000000E-03 0.  1.
         11   -1    0    0    0    0 -0.00000000000E+00 -0.00000000000E+00 -0.45593999997E+02  0.45594000000E+02  0.51100000000E-03 0. -1.
    9900012    2    1    2    0    0 -0.39043779633E+02 -0.95426039580E+01  0.16375127810E+02  0.47787276168E+02  0.20000023362E+02 0.  0.
         12    1    1    2    0    0  0.39043779633E+02  0.95426039580E+01 -0.16375127810E+02  0.43400723832E+02  0.00000000000E+00 0. -1.
         11    1    3    3    0    0  0.91250001967E+00 -0.27985918313E+01  0.41784273436E+01  0.51111669754E+01  0.51100000000E-03 0. -1.
        -11    1    3    3    0    0 -0.15878488260E+02 -0.25023759245E+01  0.20462549628E+01  0.16204179532E+02  0.51100000000E-03 0.  1.
         12    1    3    3    0    0 -0.24077791393E+02 -0.42416362023E+01  0.10150445504E+02  0.26471929661E+02  0.00000000000E+00 0. -1.
</event>
<event>
 7    1  0.1384886E-010  0.4778727E+02  0.7816164E-02  0.1312668E+00
        -11   -1    0    0    0    0  0.00000000000E+00  0.00000000000E+00  0.45593999997E+02  0.45594000000E+02  0.51100000000E-03 0.  1.
         11   -1    0    0    0    0 -0.00000000000E+00 -0.00000000000E+00 -0.45593999997E+02  0.45594000000E+02  0.51100000000E-03 0. -1.
    9900012    2    1    2    0    0  0.43239802828E+02 -0.10678901196E+01  0.35780893504E+01  0.47787266581E+02  0.19999979648E+02 0.  0.
         12    1    1    2    0    0 -0.43239802828E+02  0.10678901196E+01 -0.35780893504E+01  0.43400733419E+02  0.00000000000E+00 0. -1.
         11    1    3    3    0    0  0.63021518048E+01 -0.41588246485E+00  0.42942707745E+01  0.76374627555E+01  0.51100000000E-03 0. -1.
        -11    1    3    3    0    0  0.18516181730E+02 -0.20271354371E+01  0.73085820086E+01  0.20009338699E+02  0.51100000000E-03 0.  1.
         12    1    3    3    0    0  0.18421469294E+02  0.13751277824E+01 -0.80247634327E+01  0.20140465126E+02  0.00000000000E+00 0. -1.
</event>
<event>
 7    1  0.1384886E-010  0.4778727E+02  0.7816164E-02  0.1312668E+00
        -11   -1    0    0    0    0  0.00000000000E+00  0.00000000000E+00  0.45593999997E+02  0.45594000000E+02  0.51100000000E-03 0.  1.
         11   -1    0    0    0    0 -0.00000000000E+00 -0.00000000000E+00 -0.45593999997E+02  0.45594000000E+02  0.51100000000E-03 0. -1.
    9900012    2    1    2    0    0  0.35676465961E+02 -0.24602149853E+02  0.23552448682E+01  0.47787272135E+02  0.20000004972E+02 0.  0.
         12    1    1    2    0    0 -0.35676465961E+02  0.24602149853E+02 -0.23552448682E+01  0.43400727865E+02  0.00000000000E+00 0. -1.
         11    1    3    3    0    0  0.15360480129E+02 -0.39748585205E+01  0.28707974487E+01  0.16124060540E+02  0.51100000000E-03 0. -1.
        -11    1    3    3    0    0  0.21577615679E+02 -0.20857117268E+02 -0.14982561022E+01  0.30047589100E+02  0.51100000000E-03 0.  1.
         12    1    3    3    0    0 -0.12616298476E+01  0.22982593573E+00  0.98270352166E+00  0.16156224945E+01  0.00000000000E+00 0. -1.
</event>
<event>
 7    1 -0.1859763E-010  0.4778727E+02  0.7816164E-02  0.1312668E+00
        -11   -1    0    0    0    0  0.00000000000E+00  0.00000000000E+00  0.45593999997E+02  0.45594000000E+02  0.51100000000E-03 0. -1.
         11   -1    0    0    0    0 -0.00000000000E+00 -0.00000000000E+00 -0.45593999997E+02  0.45594000000E+02  0.51100000000E-03 0.  1.
    9900012    2    1    2    0    0 -0.33445594432E+02 -0.27558958655E+02  0.23492870299E+01  0.47787272602E+02  0.20000007104E+02 0.  0.
         12    1    1    2    0    0  0.33445594432E+02  0.27558958655E+02 -0.23492870299E+01  0.43400727398E+02  0.00000000000E+00 0. -1.
         11    1    3    3    0    0 -0.52030644174E+01 -0.10625260198E+02 -0.50865455605E+01  0.12877926060E+02  0.51100000000E-03 0. -1.
        -11    1    3    3    0    0 -0.13537012243E+02 -0.49744471670E+01 -0.32940068563E+00  0.14425821646E+02  0.51100000000E-03 0.  1.
         12    1    3    3    0    0 -0.14705517772E+02 -0.11959251290E+02  0.77652332760E+01  0.20483524897E+02  0.00000000000E+00 0. -1.
</event>
<event>
 7    1  0.1384886E-010  0.4778727E+02  0.7816164E-02  0.1312668E+00
        -11   -1    0    0    0    0  0.00000000000E+00  0.00000000000E+00  0.45593999997E+02  0.45594000000E+02  0.51100000000E-03 0.  1.
         11   -1    0    0    0    0 -0.00000000000E+00 -0.00000000000E+00 -0.45593999997E+02  0.45594000000E+02  0.51100000000E-03 0. -1.
    9900012    2    1    2    0    0  0.40880502761E+02 -0.95046930426E+01  0.11048467568E+02  0.47787270381E+02  0.19999996977E+02 0.  0.
         12    1    1    2    0    0 -0.40880502761E+02  0.95046930426E+01 -0.11048467568E+02  0.43400729619E+02  0.00000000000E+00 0. -1.
         11    1    3    3    0    0  0.18208408149E+02 -0.23429545670E+01  0.91916661500E+01  0.20531008020E+02  0.51100000000E-03 0. -1.
        -11    1    3    3    0    0  0.22150503368E+02 -0.35654415473E+01 -0.12569117290E+01  0.22470803284E+02  0.51100000000E-03 0.  1.
        -12    1    3    3    0    0  0.52159124368E+00 -0.35962969283E+01  0.31137131465E+01  0.47854590773E+01  0.00000000000E+00 0.  1.
</event>
<event>
 7    1  0.1384886E-010  0.4778727E+02  0.7816164E-02  0.1312668E+00
        -11   -1    0    0    0    0  0.00000000000E+00  0.00000000000E+00  0.45593999997E+02  0.45594000000E+02  0.51100000000E-03 0.  1.
         11   -1    0    0    0    0 -0.00000000000E+00 -0.00000000000E+00 -0.45593999997E+02  0.45594000000E+02  0.51100000000E-03 0. -1.
    9900012    2    1    2    0    0  0.30069532911E+02 -0.10858287218E+02  0.29352074100E+02  0.47787268846E+02  0.19999989975E+02 0.  0.
         12    1    1    2    0    0 -0.30069532911E+02  0.10858287218E+02 -0.29352074100E+02  0.43400731154E+02  0.00000000000E+00 0. -1.
         11    1    3    3    0    0  0.18102893496E+02 -0.12672262459E+02  0.21296720945E+02  0.30689596153E+02  0.51100000000E-03 0. -1.
        -11    1    3    3    0    0  0.90497987143E+01  0.18565494567E+01  0.99825897295E+01  0.13601387085E+02  0.51100000000E-03 0.  1.
        -12    1    3    3    0    0  0.29168407009E+01 -0.42574215994E-01 -0.19272365753E+01  0.34962856083E+01  0.00000000000E+00 0.  1.
</event>
<event>
 7    1  0.1384886E-010  0.4778727E+02  0.7816164E-02  0.1312668E+00
        -11   -1    0    0    0    0  0.00000000000E+00  0.00000000000E+00  0.45593999997E+02  0.45594000000E+02  0.51100000000E-03 0. -1.
         11   -1    0    0    0    0 -0.00000000000E+00 -0.00000000000E+00 -0.45593999997E+02  0.45594000000E+02  0.51100000000E-03 0.  1.
    9900012    2    1    2    0    0 -0.38982884384E+02  0.35534588938E+01 -0.18743827988E+02  0.47787269215E+02  0.19999991658E+02 0.  0.
         12    1    1    2    0    0  0.38982884384E+02 -0.35534588938E+01  0.18743827988E+02  0.43400730785E+02  0.00000000000E+00 0. -1.
         11    1    3    3    0    0 -0.22504551401E+02  0.25732933512E+01 -0.11560835222E+02  0.25430878548E+02  0.51100000000E-03 0.  1.
        -11    1    3    3    0    0 -0.18701156123E+02 -0.94358485366E-01 -0.64045974764E+01  0.19767675962E+02  0.51100000000E-03 0. -1.
         12    1    3    3    0    0  0.22228231393E+01  0.10745240280E+01 -0.77839528998E+00  0.25887147048E+01  0.00000000000E+00 0. -1.
</event>
<event>
 7    1  0.1384886E-010  0.4778727E+02  0.7816164E-02  0.1312668E+00
        -11   -1    0    0    0    0  0.00000000000E+00  0.00000000000E+00  0.45593999997E+02  0.45594000000E+02  0.51100000000E-03 0.  1.
         11   -1    0    0    0    0 -0.00000000000E+00 -0.00000000000E+00 -0.45593999997E+02  0.45594000000E+02  0.51100000000E-03 0. -1.
    9900012    2    1    2    0    0  0.91322316100E+01 -0.75444499235E+01  0.41752925302E+02  0.47787272471E+02  0.20000006503E+02 0.  0.
         12    1    1    2    0    0 -0.91322316100E+01  0.75444499235E+01 -0.41752925302E+02  0.43400727529E+02  0.00000000000E+00 0. -1.
         11    1    3    3    0    0  0.48732539214E+01 -0.29619220191E+01  0.15408008517E+02  0.16429495201E+02  0.51100000000E-03 0. -1.
        -11    1    3    3    0    0 -0.45046516677E+01  0.29968707880E+01  0.89048708458E+01  0.10419685514E+02  0.51100000000E-03 0.  1.
        -12    1    3    3    0    0  0.87636293563E+01 -0.75793986924E+01  0.17440045938E+02  0.20938091756E+02  0.00000000000E+00 0.  1.
</event>
<event>
 7    1  0.1384886E-010  0.4778728E+02  0.7816164E-02  0.1312668E+00
        -11   -1    0    0    0    0  0.00000000000E+00  0.00000000000E+00  0.45593999997E+02  0.45594000000E+02  0.51100000000E-03 0.  1.
         11   -1    0    0    0    0 -0.00000000000E+00 -0.00000000000E+00 -0.45593999997E+02  0.45594000000E+02  0.51100000000E-03 0. -1.
    9900012    2    1    2    0    0 -0.32102674774E+02  0.94627359279E+01  0.27631463425E+02  0.47787275698E+02  0.20000021219E+02 0.  0.
         12    1    1    2    0    0  0.32102674774E+02 -0.94627359279E+01 -0.27631463425E+02  0.43400724302E+02  0.00000000000E+00 0. -1.
         11    1    3    3    0    0 -0.13219614790E+02 -0.29577001482E+00  0.12118054176E+02  0.17935800299E+02  0.51100000000E-03 0. -1.
        -11    1    3    3    0    0 -0.13622890063E+02  0.12111595268E+02  0.15741278916E+02  0.24084470843E+02  0.51100000000E-03 0.  1.
         12    1    3    3    0    0 -0.52601699208E+01 -0.23530893250E+01 -0.22786966726E+00  0.57670045562E+01  0.00000000000E+00 0. -1.
</event>
<event>
 7    1  0.1384886E-010  0.4778728E+02  0.7816164E-02  0.1312668E+00
        -11   -1    0    0    0    0  0.00000000000E+00  0.00000000000E+00  0.45593999997E+02  0.45594000000E+02  0.51100000000E-03 0.  1.
         11   -1    0    0    0    0 -0.00000000000E+00 -0.00000000000E+00 -0.45593999997E+02  0.45594000000E+02  0.51100000000E-03 0. -1.
    9900012    2    1    2    0    0  0.27907465587E+02  0.53228346984E+01  0.32809506483E+02  0.47787275116E+02  0.20000018566E+02 0.  0.
         12    1    1    2    0    0 -0.27907465587E+02 -0.53228346984E+01 -0.32809506483E+02  0.43400724884E+02  0.00000000000E+00 0. -1.
         11    1    3    3    0    0  0.50255735868E+01  0.47610427101E+01  0.19113511149E+01  0.71817254827E+01  0.51100000000E-03 0. -1.
        -11    1    3    3    0    0  0.45947062263E+01  0.46323720542E+01  0.34707288397E+01  0.73902743585E+01  0.51100000000E-03 0.  1.
        -12    1    3    3    0    0  0.18287185774E+02 -0.40705800659E+01  0.27427426529E+02  0.33215275275E+02  0.00000000000E+00 0.  1.
</event>
<event>
 7    1  0.1384886E-010  0.4778727E+02  0.7816164E-02  0.1312668E+00
        -11   -1    0    0    0    0  0.00000000000E+00  0.00000000000E+00  0.45593999997E+02  0.45594000000E+02  0.51100000000E-03 0.  1.
         11   -1    0    0    0    0 -0.00000000000E+00 -0.00000000000E+00 -0.45593999997E+02  0.45594000000E+02  0.51100000000E-03 0. -1.
    9900012    2    1    2    0    0 -0.73518078614E+01 -0.23840858652E+02  0.35513205465E+02  0.47787269793E+02  0.19999994294E+02 0.  0.
         12    1    1    2    0    0  0.73518078614E+01  0.23840858652E+02 -0.35513205465E+02  0.43400730207E+02  0.00000000000E+00 0. -1.
         11    1    3    3    0    0  0.18506842805E+00 -0.12107846828E+02  0.35570891472E+01  0.12620898882E+02  0.51100000000E-03 0. -1.
        -11    1    3    3    0    0 -0.13305165062E+01 -0.62390936568E+01  0.13220797392E+02  0.14679443033E+02  0.51100000000E-03 0.  1.
         12    1    3    3    0    0 -0.62063597832E+01 -0.54939181672E+01  0.18735318926E+02  0.20486927878E+02  0.00000000000E+00 0. -1.
</event>
<event>
 7    1  0.1384886E-010  0.4778727E+02  0.7816164E-02  0.1312668E+00
        -11   -1    0    0    0    0  0.00000000000E+00  0.00000000000E+00  0.45593999997E+02  0.45594000000E+02  0.51100000000E-03 0.  1.
         11   -1    0    0    0    0 -0.00000000000E+00 -0.00000000000E+00 -0.45593999997E+02  0.45594000000E+02  0.51100000000E-03 0. -1.
    9900012    2    1    2    0    0  0.14026720942E+02 -0.63120006063E+01  0.40583655263E+02  0.47787270438E+02  0.19999997234E+02 0.  0.
         12    1    1    2    0    0 -0.14026720942E+02  0.63120006063E+01 -0.40583655263E+02  0.43400729562E+02  0.00000000000E+00 0. -1.
         11    1    3    3    0    0  0.15035426226E+00 -0.64403576405E+01  0.87986324867E+01  0.10904895545E+02  0.51100000000E-03 0. -1.
        -11    1    3    3    0    0  0.11645200085E+02 -0.19005595659E+01  0.11857366233E+02  0.16727819521E+02  0.51100000000E-03 0.  1.
        -12    1    3    3    0    0  0.22311665944E+01  0.20289166001E+01  0.19927656543E+02  0.20154555372E+02  0.00000000000E+00 0.  1.
</event>
<event>
 7    1  0.1384886E-010  0.4778727E+02  0.7816164E-02  0.1312668E+00
        -11   -1    0    0    0    0  0.00000000000E+00  0.00000000000E+00  0.45593999997E+02  0.45594000000E+02  0.51100000000E-03 0.  1.
         11   -1    0    0    0    0 -0.00000000000E+00 -0.00000000000E+00 -0.45593999997E+02  0.45594000000E+02  0.51100000000E-03 0. -1.
    9900012    2    1    2    0    0 -0.29301831206E+01  0.26220379283E+02  0.34460539671E+02  0.47787273540E+02  0.20000011376E+02 0.  0.
         12    1    1    2    0    0  0.29301831206E+01 -0.26220379283E+02 -0.34460539671E+02  0.43400726460E+02  0.00000000000E+00 0. -1.
         11    1    3    3    0    0  0.11946146197E+01 -0.10736480966E+01  0.90986849638E+01  0.92393664641E+01  0.51100000000E-03 0. -1.
        -11    1    3    3    0    0 -0.52808480357E+01  0.10404512535E+02  0.71568594502E+01  0.13688019379E+02  0.51100000000E-03 0.  1.
        -12    1    3    3    0    0  0.11560502953E+01  0.16889514845E+02  0.18204995257E+02  0.24859887697E+02  0.00000000000E+00 0.  1.
</event>
<event>
 7    1  0.1384886E-010  0.4778727E+02  0.7816164E-02  0.1312668E+00
        -11   -1    0    0    0    0  0.00000000000E+00  0.00000000000E+00  0.45593999997E+02  0.45594000000E+02  0.51100000000E-03 0.  1.
         11   -1    0    0    0    0 -0.00000000000E+00 -0.00000000000E+00 -0.45593999997E+02  0.45594000000E+02  0.51100000000E-03 0. -1.
    9900012    2    1    2    0    0 -0.31317103013E+02  0.11950301863E+02  0.27569050264E+02  0.47787272032E+02  0.20000004500E+02 0.  0.
         12    1    1    2    0    0  0.31317103013E+02 -0.11950301863E+02 -0.27569050264E+02  0.43400727968E+02  0.00000000000E+00 0. -1.
         11    1    3    3    0    0 -0.10848102144E+02  0.11518432637E+02  0.52749167458E+01  0.16678739685E+02  0.51100000000E-03 0. -1.
        -11    1    3    3    0    0 -0.76511009850E+01 -0.25287177184E+01  0.54159741185E+01  0.97090955035E+01  0.51100000000E-03 0.  1.
        -12    1    3    3    0    0 -0.12817899884E+02  0.29605869445E+01  0.16878159400E+02  0.21399436843E+02  0.00000000000E+00 0.  1.
</event>
<event>
 7    1  0.1384886E-010  0.4778727E+02  0.7816164E-02  0.1312668E+00
        -11   -1    0    0    0    0  0.00000000000E+00  0.00000000000E+00  0.45593999997E+02  0.45594000000E+02  0.51100000000E-03 0. -1.
         11   -1    0    0    0    0 -0.00000000000E+00 -0.00000000000E+00 -0.45593999997E+02  0.45594000000E+02  0.51100000000E-03 0.  1.
    9900012    2    1    2    0    0 -0.23308480694E+02 -0.36171485902E+02  0.56534675518E+01  0.47787270053E+02  0.19999995479E+02 0.  0.
         12    1    1    2    0    0  0.23308480694E+02  0.36171485902E+02 -0.56534675518E+01  0.43400729947E+02  0.00000000000E+00 0. -1.
         11    1    3    3    0    0 -0.18681501224E+01 -0.13430453656E+02 -0.39861163912E+00  0.13565616897E+02  0.51100000000E-03 0. -1.
        -11    1    3    3    0    0 -0.12598072228E+02 -0.11840081487E+02 -0.29614881435E+01  0.17540506428E+02  0.51100000000E-03 0.  1.
        -12    1    3    3    0    0 -0.88422583435E+01 -0.10900950758E+02  0.90135673344E+01  0.16681146727E+02  0.00000000000E+00 0.  1.
</event>
<event>
 7    1  0.1384886E-010  0.4778727E+02  0.7816164E-02  0.1312668E+00
        -11   -1    0    0    0    0  0.00000000000E+00  0.00000000000E+00  0.45593999997E+02  0.45594000000E+02  0.51100000000E-03 0.  1.
         11   -1    0    0    0    0 -0.00000000000E+00 -0.00000000000E+00 -0.45593999997E+02  0.45594000000E+02  0.51100000000E-03 0. -1.
    9900012    2    1    2    0    0 -0.14064980138E+02 -0.15650406643E+02  0.37958725128E+02  0.47787266046E+02  0.19999977211E+02 0.  0.
         12    1    1    2    0    0  0.14064980138E+02  0.15650406643E+02 -0.37958725128E+02  0.43400733954E+02  0.00000000000E+00 0. -1.
         11    1    3    3    0    0 -0.79734974874E+00  0.17155772786E+01  0.13179985299E+01  0.23056652850E+01  0.51100000000E-03 0. -1.
        -11    1    3    3    0    0 -0.13710949693E+02 -0.18420909393E+02  0.25633521092E+02  0.34415075885E+02  0.51100000000E-03 0.  1.
        -12    1    3    3    0    0  0.44331930417E+00  0.10549254720E+01  0.11007205507E+02  0.11066524876E+02  0.00000000000E+00 0.  1.
</event>
<event>
 7    1  0.1384886E-010  0.4778729E+02  0.7816164E-02  0.1312668E+00
        -11   -1    0    0    0    0  0.00000000000E+00  0.00000000000E+00  0.45593999997E+02  0.45594000000E+02  0.51100000000E-03 0.  1.
         11   -1    0    0    0    0 -0.00000000000E+00 -0.00000000000E+00 -0.45593999997E+02  0.45594000000E+02  0.51100000000E-03 0. -1.
    9900012    2    1    2    0    0  0.33489774879E+02 -0.10956125910E+02  0.25338114582E+02  0.47787288405E+02  0.20000079152E+02 0.  0.
         12    1    1    2    0    0 -0.33489774879E+02  0.10956125910E+02 -0.25338114582E+02  0.43400711595E+02  0.00000000000E+00 0. -1.
         11    1    3    3    0    0  0.15616092650E+02  0.17977453233E-01  0.17560430231E+02  0.23499603891E+02  0.51100000000E-03 0. -1.
        -11    1    3    3    0    0  0.16526371112E+02 -0.55733548431E+01  0.57745459078E+01  0.18371951639E+02  0.51100000000E-03 0.  1.
        -12    1    3    3    0    0  0.13473111170E+01 -0.54007485201E+01  0.20031384427E+01  0.59157328746E+01  0.00000000000E+00 0.  1.
</event>
<event>
 7    1  0.1384886E-010  0.4778727E+02  0.7816164E-02  0.1312668E+00
        -11   -1    0    0    0    0  0.00000000000E+00  0.00000000000E+00  0.45593999997E+02  0.45594000000E+02  0.51100000000E-03 0. -1.
         11   -1    0    0    0    0 -0.00000000000E+00 -0.00000000000E+00 -0.45593999997E+02  0.45594000000E+02  0.51100000000E-03 0.  1.
    9900012    2    1    2    0    0 -0.22989089285E+02 -0.19816770057E+02 -0.31022912806E+02  0.47787265898E+02  0.19999976534E+02 0.  0.
         12    1    1    2    0    0  0.22989089285E+02  0.19816770057E+02  0.31022912806E+02  0.43400734102E+02  0.00000000000E+00 0. -1.
         11    1    3    3    0    0 -0.62521564858E+01 -0.40940712597E+01  0.92385718134E+00  0.75302319058E+01  0.51100000000E-03 0. -1.
        -11    1    3    3    0    0 -0.74279561573E+01 -0.28480213944E+01 -0.15305756803E+02  0.17249694203E+02  0.51100000000E-03 0.  1.
        -12    1    3    3    0    0 -0.93089766418E+01 -0.12874677403E+02 -0.16641013185E+02  0.23007339789E+02  0.00000000000E+00 0.  1.
</event>
<event>
 7    1  0.1384886E-010  0.4778727E+02  0.7816164E-02  0.1312668E+00
        -11   -1    0    0    0    0  0.00000000000E+00  0.00000000000E+00  0.45593999997E+02  0.45594000000E+02  0.51100000000E-03 0.  1.
         11   -1    0    0    0    0 -0.00000000000E+00 -0.00000000000E+00 -0.45593999997E+02  0.45594000000E+02  0.51100000000E-03 0. -1.
    9900012    2    1    2    0    0 -0.70103924623E+01 -0.30589540590E+02  0.29979287678E+02  0.47787270909E+02  0.19999999381E+02 0.  0.
         12    1    1    2    0    0  0.70103924623E+01  0.30589540590E+02 -0.29979287678E+02  0.43400729091E+02  0.00000000000E+00 0. -1.
         11    1    3    3    0    0 -0.87844067540E+01 -0.20848855509E+02  0.21810041542E+02  0.31424806927E+02  0.51100000000E-03 0. -1.
        -11    1    3    3    0    0  0.21763682151E+01 -0.11712146965E+02  0.57860567997E+01  0.13243467019E+02  0.51100000000E-03 0.  1.
         12    1    3    3    0    0 -0.40235392342E+00  0.19714618844E+01  0.23831893362E+01  0.31189969628E+01  0.00000000000E+00 0. -1.
</event>
<event>
 7    1  0.1384886E-010  0.4778728E+02  0.7816164E-02  0.1312668E+00
        -11   -1    0    0    0    0  0.00000000000E+00  0.00000000000E+00  0.45593999997E+02  0.45594000000E+02  0.51100000000E-03 0.  1.
         11   -1    0    0    0    0 -0.00000000000E+00 -0.00000000000E+00 -0.45593999997E+02  0.45594000000E+02  0.51100000000E-03 0. -1.
    9900012    2    1    2    0    0  0.24661172223E+02  0.15203909202E+02  0.32315475024E+02  0.47787283456E+02  0.20000056591E+02 0.  0.
         12    1    1    2    0    0 -0.24661172223E+02 -0.15203909202E+02 -0.32315475024E+02  0.43400716544E+02  0.00000000000E+00 0. -1.
         11    1    3    3    0    0  0.75095230843E+01  0.97572552732E+01  0.57094741334E+01  0.13571848163E+02  0.51100000000E-03 0. -1.
        -11    1    3    3    0    0  0.18225096868E+02  0.70770426366E+01  0.24483493706E+02  0.31331775446E+02  0.51100000000E-03 0.  1.
         12    1    3    3    0    0 -0.10734477288E+01 -0.16303887074E+01  0.21225071851E+01  0.28836598472E+01  0.00000000000E+00 0. -1.
</event>
<event>
 7    1  0.1384886E-010  0.4778727E+02  0.7816164E-02  0.1312668E+00
        -11   -1    0    0    0    0  0.00000000000E+00  0.00000000000E+00  0.45593999997E+02  0.45594000000E+02  0.51100000000E-03 0. -1.
         11   -1    0    0    0    0 -0.00000000000E+00 -0.00000000000E+00 -0.45593999997E+02  0.45594000000E+02  0.51100000000E-03 0.  1.
    9900012    2    1    2    0    0 -0.14580527318E+02 -0.26108013193E+02 -0.31454781452E+02  0.47787269523E+02  0.19999993064E+02 0.  0.
         12    1    1    2    0    0  0.14580527318E+02  0.26108013193E+02  0.31454781452E+02  0.43400730477E+02  0.00000000000E+00 0. -1.
         11    1    3    3    0    0 -0.13893826885E+01  0.11639960151E+01 -0.20305421083E+00  0.18238701302E+01  0.51100000000E-03 0. -1.
        -11    1    3    3    0    0 -0.14250412279E+02 -0.19988157420E+02 -0.29536347477E+02  0.38405683299E+02  0.51100000000E-03 0.  1.
        -12    1    3    3    0    0  0.10592676489E+01 -0.72838517878E+01 -0.17153797641E+01  0.75577160937E+01  0.00000000000E+00 0.  1.
</event>
<event>
 7    1  0.1384886E-010  0.4778728E+02  0.7816164E-02  0.1312668E+00
        -11   -1    0    0    0    0  0.00000000000E+00  0.00000000000E+00  0.45593999997E+02  0.45594000000E+02  0.51100000000E-03 0.  1.
         11   -1    0    0    0    0 -0.00000000000E+00 -0.00000000000E+00 -0.45593999997E+02  0.45594000000E+02  0.51100000000E-03 0. -1.
    9900012    2    1    2    0    0 -0.28625296890E+02  0.15213397564E+02  0.28857705419E+02  0.47787282846E+02  0.20000053806E+02 0.  0.
         12    1    1    2    0    0  0.28625296890E+02 -0.15213397564E+02 -0.28857705419E+02  0.43400717154E+02  0.00000000000E+00 0. -1.
         11    1    3    3    0    0  0.20258830927E+01  0.43600664167E+00  0.24019667394E+01  0.31723411820E+01  0.51100000000E-03 0. -1.
        -11    1    3    3    0    0 -0.15003431560E+02  0.12036747681E+02  0.19105376477E+02  0.27110914111E+02  0.51100000000E-03 0.  1.
         12    1    3    3    0    0 -0.15647748422E+02  0.27406432406E+01  0.73503622026E+01  0.17504027553E+02  0.00000000000E+00 0. -1.
</event>
<event>
 7    1  0.1384886E-010  0.4778727E+02  0.7816164E-02  0.1312668E+00
        -11   -1    0    0    0    0  0.00000000000E+00  0.00000000000E+00  0.45593999997E+02  0.45594000000E+02  0.51100000000E-03 0. -1.
         11   -1    0    0    0    0 -0.00000000000E+00 -0.00000000000E+00 -0.45593999997E+02  0.45594000000E+02  0.51100000000E-03 0.  1.
    9900012    2    1    2    0    0 -0.20080425712E+02 -0.37271338206E+02  0.95523383131E+01  0.47787270563E+02  0.19999997806E+02 0.  0.
         12    1    1    2    0    0  0.20080425712E+02  0.37271338206E+02 -0.95523383131E+01  0.43400729437E+02  0.00000000000E+00 0. -1.
         11    1    3    3    0    0 -0.74099682217E+01 -0.10269975880E+01  0.17066695916E+01  0.76730094780E+01  0.51100000000E-03 0. -1.
        -11    1    3    3    0    0 -0.14942731901E+01 -0.14799828872E+02  0.53321158572E+01  0.15801874787E+02  0.51100000000E-03 0.  1.
        -12    1    3    3    0    0 -0.11176184300E+02 -0.21444511745E+02  0.25135528643E+01  0.24312386298E+02  0.00000000000E+00 0.  1.
</event>
<event>
 7    1  0.1384886E-010  0.4778727E+02  0.7816164E-02  0.1312668E+00
        -11   -1    0    0    0    0  0.00000000000E+00  0.00000000000E+00  0.45593999997E+02  0.45594000000E+02  0.51100000000E-03 0.  1.
         11   -1    0    0    0    0 -0.00000000000E+00 -0.00000000000E+00 -0.45593999997E+02  0.45594000000E+02  0.51100000000E-03 0. -1.
    9900012    2    1    2    0    0  0.38259824787E+02  0.12834966483E+02  0.15971005241E+02  0.47787267681E+02  0.19999984667E+02 0.  0.
         12    1    1    2    0    0 -0.38259824787E+02 -0.12834966483E+02 -0.15971005241E+02  0.43400732319E+02  0.00000000000E+00 0. -1.
         11    1    3    3    0    0  0.14329191694E+02 -0.43748248571E+01  0.37374185774E+01  0.15441279902E+02  0.51100000000E-03 0. -1.
        -11    1    3    3    0    0  0.13352983043E+02  0.78834990548E+01  0.39913656003E+01  0.16011955318E+02  0.51100000000E-03 0.  1.
        -12    1    3    3    0    0  0.10577650050E+02  0.93262922853E+01  0.82422210637E+01  0.16334032461E+02  0.00000000000E+00 0.  1.
</event>
<event>
 7    1  0.1384886E-010  0.4778727E+02  0.7816164E-02  0.1312668E+00
        -11   -1    0    0    0    0  0.00000000000E+00  0.00000000000E+00  0.45593999997E+02  0.45594000000E+02  0.51100000000E-03 0.  1.
         11   -1    0    0    0    0 -0.00000000000E+00 -0.00000000000E+00 -0.45593999997E+02  0.45594000000E+02  0.51100000000E-03 0. -1.
    9900012    2    1    2    0    0 -0.64145687303E+00  0.25154284326E+02  0.35362039565E+02  0.47787270408E+02  0.19999997099E+02 0.  0.
         12    1    1    2    0    0  0.64145687303E+00 -0.25154284326E+02 -0.35362039565E+02  0.43400729592E+02  0.00000000000E+00 0. -1.
         11    1    3    3    0    0  0.19759898113E+01  0.26950426934E+01  0.28326488399E+00  0.33538082994E+01  0.51100000000E-03 0. -1.
        -11    1    3    3    0    0 -0.11868487530E-02  0.20054607116E+02  0.35582132542E+02  0.40844527472E+02  0.51100000000E-03 0.  1.
        -12    1    3    3    0    0 -0.26162598355E+01  0.24046345172E+01 -0.50335786032E+00  0.35889346364E+01  0.00000000000E+00 0.  1.
</event>
<event>
 7    1  0.1384886E-010  0.4778728E+02  0.7816164E-02  0.1312668E+00
        -11   -1    0    0    0    0  0.00000000000E+00  0.00000000000E+00  0.45593999997E+02  0.45594000000E+02  0.51100000000E-03 0. -1.
         11   -1    0    0    0    0 -0.00000000000E+00 -0.00000000000E+00 -0.45593999997E+02  0.45594000000E+02  0.51100000000E-03 0.  1.
    9900012    2    1    2    0    0 -0.26913767667E+02  0.31332623751E+02 -0.13324354000E+02  0.47787278685E+02  0.20000034836E+02 0.  0.
         12    1    1    2    0    0  0.26913767667E+02 -0.31332623751E+02  0.13324354000E+02  0.43400721315E+02  0.00000000000E+00 0. -1.
         11    1    3    3    0    0 -0.12717001595E+02  0.10324889168E+02  0.14362622630E+01  0.16443488542E+02  0.51100000000E-03 0. -1.
        -11    1    3    3    0    0  0.15428867049E+00  0.27814326389E+01 -0.58753795563E+01  0.65023270996E+01  0.51100000000E-03 0.  1.
         12    1    3    3    0    0 -0.14351054743E+02  0.18226301944E+02 -0.88852367066E+01  0.24841463043E+02  0.00000000000E+00 0. -1.
</event>
<event>
 7    1  0.1489247E-010  0.4778727E+02  0.7816164E-02  0.1312668E+00
        -11   -1    0    0    0    0  0.00000000000E+00  0.00000000000E+00  0.45593999997E+02  0.45594000000E+02  0.51100000000E-03 0.  1.
         11   -1    0    0    0    0 -0.00000000000E+00 -0.00000000000E+00 -0.45593999997E+02  0.45594000000E+02  0.51100000000E-03 0. -1.
    9900012    2    1    2    0    0 -0.84135828170E+01 -0.22774753905E+02  0.35974234779E+02  0.47787270062E+02  0.19999995519E+02 0.  0.
         12    1    1    2    0    0  0.84135828170E+01  0.22774753905E+02 -0.35974234779E+02  0.43400729938E+02  0.00000000000E+00 0. -1.
         11    1    3    3    0    0  0.18288496634E+01 -0.14207736650E+01 -0.78145940661E+00  0.24441701995E+01  0.51100000000E-03 0. -1.
        -11    1    3    3    0    0 -0.36600826956E+01 -0.50556500342E+01  0.20399392729E+02  0.21332862597E+02  0.51100000000E-03 0.  1.
        -12    1    3    3    0    0 -0.65823497849E+01 -0.16298330206E+02  0.16356301457E+02  0.24010237265E+02  0.00000000000E+00 0.  1.
</event>
<event>
 7    1  0.1384886E-010  0.4778727E+02  0.7816164E-02  0.1312668E+00
        -11   -1    0    0    0    0  0.00000000000E+00  0.00000000000E+00  0.45593999997E+02  0.45594000000E+02  0.51100000000E-03 0. -1.
         11   -1    0    0    0    0 -0.00000000000E+00 -0.00000000000E+00 -0.45593999997E+02  0.45594000000E+02  0.51100000000E-03 0.  1.
    9900012    2    1    2    0    0  0.27627644537E+01  0.16024445446E+02 -0.40239376566E+02  0.47787272521E+02  0.20000006733E+02 0.  0.
         12    1    1    2    0    0 -0.27627644537E+01 -0.16024445446E+02  0.40239376566E+02  0.43400727479E+02  0.00000000000E+00 0. -1.
         11    1    3    3    0    0 -0.76307401013E+00 -0.15780581548E+01 -0.37440864663E+00  0.17924094344E+01  0.51100000000E-03 0. -1.
        -11    1    3    3    0    0  0.91063640567E+01  0.11028702798E+02 -0.24030260781E+02  0.27964470050E+02  0.51100000000E-03 0.  1.
         12    1    3    3    0    0 -0.55805255929E+01  0.65738008033E+01 -0.15834707138E+02  0.18030393037E+02  0.00000000000E+00 0. -1.
</event>
<event>
 7    1  0.1384886E-010  0.4778728E+02  0.7816164E-02  0.1312668E+00
        -11   -1    0    0    0    0  0.00000000000E+00  0.00000000000E+00  0.45593999997E+02  0.45594000000E+02  0.51100000000E-03 0. -1.
         11   -1    0    0    0    0 -0.00000000000E+00 -0.00000000000E+00 -0.45593999997E+02  0.45594000000E+02  0.51100000000E-03 0.  1.
    9900012    2    1    2    0    0  0.23367594869E+02 -0.36386343489E+02  0.36894860014E+01  0.47787276625E+02  0.20000025446E+02 0.  0.
         12    1    1    2    0    0 -0.23367594869E+02  0.36386343489E+02 -0.36894860014E+01  0.43400723375E+02  0.00000000000E+00 0. -1.
         11    1    3    3    0    0 -0.19596465286E+01 -0.32403316672E+01  0.28863814940E+01  0.47614243899E+01  0.51100000000E-03 0. -1.
        -11    1    3    3    0    0  0.14952880933E+02 -0.26639156091E+02 -0.14100527233E+01  0.30581391963E+02  0.51100000000E-03 0.  1.
         12    1    3    3    0    0  0.10374360465E+02 -0.65068557311E+01  0.22131572306E+01  0.12444460273E+02  0.00000000000E+00 0. -1.
</event>
<event>
 7    1  0.1384886E-010  0.4778727E+02  0.7816164E-02  0.1312668E+00
        -11   -1    0    0    0    0  0.00000000000E+00  0.00000000000E+00  0.45593999997E+02  0.45594000000E+02  0.51100000000E-03 0. -1.
         11   -1    0    0    0    0 -0.00000000000E+00 -0.00000000000E+00 -0.45593999997E+02  0.45594000000E+02  0.51100000000E-03 0.  1.
    9900012    2    1    2    0    0 -0.24314967838E+02  0.10279941580E+02 -0.34448922342E+02  0.47787272928E+02  0.20000008590E+02 0.  0.
         12    1    1    2    0    0  0.24314967838E+02 -0.10279941580E+02  0.34448922342E+02  0.43400727072E+02  0.00000000000E+00 0. -1.
         11    1    3    3    0    0 -0.17216991247E+02 -0.31896699700E+01 -0.17756963955E+02  0.24938094379E+02  0.51100000000E-03 0. -1.
        -11    1    3    3    0    0 -0.50597324558E+01  0.62545577200E+01 -0.96461823069E+01  0.12560621727E+02  0.51100000000E-03 0.  1.
         12    1    3    3    0    0 -0.20382441346E+01  0.72150538296E+01 -0.70457760803E+01  0.10288556823E+02  0.00000000000E+00 0. -1.
</event>
<event>
 7    1  0.1384886E-010  0.4778724E+02  0.7816164E-02  0.1312668E+00
        -11   -1    0    0    0    0  0.00000000000E+00  0.00000000000E+00  0.45593999997E+02  0.45594000000E+02  0.51100000000E-03 0.  1.
         11   -1    0    0    0    0 -0.00000000000E+00 -0.00000000000E+00 -0.45593999997E+02  0.45594000000E+02  0.51100000000E-03 0. -1.
    9900012    2    1    2    0    0  0.19953068138E+02 -0.57869041304E+01  0.38105280541E+02  0.47787244331E+02  0.19999878203E+02 0.  0.
         12    1    1    2    0    0 -0.19953068138E+02  0.57869041304E+01 -0.38105280541E+02  0.43400755669E+02  0.00000000000E+00 0. -1.
         11    1    3    3    0    0  0.19011725651E+01  0.41768781648E+01  0.83870576342E+01  0.95605179957E+01  0.51100000000E-03 0. -1.
        -11    1    3    3    0    0  0.11944162604E+02  0.38078964312E+00  0.16383923307E+02  0.20279077006E+02  0.51100000000E-03 0.  1.
        -12    1    3    3    0    0  0.61077329691E+01 -0.10344571938E+02  0.13334299600E+02  0.17947649329E+02  0.00000000000E+00 0.  1.
</event>
<event>
 7    1  0.1384886E-010  0.4778727E+02  0.7816164E-02  0.1312668E+00
        -11   -1    0    0    0    0  0.00000000000E+00  0.00000000000E+00  0.45593999997E+02  0.45594000000E+02  0.51100000000E-03 0.  1.
         11   -1    0    0    0    0 -0.00000000000E+00 -0.00000000000E+00 -0.45593999997E+02  0.45594000000E+02  0.51100000000E-03 0. -1.
    9900012    2    1    2    0    0  0.98060392353E+01 -0.32510715695E+02  0.27028102537E+02  0.47787269969E+02  0.19999995095E+02 0.  0.
         12    1    1    2    0    0 -0.98060392353E+01  0.32510715695E+02 -0.27028102537E+02  0.43400730031E+02  0.00000000000E+00 0. -1.
         11    1    3    3    0    0 -0.80336506390E+00 -0.80839891318E+01  0.58462147347E+00  0.81448178762E+01  0.51100000000E-03 0. -1.
        -11    1    3    3    0    0  0.62613207634E+01 -0.23688407957E+02  0.19061244969E+02  0.31043129180E+02  0.51100000000E-03 0.  1.
        -12    1    3    3    0    0  0.43480835357E+01 -0.73831860622E+00  0.73822360947E+01  0.85993229127E+01  0.00000000000E+00 0.  1.
</event>
<event>
 7    1  0.1384886E-010  0.4778727E+02  0.7816164E-02  0.1312668E+00
        -11   -1    0    0    0    0  0.00000000000E+00  0.00000000000E+00  0.45593999997E+02  0.45594000000E+02  0.51100000000E-03 0.  1.
         11   -1    0    0    0    0 -0.00000000000E+00 -0.00000000000E+00 -0.45593999997E+02  0.45594000000E+02  0.51100000000E-03 0. -1.
    9900012    2    1    2    0    0  0.36182979636E+02 -0.23966846746E+02  0.75989257459E-01  0.47787268063E+02  0.19999986407E+02 0.  0.
         12    1    1    2    0    0 -0.36182979636E+02  0.23966846746E+02 -0.75989257459E-01  0.43400731937E+02  0.00000000000E+00 0. -1.
         11    1    3    3    0    0  0.15277171222E+01  0.12632633709E+01 -0.16843228596E+01  0.26012877016E+01  0.51100000000E-03 0. -1.
        -11    1    3    3    0    0  0.12852645135E+02 -0.25638468644E+01 -0.28149043189E+01  0.13404756033E+02  0.51100000000E-03 0.  1.
        -12    1    3    3    0    0  0.21802617379E+02 -0.22666263253E+02  0.45752164360E+01  0.31781224329E+02  0.00000000000E+00 0.  1.
</event>
<event>
 7    1  0.1384886E-010  0.4778727E+02  0.7816164E-02  0.1312668E+00
        -11   -1    0    0    0    0  0.00000000000E+00  0.00000000000E+00  0.45593999997E+02  0.45594000000E+02  0.51100000000E-03 0.  1.
         11   -1    0    0    0    0 -0.00000000000E+00 -0.00000000000E+00 -0.45593999997E+02  0.45594000000E+02  0.51100000000E-03 0. -1.
    9900012    2    1    2    0    0 -0.68212204479E+01 -0.64603374012E+01  0.42371665164E+02  0.47787274010E+02  0.20000013521E+02 0.  0.
         12    1    1    2    0    0  0.68212204479E+01  0.64603374012E+01 -0.42371665164E+02  0.43400725990E+02  0.00000000000E+00 0. -1.
         11    1    3    3    0    0 -0.73641098228E+01 -0.41812372331E+01  0.16902671225E+02  0.18905373656E+02  0.51100000000E-03 0. -1.
        -11    1    3    3    0    0 -0.14663335491E+01  0.53406118771E+01  0.13013457147E+02  0.14142925315E+02  0.51100000000E-03 0.  1.
         12    1    3    3    0    0  0.20092229240E+01 -0.76197120452E+01  0.12455536791E+02  0.14738975038E+02  0.00000000000E+00 0. -1.
</event>
<event>
 7    1  0.1384886E-010  0.4778728E+02  0.7816164E-02  0.1312668E+00
        -11   -1    0    0    0    0  0.00000000000E+00  0.00000000000E+00  0.45593999997E+02  0.45594000000E+02  0.51100000000E-03 0.  1.
         11   -1    0    0    0    0 -0.00000000000E+00 -0.00000000000E+00 -0.45593999997E+02  0.45594000000E+02  0.51100000000E-03 0. -1.
    9900012    2    1    2    0    0  0.24760863807E+02  0.23046033182E+02  0.27191957486E+02  0.47787279110E+02  0.20000036773E+02 0.  0.
         12    1    1    2    0    0 -0.24760863807E+02 -0.23046033182E+02 -0.27191957486E+02  0.43400720890E+02  0.00000000000E+00 0. -1.
         11    1    3    3    0    0  0.58038997620E+01  0.59883242103E+01  0.99765626357E+01  0.13002964338E+02  0.51100000000E-03 0. -1.
        -11    1    3    3    0    0  0.25131715081E+01  0.10665755006E+02  0.12293294663E+02  0.16468134527E+02  0.51100000000E-03 0.  1.
         12    1    3    3    0    0  0.16443792537E+02  0.63919539657E+01  0.49221001870E+01  0.18316180244E+02  0.00000000000E+00 0. -1.
</event>
<event>
 7    1  0.1384886E-010  0.4778727E+02  0.7816164E-02  0.1312668E+00
        -11   -1    0    0    0    0  0.00000000000E+00  0.00000000000E+00  0.45593999997E+02  0.45594000000E+02  0.51100000000E-03 0.  1.
         11   -1    0    0    0    0 -0.00000000000E+00 -0.00000000000E+00 -0.45593999997E+02  0.45594000000E+02  0.51100000000E-03 0. -1.
    9900012    2    1    2    0    0  0.14989225579E+02  0.31676703919E+02  0.25603375741E+02  0.47787270698E+02  0.19999998420E+02 0.  0.
         12    1    1    2    0    0 -0.14989225579E+02 -0.31676703919E+02 -0.25603375741E+02  0.43400729302E+02  0.00000000000E+00 0. -1.
         11    1    3    3    0    0  0.35001909281E+00  0.12689874658E+02  0.64717294524E+01  0.14249165399E+02  0.51100000000E-03 0. -1.
        -11    1    3    3    0    0  0.89764300745E+01  0.58826650969E+01  0.14760104878E+01  0.10833312178E+02  0.51100000000E-03 0.  1.
         12    1    3    3    0    0  0.56627764117E+01  0.13104164163E+02  0.17655635801E+02  0.22704793120E+02  0.00000000000E+00 0. -1.
</event>
<event>
 7    1  0.1384886E-010  0.4778727E+02  0.7816164E-02  0.1312668E+00
        -11   -1    0    0    0    0  0.00000000000E+00  0.00000000000E+00  0.45593999997E+02  0.45594000000E+02  0.51100000000E-03 0.  1.
         11   -1    0    0    0    0 -0.00000000000E+00 -0.00000000000E+00 -0.45593999997E+02  0.45594000000E+02  0.51100000000E-03 0. -1.
    9900012    2    1    2    0    0  0.13896464367E+02  0.32852819104E+02  0.24722534009E+02  0.47787272670E+02  0.20000007410E+02 0.  0.
         12    1    1    2    0    0 -0.13896464367E+02 -0.32852819104E+02 -0.24722534009E+02  0.43400727330E+02  0.00000000000E+00 0. -1.
         11    1    3    3    0    0  0.84550864423E+01  0.19937426744E+02  0.43196701869E+01  0.22082776608E+02  0.51100000000E-03 0. -1.
        -11    1    3    3    0    0 -0.13750825308E+01  0.49052920135E+01  0.60220375684E+01  0.78878183575E+01  0.51100000000E-03 0.  1.
         12    1    3    3    0    0  0.68164604556E+01  0.80101003466E+01  0.14380826253E+02  0.17816677705E+02  0.00000000000E+00 0. -1.
</event>
<event>
 7    1  0.1384886E-010  0.4778727E+02  0.7816164E-02  0.1312668E+00
        -11   -1    0    0    0    0  0.00000000000E+00  0.00000000000E+00  0.45593999997E+02  0.45594000000E+02  0.51100000000E-03 0.  1.
         11   -1    0    0    0    0 -0.00000000000E+00 -0.00000000000E+00 -0.45593999997E+02  0.45594000000E+02  0.51100000000E-03 0. -1.
    9900012    2    1    2    0    0  0.14508748849E+02 -0.26781013702E+02  0.30917579947E+02  0.47787271459E+02  0.20000001892E+02 0.  0.
         12    1    1    2    0    0 -0.14508748849E+02  0.26781013702E+02 -0.30917579947E+02  0.43400728541E+02  0.00000000000E+00 0. -1.
         11    1    3    3    0    0  0.85490448603E+00 -0.16190397756E+01  0.85670332607E+01  0.87604914603E+01  0.51100000000E-03 0.  1.
        -11    1    3    3    0    0  0.14057924014E+02 -0.11353250231E+02  0.11066565365E+02  0.21189393282E+02  0.51100000000E-03 0. -1.
        -12    1    3    3    0    0 -0.40407965085E+00 -0.13808723695E+02  0.11283981322E+02  0.17837386717E+02  0.00000000000E+00 0.  1.
</event>
<event>
 7    1  0.1384886E-010  0.4778728E+02  0.7816164E-02  0.1312668E+00
        -11   -1    0    0    0    0  0.00000000000E+00  0.00000000000E+00  0.45593999997E+02  0.45594000000E+02  0.51100000000E-03 0.  1.
         11   -1    0    0    0    0 -0.00000000000E+00 -0.00000000000E+00 -0.45593999997E+02  0.45594000000E+02  0.51100000000E-03 0. -1.
    9900012    2    1    2    0    0  0.33753629801E+02  0.17994387585E+02  0.20506507986E+02  0.47787281353E+02  0.20000047001E+02 0.  0.
         12    1    1    2    0    0 -0.33753629801E+02 -0.17994387585E+02 -0.20506507986E+02  0.43400718647E+02  0.00000000000E+00 0. -1.
         11    1    3    3    0    0  0.24741659389E+02  0.54282232048E+01  0.11659464902E+02  0.27884734866E+02  0.51100000000E-03 0. -1.
        -11    1    3    3    0    0 -0.17117904739E+00  0.30685017756E+00  0.37396767727E+01  0.37561472180E+01  0.51100000000E-03 0.  1.
         12    1    3    3    0    0  0.91831494596E+01  0.12259314203E+02  0.51073663106E+01  0.16146399269E+02  0.00000000000E+00 0. -1.
</event>
<event>
 7    1  0.1384886E-010  0.4778727E+02  0.7816164E-02  0.1312668E+00
        -11   -1    0    0    0    0  0.00000000000E+00  0.00000000000E+00  0.45593999997E+02  0.45594000000E+02  0.51100000000E-03 0.  1.
         11   -1    0    0    0    0 -0.00000000000E+00 -0.00000000000E+00 -0.45593999997E+02  0.45594000000E+02  0.51100000000E-03 0. -1.
    9900012    2    1    2    0    0  0.24004169841E+02  0.28644706125E+02  0.22065898833E+02  0.47787271319E+02  0.20000001253E+02 0.  0.
         12    1    1    2    0    0 -0.24004169841E+02 -0.28644706125E+02 -0.22065898833E+02  0.43400728681E+02  0.00000000000E+00 0. -1.
         11    1    3    3    0    0 -0.12922335208E+00  0.15855874302E+01 -0.12336871655E+01  0.20131493877E+01  0.51100000000E-03 0. -1.
        -11    1    3    3    0    0  0.26275254825E+02  0.24435208966E+02  0.20166365755E+02  0.41160062699E+02  0.51100000000E-03 0.  1.
        -12    1    3    3    0    0 -0.21418616320E+01  0.26239097286E+01  0.31332202431E+01  0.46140592330E+01  0.00000000000E+00 0.  1.
</event>
<event>
 7    1  0.1384886E-010  0.4778727E+02  0.7816164E-02  0.1312668E+00
        -11   -1    0    0    0    0  0.00000000000E+00  0.00000000000E+00  0.45593999997E+02  0.45594000000E+02  0.51100000000E-03 0. -1.
         11   -1    0    0    0    0 -0.00000000000E+00 -0.00000000000E+00 -0.45593999997E+02  0.45594000000E+02  0.51100000000E-03 0.  1.
    9900012    2    1    2    0    0  0.13318705147E+02 -0.36277180230E+02 -0.19753514268E+02  0.47787273760E+02  0.20000012382E+02 0.  0.
         12    1    1    2    0    0 -0.13318705147E+02  0.36277180230E+02  0.19753514268E+02  0.43400726240E+02  0.00000000000E+00 0. -1.
         11    1    3    3    0    0  0.60185614304E+01 -0.10895238779E+02 -0.12529132282E+02  0.17660930489E+02  0.51100000000E-03 0. -1.
        -11    1    3    3    0    0  0.87145382275E+01 -0.90336424563E+01 -0.10572193089E+01  0.12596332223E+02  0.51100000000E-03 0.  1.
         12    1    3    3    0    0 -0.14143945111E+01 -0.16348298995E+02 -0.61671626767E+01  0.17530011048E+02  0.00000000000E+00 0. -1.
</event>
<event>
 7    1  0.1384886E-010  0.4778727E+02  0.7816164E-02  0.1312668E+00
        -11   -1    0    0    0    0  0.00000000000E+00  0.00000000000E+00  0.45593999997E+02  0.45594000000E+02  0.51100000000E-03 0.  1.
         11   -1    0    0    0    0 -0.00000000000E+00 -0.00000000000E+00 -0.45593999997E+02  0.45594000000E+02  0.51100000000E-03 0. -1.
    9900012    2    1    2    0    0  0.32163453405E+02  0.13067954056E+02  0.26045423877E+02  0.47787271169E+02  0.20000000569E+02 0.  0.
         12    1    1    2    0    0 -0.32163453405E+02 -0.13067954056E+02 -0.26045423877E+02  0.43400728831E+02  0.00000000000E+00 0. -1.
         11    1    3    3    0    0  0.63857097306E+01  0.93750948745E+01  0.20106184954E+01  0.11520081582E+02  0.51100000000E-03 0. -1.
        -11    1    3    3    0    0  0.11996061160E+02  0.55383713156E+01  0.12718778262E+02  0.18339748115E+02  0.51100000000E-03 0.  1.
        -12    1    3    3    0    0  0.13781682515E+02 -0.18455121340E+01  0.11316027119E+02  0.17927441472E+02  0.00000000000E+00 0.  1.
</event>
<event>
 7    1  0.1384886E-010  0.4778728E+02  0.7816164E-02  0.1312668E+00
        -11   -1    0    0    0    0  0.00000000000E+00  0.00000000000E+00  0.45593999997E+02  0.45594000000E+02  0.51100000000E-03 0.  1.
         11   -1    0    0    0    0 -0.00000000000E+00 -0.00000000000E+00 -0.45593999997E+02  0.45594000000E+02  0.51100000000E-03 0. -1.
    9900012    2    1    2    0    0  0.36617944996E+01 -0.75279119366E+01  0.42585733643E+02  0.47787275271E+02  0.20000019270E+02 0.  0.
         12    1    1    2    0    0 -0.36617944996E+01  0.75279119366E+01 -0.42585733643E+02  0.43400724729E+02  0.00000000000E+00 0. -1.
         11    1    3    3    0    0  0.53048365341E+01  0.10713447826E+01  0.33199053090E+01  0.63490819666E+01  0.51100000000E-03 0. -1.
        -11    1    3    3    0    0  0.11923876577E+01 -0.87509429607E+01  0.18739648737E+02  0.20716544743E+02  0.51100000000E-03 0.  1.
        -12    1    3    3    0    0 -0.28354296922E+01  0.15168624146E+00  0.20526179597E+02  0.20721648561E+02  0.00000000000E+00 0.  1.
</event>
<event>
 7    1  0.1384886E-010  0.4778727E+02  0.7816164E-02  0.1312668E+00
        -11   -1    0    0    0    0  0.00000000000E+00  0.00000000000E+00  0.45593999997E+02  0.45594000000E+02  0.51100000000E-03 0.  1.
         11   -1    0    0    0    0 -0.00000000000E+00 -0.00000000000E+00 -0.45593999997E+02  0.45594000000E+02  0.51100000000E-03 0. -1.
    9900012    2    1    2    0    0 -0.54336226972E+01 -0.21115926192E+02  0.37526214008E+02  0.47787270371E+02  0.19999996927E+02 0.  0.
         12    1    1    2    0    0  0.54336226972E+01  0.21115926192E+02 -0.37526214008E+02  0.43400729629E+02  0.00000000000E+00 0. -1.
         11    1    3    3    0    0 -0.15552603790E+01 -0.12315871566E+02  0.14382364364E+02  0.18998735017E+02  0.51100000000E-03 0.  1.
        -11    1    3    3    0    0 -0.85137145745E+01 -0.60759866902E+01  0.19974704671E+02  0.22547500462E+02  0.51100000000E-03 0. -1.
         12    1    3    3    0    0  0.46353522563E+01 -0.27240679355E+01  0.31691449730E+01  0.62410348915E+01  0.00000000000E+00 0. -1.
</event>
<event>
 7    1  0.1384886E-010  0.4778727E+02  0.7816164E-02  0.1312668E+00
        -11   -1    0    0    0    0  0.00000000000E+00  0.00000000000E+00  0.45593999997E+02  0.45594000000E+02  0.51100000000E-03 0.  1.
         11   -1    0    0    0    0 -0.00000000000E+00 -0.00000000000E+00 -0.45593999997E+02  0.45594000000E+02  0.51100000000E-03 0. -1.
    9900012    2    1    2    0    0  0.39412756352E+02  0.14468994634E+02  0.10995732565E+02  0.47787270702E+02  0.19999998438E+02 0.  0.
         12    1    1    2    0    0 -0.39412756352E+02 -0.14468994634E+02 -0.10995732565E+02  0.43400729298E+02  0.00000000000E+00 0. -1.
         11    1    3    3    0    0  0.26551040283E+02  0.93199446839E+01  0.11178828337E+02  0.30278462845E+02  0.51100000000E-03 0. -1.
        -11    1    3    3    0    0  0.10652364148E+01  0.34115899371E+01  0.35268985054E+01  0.50212237400E+01  0.51100000000E-03 0.  1.
         12    1    3    3    0    0  0.11796479654E+02  0.17374600126E+01 -0.37099942775E+01  0.12487584116E+02  0.00000000000E+00 0. -1.
</event>
<event>
 7    1  0.1384886E-010  0.4778727E+02  0.7816164E-02  0.1312668E+00
        -11   -1    0    0    0    0  0.00000000000E+00  0.00000000000E+00  0.45593999997E+02  0.45594000000E+02  0.51100000000E-03 0. -1.
         11   -1    0    0    0    0 -0.00000000000E+00 -0.00000000000E+00 -0.45593999997E+02  0.45594000000E+02  0.51100000000E-03 0.  1.
    9900012    2    1    2    0    0  0.27844745597E+02 -0.20595423476E+01 -0.33227272879E+02  0.47787271492E+02  0.20000002038E+02 0.  0.
         12    1    1    2    0    0 -0.27844745597E+02  0.20595423476E+01  0.33227272879E+02  0.43400728508E+02  0.00000000000E+00 0. -1.
         11    1    3    3    0    0  0.98146006973E+00  0.10825470981E+01  0.18438990376E+01  0.23526869766E+01  0.51100000000E-03 0. -1.
        -11    1    3    3    0    0  0.15578394007E+02 -0.36963189489E+01 -0.12940294559E+02  0.20586411954E+02  0.51100000000E-03 0.  1.
        -12    1    3    3    0    0  0.11284891521E+02  0.55422950317E+00 -0.22130877358E+02  0.24848172561E+02  0.00000000000E+00 0.  1.
</event>
<event>
 7    1  0.1384886E-010  0.4778727E+02  0.7816164E-02  0.1312668E+00
        -11   -1    0    0    0    0  0.00000000000E+00  0.00000000000E+00  0.45593999997E+02  0.45594000000E+02  0.51100000000E-03 0. -1.
         11   -1    0    0    0    0 -0.00000000000E+00 -0.00000000000E+00 -0.45593999997E+02  0.45594000000E+02  0.51100000000E-03 0.  1.
    9900012    2    1    2    0    0  0.37586502438E+02 -0.18806666872E+02 -0.10825307922E+02  0.47787272173E+02  0.20000005143E+02 0.  0.
         12    1    1    2    0    0 -0.37586502438E+02  0.18806666872E+02  0.10825307922E+02  0.43400727827E+02  0.00000000000E+00 0. -1.
         11    1    3    3    0    0  0.18427246254E+01  0.19278848696E+01 -0.49768135184E+00  0.27129432549E+01  0.51100000000E-03 0. -1.
        -11    1    3    3    0    0  0.23678890550E+02 -0.19949700184E+02 -0.11263823225E+02  0.32947748163E+02  0.51100000000E-03 0.  1.
         12    1    3    3    0    0  0.12064887262E+02 -0.78485155772E+00  0.93619665466E+00  0.12126580754E+02  0.00000000000E+00 0. -1.
</event>
<event>
 7    1  0.1384886E-010  0.4778726E+02  0.7816164E-02  0.1312668E+00
        -11   -1    0    0    0    0  0.00000000000E+00  0.00000000000E+00  0.45593999997E+02  0.45594000000E+02  0.51100000000E-03 0.  1.
         11   -1    0    0    0    0 -0.00000000000E+00 -0.00000000000E+00 -0.45593999997E+02  0.45594000000E+02  0.51100000000E-03 0. -1.
    9900012    2    1    2    0    0 -0.40616753402E+02  0.12392443205E+02  0.89627300246E+01  0.47787264580E+02  0.19999970525E+02 0.  0.
         12    1    1    2    0    0  0.40616753402E+02 -0.12392443205E+02 -0.89627300246E+01  0.43400735420E+02  0.00000000000E+00 0. -1.
         11    1    3    3    0    0 -0.29305073828E+02  0.10646231604E+02  0.23811007072E+01  0.31269781584E+02  0.51100000000E-03 0. -1.
        -11    1    3    3    0    0 -0.12868682638E+02  0.13637702510E+01  0.41218616701E+01  0.13581332999E+02  0.51100000000E-03 0.  1.
        -12    1    3    3    0    0  0.15570030643E+01  0.38244135045E+00  0.24597676473E+01  0.29361499974E+01  0.00000000000E+00 0.  1.
</event>
<event>
 7    1  0.1384886E-010  0.4778728E+02  0.7816164E-02  0.1312668E+00
        -11   -1    0    0    0    0  0.00000000000E+00  0.00000000000E+00  0.45593999997E+02  0.45594000000E+02  0.51100000000E-03 0.  1.
         11   -1    0    0    0    0 -0.00000000000E+00 -0.00000000000E+00 -0.45593999997E+02  0.45594000000E+02  0.51100000000E-03 0. -1.
    9900012    2    1    2    0    0 -0.42377021039E+02  0.38975270478E+01 -0.85217089635E+01  0.47787283959E+02  0.20000058881E+02 0.  0.
         12    1    1    2    0    0  0.42377021039E+02 -0.38975270478E+01  0.85217089635E+01  0.43400716041E+02  0.00000000000E+00 0. -1.
         11    1    3    3    0    0 -0.10024837853E+01 -0.18541550135E+01  0.28049404946E+01  0.35086401914E+01  0.51100000000E-03 0. -1.
        -11    1    3    3    0    0 -0.19732051173E+02  0.40721866257E+01 -0.10096909956E+02  0.22536284927E+02  0.51100000000E-03 0.  1.
        -12    1    3    3    0    0 -0.21642486081E+02  0.16794954355E+01 -0.12297395020E+01  0.21742358840E+02  0.00000000000E+00 0.  1.
</event>
<event>
 7    1  0.1384886E-010  0.4778727E+02  0.7816164E-02  0.1312668E+00
        -11   -1    0    0    0    0  0.00000000000E+00  0.00000000000E+00  0.45593999997E+02  0.45594000000E+02  0.51100000000E-03 0. -1.
         11   -1    0    0    0    0 -0.00000000000E+00 -0.00000000000E+00 -0.45593999997E+02  0.45594000000E+02  0.51100000000E-03 0.  1.
    9900012    2    1    2    0    0 -0.38758632871E+02  0.19407473025E+02  0.21775163175E+01  0.47787271797E+02  0.20000003432E+02 0.  0.
         12    1    1    2    0    0  0.38758632871E+02 -0.19407473025E+02 -0.21775163175E+01  0.43400728203E+02  0.00000000000E+00 0. -1.
         11    1    3    3    0    0 -0.70654691218E+01  0.76083931618E+01  0.31092456653E+01  0.10838630415E+02  0.51100000000E-03 0. -1.
        -11    1    3    3    0    0 -0.28530169277E+02  0.44427893293E+01  0.10598509814E+00  0.28874212874E+02  0.51100000000E-03 0.  1.
         12    1    3    3    0    0 -0.31629944718E+01  0.73562905340E+01 -0.10377144459E+01  0.80744285074E+01  0.00000000000E+00 0. -1.
</event>
<event>
 7    1  0.1384886E-010  0.4778726E+02  0.7816164E-02  0.1312668E+00
        -11   -1    0    0    0    0  0.00000000000E+00  0.00000000000E+00  0.45593999997E+02  0.45594000000E+02  0.51100000000E-03 0.  1.
         11   -1    0    0    0    0 -0.00000000000E+00 -0.00000000000E+00 -0.45593999997E+02  0.45594000000E+02  0.51100000000E-03 0. -1.
    9900012    2    1    2    0    0  0.16783830600E+02 -0.32916919629E+02  0.22768473359E+02  0.47787263295E+02  0.19999964665E+02 0.  0.
         12    1    1    2    0    0 -0.16783830600E+02  0.32916919629E+02 -0.22768473359E+02  0.43400736705E+02  0.00000000000E+00 0. -1.
         11    1    3    3    0    0  0.12903391593E+01 -0.81510175774E+01  0.13753643255E+02  0.16039537578E+02  0.51100000000E-03 0.  1.
        -11    1    3    3    0    0  0.42770970527E+01 -0.99846367332E+01 -0.54276504417E+00  0.10875712576E+02  0.51100000000E-03 0. -1.
        -12    1    3    3    0    0  0.11216394388E+02 -0.14781265318E+02  0.95575951487E+01  0.20872013140E+02  0.00000000000E+00 0.  1.
</event>
<event>
 7    1  0.1384886E-010  0.4778727E+02  0.7816164E-02  0.1312668E+00
        -11   -1    0    0    0    0  0.00000000000E+00  0.00000000000E+00  0.45593999997E+02  0.45594000000E+02  0.51100000000E-03 0.  1.
         11   -1    0    0    0    0 -0.00000000000E+00 -0.00000000000E+00 -0.45593999997E+02  0.45594000000E+02  0.51100000000E-03 0. -1.
    9900012    2    1    2    0    0  0.15980377706E+01 -0.41835706866E+02  0.11438689629E+02  0.47787265973E+02  0.19999976876E+02 0.  0.
         12    1    1    2    0    0 -0.15980377706E+01  0.41835706866E+02 -0.11438689629E+02  0.43400734027E+02  0.00000000000E+00 0. -1.
         11    1    3    3    0    0 -0.12678960044E+01  0.76388800614E+00  0.16690486056E+01  0.22308762119E+01  0.51100000000E-03 0. -1.
        -11    1    3    3    0    0  0.49206112907E+01 -0.65120931966E+01  0.19753785797E+00  0.81644837401E+01  0.51100000000E-03 0.  1.
        -12    1    3    3    0    0 -0.20546775158E+01 -0.36087501675E+02  0.95721031657E+01  0.37391906021E+02  0.00000000000E+00 0.  1.
</event>
<event>
 7    1  0.1384886E-010  0.4778727E+02  0.7816164E-02  0.1312668E+00
        -11   -1    0    0    0    0  0.00000000000E+00  0.00000000000E+00  0.45593999997E+02  0.45594000000E+02  0.51100000000E-03 0.  1.
         11   -1    0    0    0    0 -0.00000000000E+00 -0.00000000000E+00 -0.45593999997E+02  0.45594000000E+02  0.51100000000E-03 0. -1.
    9900012    2    1    2    0    0  0.57407719632E+01  0.94677875635E+01  0.41964602796E+02  0.47787270145E+02  0.19999995899E+02 0.  0.
         12    1    1    2    0    0 -0.57407719632E+01 -0.94677875635E+01 -0.41964602796E+02  0.43400729855E+02  0.00000000000E+00 0. -1.
         11    1    3    3    0    0  0.17723175756E+01 -0.12064287459E+01  0.41474572048E+01  0.46688308423E+01  0.51100000000E-03 0.  1.
        -11    1    3    3    0    0 -0.22448765973E+01  0.30687840807E+01  0.30835166017E+02  0.31068704032E+02  0.51100000000E-03 0. -1.
         12    1    3    3    0    0  0.62133309849E+01  0.76054322287E+01  0.69819795749E+01  0.12049735271E+02  0.00000000000E+00 0. -1.
</event>
<event>
 7    1  0.1384886E-010  0.4778727E+02  0.7816164E-02  0.1312668E+00
        -11   -1    0    0    0    0  0.00000000000E+00  0.00000000000E+00  0.45593999997E+02  0.45594000000E+02  0.51100000000E-03 0.  1.
         11   -1    0    0    0    0 -0.00000000000E+00 -0.00000000000E+00 -0.45593999997E+02  0.45594000000E+02  0.51100000000E-03 0. -1.
    9900012    2    1    2    0    0  0.92693440106E+01  0.10851553008E+02  0.40987147205E+02  0.47787272159E+02  0.20000005084E+02 0.  0.
         12    1    1    2    0    0 -0.92693440106E+01 -0.10851553008E+02 -0.40987147205E+02  0.43400727841E+02  0.00000000000E+00 0. -1.
         11    1    3    3    0    0 -0.20954624946E+01  0.56007699022E+01  0.27699151967E+02  0.28337300622E+02  0.51100000000E-03 0. -1.
        -11    1    3    3    0    0  0.15520127767E+01  0.35602878666E+01  0.19032821199E+01  0.43251446728E+01  0.51100000000E-03 0.  1.
         12    1    3    3    0    0  0.98127937286E+01  0.16904952395E+01  0.11384713118E+02  0.15124826865E+02  0.00000000000E+00 0. -1.
</event>
<event>
 7    1  0.1384886E-010  0.4778727E+02  0.7816164E-02  0.1312668E+00
        -11   -1    0    0    0    0  0.00000000000E+00  0.00000000000E+00  0.45593999997E+02  0.45594000000E+02  0.51100000000E-03 0. -1.
         11   -1    0    0    0    0 -0.00000000000E+00 -0.00000000000E+00 -0.45593999997E+02  0.45594000000E+02  0.51100000000E-03 0.  1.
    9900012    2    1    2    0    0  0.77560047947E+01 -0.42666821723E+02  0.17349087599E+01  0.47787271957E+02  0.20000004159E+02 0.  0.
         12    1    1    2    0    0 -0.77560047947E+01  0.42666821723E+02 -0.17349087599E+01  0.43400728043E+02  0.00000000000E+00 0. -1.
         11    1    3    3    0    0 -0.20436315845E+01 -0.15865733537E+02 -0.40441747645E+01  0.16500099409E+02  0.51100000000E-03 0. -1.
        -11    1    3    3    0    0  0.83207331198E+01 -0.14460534473E+02 -0.17187479131E+01  0.16771873823E+02  0.51100000000E-03 0.  1.
         12    1    3    3    0    0  0.14789032594E+01 -0.12340553713E+02  0.74978314375E+01  0.14515298725E+02  0.00000000000E+00 0. -1.
</event>
<event>
 7    1  0.1384886E-010  0.4778727E+02  0.7816164E-02  0.1312668E+00
        -11   -1    0    0    0    0  0.00000000000E+00  0.00000000000E+00  0.45593999997E+02  0.45594000000E+02  0.51100000000E-03 0.  1.
         11   -1    0    0    0    0 -0.00000000000E+00 -0.00000000000E+00 -0.45593999997E+02  0.45594000000E+02  0.51100000000E-03 0. -1.
    9900012    2    1    2    0    0 -0.55135679921E+01  0.36592038175E+02  0.22677004325E+02  0.47787271723E+02  0.20000003094E+02 0.  0.
         12    1    1    2    0    0  0.55135679921E+01 -0.36592038175E+02 -0.22677004325E+02  0.43400728277E+02  0.00000000000E+00 0. -1.
         11    1    3    3    0    0  0.38467543129E+01  0.44718233493E+01  0.65410332657E+01  0.88079418285E+01  0.51100000000E-03 0. -1.
        -11    1    3    3    0    0 -0.38959416517E+01  0.26882921130E+02  0.15752231564E+02  0.31400678486E+02  0.51100000000E-03 0.  1.
         12    1    3    3    0    0 -0.54643806533E+01  0.52372936956E+01  0.38373949510E+00  0.75786514089E+01  0.00000000000E+00 0. -1.
</event>
<event>
 7    1  0.1384886E-010  0.4778725E+02  0.7816164E-02  0.1312668E+00
        -11   -1    0    0    0    0  0.00000000000E+00  0.00000000000E+00  0.45593999997E+02  0.45594000000E+02  0.51100000000E-03 0.  1.
         11   -1    0    0    0    0 -0.00000000000E+00 -0.00000000000E+00 -0.45593999997E+02  0.45594000000E+02  0.51100000000E-03 0. -1.
    9900012    2    1    2    0    0  0.29200620814E+02 -0.31884815079E+02  0.37824639580E+01  0.47787254360E+02  0.19999923927E+02 0.  0.
         12    1    1    2    0    0 -0.29200620814E+02  0.31884815079E+02 -0.37824639580E+01  0.43400745640E+02  0.00000000000E+00 0. -1.
         11    1    3    3    0    0  0.77422694730E+01 -0.97706607220E+01 -0.26663862637E+01  0.12748261195E+02  0.51100000000E-03 0. -1.
        -11    1    3    3    0    0  0.31385386371E+01 -0.14077679296E+02  0.22433397765E+01  0.14596713765E+02  0.51100000000E-03 0.  1.
         12    1    3    3    0    0  0.18319812704E+02 -0.80364750612E+01  0.42055104453E+01  0.20442279399E+02  0.00000000000E+00 0. -1.
</event>
<event>
 7    1  0.1384886E-010  0.4778727E+02  0.7816164E-02  0.1312668E+00
        -11   -1    0    0    0    0  0.00000000000E+00  0.00000000000E+00  0.45593999997E+02  0.45594000000E+02  0.51100000000E-03 0. -1.
         11   -1    0    0    0    0 -0.00000000000E+00 -0.00000000000E+00 -0.45593999997E+02  0.45594000000E+02  0.51100000000E-03 0.  1.
    9900012    2    1    2    0    0  0.19102101209E+02 -0.89264268771E+01 -0.37934844227E+02  0.47787265284E+02  0.19999973736E+02 0.  0.
         12    1    1    2    0    0 -0.19102101209E+02  0.89264268771E+01  0.37934844227E+02  0.43400734716E+02  0.00000000000E+00 0. -1.
         11    1    3    3    0    0 -0.46113165249E+00 -0.12969387658E+00 -0.38056034347E+01  0.38356330202E+01  0.51100000000E-03 0. -1.
        -11    1    3    3    0    0  0.92153193152E+01 -0.12876548053E+02 -0.24850441968E+02  0.29466456627E+02  0.51100000000E-03 0.  1.
        -12    1    3    3    0    0  0.10347913546E+02  0.40798150529E+01 -0.92787988239E+01  0.14485175637E+02  0.00000000000E+00 0.  1.
</event>
<event>
 7    1  0.1384886E-010  0.4778724E+02  0.7816164E-02  0.1312668E+00
        -11   -1    0    0    0    0  0.00000000000E+00  0.00000000000E+00  0.45593999997E+02  0.45594000000E+02  0.51100000000E-03 0.  1.
         11   -1    0    0    0    0 -0.00000000000E+00 -0.00000000000E+00 -0.45593999997E+02  0.45594000000E+02  0.51100000000E-03 0. -1.
    9900012    2    1    2    0    0 -0.55447768448E+01  0.18967069048E+02  0.38641057732E+02  0.47787244232E+02  0.19999877752E+02 0.  0.
         12    1    1    2    0    0  0.55447768448E+01 -0.18967069048E+02 -0.38641057732E+02  0.43400755768E+02  0.00000000000E+00 0. -1.
         11    1    3    3    0    0 -0.11825474134E+01  0.12626567893E+01  0.10436505650E+02  0.10578911617E+02  0.51100000000E-03 0. -1.
        -11    1    3    3    0    0 -0.34396186982E+01  0.12431401177E+02  0.57457049373E+01  0.14120334185E+02  0.51100000000E-03 0.  1.
        -12    1    3    3    0    0 -0.92261073321E+00  0.52730110819E+01  0.22458847145E+02  0.23087998430E+02  0.00000000000E+00 0.  1.
</event>
<event>
 7    1  0.1384886E-010  0.4778727E+02  0.7816164E-02  0.1312668E+00
        -11   -1    0    0    0    0  0.00000000000E+00  0.00000000000E+00  0.45593999997E+02  0.45594000000E+02  0.51100000000E-03 0.  1.
         11   -1    0    0    0    0 -0.00000000000E+00 -0.00000000000E+00 -0.45593999997E+02  0.45594000000E+02  0.51100000000E-03 0. -1.
    9900012    2    1    2    0    0 -0.22925532538E+02  0.33624218576E+02  0.15081616612E+02  0.47787271013E+02  0.19999999855E+02 0.  0.
         12    1    1    2    0    0  0.22925532538E+02 -0.33624218576E+02 -0.15081616612E+02  0.43400728987E+02  0.00000000000E+00 0. -1.
         11    1    3    3    0    0 -0.27689133967E+00  0.13870365585E+02  0.77726792320E+01  0.15902146176E+02  0.51100000000E-03 0. -1.
        -11    1    3    3    0    0 -0.42420552261E+00  0.24037764926E+01 -0.76326636932E+00  0.25574728862E+01  0.51100000000E-03 0.  1.
        -12    1    3    3    0    0 -0.22224435675E+02  0.17350076498E+02  0.80722037495E+01  0.29327651951E+02  0.00000000000E+00 0.  1.
</event>
<event>
 7    1  0.1384886E-010  0.4778727E+02  0.7816164E-02  0.1312668E+00
        -11   -1    0    0    0    0  0.00000000000E+00  0.00000000000E+00  0.45593999997E+02  0.45594000000E+02  0.51100000000E-03 0.  1.
         11   -1    0    0    0    0 -0.00000000000E+00 -0.00000000000E+00 -0.45593999997E+02  0.45594000000E+02  0.51100000000E-03 0. -1.
    9900012    2    1    2    0    0 -0.12785080496E+02  0.28594894030E+02  0.30041584151E+02  0.47787273898E+02  0.20000013009E+02 0.  0.
         12    1    1    2    0    0  0.12785080496E+02 -0.28594894030E+02 -0.30041584151E+02  0.43400726102E+02  0.00000000000E+00 0. -1.
         11    1    3    3    0    0 -0.55283210271E+00  0.28239456818E+01  0.19405832651E+01  0.34707572974E+01  0.51100000000E-03 0. -1.
        -11    1    3    3    0    0 -0.15569547016E+02  0.12291102713E+02  0.12575937805E+02  0.23486937053E+02  0.51100000000E-03 0.  1.
        -12    1    3    3    0    0  0.33372986226E+01  0.13479845635E+02  0.15525063082E+02  0.20829579548E+02  0.00000000000E+00 0.  1.
</event>
<event>
 7    1  0.1384886E-010  0.4778727E+02  0.7816164E-02  0.1312668E+00
        -11   -1    0    0    0    0  0.00000000000E+00  0.00000000000E+00  0.45593999997E+02  0.45594000000E+02  0.51100000000E-03 0.  1.
         11   -1    0    0    0    0 -0.00000000000E+00 -0.00000000000E+00 -0.45593999997E+02  0.45594000000E+02  0.51100000000E-03 0. -1.
    9900012    2    1    2    0    0  0.24620061409E+01  0.19303783080E+01  0.43287818455E+02  0.47787273494E+02  0.20000011169E+02 0.  0.
         12    1    1    2    0    0 -0.24620061409E+01 -0.19303783080E+01 -0.43287818455E+02  0.43400726506E+02  0.00000000000E+00 0. -1.
         11    1    3    3    0    0 -0.69972685471E-01 -0.23444458762E+01  0.10002525145E+02  0.10273842134E+02  0.51100000000E-03 0. -1.
        -11    1    3    3    0    0  0.12069242207E+01  0.48163178813E+01  0.34959714151E+02  0.35310553632E+02  0.51100000000E-03 0.  1.
         12    1    3    3    0    0  0.13250546057E+01 -0.54149369709E+00 -0.16744208415E+01  0.22028777284E+01  0.00000000000E+00 0. -1.
</event>
<event>
 7    1  0.1384886E-010  0.4778727E+02  0.7816164E-02  0.1312668E+00
        -11   -1    0    0    0    0  0.00000000000E+00  0.00000000000E+00  0.45593999997E+02  0.45594000000E+02  0.51100000000E-03 0. -1.
         11   -1    0    0    0    0 -0.00000000000E+00 -0.00000000000E+00 -0.45593999997E+02  0.45594000000E+02  0.51100000000E-03 0.  1.
    9900012    2    1    2    0    0  0.46257145003E+01  0.35936594324E+02 -0.23891147623E+02  0.47787274419E+02  0.20000015385E+02 0.  0.
         12    1    1    2    0    0 -0.46257145003E+01 -0.35936594324E+02  0.23891147623E+02  0.43400725581E+02  0.00000000000E+00 0. -1.
         11    1    3    3    0    0 -0.12696330591E+01  0.14558900801E+02 -0.98762391111E+01  0.17638414325E+02  0.51100000000E-03 0.  1.
        -11    1    3    3    0    0  0.14306886778E+01  0.75229853439E+01  0.25741648150E+01  0.80788924571E+01  0.51100000000E-03 0. -1.
         12    1    3    3    0    0  0.44646588817E+01  0.13854708179E+02 -0.16589073327E+02  0.22069967637E+02  0.00000000000E+00 0. -1.
</event>
<event>
 7    1  0.1384886E-010  0.4778727E+02  0.7816164E-02  0.1312668E+00
        -11   -1    0    0    0    0  0.00000000000E+00  0.00000000000E+00  0.45593999997E+02  0.45594000000E+02  0.51100000000E-03 0. -1.
         11   -1    0    0    0    0 -0.00000000000E+00 -0.00000000000E+00 -0.45593999997E+02  0.45594000000E+02  0.51100000000E-03 0.  1.
    9900012    2    1    2    0    0 -0.23783428536E+02  0.35190881794E+02 -0.89204071991E+01  0.47787270755E+02  0.19999998681E+02 0.  0.
         12    1    1    2    0    0  0.23783428536E+02 -0.35190881794E+02  0.89204071991E+01  0.43400729245E+02  0.00000000000E+00 0. -1.
         11    1    3    3    0    0 -0.45965941116E+01  0.36457305375E+01 -0.64225557214E+01  0.86988074375E+01  0.51100000000E-03 0. -1.
        -11    1    3    3    0    0 -0.10930190055E+02  0.24257691486E+02 -0.64690837333E+01  0.27381630621E+02  0.51100000000E-03 0.  1.
         12    1    3    3    0    0 -0.82566443696E+01  0.72874597707E+01  0.39712322556E+01  0.11706832696E+02  0.00000000000E+00 0. -1.
</event>
<event>
 7    1  0.1384886E-010  0.4778727E+02  0.7816164E-02  0.1312668E+00
        -11   -1    0    0    0    0  0.00000000000E+00  0.00000000000E+00  0.45593999997E+02  0.45594000000E+02  0.51100000000E-03 0.  1.
         11   -1    0    0    0    0 -0.00000000000E+00 -0.00000000000E+00 -0.45593999997E+02  0.45594000000E+02  0.51100000000E-03 0. -1.
    9900012    2    1    2    0    0  0.16671159934E+01  0.24159430486E+02  0.36016187805E+02  0.47787272573E+02  0.20000006972E+02 0.  0.
         12    1    1    2    0    0 -0.16671159934E+01 -0.24159430486E+02 -0.36016187805E+02  0.43400727427E+02  0.00000000000E+00 0. -1.
         11    1    3    3    0    0  0.62423400706E+01  0.73810166587E+01  0.46529893315E+01  0.10728304920E+02  0.51100000000E-03 0. -1.
        -11    1    3    3    0    0 -0.51672164320E+01  0.77019382536E+01  0.90298689241E+01  0.12944439407E+02  0.51100000000E-03 0.  1.
        -12    1    3    3    0    0  0.59199235476E+00  0.90764755738E+01  0.22333329549E+02  0.24114528247E+02  0.00000000000E+00 0.  1.
</event>
<event>
 7    1  0.1384886E-010  0.4778727E+02  0.7816164E-02  0.1312668E+00
        -11   -1    0    0    0    0  0.00000000000E+00  0.00000000000E+00  0.45593999997E+02  0.45594000000E+02  0.51100000000E-03 0.  1.
         11   -1    0    0    0    0 -0.00000000000E+00 -0.00000000000E+00 -0.45593999997E+02  0.45594000000E+02  0.51100000000E-03 0. -1.
    9900012    2    1    2    0    0  0.10482283460E+02  0.34848678545E+02  0.23649829688E+02  0.47787272965E+02  0.20000008758E+02 0.  0.
         12    1    1    2    0    0 -0.10482283460E+02 -0.34848678545E+02 -0.23649829688E+02  0.43400727035E+02  0.00000000000E+00 0. -1.
         11    1    3    3    0    0 -0.37794635670E+01  0.68415645218E+01  0.54603809984E+01  0.95345220577E+01  0.51100000000E-03 0. -1.
        -11    1    3    3    0    0  0.72513617358E+01  0.17513077042E+02  0.17197101320E+02  0.25593561857E+02  0.51100000000E-03 0.  1.
         12    1    3    3    0    0  0.70103852916E+01  0.10494036981E+02  0.99234736989E+00  0.12659189050E+02  0.00000000000E+00 0. -1.
</event>
<event>
 7    1  0.1384886E-010  0.4778727E+02  0.7816164E-02  0.1312668E+00
        -11   -1    0    0    0    0  0.00000000000E+00  0.00000000000E+00  0.45593999997E+02  0.45594000000E+02  0.51100000000E-03 0.  1.
         11   -1    0    0    0    0 -0.00000000000E+00 -0.00000000000E+00 -0.45593999997E+02  0.45594000000E+02  0.51100000000E-03 0. -1.
    9900012    2    1    2    0    0 -0.19520749332E+02  0.25661946977E+02  0.29052156534E+02  0.47787274471E+02  0.20000015624E+02 0.  0.
         12    1    1    2    0    0  0.19520749332E+02 -0.25661946977E+02 -0.29052156534E+02  0.43400725529E+02  0.00000000000E+00 0. -1.
         11    1    3    3    0    0  0.24199763615E+00 -0.12151620485E+01  0.73600295597E+00  0.14411392273E+01  0.51100000000E-03 0. -1.
        -11    1    3    3    0    0 -0.11579065268E+02  0.74619944647E+01  0.43729949378E+01  0.14452653696E+02  0.51100000000E-03 0.  1.
        -12    1    3    3    0    0 -0.81836817007E+01  0.19415114561E+02  0.23943158640E+02  0.31893481548E+02  0.00000000000E+00 0.  1.
</event>
<event>
 7    1  0.1384886E-010  0.4778727E+02  0.7816164E-02  0.1312668E+00
        -11   -1    0    0    0    0  0.00000000000E+00  0.00000000000E+00  0.45593999997E+02  0.45594000000E+02  0.51100000000E-03 0.  1.
         11   -1    0    0    0    0 -0.00000000000E+00 -0.00000000000E+00 -0.45593999997E+02  0.45594000000E+02  0.51100000000E-03 0. -1.
    9900012    2    1    2    0    0  0.31584621713E+02 -0.15070353028E+02  0.25669426983E+02  0.47787270159E+02  0.19999995961E+02 0.  0.
         12    1    1    2    0    0 -0.31584621713E+02  0.15070353028E+02 -0.25669426983E+02  0.43400729841E+02  0.00000000000E+00 0. -1.
         11    1    3    3    0    0  0.19299070254E+02 -0.81414915761E+01  0.21014638144E+02  0.29670743408E+02  0.51100000000E-03 0.  1.
        -11    1    3    3    0    0 -0.27037592857E+00 -0.43351069233E+01  0.27854325870E+01  0.51599312144E+01  0.51100000000E-03 0. -1.
        -12    1    3    3    0    0  0.12555927387E+02 -0.25937545284E+01  0.18693562515E+01  0.12956595537E+02  0.00000000000E+00 0.  1.
</event>
<event>
 7    1  0.1384886E-010  0.4778727E+02  0.7816164E-02  0.1312668E+00
        -11   -1    0    0    0    0  0.00000000000E+00  0.00000000000E+00  0.45593999997E+02  0.45594000000E+02  0.51100000000E-03 0.  1.
         11   -1    0    0    0    0 -0.00000000000E+00 -0.00000000000E+00 -0.45593999997E+02  0.45594000000E+02  0.51100000000E-03 0. -1.
    9900012    2    1    2    0    0 -0.54889328098E+01  0.80699189575E+01  0.42289138658E+02  0.47787271622E+02  0.20000002631E+02 0.  0.
         12    1    1    2    0    0  0.54889328098E+01 -0.80699189575E+01 -0.42289138658E+02  0.43400728378E+02  0.00000000000E+00 0. -1.
         11    1    3    3    0    0  0.42403750946E+01 -0.19728465513E+00  0.11936089125E+02  0.12668461866E+02  0.51100000000E-03 0. -1.
        -11    1    3    3    0    0 -0.44200456421E+01  0.80260998758E+01  0.27705130846E+02  0.29180975963E+02  0.51100000000E-03 0.  1.
         12    1    3    3    0    0 -0.53092622622E+01  0.24110373687E+00  0.26479186865E+01  0.59378337929E+01  0.00000000000E+00 0. -1.
</event>
<event>
 7    1  0.1384886E-010  0.4778727E+02  0.7816164E-02  0.1312668E+00
        -11   -1    0    0    0    0  0.00000000000E+00  0.00000000000E+00  0.45593999997E+02  0.45594000000E+02  0.51100000000E-03 0.  1.
         11   -1    0    0    0    0 -0.00000000000E+00 -0.00000000000E+00 -0.45593999997E+02  0.45594000000E+02  0.51100000000E-03 0. -1.
    9900012    2    1    2    0    0 -0.48235462826E+00 -0.34868392713E+02  0.25837684381E+02  0.47787269470E+02  0.19999992822E+02 0.  0.
         12    1    1    2    0    0  0.48235462826E+00  0.34868392713E+02 -0.25837684381E+02  0.43400730530E+02  0.00000000000E+00 0. -1.
         11    1    3    3    0    0 -0.11467299754E+01 -0.64271471506E+01  0.50182384468E+01  0.82344354695E+01  0.51100000000E-03 0. -1.
        -11    1    3    3    0    0 -0.24385293897E+01 -0.10722603599E+02  0.18354493034E+02  0.21396449900E+02  0.51100000000E-03 0.  1.
         12    1    3    3    0    0  0.31029047368E+01 -0.17718641963E+02  0.24649529011E+01  0.18156384101E+02  0.00000000000E+00 0. -1.
</event>
<event>
 7    1  0.1384886E-010  0.4778727E+02  0.7816164E-02  0.1312668E+00
        -11   -1    0    0    0    0  0.00000000000E+00  0.00000000000E+00  0.45593999997E+02  0.45594000000E+02  0.51100000000E-03 0.  1.
         11   -1    0    0    0    0 -0.00000000000E+00 -0.00000000000E+00 -0.45593999997E+02  0.45594000000E+02  0.51100000000E-03 0. -1.
    9900012    2    1    2    0    0  0.25829196521E+01 -0.28908396645E+02  0.32268509929E+02  0.47787267246E+02  0.19999982683E+02 0.  0.
         12    1    1    2    0    0 -0.25829196521E+01  0.28908396645E+02 -0.32268509929E+02  0.43400732754E+02  0.00000000000E+00 0. -1.
         11    1    3    3    0    0  0.38371540061E+01 -0.55358160436E+01  0.42634300386E+01  0.79715648457E+01  0.51100000000E-03 0. -1.
        -11    1    3    3    0    0 -0.15677521731E+01 -0.11850668683E+02  0.25291799521E+02  0.27974476195E+02  0.51100000000E-03 0.  1.
        -12    1    3    3    0    0  0.31351781910E+00 -0.11521911919E+02  0.27132803686E+01  0.11841226206E+02  0.00000000000E+00 0.  1.
</event>
<event>
 7    1  0.1384886E-010  0.4778727E+02  0.7816164E-02  0.1312668E+00
        -11   -1    0    0    0    0  0.00000000000E+00  0.00000000000E+00  0.45593999997E+02  0.45594000000E+02  0.51100000000E-03 0.  1.
         11   -1    0    0    0    0 -0.00000000000E+00 -0.00000000000E+00 -0.45593999997E+02  0.45594000000E+02  0.51100000000E-03 0. -1.
    9900012    2    1    2    0    0  0.36911971271E+02  0.20044497781E+02  0.10924632580E+02  0.47787272916E+02  0.20000008532E+02 0.  0.
         12    1    1    2    0    0 -0.36911971271E+02 -0.20044497781E+02 -0.10924632580E+02  0.43400727084E+02  0.00000000000E+00 0. -1.
         11    1    3    3    0    0  0.24754589983E+02  0.20792457631E+02  0.72403533823E+01  0.33129122188E+02  0.51100000000E-03 0. -1.
        -11    1    3    3    0    0  0.10679427633E+02  0.68749409358E+00  0.53910224483E+01  0.11982735331E+02  0.51100000000E-03 0.  1.
         12    1    3    3    0    0  0.14779536546E+01 -0.14354539430E+01 -0.17067432502E+01  0.26754153976E+01  0.00000000000E+00 0. -1.
</event>
<event>
 7    1  0.1384886E-010  0.4778727E+02  0.7816164E-02  0.1312668E+00
        -11   -1    0    0    0    0  0.00000000000E+00  0.00000000000E+00  0.45593999997E+02  0.45594000000E+02  0.51100000000E-03 0.  1.
         11   -1    0    0    0    0 -0.00000000000E+00 -0.00000000000E+00 -0.45593999997E+02  0.45594000000E+02  0.51100000000E-03 0. -1.
    9900012    2    1    2    0    0  0.10291185361E+02 -0.43335224236E+01  0.41939663969E+02  0.47787270438E+02  0.19999997234E+02 0.  0.
         12    1    1    2    0    0 -0.10291185361E+02  0.43335224236E+01 -0.41939663969E+02  0.43400729562E+02  0.00000000000E+00 0. -1.
         11    1    3    3    0    0  0.55921493314E+01  0.32905338433E+01  0.86304753996E+01  0.10797446596E+02  0.51100000000E-03 0. -1.
        -11    1    3    3    0    0  0.23268431561E+01 -0.11445313073E+01  0.28408192729E+02  0.28526296034E+02  0.51100000000E-03 0.  1.
         12    1    3    3    0    0  0.23721928736E+01 -0.64795249596E+01  0.49009958397E+01  0.84635278077E+01  0.00000000000E+00 0. -1.
</event>
<event>
 7    1  0.1384886E-010  0.4778727E+02  0.7816164E-02  0.1312668E+00
        -11   -1    0    0    0    0  0.00000000000E+00  0.00000000000E+00  0.45593999997E+02  0.45594000000E+02  0.51100000000E-03 0. -1.
         11   -1    0    0    0    0 -0.00000000000E+00 -0.00000000000E+00 -0.45593999997E+02  0.45594000000E+02  0.51100000000E-03 0.  1.
    9900012    2    1    2    0    0 -0.72353335850E+01 -0.26235210804E+02 -0.33808088806E+02  0.47787271817E+02  0.20000003524E+02 0.  0.
         12    1    1    2    0    0  0.72353335850E+01  0.26235210804E+02  0.33808088806E+02  0.43400728183E+02  0.00000000000E+00 0. -1.
         11    1    3    3    0    0 -0.65731757053E+01 -0.14392836529E+02 -0.18413852869E+02  0.24278186916E+02  0.51100000000E-03 0. -1.
        -11    1    3    3    0    0  0.59578979240E+01 -0.37464419163E+01 -0.82484025039E+01  0.10842901772E+02  0.51100000000E-03 0.  1.
         12    1    3    3    0    0 -0.66200558037E+01 -0.80959323588E+01 -0.71458334335E+01  0.12666183129E+02  0.00000000000E+00 0. -1.
</event>
<event>
 7    1  0.1384886E-010  0.4778727E+02  0.7816164E-02  0.1312668E+00
        -11   -1    0    0    0    0  0.00000000000E+00  0.00000000000E+00  0.45593999997E+02  0.45594000000E+02  0.51100000000E-03 0. -1.
         11   -1    0    0    0    0 -0.00000000000E+00 -0.00000000000E+00 -0.45593999997E+02  0.45594000000E+02  0.51100000000E-03 0.  1.
    9900012    2    1    2    0    0  0.28596236139E+02 -0.93684555137E+01 -0.31274761258E+02  0.47787269917E+02  0.19999994858E+02 0.  0.
         12    1    1    2    0    0 -0.28596236139E+02  0.93684555137E+01  0.31274761258E+02  0.43400730083E+02  0.00000000000E+00 0. -1.
         11    1    3    3    0    0  0.52617959203E+01  0.13767127877E+01 -0.34182436981E+01  0.64238792523E+01  0.51100000000E-03 0. -1.
        -11    1    3    3    0    0  0.25733935920E+02 -0.10914419610E+02 -0.26838694630E+02  0.38751458593E+02  0.51100000000E-03 0.  1.
         12    1    3    3    0    0 -0.23994957021E+01  0.16925130820E+00 -0.10178229297E+01  0.26119320715E+01  0.00000000000E+00 0. -1.
</event>
<event>
 7    1  0.1384886E-010  0.4778729E+02  0.7816164E-02  0.1312668E+00
        -11   -1    0    0    0    0  0.00000000000E+00  0.00000000000E+00  0.45593999997E+02  0.45594000000E+02  0.51100000000E-03 0. -1.
         11   -1    0    0    0    0 -0.00000000000E+00 -0.00000000000E+00 -0.45593999997E+02  0.45594000000E+02  0.51100000000E-03 0.  1.
    9900012    2    1    2    0    0 -0.29798654231E+02  0.22648819721E+02 -0.21970278427E+02  0.47787286147E+02  0.20000068860E+02 0.  0.
         12    1    1    2    0    0  0.29798654231E+02 -0.22648819721E+02  0.21970278427E+02  0.43400713853E+02  0.00000000000E+00 0. -1.
         11    1    3    3    0    0 -0.44706634674E+01 -0.10942215683E+01 -0.38697244599E+01  0.60132287779E+01  0.51100000000E-03 0. -1.
        -11    1    3    3    0    0  0.10860870276E+01 -0.92376291783E+00 -0.12579465599E+01  0.19014081016E+01  0.51100000000E-03 0.  1.
        -12    1    3    3    0    0 -0.26414077792E+02  0.24666804207E+02 -0.16842607407E+02  0.39872649268E+02  0.00000000000E+00 0.  1.
</event>
<event>
 7    1  0.1384886E-010  0.4778727E+02  0.7816164E-02  0.1312668E+00
        -11   -1    0    0    0    0  0.00000000000E+00  0.00000000000E+00  0.45593999997E+02  0.45594000000E+02  0.51100000000E-03 0. -1.
         11   -1    0    0    0    0 -0.00000000000E+00 -0.00000000000E+00 -0.45593999997E+02  0.45594000000E+02  0.51100000000E-03 0.  1.
    9900012    2    1    2    0    0  0.23664618843E+02 -0.36379189276E+02 -0.40461721666E+00  0.47787270600E+02  0.19999997976E+02 0.  0.
         12    1    1    2    0    0 -0.23664618843E+02  0.36379189276E+02  0.40461721666E+00  0.43400729400E+02  0.00000000000E+00 0. -1.
         11    1    3    3    0    0 -0.11801006105E+01 -0.96386728211E+01  0.21382852331E+00  0.97130002626E+01  0.51100000000E-03 0. -1.
        -11    1    3    3    0    0  0.11184094447E+02 -0.91610927963E+01 -0.51640686422E+01  0.15351781493E+02  0.51100000000E-03 0.  1.
         12    1    3    3    0    0  0.13660625006E+02 -0.17579423658E+02  0.45456229022E+01  0.22722488844E+02  0.00000000000E+00 0. -1.
</event>
<event>
 7    1  0.1384886E-010  0.4778728E+02  0.7816164E-02  0.1312668E+00
        -11   -1    0    0    0    0  0.00000000000E+00  0.00000000000E+00  0.45593999997E+02  0.45594000000E+02  0.51100000000E-03 0.  1.
         11   -1    0    0    0    0 -0.00000000000E+00 -0.00000000000E+00 -0.45593999997E+02  0.45594000000E+02  0.51100000000E-03 0. -1.
    9900012    2    1    2    0    0 -0.72817326550E+00 -0.58968830778E+01  0.42992080786E+02  0.47787280228E+02  0.20000041874E+02 0.  0.
         12    1    1    2    0    0  0.72817326550E+00  0.58968830778E+01 -0.42992080786E+02  0.43400719772E+02  0.00000000000E+00 0. -1.
         11    1    3    3    0    0  0.34447129872E+01 -0.27480778363E+01  0.10170394312E+02  0.11083992967E+02  0.51100000000E-03 0. -1.
        -11    1    3    3    0    0 -0.70815972257E+01 -0.57413834766E+01  0.31161897777E+02  0.32468082432E+02  0.51100000000E-03 0.  1.
         12    1    3    3    0    0  0.29087109730E+01  0.25925782350E+01  0.16597886971E+01  0.42352048296E+01  0.00000000000E+00 0. -1.
</event>
<event>
 7    1  0.1384886E-010  0.4778727E+02  0.7816164E-02  0.1312668E+00
        -11   -1    0    0    0    0  0.00000000000E+00  0.00000000000E+00  0.45593999997E+02  0.45594000000E+02  0.51100000000E-03 0.  1.
         11   -1    0    0    0    0 -0.00000000000E+00 -0.00000000000E+00 -0.45593999997E+02  0.45594000000E+02  0.51100000000E-03 0. -1.
    9900012    2    1    2    0    0  0.16756477387E+02 -0.39178871806E+02  0.82377039417E+01  0.47787270782E+02  0.19999998803E+02 0.  0.
         12    1    1    2    0    0 -0.16756477387E+02  0.39178871806E+02 -0.82377039417E+01  0.43400729218E+02  0.00000000000E+00 0. -1.
         11    1    3    3    0    0  0.78585095363E+01 -0.13108021070E+02 -0.47483120464E+01  0.16003838791E+02  0.51100000000E-03 0.  1.
        -11    1    3    3    0    0 -0.17820063339E+01 -0.57249585944E+01  0.33288383815E+01  0.68579780339E+01  0.51100000000E-03 0. -1.
        -12    1    3    3    0    0  0.10679974185E+02 -0.20345892142E+02  0.96571776066E+01  0.24925453957E+02  0.00000000000E+00 0.  1.
</event>
<event>
 7    1  0.1384886E-010  0.4778727E+02  0.7816164E-02  0.1312668E+00
        -11   -1    0    0    0    0  0.00000000000E+00  0.00000000000E+00  0.45593999997E+02  0.45594000000E+02  0.51100000000E-03 0.  1.
         11   -1    0    0    0    0 -0.00000000000E+00 -0.00000000000E+00 -0.45593999997E+02  0.45594000000E+02  0.51100000000E-03 0. -1.
    9900012    2    1    2    0    0 -0.39530518133E+02 -0.17785862318E+02  0.21504723327E+01  0.47787270818E+02  0.19999998968E+02 0.  0.
         12    1    1    2    0    0  0.39530518133E+02  0.17785862318E+02 -0.21504723327E+01  0.43400729182E+02  0.00000000000E+00 0. -1.
         11    1    3    3    0    0 -0.11381895429E+02  0.27218707476E+01  0.53831753858E+00  0.11715199954E+02  0.51100000000E-03 0. -1.
        -11    1    3    3    0    0 -0.17237809405E+02 -0.88457574279E+01  0.43797495370E+01  0.19863829032E+02  0.51100000000E-03 0.  1.
         12    1    3    3    0    0 -0.10910813299E+02 -0.11661975638E+02 -0.27675947429E+01  0.16208241832E+02  0.00000000000E+00 0. -1.
</event>
<event>
 7    1  0.1384886E-010  0.4778728E+02  0.7816164E-02  0.1312668E+00
        -11   -1    0    0    0    0  0.00000000000E+00  0.00000000000E+00  0.45593999997E+02  0.45594000000E+02  0.51100000000E-03 0. -1.
         11   -1    0    0    0    0 -0.00000000000E+00 -0.00000000000E+00 -0.45593999997E+02  0.45594000000E+02  0.51100000000E-03 0.  1.
    9900012    2    1    2    0    0  0.40440231731E+02 -0.14080469696E+02  0.70675549827E+01  0.47787282232E+02  0.20000051009E+02 0.  0.
         12    1    1    2    0    0 -0.40440231731E+02  0.14080469696E+02 -0.70675549827E+01  0.43400717768E+02  0.00000000000E+00 0. -1.
         11    1    3    3    0    0 -0.87718006201E+00 -0.26797720221E+01 -0.15946648684E+01  0.32393794552E+01  0.51100000000E-03 0. -1.
        -11    1    3    3    0    0  0.66428780224E+01 -0.77134051873E+00  0.44595432967E+01  0.80380545714E+01  0.51100000000E-03 0.  1.
        -12    1    3    3    0    0  0.34674533771E+02 -0.10629357156E+02  0.42026765544E+01  0.36509848205E+02  0.00000000000E+00 0.  1.
</event>
<event>
 7    1  0.1384886E-010  0.4778727E+02  0.7816164E-02  0.1312668E+00
        -11   -1    0    0    0    0  0.00000000000E+00  0.00000000000E+00  0.45593999997E+02  0.45594000000E+02  0.51100000000E-03 0.  1.
         11   -1    0    0    0    0 -0.00000000000E+00 -0.00000000000E+00 -0.45593999997E+02  0.45594000000E+02  0.51100000000E-03 0. -1.
    9900012    2    1    2    0    0  0.30138806583E+02  0.20693288092E+02  0.23389388653E+02  0.47787270330E+02  0.19999996745E+02 0.  0.
         12    1    1    2    0    0 -0.30138806583E+02 -0.20693288092E+02 -0.23389388653E+02  0.43400729670E+02  0.00000000000E+00 0. -1.
         11    1    3    3    0    0  0.24885186180E+01  0.64652729470E+01  0.12354885147E+02  0.14164591998E+02  0.51100000000E-03 0.  1.
        -11    1    3    3    0    0  0.69676523168E+01  0.22791277276E+01  0.48141583145E-01  0.73310926798E+01  0.51100000000E-03 0. -1.
        -12    1    3    3    0    0  0.20682635648E+02  0.11948887418E+02  0.10986361922E+02  0.26291585653E+02  0.00000000000E+00 0.  1.
</event>
<event>
 7    1  0.1384886E-010  0.4778727E+02  0.7816164E-02  0.1312668E+00
        -11   -1    0    0    0    0  0.00000000000E+00  0.00000000000E+00  0.45593999997E+02  0.45594000000E+02  0.51100000000E-03 0. -1.
         11   -1    0    0    0    0 -0.00000000000E+00 -0.00000000000E+00 -0.45593999997E+02  0.45594000000E+02  0.51100000000E-03 0.  1.
    9900012    2    1    2    0    0  0.29296561544E+02  0.93867502260E+01 -0.30614104159E+02  0.47787274528E+02  0.20000015881E+02 0.  0.
         12    1    1    2    0    0 -0.29296561544E+02 -0.93867502260E+01  0.30614104159E+02  0.43400725472E+02  0.00000000000E+00 0. -1.
         11    1    3    3    0    0  0.45182173014E+01  0.44731990132E+01 -0.11173976060E+02  0.12856186769E+02  0.51100000000E-03 0. -1.
        -11    1    3    3    0    0  0.16284562272E+02  0.32561578133E+01 -0.20308061544E+02  0.26233697719E+02  0.51100000000E-03 0.  1.
         12    1    3    3    0    0  0.84937819700E+01  0.16573933994E+01  0.86793344464E+00  0.86973900395E+01  0.00000000000E+00 0. -1.
</event>
<event>
 7    1  0.1384886E-010  0.4778727E+02  0.7816164E-02  0.1312668E+00
        -11   -1    0    0    0    0  0.00000000000E+00  0.00000000000E+00  0.45593999997E+02  0.45594000000E+02  0.51100000000E-03 0.  1.
         11   -1    0    0    0    0 -0.00000000000E+00 -0.00000000000E+00 -0.45593999997E+02  0.45594000000E+02  0.51100000000E-03 0. -1.
    9900012    2    1    2    0    0 -0.24792634553E+02 -0.22070636683E+02  0.27961321548E+02  0.47787271499E+02  0.20000002074E+02 0.  0.
         12    1    1    2    0    0  0.24792634553E+02  0.22070636683E+02 -0.27961321548E+02  0.43400728501E+02  0.00000000000E+00 0. -1.
         11    1    3    3    0    0 -0.20281207734E+01 -0.55854585006E+01  0.13505849032E+00  0.59438086771E+01  0.51100000000E-03 0. -1.
        -11    1    3    3    0    0 -0.42419540057E+01 -0.25898460921E+01 -0.78992011612E+00  0.50324398276E+01  0.51100000000E-03 0.  1.
        -12    1    3    3    0    0 -0.18522559774E+02 -0.13895332090E+02  0.28616183174E+02  0.36811022995E+02  0.00000000000E+00 0.  1.
</event>
<event>
 7    1  0.1384886E-010  0.4778728E+02  0.7816164E-02  0.1312668E+00
        -11   -1    0    0    0    0  0.00000000000E+00  0.00000000000E+00  0.45593999997E+02  0.45594000000E+02  0.51100000000E-03 0. -1.
         11   -1    0    0    0    0 -0.00000000000E+00 -0.00000000000E+00 -0.45593999997E+02  0.45594000000E+02  0.51100000000E-03 0.  1.
    9900012    2    1    2    0    0  0.20542409903E+02  0.33295103343E+02  0.18790102904E+02  0.47787280210E+02  0.20000041787E+02 0.  0.
         12    1    1    2    0    0 -0.20542409903E+02 -0.33295103343E+02 -0.18790102904E+02  0.43400719790E+02  0.00000000000E+00 0. -1.
         11    1    3    3    0    0  0.58288188684E+01 -0.30450864913E+00  0.16909189553E+01  0.60767641136E+01  0.51100000000E-03 0. -1.
        -11    1    3    3    0    0  0.13330499707E+02  0.18098182003E+02  0.98128327741E+01  0.24526273700E+02  0.51100000000E-03 0.  1.
        -12    1    3    3    0    0  0.13830913270E+01  0.15501429988E+02  0.72863511741E+01  0.17184242396E+02  0.00000000000E+00 0.  1.
</event>
<event>
 7    1  0.1384886E-010  0.4778727E+02  0.7816164E-02  0.1312668E+00
        -11   -1    0    0    0    0  0.00000000000E+00  0.00000000000E+00  0.45593999997E+02  0.45594000000E+02  0.51100000000E-03 0.  1.
         11   -1    0    0    0    0 -0.00000000000E+00 -0.00000000000E+00 -0.45593999997E+02  0.45594000000E+02  0.51100000000E-03 0. -1.
    9900012    2    1    2    0    0  0.69029084931E+01  0.16053493244E+02  0.39727300534E+02  0.47787271910E+02  0.20000003949E+02 0.  0.
         12    1    1    2    0    0 -0.69029084931E+01 -0.16053493244E+02 -0.39727300534E+02  0.43400728090E+02  0.00000000000E+00 0. -1.
         11    1    3    3    0    0 -0.17964957711E+01 -0.13795218401E+01  0.35336044096E+01  0.41972417071E+01  0.51100000000E-03 0. -1.
        -11    1    3    3    0    0  0.27796849057E+00  0.53131121674E+01  0.23588851590E+02  0.24181404983E+02  0.51100000000E-03 0.  1.
         12    1    3    3    0    0  0.84214357736E+01  0.12119902916E+02  0.12604844535E+02  0.19408625220E+02  0.00000000000E+00 0. -1.
</event>
<event>
 7    1  0.1384886E-010  0.4778726E+02  0.7816164E-02  0.1312668E+00
        -11   -1    0    0    0    0  0.00000000000E+00  0.00000000000E+00  0.45593999997E+02  0.45594000000E+02  0.51100000000E-03 0.  1.
         11   -1    0    0    0    0 -0.00000000000E+00 -0.00000000000E+00 -0.45593999997E+02  0.45594000000E+02  0.51100000000E-03 0. -1.
    9900012    2    1    2    0    0  0.16475089549E+02  0.20392852737E+02  0.34587968038E+02  0.47787256326E+02  0.19999932895E+02 0.  0.
         12    1    1    2    0    0 -0.16475089549E+02 -0.20392852737E+02 -0.34587968038E+02  0.43400743674E+02  0.00000000000E+00 0. -1.
         11    1    3    3    0    0  0.13607008955E+02  0.95982303679E+01  0.10068395593E+02  0.19458913355E+02  0.51100000000E-03 0. -1.
        -11    1    3    3    0    0  0.53590812689E+01  0.45569466966E+01  0.16010613019E+02  0.17487859924E+02  0.51100000000E-03 0.  1.
        -12    1    3    3    0    0 -0.24910006749E+01  0.62376756721E+01  0.85089594273E+01  0.10840483047E+02  0.00000000000E+00 0.  1.
</event>
<event>
 7    1  0.1384886E-010  0.4778727E+02  0.7816164E-02  0.1312668E+00
        -11   -1    0    0    0    0  0.00000000000E+00  0.00000000000E+00  0.45593999997E+02  0.45594000000E+02  0.51100000000E-03 0. -1.
         11   -1    0    0    0    0 -0.00000000000E+00 -0.00000000000E+00 -0.45593999997E+02  0.45594000000E+02  0.51100000000E-03 0.  1.
    9900012    2    1    2    0    0  0.65217917479E+01  0.11080814393E+02 -0.41452442861E+02  0.47787271499E+02  0.20000002073E+02 0.  0.
         12    1    1    2    0    0 -0.65217917479E+01 -0.11080814393E+02  0.41452442861E+02  0.43400728501E+02  0.00000000000E+00 0. -1.
         11    1    3    3    0    0 -0.33656256633E+01  0.40354354743E+01 -0.48866949102E+01  0.71757900596E+01  0.51100000000E-03 0. -1.
        -11    1    3    3    0    0  0.67427612510E+01  0.53922495848E+00 -0.55051659001E+01  0.87213786005E+01  0.51100000000E-03 0.  1.
         12    1    3    3    0    0  0.31446561602E+01  0.65061539607E+01 -0.31060582051E+02  0.31890102839E+02  0.00000000000E+00 0. -1.
</event>
<event>
 7    1  0.1384886E-010  0.4778727E+02  0.7816164E-02  0.1312668E+00
        -11   -1    0    0    0    0  0.00000000000E+00  0.00000000000E+00  0.45593999997E+02  0.45594000000E+02  0.51100000000E-03 0.  1.
         11   -1    0    0    0    0 -0.00000000000E+00 -0.00000000000E+00 -0.45593999997E+02  0.45594000000E+02  0.51100000000E-03 0. -1.
    9900012    2    1    2    0    0  0.34283579523E+02  0.77834196475E+01  0.25449518219E+02  0.47787269316E+02  0.19999992121E+02 0.  0.
         12    1    1    2    0    0 -0.34283579523E+02 -0.77834196475E+01 -0.25449518219E+02  0.43400730684E+02  0.00000000000E+00 0. -1.
         11    1    3    3    0    0  0.47224447431E+01  0.47893035663E+00 -0.39789556703E+00  0.47633160489E+01  0.51100000000E-03 0. -1.
        -11    1    3    3    0    0  0.16772931043E+02  0.78354726386E+01  0.61010074594E+01  0.19492258451E+02  0.51100000000E-03 0.  1.
        -12    1    3    3    0    0  0.12788203737E+02 -0.53098334781E+00  0.19746406327E+02  0.23531694817E+02  0.00000000000E+00 0.  1.
</event>
<event>
 7    1  0.1384886E-010  0.4778728E+02  0.7816164E-02  0.1312668E+00
        -11   -1    0    0    0    0  0.00000000000E+00  0.00000000000E+00  0.45593999997E+02  0.45594000000E+02  0.51100000000E-03 0.  1.
         11   -1    0    0    0    0 -0.00000000000E+00 -0.00000000000E+00 -0.45593999997E+02  0.45594000000E+02  0.51100000000E-03 0. -1.
    9900012    2    1    2    0    0  0.26058590624E+02 -0.30071739896E+02  0.17328103561E+02  0.47787275828E+02  0.20000021809E+02 0.  0.
         12    1    1    2    0    0 -0.26058590624E+02  0.30071739896E+02 -0.17328103561E+02  0.43400724172E+02  0.00000000000E+00 0. -1.
         11    1    3    3    0    0  0.70053692826E+01 -0.76258413076E+00  0.63774983670E+01  0.95041685078E+01  0.51100000000E-03 0. -1.
        -11    1    3    3    0    0  0.32501459681E+01 -0.12830145406E+02  0.74391173127E+01  0.15182771374E+02  0.51100000000E-03 0.  1.
         12    1    3    3    0    0  0.15803075373E+02 -0.16479010359E+02  0.35114878810E+01  0.23100335946E+02  0.00000000000E+00 0. -1.
</event>
<event>
 7    1  0.1384886E-010  0.4778727E+02  0.7816164E-02  0.1312668E+00
        -11   -1    0    0    0    0  0.00000000000E+00  0.00000000000E+00  0.45593999997E+02  0.45594000000E+02  0.51100000000E-03 0. -1.
         11   -1    0    0    0    0 -0.00000000000E+00 -0.00000000000E+00 -0.45593999997E+02  0.45594000000E+02  0.51100000000E-03 0.  1.
    9900012    2    1    2    0    0  0.56122400994E-01 -0.13610562203E+02 -0.41211318477E+02  0.47787270469E+02  0.19999997378E+02 0.  0.
         12    1    1    2    0    0 -0.56122400994E-01  0.13610562203E+02  0.41211318477E+02  0.43400729531E+02  0.00000000000E+00 0. -1.
         11    1    3    3    0    0  0.72732808673E+01  0.44992835633E+00 -0.10787258019E+02  0.13017987015E+02  0.51100000000E-03 0. -1.
        -11    1    3    3    0    0 -0.23094943515E+00 -0.33980827697E+01 -0.30468771080E+01  0.45698757668E+01  0.51100000000E-03 0.  1.
        -12    1    3    3    0    0 -0.69862090311E+01 -0.10662407790E+02 -0.27377183349E+02  0.30199407687E+02  0.00000000000E+00 0.  1.
</event>
<event>
 7    1  0.1384886E-010  0.4778727E+02  0.7816164E-02  0.1312668E+00
        -11   -1    0    0    0    0  0.00000000000E+00  0.00000000000E+00  0.45593999997E+02  0.45594000000E+02  0.51100000000E-03 0. -1.
         11   -1    0    0    0    0 -0.00000000000E+00 -0.00000000000E+00 -0.45593999997E+02  0.45594000000E+02  0.51100000000E-03 0.  1.
    9900012    2    1    2    0    0 -0.42111394763E+02  0.10261792535E+02  0.22247007736E+01  0.47787271338E+02  0.20000001337E+02 0.  0.
         12    1    1    2    0    0  0.42111394763E+02 -0.10261792535E+02 -0.22247007736E+01  0.43400728662E+02  0.00000000000E+00 0. -1.
         11    1    3    3    0    0 -0.13679035753E+02  0.59380194352E+00 -0.24331786266E+01  0.13906436580E+02  0.51100000000E-03 0. -1.
        -11    1    3    3    0    0 -0.48748697215E+01 -0.39979009569E+01  0.13364077412E+01  0.64446530376E+01  0.51100000000E-03 0.  1.
        -12    1    3    3    0    0 -0.23557489289E+02  0.13665891548E+02  0.33214716591E+01  0.27436181720E+02  0.00000000000E+00 0.  1.
</event>
<event>
 7    1  0.1384886E-010  0.4778729E+02  0.7816164E-02  0.1312668E+00
        -11   -1    0    0    0    0  0.00000000000E+00  0.00000000000E+00  0.45593999997E+02  0.45594000000E+02  0.51100000000E-03 0.  1.
         11   -1    0    0    0    0 -0.00000000000E+00 -0.00000000000E+00 -0.45593999997E+02  0.45594000000E+02  0.51100000000E-03 0. -1.
    9900012    2    1    2    0    0  0.15061597763E+02  0.64405059374E+01  0.40190673014E+02  0.47787285245E+02  0.20000064747E+02 0.  0.
         12    1    1    2    0    0 -0.15061597763E+02 -0.64405059374E+01 -0.40190673014E+02  0.43400714755E+02  0.00000000000E+00 0. -1.
         11    1    3    3    0    0  0.16156549730E+02 -0.15919737114E+01  0.21143616986E+02  0.26657475855E+02  0.51100000000E-03 0.  1.
        -11    1    3    3    0    0 -0.15120098782E+01  0.52482401456E+00  0.40085494671E+01  0.43162580101E+01  0.51100000000E-03 0. -1.
         12    1    3    3    0    0  0.41705791203E+00  0.75076556342E+01  0.15038506561E+02  0.16813551380E+02  0.00000000000E+00 0. -1.
</event>
<event>
 7    1  0.1384886E-010  0.4778728E+02  0.7816164E-02  0.1312668E+00
        -11   -1    0    0    0    0  0.00000000000E+00  0.00000000000E+00  0.45593999997E+02  0.45594000000E+02  0.51100000000E-03 0.  1.
         11   -1    0    0    0    0 -0.00000000000E+00 -0.00000000000E+00 -0.45593999997E+02  0.45594000000E+02  0.51100000000E-03 0. -1.
    9900012    2    1    2    0    0  0.38432313853E+02  0.27582348099E+01 -0.19974288341E+02  0.47787276479E+02  0.20000024779E+02 0.  0.
         12    1    1    2    0    0 -0.38432313853E+02 -0.27582348099E+01  0.19974288341E+02  0.43400723521E+02  0.00000000000E+00 0. -1.
         11    1    3    3    0    0  0.20445405421E+02 -0.31221843073E+01 -0.29371934305E+01  0.20889943590E+02  0.51100000000E-03 0. -1.
        -11    1    3    3    0    0  0.15907107802E+02  0.16402305980E+01 -0.12005324621E+02  0.19996356032E+02  0.51100000000E-03 0.  1.
         12    1    3    3    0    0  0.20798006302E+01  0.42401885192E+01 -0.50317702894E+01  0.69009768573E+01  0.00000000000E+00 0. -1.
</event>
<event>
 7    1  0.1384886E-010  0.4778727E+02  0.7816164E-02  0.1312668E+00
        -11   -1    0    0    0    0  0.00000000000E+00  0.00000000000E+00  0.45593999997E+02  0.45594000000E+02  0.51100000000E-03 0.  1.
         11   -1    0    0    0    0 -0.00000000000E+00 -0.00000000000E+00 -0.45593999997E+02  0.45594000000E+02  0.51100000000E-03 0. -1.
    9900012    2    1    2    0    0 -0.84446992516E+01 -0.11502061276E+02  0.40987961964E+02  0.47787269765E+02  0.19999994164E+02 0.  0.
         12    1    1    2    0    0  0.84446992516E+01  0.11502061276E+02 -0.40987961964E+02  0.43400730235E+02  0.00000000000E+00 0. -1.
         11    1    3    3    0    0 -0.36354301725E+01  0.30922860875E+01  0.65420632513E+01  0.80979736744E+01  0.51100000000E-03 0. -1.
        -11    1    3    3    0    0  0.28639265192E+01 -0.54034508905E+01  0.20067397517E+02  0.20978555717E+02  0.51100000000E-03 0.  1.
        -12    1    3    3    0    0 -0.76731955983E+01 -0.91908964726E+01  0.14378501196E+02  0.18710740373E+02  0.00000000000E+00 0.  1.
</event>
<event>
 7    1  0.1384886E-010  0.4778727E+02  0.7816164E-02  0.1312668E+00
        -11   -1    0    0    0    0  0.00000000000E+00  0.00000000000E+00  0.45593999997E+02  0.45594000000E+02  0.51100000000E-03 0.  1.
         11   -1    0    0    0    0 -0.00000000000E+00 -0.00000000000E+00 -0.45593999997E+02  0.45594000000E+02  0.51100000000E-03 0. -1.
    9900012    2    1    2    0    0 -0.47288600622E+00  0.22830895952E+02  0.36907316541E+02  0.47787269068E+02  0.19999990990E+02 0.  0.
         12    1    1    2    0    0  0.47288600622E+00 -0.22830895952E+02 -0.36907316541E+02  0.43400730932E+02  0.00000000000E+00 0. -1.
         11    1    3    3    0    0  0.23593994349E+01  0.23150097212E+01  0.19635675522E+02  0.19911950914E+02  0.51100000000E-03 0. -1.
        -11    1    3    3    0    0  0.78130848432E+00  0.58544210570E+01  0.16144973351E+01  0.61230132097E+01  0.51100000000E-03 0.  1.
        -12    1    3    3    0    0 -0.36135939254E+01  0.14661465174E+02  0.15657143683E+02  0.21752304945E+02  0.00000000000E+00 0.  1.
</event>
<event>
 7    1  0.1384886E-010  0.4778727E+02  0.7816164E-02  0.1312668E+00
        -11   -1    0    0    0    0  0.00000000000E+00  0.00000000000E+00  0.45593999997E+02  0.45594000000E+02  0.51100000000E-03 0.  1.
         11   -1    0    0    0    0 -0.00000000000E+00 -0.00000000000E+00 -0.45593999997E+02  0.45594000000E+02  0.51100000000E-03 0. -1.
    9900012    2    1    2    0    0  0.16427427056E+02 -0.22724223855E+02  0.33126613014E+02  0.47787271904E+02  0.20000003919E+02 0.  0.
         12    1    1    2    0    0 -0.16427427056E+02  0.22724223855E+02 -0.33126613014E+02  0.43400728096E+02  0.00000000000E+00 0. -1.
         11    1    3    3    0    0  0.80899223140E+01 -0.12112568445E+02  0.91914922811E+01  0.17223376208E+02  0.51100000000E-03 0. -1.
        -11    1    3    3    0    0  0.28305715713E+01 -0.12176892855E+02  0.12010272040E+02  0.17335959441E+02  0.51100000000E-03 0.  1.
        -12    1    3    3    0    0  0.55069331705E+01  0.15652374452E+01  0.11924848694E+02  0.13227936255E+02  0.00000000000E+00 0.  1.
</event>
<event>
 7    1  0.1384886E-010  0.4778727E+02  0.7816164E-02  0.1312668E+00
        -11   -1    0    0    0    0  0.00000000000E+00  0.00000000000E+00  0.45593999997E+02  0.45594000000E+02  0.51100000000E-03 0.  1.
         11   -1    0    0    0    0 -0.00000000000E+00 -0.00000000000E+00 -0.45593999997E+02  0.45594000000E+02  0.51100000000E-03 0. -1.
    9900012    2    1    2    0    0  0.20317820557E+02  0.10108061062E+01  0.38337809893E+02  0.47787271566E+02  0.20000002380E+02 0.  0.
         12    1    1    2    0    0 -0.20317820557E+02 -0.10108061062E+01 -0.38337809893E+02  0.43400728434E+02  0.00000000000E+00 0. -1.
         11    1    3    3    0    0  0.10739277385E+02  0.44942809093E+01  0.21803753158E+02  0.24717085016E+02  0.51100000000E-03 0. -1.
        -11    1    3    3    0    0  0.10039553383E+02  0.14059598719E-02  0.54110189873E+01  0.11404900739E+02  0.51100000000E-03 0.  1.
         12    1    3    3    0    0 -0.46101021097E+00 -0.34848807630E+01  0.11123037747E+02  0.11665285812E+02  0.00000000000E+00 0. -1.
</event>
<event>
 7    1  0.1384886E-010  0.4778728E+02  0.7816164E-02  0.1312668E+00
        -11   -1    0    0    0    0  0.00000000000E+00  0.00000000000E+00  0.45593999997E+02  0.45594000000E+02  0.51100000000E-03 0. -1.
         11   -1    0    0    0    0 -0.00000000000E+00 -0.00000000000E+00 -0.45593999997E+02  0.45594000000E+02  0.51100000000E-03 0.  1.
    9900012    2    1    2    0    0  0.43342127212E+02  0.19652383979E+01  0.11047663067E+01  0.47787278096E+02  0.20000032150E+02 0.  0.
         12    1    1    2    0    0 -0.43342127212E+02 -0.19652383979E+01 -0.11047663067E+01  0.43400721904E+02  0.00000000000E+00 0. -1.
         11    1    3    3    0    0  0.16441930116E+02  0.34320553828E+01 -0.46219246009E+01  0.17420627353E+02  0.51100000000E-03 0. -1.
        -11    1    3    3    0    0  0.21519542658E+02 -0.62833635637E+01  0.28718644285E+01  0.22601304817E+02  0.51100000000E-03 0.  1.
         12    1    3    3    0    0  0.53806544381E+01  0.48165465787E+01  0.28548264790E+01  0.77653459261E+01  0.00000000000E+00 0. -1.
</event>
<event>
 7    1  0.1384886E-010  0.4778727E+02  0.7816164E-02  0.1312668E+00
        -11   -1    0    0    0    0  0.00000000000E+00  0.00000000000E+00  0.45593999997E+02  0.45594000000E+02  0.51100000000E-03 0.  1.
         11   -1    0    0    0    0 -0.00000000000E+00 -0.00000000000E+00 -0.45593999997E+02  0.45594000000E+02  0.51100000000E-03 0. -1.
    9900012    2    1    2    0    0 -0.52182134572E+01  0.44026490781E+01  0.42860358815E+02  0.47787269265E+02  0.19999991887E+02 0.  0.
         12    1    1    2    0    0  0.52182134572E+01 -0.44026490781E+01 -0.42860358815E+02  0.43400730735E+02  0.00000000000E+00 0. -1.
         11    1    3    3    0    0 -0.25375636249E+01 -0.31098553546E+01  0.15781708315E+01  0.43128937978E+01  0.51100000000E-03 0. -1.
        -11    1    3    3    0    0 -0.41310953215E+01  0.73936168108E+01  0.15598580298E+02  0.17749569732E+02  0.51100000000E-03 0.  1.
        -12    1    3    3    0    0  0.14504454891E+01  0.11888762184E+00  0.25683607685E+02  0.25724805735E+02  0.00000000000E+00 0.  1.
</event>
<event>
 7    1  0.1384886E-010  0.4778728E+02  0.7816164E-02  0.1312668E+00
        -11   -1    0    0    0    0  0.00000000000E+00  0.00000000000E+00  0.45593999997E+02  0.45594000000E+02  0.51100000000E-03 0.  1.
         11   -1    0    0    0    0 -0.00000000000E+00 -0.00000000000E+00 -0.45593999997E+02  0.45594000000E+02  0.51100000000E-03 0. -1.
    9900012    2    1    2    0    0  0.21916666627E+02 -0.37458380508E+02 -0.39016588605E+00  0.47787276783E+02  0.20000026165E+02 0.  0.
         12    1    1    2    0    0 -0.21916666627E+02  0.37458380508E+02  0.39016588605E+00  0.43400723217E+02  0.00000000000E+00 0. -1.
         11    1    3    3    0    0  0.49334727574E+01 -0.15320237745E+02 -0.78229376706E+01  0.17895451715E+02  0.51100000000E-03 0. -1.
        -11    1    3    3    0    0  0.56985338865E+01 -0.23893734239E+01  0.10502192290E+01  0.62678030046E+01  0.51100000000E-03 0.  1.
        -12    1    3    3    0    0  0.11284659983E+02 -0.19748769339E+02  0.63825525556E+01  0.23624022064E+02  0.00000000000E+00 0.  1.
</event>
<event>
 7    1  0.1384886E-010  0.4778727E+02  0.7816164E-02  0.1312668E+00
        -11   -1    0    0    0    0  0.00000000000E+00  0.00000000000E+00  0.45593999997E+02  0.45594000000E+02  0.51100000000E-03 0. -1.
         11   -1    0    0    0    0 -0.00000000000E+00 -0.00000000000E+00 -0.45593999997E+02  0.45594000000E+02  0.51100000000E-03 0.  1.
    9900012    2    1    2    0    0 -0.17683936055E+02  0.39634033913E+02  0.21232588651E+00  0.47787270503E+02  0.19999997532E+02 0.  0.
         12    1    1    2    0    0  0.17683936055E+02 -0.39634033913E+02 -0.21232588651E+00  0.43400729497E+02  0.00000000000E+00 0. -1.
         11    1    3    3    0    0 -0.14747099281E+01 -0.93237894547E+00 -0.99685020340E+00  0.20094303817E+01  0.51100000000E-03 0. -1.
        -11    1    3    3    0    0 -0.59051053621E+01  0.58163200780E+01 -0.39241389347E+01  0.91705351658E+01  0.51100000000E-03 0.  1.
        -12    1    3    3    0    0 -0.10304120765E+02  0.34750092780E+02  0.51333150246E+01  0.36607304956E+02  0.00000000000E+00 0.  1.
</event>
<event>
 7    1  0.1384886E-010  0.4778724E+02  0.7816164E-02  0.1312668E+00
        -11   -1    0    0    0    0  0.00000000000E+00  0.00000000000E+00  0.45593999997E+02  0.45594000000E+02  0.51100000000E-03 0. -1.
         11   -1    0    0    0    0 -0.00000000000E+00 -0.00000000000E+00 -0.45593999997E+02  0.45594000000E+02  0.51100000000E-03 0.  1.
    9900012    2    1    2    0    0 -0.61494449059E+01 -0.78010948722E+01 -0.42248704972E+02  0.47787241647E+02  0.19999865963E+02 0.  0.
         12    1    1    2    0    0  0.61494449059E+01  0.78010948722E+01  0.42248704972E+02  0.43400758353E+02  0.00000000000E+00 0. -1.
         11    1    3    3    0    0  0.28228934523E+01 -0.22321560199E+01 -0.29149146617E+01  0.46311959240E+01  0.51100000000E-03 0. -1.
        -11    1    3    3    0    0 -0.68312495322E+01 -0.28821446055E+01 -0.39006516898E+02  0.39704925242E+02  0.51100000000E-03 0.  1.
         12    1    3    3    0    0 -0.21410888260E+01 -0.26867942468E+01 -0.32727341218E+00  0.34511204806E+01  0.00000000000E+00 0. -1.
</event>
<event>
 7    1  0.1384886E-010  0.4778727E+02  0.7816164E-02  0.1312668E+00
        -11   -1    0    0    0    0  0.00000000000E+00  0.00000000000E+00  0.45593999997E+02  0.45594000000E+02  0.51100000000E-03 0.  1.
         11   -1    0    0    0    0 -0.00000000000E+00 -0.00000000000E+00 -0.45593999997E+02  0.45594000000E+02  0.51100000000E-03 0. -1.
    9900012    2    1    2    0    0  0.26277937239E+02  0.34108930037E+02 -0.54473807156E+01  0.47787273618E+02  0.20000011735E+02 0.  0.
         12    1    1    2    0    0 -0.26277937239E+02 -0.34108930037E+02  0.54473807156E+01  0.43400726382E+02  0.00000000000E+00 0. -1.
         11    1    3    3    0    0  0.33456661023E+01  0.11512080579E+02 -0.88306259306E+01  0.14889641887E+02  0.51100000000E-03 0. -1.
        -11    1    3    3    0    0  0.71224234494E+01  0.10909993832E+02  0.20795338729E+01  0.13193988881E+02  0.51100000000E-03 0.  1.
         12    1    3    3    0    0  0.15809847687E+02  0.11686855626E+02  0.13037113421E+01  0.19703642850E+02  0.00000000000E+00 0. -1.
</event>
<event>
 7    1  0.1384886E-010  0.4778727E+02  0.7816164E-02  0.1312668E+00
        -11   -1    0    0    0    0  0.00000000000E+00  0.00000000000E+00  0.45593999997E+02  0.45594000000E+02  0.51100000000E-03 0.  1.
         11   -1    0    0    0    0 -0.00000000000E+00 -0.00000000000E+00 -0.45593999997E+02  0.45594000000E+02  0.51100000000E-03 0. -1.
    9900012    2    1    2    0    0  0.52862573909E+01  0.24985923102E+00  0.43076864310E+02  0.47787272061E+02  0.20000004634E+02 0.  0.
         12    1    1    2    0    0 -0.52862573909E+01 -0.24985923102E+00 -0.43076864310E+02  0.43400727939E+02  0.00000000000E+00 0. -1.
         11    1    3    3    0    0  0.34774398481E+01 -0.56963112873E+01  0.54125507527E+01  0.85928025748E+01  0.51100000000E-03 0. -1.
        -11    1    3    3    0    0  0.19204421376E+01  0.50915774429E+01  0.90002372916E+01  0.10517439347E+02  0.51100000000E-03 0.  1.
        -12    1    3    3    0    0 -0.11162459480E+00  0.85459307534E+00  0.28664076266E+02  0.28677030138E+02  0.00000000000E+00 0.  1.
</event>
<event>
 7    1  0.1384886E-010  0.4778727E+02  0.7816164E-02  0.1312668E+00
        -11   -1    0    0    0    0  0.00000000000E+00  0.00000000000E+00  0.45593999997E+02  0.45594000000E+02  0.51100000000E-03 0. -1.
         11   -1    0    0    0    0 -0.00000000000E+00 -0.00000000000E+00 -0.45593999997E+02  0.45594000000E+02  0.51100000000E-03 0.  1.
    9900012    2    1    2    0    0  0.12330031710E+02 -0.32299583409E+02 -0.26236056770E+02  0.47787269071E+02  0.19999991002E+02 0.  0.
         12    1    1    2    0    0 -0.12330031710E+02  0.32299583409E+02  0.26236056770E+02  0.43400730929E+02  0.00000000000E+00 0. -1.
         11    1    3    3    0    0  0.58676239781E+01 -0.96812950428E+01 -0.35089695922E+01  0.11851976743E+02  0.51100000000E-03 0. -1.
        -11    1    3    3    0    0 -0.41587650122E+01 -0.62219225388E+01 -0.10480469763E+02  0.12878194486E+02  0.51100000000E-03 0.  1.
        -12    1    3    3    0    0  0.10621172744E+02 -0.16396365827E+02 -0.12246617415E+02  0.23057097842E+02  0.00000000000E+00 0.  1.
</event>
<event>
 7    1  0.1384886E-010  0.4778727E+02  0.7816164E-02  0.1312668E+00
        -11   -1    0    0    0    0  0.00000000000E+00  0.00000000000E+00  0.45593999997E+02  0.45594000000E+02  0.51100000000E-03 0. -1.
         11   -1    0    0    0    0 -0.00000000000E+00 -0.00000000000E+00 -0.45593999997E+02  0.45594000000E+02  0.51100000000E-03 0.  1.
    9900012    2    1    2    0    0  0.28587465429E+02 -0.38749511081E+01 -0.32424753788E+02  0.47787273233E+02  0.20000009976E+02 0.  0.
         12    1    1    2    0    0 -0.28587465429E+02  0.38749511081E+01  0.32424753788E+02  0.43400726767E+02  0.00000000000E+00 0. -1.
         11    1    3    3    0    0  0.55681077439E+01  0.51648930438E+01 -0.10497181137E+01  0.76669323971E+01  0.51100000000E-03 0. -1.
        -11    1    3    3    0    0  0.55055766252E+01 -0.39121149781E+01 -0.82504844071E+01  0.10662387668E+02  0.51100000000E-03 0.  1.
         12    1    3    3    0    0  0.17513781060E+02 -0.51277291738E+01 -0.23124551267E+02  0.29457953167E+02  0.00000000000E+00 0. -1.
</event>
<event>
 7    1  0.1384886E-010  0.4778729E+02  0.7816164E-02  0.1312668E+00
        -11   -1    0    0    0    0  0.00000000000E+00  0.00000000000E+00  0.45593999997E+02  0.45594000000E+02  0.51100000000E-03 0.  1.
         11   -1    0    0    0    0 -0.00000000000E+00 -0.00000000000E+00 -0.45593999997E+02  0.45594000000E+02  0.51100000000E-03 0. -1.
    9900012    2    1    2    0    0  0.19806756627E+02  0.12643606249E+02  0.36489083015E+02  0.47787290717E+02  0.20000089693E+02 0.  0.
         12    1    1    2    0    0 -0.19806756627E+02 -0.12643606249E+02 -0.36489083015E+02  0.43400709283E+02  0.00000000000E+00 0. -1.
         11    1    3    3    0    0 -0.29883154286E+01 -0.10374831662E+00  0.28391414417E+01  0.41232896092E+01  0.51100000000E-03 0. -1.
        -11    1    3    3    0    0  0.99344574518E+01  0.83807763435E+01  0.10029139774E+02  0.16416896840E+02  0.51100000000E-03 0.  1.
        -12    1    3    3    0    0  0.12860614604E+02  0.43665782221E+01  0.23620801799E+02  0.27247104268E+02  0.00000000000E+00 0.  1.
</event>
<event>
 7    1  0.1384886E-010  0.4778726E+02  0.7816164E-02  0.1312668E+00
        -11   -1    0    0    0    0  0.00000000000E+00  0.00000000000E+00  0.45593999997E+02  0.45594000000E+02  0.51100000000E-03 0. -1.
         11   -1    0    0    0    0 -0.00000000000E+00 -0.00000000000E+00 -0.45593999997E+02  0.45594000000E+02  0.51100000000E-03 0.  1.
    9900012    2    1    2    0    0  0.41658198626E+02 -0.10101432332E+02 -0.67955711511E+01  0.47787259969E+02  0.19999949504E+02 0.  0.
         12    1    1    2    0    0 -0.41658198626E+02  0.10101432332E+02  0.67955711511E+01  0.43400740031E+02  0.00000000000E+00 0. -1.
         11    1    3    3    0    0  0.73294066812E+01 -0.22330206926E+01 -0.57458843771E+01  0.95771483881E+01  0.51100000000E-03 0. -1.
        -11    1    3    3    0    0  0.12004595668E+02 -0.67655477802E+01 -0.64513862548E+01  0.15215233773E+02  0.51100000000E-03 0.  1.
         12    1    3    3    0    0  0.22324196277E+02 -0.11028638595E+01  0.54016994808E+01  0.22994877808E+02  0.00000000000E+00 0. -1.
</event>
<event>
 7    1  0.1384886E-010  0.4778727E+02  0.7816164E-02  0.1312668E+00
        -11   -1    0    0    0    0  0.00000000000E+00  0.00000000000E+00  0.45593999997E+02  0.45594000000E+02  0.51100000000E-03 0.  1.
         11   -1    0    0    0    0 -0.00000000000E+00 -0.00000000000E+00 -0.45593999997E+02  0.45594000000E+02  0.51100000000E-03 0. -1.
    9900012    2    1    2    0    0 -0.11722243506E+02  0.20572544483E+02  0.36372829330E+02  0.47787270826E+02  0.19999999005E+02 0.  0.
         12    1    1    2    0    0  0.11722243506E+02 -0.20572544483E+02 -0.36372829330E+02  0.43400729174E+02  0.00000000000E+00 0. -1.
         11    1    3    3    0    0 -0.75504525965E+01  0.10163870274E+02  0.20589704895E+02  0.24171254442E+02  0.51100000000E-03 0.  1.
        -11    1    3    3    0    0  0.11949428837E+01  0.98701798699E+01  0.15238292342E+02  0.18194886450E+02  0.51100000000E-03 0. -1.
        -12    1    3    3    0    0 -0.53667337934E+01  0.53849433853E+00  0.54483209386E+00  0.54211299350E+01  0.00000000000E+00 0.  1.
</event>
<event>
 7    1  0.1384886E-010  0.4778727E+02  0.7816164E-02  0.1312668E+00
        -11   -1    0    0    0    0  0.00000000000E+00  0.00000000000E+00  0.45593999997E+02  0.45594000000E+02  0.51100000000E-03 0.  1.
         11   -1    0    0    0    0 -0.00000000000E+00 -0.00000000000E+00 -0.45593999997E+02  0.45594000000E+02  0.51100000000E-03 0. -1.
    9900012    2    1    2    0    0 -0.91441149332E+01 -0.22434560857E+02  0.36009704487E+02  0.47787272172E+02  0.20000005140E+02 0.  0.
         12    1    1    2    0    0  0.91441149332E+01  0.22434560857E+02 -0.36009704487E+02  0.43400727828E+02  0.00000000000E+00 0. -1.
         11    1    3    3    0    0 -0.28552391379E+00  0.80183265592E+00  0.42460024777E+00  0.95118092127E+00  0.51100000000E-03 0. -1.
        -11    1    3    3    0    0  0.22485537750E+01 -0.16797910663E+02  0.15315287626E+02  0.22842588121E+02  0.51100000000E-03 0.  1.
         12    1    3    3    0    0 -0.11107144794E+02 -0.64384828500E+01  0.20269816613E+02  0.23993503129E+02  0.00000000000E+00 0. -1.
</event>
<event>
 7    1  0.1384886E-010  0.4778728E+02  0.7816164E-02  0.1312668E+00
        -11   -1    0    0    0    0  0.00000000000E+00  0.00000000000E+00  0.45593999997E+02  0.45594000000E+02  0.51100000000E-03 0. -1.
         11   -1    0    0    0    0 -0.00000000000E+00 -0.00000000000E+00 -0.45593999997E+02  0.45594000000E+02  0.51100000000E-03 0.  1.
    9900012    2    1    2    0    0  0.14790102597E+02 -0.85827148620E+01 -0.39890006271E+02  0.47787277315E+02  0.20000028591E+02 0.  0.
         12    1    1    2    0    0 -0.14790102597E+02  0.85827148620E+01  0.39890006271E+02  0.43400722685E+02  0.00000000000E+00 0. -1.
         11    1    3    3    0    0  0.80677068880E+01 -0.54687884831E+01 -0.76785352705E+01  0.12407878387E+02  0.51100000000E-03 0. -1.
        -11    1    3    3    0    0 -0.29726280728E+01  0.14156187011E+01 -0.12768502940E+02  0.13186173120E+02  0.51100000000E-03 0.  1.
        -12    1    3    3    0    0  0.96950237819E+01 -0.45295450800E+01 -0.19442968061E+02  0.22193225808E+02  0.00000000000E+00 0.  1.
</event>
<event>
 7    1  0.1384886E-010  0.4778727E+02  0.7816164E-02  0.1312668E+00
        -11   -1    0    0    0    0  0.00000000000E+00  0.00000000000E+00  0.45593999997E+02  0.45594000000E+02  0.51100000000E-03 0. -1.
         11   -1    0    0    0    0 -0.00000000000E+00 -0.00000000000E+00 -0.45593999997E+02  0.45594000000E+02  0.51100000000E-03 0.  1.
    9900012    2    1    2    0    0 -0.31339642018E+02  0.14427364267E+02  0.26330615035E+02  0.47787270862E+02  0.19999999170E+02 0.  0.
         12    1    1    2    0    0  0.31339642018E+02 -0.14427364267E+02 -0.26330615035E+02  0.43400729138E+02  0.00000000000E+00 0. -1.
         11    1    3    3    0    0 -0.46371515195E+00  0.26634095734E+01  0.31351636053E+01  0.41398107917E+01  0.51100000000E-03 0. -1.
        -11    1    3    3    0    0 -0.28552166280E+02  0.49484596660E+01  0.14643159280E+02  0.32467453954E+02  0.51100000000E-03 0.  1.
        -12    1    3    3    0    0 -0.23237605869E+01  0.68154950281E+01  0.85522921501E+01  0.11180006116E+02  0.00000000000E+00 0.  1.
</event>
<event>
 7    1  0.1384886E-010  0.4778727E+02  0.7816164E-02  0.1312668E+00
        -11   -1    0    0    0    0  0.00000000000E+00  0.00000000000E+00  0.45593999997E+02  0.45594000000E+02  0.51100000000E-03 0.  1.
         11   -1    0    0    0    0 -0.00000000000E+00 -0.00000000000E+00 -0.45593999997E+02  0.45594000000E+02  0.51100000000E-03 0. -1.
    9900012    2    1    2    0    0 -0.12921504177E+02  0.31343163172E+02  0.27097313154E+02  0.47787268117E+02  0.19999986651E+02 0.  0.
         12    1    1    2    0    0  0.12921504177E+02 -0.31343163172E+02 -0.27097313154E+02  0.43400731883E+02  0.00000000000E+00 0. -1.
         11    1    3    3    0    0 -0.52161244037E+01  0.14328888297E+02  0.10295550710E+02  0.18399004275E+02  0.51100000000E-03 0. -1.
        -11    1    3    3    0    0 -0.62832709955E+01  0.14374738991E+02  0.39311252393E+01  0.16173013367E+02  0.51100000000E-03 0.  1.
        -12    1    3    3    0    0 -0.14221087782E+01  0.26395358843E+01  0.12870637204E+02  0.13215250475E+02  0.00000000000E+00 0.  1.
</event>
<event>
 7    1  0.1384886E-010  0.4778727E+02  0.7816164E-02  0.1312668E+00
        -11   -1    0    0    0    0  0.00000000000E+00  0.00000000000E+00  0.45593999997E+02  0.45594000000E+02  0.51100000000E-03 0.  1.
         11   -1    0    0    0    0 -0.00000000000E+00 -0.00000000000E+00 -0.45593999997E+02  0.45594000000E+02  0.51100000000E-03 0. -1.
    9900012    2    1    2    0    0  0.18392057905E+02  0.37170461659E+02 -0.12795026763E+02  0.47787265861E+02  0.19999976367E+02 0.  0.
         12    1    1    2    0    0 -0.18392057905E+02 -0.37170461659E+02  0.12795026763E+02  0.43400734139E+02  0.00000000000E+00 0. -1.
         11    1    3    3    0    0  0.61816382698E+01  0.38256952143E+01 -0.34595417975E+01  0.80509021408E+01  0.51100000000E-03 0. -1.
        -11    1    3    3    0    0  0.10186068643E+02  0.32326662675E+02 -0.42373576815E+01  0.34157346420E+02  0.51100000000E-03 0.  1.
        -12    1    3    3    0    0  0.20243509927E+01  0.10181037698E+01 -0.50981272844E+01  0.55790173002E+01  0.00000000000E+00 0.  1.
</event>
<event>
 7    1  0.1384886E-010  0.4778726E+02  0.7816164E-02  0.1312668E+00
        -11   -1    0    0    0    0  0.00000000000E+00  0.00000000000E+00  0.45593999997E+02  0.45594000000E+02  0.51100000000E-03 0.  1.
         11   -1    0    0    0    0 -0.00000000000E+00 -0.00000000000E+00 -0.45593999997E+02  0.45594000000E+02  0.51100000000E-03 0. -1.
    9900012    2    1    2    0    0 -0.41564005350E+02 -0.95063415078E+01 -0.81047388304E+01  0.47787264279E+02  0.19999969155E+02 0.  0.
         12    1    1    2    0    0  0.41564005350E+02  0.95063415078E+01  0.81047388304E+01  0.43400735721E+02  0.00000000000E+00 0. -1.
         11    1    3    3    0    0 -0.12731683710E+02  0.13225020585E+01 -0.49933247744E+01  0.13739653356E+02  0.51100000000E-03 0. -1.
        -11    1    3    3    0    0 -0.23979454167E+02 -0.67625411580E+01  0.31860998594E+01  0.25117671422E+02  0.51100000000E-03 0.  1.
         12    1    3    3    0    0 -0.48528674725E+01 -0.40663024084E+01 -0.62975139154E+01  0.89299395013E+01  0.00000000000E+00 0. -1.
</event>
<event>
 7    1  0.1384886E-010  0.4778727E+02  0.7816164E-02  0.1312668E+00
        -11   -1    0    0    0    0  0.00000000000E+00  0.00000000000E+00  0.45593999997E+02  0.45594000000E+02  0.51100000000E-03 0.  1.
         11   -1    0    0    0    0 -0.00000000000E+00 -0.00000000000E+00 -0.45593999997E+02  0.45594000000E+02  0.51100000000E-03 0. -1.
    9900012    2    1    2    0    0 -0.60871475905E+01  0.30217164659E+02  0.30553115672E+02  0.47787270939E+02  0.19999999518E+02 0.  0.
         12    1    1    2    0    0  0.60871475905E+01 -0.30217164659E+02 -0.30553115672E+02  0.43400729061E+02  0.00000000000E+00 0. -1.
         11    1    3    3    0    0 -0.83423242562E+01  0.18137496433E+02  0.12831899653E+02  0.23732273381E+02  0.51100000000E-03 0. -1.
        -11    1    3    3    0    0  0.36485108093E+01  0.99072215848E+01  0.18550253442E+02  0.21344239824E+02  0.51100000000E-03 0.  1.
         12    1    3    3    0    0 -0.13933341436E+01  0.21724466409E+01 -0.82903742264E+00  0.27107577338E+01  0.00000000000E+00 0. -1.
</event>
<event>
 7    1  0.1384886E-010  0.4778727E+02  0.7816164E-02  0.1312668E+00
        -11   -1    0    0    0    0  0.00000000000E+00  0.00000000000E+00  0.45593999997E+02  0.45594000000E+02  0.51100000000E-03 0.  1.
         11   -1    0    0    0    0 -0.00000000000E+00 -0.00000000000E+00 -0.45593999997E+02  0.45594000000E+02  0.51100000000E-03 0. -1.
    9900012    2    1    2    0    0  0.33091511208E+02 -0.34974345849E+01  0.27862936270E+02  0.47787269819E+02  0.19999994412E+02 0.  0.
         12    1    1    2    0    0 -0.33091511208E+02  0.34974345849E+01 -0.27862936270E+02  0.43400730181E+02  0.00000000000E+00 0. -1.
         11    1    3    3    0    0  0.10658770718E+01  0.71643289572E+00 -0.12629171441E+01  0.18012023763E+01  0.51100000000E-03 0. -1.
        -11    1    3    3    0    0  0.23161420614E+02 -0.86979277110E+01  0.25170027627E+02  0.35293563752E+02  0.51100000000E-03 0.  1.
         12    1    3    3    0    0  0.88642135221E+01  0.44840602303E+01  0.39558257868E+01  0.10692503690E+02  0.00000000000E+00 0. -1.
</event>
<event>
 7    1  0.1384886E-010  0.4778727E+02  0.7816164E-02  0.1312668E+00
        -11   -1    0    0    0    0  0.00000000000E+00  0.00000000000E+00  0.45593999997E+02  0.45594000000E+02  0.51100000000E-03 0.  1.
         11   -1    0    0    0    0 -0.00000000000E+00 -0.00000000000E+00 -0.45593999997E+02  0.45594000000E+02  0.51100000000E-03 0. -1.
    9900012    2    1    2    0    0  0.19695405640E+02  0.19319738725E+02  0.33503164906E+02  0.47787269978E+02  0.19999995136E+02 0.  0.
         12    1    1    2    0    0 -0.19695405640E+02 -0.19319738725E+02 -0.33503164906E+02  0.43400730022E+02  0.00000000000E+00 0. -1.
         11    1    3    3    0    0  0.20269834573E+01  0.50579105008E+01  0.20190328613E+02  0.20912687305E+02  0.51100000000E-03 0. -1.
        -11    1    3    3    0    0  0.97779472809E+01  0.10143062951E+02  0.10392492760E+02  0.17506966759E+02  0.51100000000E-03 0.  1.
         12    1    3    3    0    0  0.78904749018E+01  0.41187652730E+01  0.29203435333E+01  0.93676159135E+01  0.00000000000E+00 0. -1.
</event>
<event>
 7    1  0.1384886E-010  0.4778727E+02  0.7816164E-02  0.1312668E+00
        -11   -1    0    0    0    0  0.00000000000E+00  0.00000000000E+00  0.45593999997E+02  0.45594000000E+02  0.51100000000E-03 0.  1.
         11   -1    0    0    0    0 -0.00000000000E+00 -0.00000000000E+00 -0.45593999997E+02  0.45594000000E+02  0.51100000000E-03 0. -1.
    9900012    2    1    2    0    0  0.30682516321E+02 -0.25362736760E+02  0.17289815332E+02  0.47787274914E+02  0.20000017644E+02 0.  0.
         12    1    1    2    0    0 -0.30682516321E+02  0.25362736760E+02 -0.17289815332E+02  0.43400725086E+02  0.00000000000E+00 0. -1.
         11    1    3    3    0    0  0.17208861846E+01  0.25562968263E+00 -0.23012887629E+01  0.28849135215E+01  0.51100000000E-03 0. -1.
        -11    1    3    3    0    0  0.24980174334E+01  0.49168202296E+00  0.36558145572E+01  0.44549772892E+01  0.51100000000E-03 0.  1.
        -12    1    3    3    0    0  0.26463612703E+02 -0.26110048466E+02  0.15935289538E+02  0.40447384104E+02  0.00000000000E+00 0.  1.
</event>
<event>
 7    1  0.1384886E-010  0.4778727E+02  0.7816164E-02  0.1312668E+00
        -11   -1    0    0    0    0  0.00000000000E+00  0.00000000000E+00  0.45593999997E+02  0.45594000000E+02  0.51100000000E-03 0.  1.
         11   -1    0    0    0    0 -0.00000000000E+00 -0.00000000000E+00 -0.45593999997E+02  0.45594000000E+02  0.51100000000E-03 0. -1.
    9900012    2    1    2    0    0  0.30827369545E+02 -0.29200160939E+02  0.89803934430E+01  0.47787267537E+02  0.19999984006E+02 0.  0.
         12    1    1    2    0    0 -0.30827369545E+02  0.29200160939E+02 -0.89803934430E+01  0.43400732463E+02  0.00000000000E+00 0. -1.
         11    1    3    3    0    0  0.29326318368E+01 -0.91817599156E+01  0.51680051283E+01  0.10936787550E+02  0.51100000000E-03 0. -1.
        -11    1    3    3    0    0  0.19944094391E+02 -0.20382016505E+02  0.14718208886E+01  0.28554504984E+02  0.51100000000E-03 0.  1.
         12    1    3    3    0    0  0.79506433174E+01  0.36361548085E+00  0.23405674260E+01  0.82959750033E+01  0.00000000000E+00 0. -1.
</event>
<event>
 7    1  0.1384886E-010  0.4778726E+02  0.7816164E-02  0.1312668E+00
        -11   -1    0    0    0    0  0.00000000000E+00  0.00000000000E+00  0.45593999997E+02  0.45594000000E+02  0.51100000000E-03 0. -1.
         11   -1    0    0    0    0 -0.00000000000E+00 -0.00000000000E+00 -0.45593999997E+02  0.45594000000E+02  0.51100000000E-03 0.  1.
    9900012    2    1    2    0    0 -0.43279795784E+01 -0.10429846606E+02 -0.41905978344E+02  0.47787261200E+02  0.19999955115E+02 0.  0.
         12    1    1    2    0    0  0.43279795784E+01  0.10429846606E+02  0.41905978344E+02  0.43400738800E+02  0.00000000000E+00 0. -1.
         11    1    3    3    0    0  0.10287029133E+01 -0.86341146099E+01 -0.84519133475E+01  0.12126046523E+02  0.51100000000E-03 0. -1.
        -11    1    3    3    0    0  0.18250616169E+01  0.29394286556E+01 -0.13410956211E+02  0.13850084385E+02  0.51100000000E-03 0.  1.
        -12    1    3    3    0    0 -0.71817441086E+01 -0.47351606513E+01 -0.20043108785E+02  0.21811130292E+02  0.00000000000E+00 0.  1.
</event>
<event>
 7    1  0.1384886E-010  0.4778728E+02  0.7816164E-02  0.1312668E+00
        -11   -1    0    0    0    0  0.00000000000E+00  0.00000000000E+00  0.45593999997E+02  0.45594000000E+02  0.51100000000E-03 0.  1.
         11   -1    0    0    0    0 -0.00000000000E+00 -0.00000000000E+00 -0.45593999997E+02  0.45594000000E+02  0.51100000000E-03 0. -1.
    9900012    2    1    2    0    0 -0.17094970153E+02 -0.10834310573E+02  0.38392740783E+02  0.47787276101E+02  0.20000023055E+02 0.  0.
         12    1    1    2    0    0  0.17094970153E+02  0.10834310573E+02 -0.38392740783E+02  0.43400723899E+02  0.00000000000E+00 0. -1.
         11    1    3    3    0    0 -0.19244827396E+02 -0.42775500765E+01  0.21777074152E+02  0.29375189787E+02  0.51100000000E-03 0.  1.
        -11    1    3    3    0    0  0.89162179940E-01 -0.16179901070E+01  0.87487597916E+01  0.88975637134E+01  0.51100000000E-03 0. -1.
        -12    1    3    3    0    0  0.20606950623E+01 -0.49387703893E+01  0.78669068394E+01  0.95145226006E+01  0.00000000000E+00 0.  1.
</event>
<event>
 7    1  0.1384886E-010  0.4778727E+02  0.7816164E-02  0.1312668E+00
        -11   -1    0    0    0    0  0.00000000000E+00  0.00000000000E+00  0.45593999997E+02  0.45594000000E+02  0.51100000000E-03 0.  1.
         11   -1    0    0    0    0 -0.00000000000E+00 -0.00000000000E+00 -0.45593999997E+02  0.45594000000E+02  0.51100000000E-03 0. -1.
    9900012    2    1    2    0    0  0.28298445071E+02  0.44593235419E+01  0.32602694820E+02  0.47787271095E+02  0.20000000232E+02 0.  0.
         12    1    1    2    0    0 -0.28298445071E+02 -0.44593235419E+01 -0.32602694820E+02  0.43400728905E+02  0.00000000000E+00 0. -1.
         11    1    3    3    0    0  0.15628973105E+01 -0.30369651809E+01 -0.11663918429E+01  0.36091932209E+01  0.51100000000E-03 0. -1.
        -11    1    3    3    0    0  0.13750212816E+02  0.90300936963E+00  0.14227503755E+02  0.19806706989E+02  0.51100000000E-03 0.  1.
         12    1    3    3    0    0  0.12985334945E+02  0.65932793532E+01  0.19541582908E+02  0.24371370885E+02  0.00000000000E+00 0. -1.
</event>
<event>
 7    1  0.1384886E-010  0.4778727E+02  0.7816164E-02  0.1312668E+00
        -11   -1    0    0    0    0  0.00000000000E+00  0.00000000000E+00  0.45593999997E+02  0.45594000000E+02  0.51100000000E-03 0. -1.
         11   -1    0    0    0    0 -0.00000000000E+00 -0.00000000000E+00 -0.45593999997E+02  0.45594000000E+02  0.51100000000E-03 0.  1.
    9900012    2    1    2    0    0 -0.32547595939E+02 -0.25016555610E+02 -0.14087201444E+02  0.47787270737E+02  0.19999998599E+02 0.  0.
         12    1    1    2    0    0  0.32547595939E+02  0.25016555610E+02  0.14087201444E+02  0.43400729263E+02  0.00000000000E+00 0. -1.
         11    1    3    3    0    0 -0.14409638601E+02 -0.49920283647E+01 -0.38466368289E+00  0.15254704134E+02  0.51100000000E-03 0. -1.
        -11    1    3    3    0    0 -0.19817849910E+02 -0.18483792519E+02 -0.11775025876E+02  0.29547402518E+02  0.51100000000E-03 0.  1.
         12    1    3    3    0    0  0.16798925716E+01 -0.15407347272E+01 -0.19275118844E+01  0.29851640853E+01  0.00000000000E+00 0. -1.
</event>
<event>
 7    1  0.1384886E-010  0.4778727E+02  0.7816164E-02  0.1312668E+00
        -11   -1    0    0    0    0  0.00000000000E+00  0.00000000000E+00  0.45593999997E+02  0.45594000000E+02  0.51100000000E-03 0. -1.
         11   -1    0    0    0    0 -0.00000000000E+00 -0.00000000000E+00 -0.45593999997E+02  0.45594000000E+02  0.51100000000E-03 0.  1.
    9900012    2    1    2    0    0 -0.20125504898E+02 -0.34425433913E+02 -0.17131164477E+02  0.47787271391E+02  0.20000001580E+02 0.  0.
         12    1    1    2    0    0  0.20125504898E+02  0.34425433913E+02  0.17131164477E+02  0.43400728609E+02  0.00000000000E+00 0. -1.
         11    1    3    3    0    0  0.19736802694E+01 -0.49195417485E+01 -0.26754186027E+01  0.59376064017E+01  0.51100000000E-03 0. -1.
        -11    1    3    3    0    0 -0.23327528810E+02 -0.29797500539E+02 -0.14636075409E+02  0.40574368047E+02  0.51100000000E-03 0.  1.
         12    1    3    3    0    0  0.12283436432E+01  0.29160837483E+00  0.18032953450E+00  0.12752969423E+01  0.00000000000E+00 0. -1.
</event>
<event>
 7    1  0.1384886E-010  0.4778727E+02  0.7816164E-02  0.1312668E+00
        -11   -1    0    0    0    0  0.00000000000E+00  0.00000000000E+00  0.45593999997E+02  0.45594000000E+02  0.51100000000E-03 0.  1.
         11   -1    0    0    0    0 -0.00000000000E+00 -0.00000000000E+00 -0.45593999997E+02  0.45594000000E+02  0.51100000000E-03 0. -1.
    9900012    2    1    2    0    0  0.33960684077E+02 -0.13656235171E+02  0.23319580746E+02  0.47787266502E+02  0.19999979287E+02 0.  0.
         12    1    1    2    0    0 -0.33960684077E+02  0.13656235171E+02 -0.23319580746E+02  0.43400733498E+02  0.00000000000E+00 0. -1.
         11    1    3    3    0    0  0.12569686380E+02  0.15319238958E+01  0.15639517498E+01  0.12758908725E+02  0.51100000000E-03 0. -1.
        -11    1    3    3    0    0  0.47657729049E+01 -0.69581994747E+01  0.99331393902E+01  0.13030594373E+02  0.51100000000E-03 0.  1.
        -12    1    3    3    0    0  0.16625224792E+02 -0.82299595917E+01  0.11822489606E+02  0.21997763404E+02  0.00000000000E+00 0.  1.
</event>
<event>
 7    1  0.1384886E-010  0.4778726E+02  0.7816164E-02  0.1312668E+00
        -11   -1    0    0    0    0  0.00000000000E+00  0.00000000000E+00  0.45593999997E+02  0.45594000000E+02  0.51100000000E-03 0.  1.
         11   -1    0    0    0    0 -0.00000000000E+00 -0.00000000000E+00 -0.45593999997E+02  0.45594000000E+02  0.51100000000E-03 0. -1.
    9900012    2    1    2    0    0 -0.40569634227E+02  0.14398557253E+02 -0.55146010032E+01  0.47787256959E+02  0.19999935779E+02 0.  0.
         12    1    1    2    0    0  0.40569634227E+02 -0.14398557253E+02  0.55146010032E+01  0.43400743041E+02  0.00000000000E+00 0. -1.
         11    1    3    3    0    0 -0.77444083403E+01 -0.13712220668E+01  0.70230935563E+00  0.78961604080E+01  0.51100000000E-03 0. -1.
        -11    1    3    3    0    0 -0.24082167438E+02  0.15138675491E+02  0.11093628014E+01  0.28466839836E+02  0.51100000000E-03 0.  1.
         12    1    3    3    0    0 -0.87430584484E+01  0.63110382830E+00 -0.73262731603E+01  0.11424256715E+02  0.00000000000E+00 0. -1.
</event>
<event>
 7    1  0.1384886E-010  0.4778727E+02  0.7816164E-02  0.1312668E+00
        -11   -1    0    0    0    0  0.00000000000E+00  0.00000000000E+00  0.45593999997E+02  0.45594000000E+02  0.51100000000E-03 0.  1.
         11   -1    0    0    0    0 -0.00000000000E+00 -0.00000000000E+00 -0.45593999997E+02  0.45594000000E+02  0.51100000000E-03 0. -1.
    9900012    2    1    2    0    0  0.12653835961E+02 -0.89636157224E+01  0.40535879870E+02  0.47787268115E+02  0.19999986643E+02 0.  0.
         12    1    1    2    0    0 -0.12653835961E+02  0.89636157224E+01 -0.40535879870E+02  0.43400731885E+02  0.00000000000E+00 0. -1.
         11    1    3    3    0    0 -0.24024163849E+01 -0.15890996205E+01  0.45148958505E+01  0.53554763460E+01  0.51100000000E-03 0. -1.
        -11    1    3    3    0    0  0.10935030659E+02  0.22010647710E+00  0.93270261732E+01  0.14374169885E+02  0.51100000000E-03 0.  1.
         12    1    3    3    0    0  0.41212216868E+01 -0.75946225790E+01  0.26693957846E+02  0.28057621884E+02  0.00000000000E+00 0. -1.
</event>
<event>
 7    1  0.1384886E-010  0.4778727E+02  0.7816164E-02  0.1312668E+00
        -11   -1    0    0    0    0  0.00000000000E+00  0.00000000000E+00  0.45593999997E+02  0.45594000000E+02  0.51100000000E-03 0.  1.
         11   -1    0    0    0    0 -0.00000000000E+00 -0.00000000000E+00 -0.45593999997E+02  0.45594000000E+02  0.51100000000E-03 0. -1.
    9900012    2    1    2    0    0  0.14224667106E+02  0.29290251152E+02  0.28694308797E+02  0.47787270465E+02  0.19999997359E+02 0.  0.
         12    1    1    2    0    0 -0.14224667106E+02 -0.29290251152E+02 -0.28694308797E+02  0.43400729535E+02  0.00000000000E+00 0. -1.
         11    1    3    3    0    0  0.13086843577E+02  0.23261126629E+02  0.18022229932E+02  0.32204755221E+02  0.51100000000E-03 0. -1.
        -11    1    3    3    0    0 -0.20879538349E+01  0.72395707435E+01  0.53435655123E+01  0.92371331273E+01  0.51100000000E-03 0.  1.
        -12    1    3    3    0    0  0.32257773638E+01 -0.12104462209E+01  0.53285133528E+01  0.63453821166E+01  0.00000000000E+00 0.  1.
</event>
<event>
 7    1  0.1384886E-010  0.4778729E+02  0.7816164E-02  0.1312668E+00
        -11   -1    0    0    0    0  0.00000000000E+00  0.00000000000E+00  0.45593999997E+02  0.45594000000E+02  0.51100000000E-03 0. -1.
         11   -1    0    0    0    0 -0.00000000000E+00 -0.00000000000E+00 -0.45593999997E+02  0.45594000000E+02  0.51100000000E-03 0.  1.
    9900012    2    1    2    0    0 -0.10574940286E+02 -0.41623195651E+02 -0.62691489666E+01  0.47787285639E+02  0.20000066542E+02 0.  0.
         12    1    1    2    0    0  0.10574940286E+02  0.41623195651E+02  0.62691489666E+01  0.43400714361E+02  0.00000000000E+00 0. -1.
         11    1    3    3    0    0 -0.41492097872E+01 -0.41323792039E+01 -0.27306146094E+01  0.64613277388E+01  0.51100000000E-03 0.  1.
        -11    1    3    3    0    0 -0.12496133578E+01 -0.26023594367E+02  0.44384266612E+01  0.26428935446E+02  0.51100000000E-03 0. -1.
         12    1    3    3    0    0 -0.51761171413E+01 -0.11467222081E+02 -0.79769610185E+01  0.14897022454E+02  0.00000000000E+00 0. -1.
</event>
<event>
 7    1  0.1384886E-010  0.4778728E+02  0.7816164E-02  0.1312668E+00
        -11   -1    0    0    0    0  0.00000000000E+00  0.00000000000E+00  0.45593999997E+02  0.45594000000E+02  0.51100000000E-03 0.  1.
         11   -1    0    0    0    0 -0.00000000000E+00 -0.00000000000E+00 -0.45593999997E+02  0.45594000000E+02  0.51100000000E-03 0. -1.
    9900012    2    1    2    0    0  0.21403972514E+02 -0.37396417547E+02 -0.51962098853E+01  0.47787277865E+02  0.20000031096E+02 0.  0.
         12    1    1    2    0    0 -0.21403972514E+02  0.37396417547E+02  0.51962098853E+01  0.43400722135E+02  0.00000000000E+00 0. -1.
         11    1    3    3    0    0  0.66638318606E+00  0.10361998853E+01 -0.16423561735E+01  0.20530735045E+01  0.51100000000E-03 0. -1.
        -11    1    3    3    0    0  0.76306718038E+00 -0.12637010595E+02 -0.34005563404E+01  0.13108779195E+02  0.51100000000E-03 0.  1.
         12    1    3    3    0    0  0.19974522148E+02 -0.25795606837E+02 -0.15329737130E+00  0.32625425165E+02  0.00000000000E+00 0. -1.
</event>
<event>
 7    1  0.1384886E-010  0.4778727E+02  0.7816164E-02  0.1312668E+00
        -11   -1    0    0    0    0  0.00000000000E+00  0.00000000000E+00  0.45593999997E+02  0.45594000000E+02  0.51100000000E-03 0.  1.
         11   -1    0    0    0    0 -0.00000000000E+00 -0.00000000000E+00 -0.45593999997E+02  0.45594000000E+02  0.51100000000E-03 0. -1.
    9900012    2    1    2    0    0  0.14858204870E+02 -0.19293443676E+02  0.35925199375E+02  0.47787272230E+02  0.20000005405E+02 0.  0.
         12    1    1    2    0    0 -0.14858204870E+02  0.19293443676E+02 -0.35925199375E+02  0.43400727770E+02  0.00000000000E+00 0. -1.
         11    1    3    3    0    0  0.15177380588E+02 -0.17878094731E+02  0.25630050492E+02  0.34740158912E+02  0.51100000000E-03 0. -1.
        -11    1    3    3    0    0 -0.71077612429E+00 -0.86994657817E+00 -0.11351845925E+01  0.15970767257E+01  0.51100000000E-03 0.  1.
        -12    1    3    3    0    0  0.39160040705E+00 -0.54540236730E+00  0.11430333475E+02  0.11450036593E+02  0.00000000000E+00 0.  1.
</event>
<event>
 7    1  0.1384886E-010  0.4778727E+02  0.7816164E-02  0.1312668E+00
        -11   -1    0    0    0    0  0.00000000000E+00  0.00000000000E+00  0.45593999997E+02  0.45594000000E+02  0.51100000000E-03 0.  1.
         11   -1    0    0    0    0 -0.00000000000E+00 -0.00000000000E+00 -0.45593999997E+02  0.45594000000E+02  0.51100000000E-03 0. -1.
    9900012    2    1    2    0    0 -0.21942222513E+02 -0.26305929627E+02  0.26648829169E+02  0.47787272375E+02  0.20000006065E+02 0.  0.
         12    1    1    2    0    0  0.21942222513E+02  0.26305929627E+02 -0.26648829169E+02  0.43400727625E+02  0.00000000000E+00 0. -1.
         11    1    3    3    0    0  0.81228100874E+00 -0.28389415218E+01 -0.11443854787E+01  0.31668608726E+01  0.51100000000E-03 0. -1.
        -11    1    3    3    0    0 -0.17707831134E+02 -0.10949136384E+02  0.12765615599E+02  0.24421544032E+02  0.51100000000E-03 0.  1.
         12    1    3    3    0    0 -0.50466723876E+01 -0.12517851721E+02  0.15027599049E+02  0.20198867470E+02  0.00000000000E+00 0. -1.
</event>
<event>
 7    1  0.1384886E-010  0.4778727E+02  0.7816164E-02  0.1312668E+00
        -11   -1    0    0    0    0  0.00000000000E+00  0.00000000000E+00  0.45593999997E+02  0.45594000000E+02  0.51100000000E-03 0.  1.
         11   -1    0    0    0    0 -0.00000000000E+00 -0.00000000000E+00 -0.45593999997E+02  0.45594000000E+02  0.51100000000E-03 0. -1.
    9900012    2    1    2    0    0 -0.28502545022E+01  0.27679075396E+02  0.33307182508E+02  0.47787267609E+02  0.19999984334E+02 0.  0.
         12    1    1    2    0    0  0.28502545022E+01 -0.27679075396E+02 -0.33307182508E+02  0.43400732391E+02  0.00000000000E+00 0. -1.
         11    1    3    3    0    0 -0.88710153294E+01  0.86012250859E+01  0.73734562132E+01  0.14389018130E+02  0.51100000000E-03 0. -1.
        -11    1    3    3    0    0  0.28649266493E+01  0.16894386449E+02  0.20065111508E+02  0.26386299443E+02  0.51100000000E-03 0.  1.
         12    1    3    3    0    0  0.31558341780E+01  0.21834638611E+01  0.58686147867E+01  0.70119500359E+01  0.00000000000E+00 0. -1.
</event>
<event>
 7    1  0.1384886E-010  0.4778727E+02  0.7816164E-02  0.1312668E+00
        -11   -1    0    0    0    0  0.00000000000E+00  0.00000000000E+00  0.45593999997E+02  0.45594000000E+02  0.51100000000E-03 0.  1.
         11   -1    0    0    0    0 -0.00000000000E+00 -0.00000000000E+00 -0.45593999997E+02  0.45594000000E+02  0.51100000000E-03 0. -1.
    9900012    2    1    2    0    0 -0.19739085557E+01 -0.71568556710E+01  0.42761041823E+02  0.47787267335E+02  0.19999983088E+02 0.  0.
         12    1    1    2    0    0  0.19739085557E+01  0.71568556710E+01 -0.42761041823E+02  0.43400732665E+02  0.00000000000E+00 0. -1.
         11    1    3    3    0    0 -0.22007038015E+01 -0.38150680106E+01  0.20429162033E+02  0.20898528722E+02  0.51100000000E-03 0.  1.
        -11    1    3    3    0    0 -0.19612241422E+01  0.32631781989E+01  0.33993309978E+00  0.38223404959E+01  0.51100000000E-03 0. -1.
        -12    1    3    3    0    0  0.21880193880E+01 -0.66049658593E+01  0.21991946690E+02  0.23066398117E+02  0.00000000000E+00 0.  1.
</event>
<event>
 7    1  0.1384886E-010  0.4778727E+02  0.7816164E-02  0.1312668E+00
        -11   -1    0    0    0    0  0.00000000000E+00  0.00000000000E+00  0.45593999997E+02  0.45594000000E+02  0.51100000000E-03 0. -1.
         11   -1    0    0    0    0 -0.00000000000E+00 -0.00000000000E+00 -0.45593999997E+02  0.45594000000E+02  0.51100000000E-03 0.  1.
    9900012    2    1    2    0    0  0.24536405416E+02  0.35206428012E+02  0.64880945069E+01  0.47787272651E+02  0.20000007326E+02 0.  0.
         12    1    1    2    0    0 -0.24536405416E+02 -0.35206428012E+02 -0.64880945069E+01  0.43400727349E+02  0.00000000000E+00 0. -1.
         11    1    3    3    0    0  0.10422934902E+02  0.13622838517E+02  0.98487000515E+01  0.19779185883E+02  0.51100000000E-03 0. -1.
        -11    1    3    3    0    0  0.22728396907E+01  0.12636436993E+02 -0.23358420305E+00  0.12841335677E+02  0.51100000000E-03 0.  1.
        -12    1    3    3    0    0  0.11840630823E+02  0.89471525015E+01 -0.31270213416E+01  0.15166751090E+02  0.00000000000E+00 0.  1.
</event>
<event>
 7    1  0.1384886E-010  0.4778727E+02  0.7816164E-02  0.1312668E+00
        -11   -1    0    0    0    0  0.00000000000E+00  0.00000000000E+00  0.45593999997E+02  0.45594000000E+02  0.51100000000E-03 0.  1.
         11   -1    0    0    0    0 -0.00000000000E+00 -0.00000000000E+00 -0.45593999997E+02  0.45594000000E+02  0.51100000000E-03 0. -1.
    9900012    2    1    2    0    0  0.27873214944E+02  0.45062420285E+01  0.32960595521E+02  0.47787272061E+02  0.20000004634E+02 0.  0.
         12    1    1    2    0    0 -0.27873214944E+02 -0.45062420285E+01 -0.32960595521E+02  0.43400727939E+02  0.00000000000E+00 0. -1.
         11    1    3    3    0    0  0.10512478199E+02 -0.64956105275E+01  0.16183322786E+02  0.20361853812E+02  0.51100000000E-03 0. -1.
        -11    1    3    3    0    0  0.14131622404E+02  0.72036795336E+01  0.15714600266E+02  0.22328108124E+02  0.51100000000E-03 0.  1.
        -12    1    3    3    0    0  0.32291143402E+01  0.37981730225E+01  0.10626724693E+01  0.50973101247E+01  0.00000000000E+00 0.  1.
</event>
<event>
 7    1  0.1384886E-010  0.4778727E+02  0.7816164E-02  0.1312668E+00
        -11   -1    0    0    0    0  0.00000000000E+00  0.00000000000E+00  0.45593999997E+02  0.45594000000E+02  0.51100000000E-03 0.  1.
         11   -1    0    0    0    0 -0.00000000000E+00 -0.00000000000E+00 -0.45593999997E+02  0.45594000000E+02  0.51100000000E-03 0. -1.
    9900012    2    1    2    0    0  0.77368476979E+01 -0.36783919691E+02  0.21695799301E+02  0.47787271118E+02  0.20000000335E+02 0.  0.
         12    1    1    2    0    0 -0.77368476979E+01  0.36783919691E+02 -0.21695799301E+02  0.43400728882E+02  0.00000000000E+00 0. -1.
         11    1    3    3    0    0  0.46890538505E+01 -0.10850774001E+02  0.43703777053E+01  0.12602647499E+02  0.51100000000E-03 0. -1.
        -11    1    3    3    0    0  0.92250357304E+01 -0.13630019340E+02  0.65976942161E+01  0.17731561710E+02  0.51100000000E-03 0.  1.
        -12    1    3    3    0    0 -0.61772418830E+01 -0.12303126350E+02  0.10727727380E+02  0.17453061909E+02  0.00000000000E+00 0.  1.
</event>
<event>
 7    1  0.1384886E-010  0.4778727E+02  0.7816164E-02  0.1312668E+00
        -11   -1    0    0    0    0  0.00000000000E+00  0.00000000000E+00  0.45593999997E+02  0.45594000000E+02  0.51100000000E-03 0. -1.
         11   -1    0    0    0    0 -0.00000000000E+00 -0.00000000000E+00 -0.45593999997E+02  0.45594000000E+02  0.51100000000E-03 0.  1.
    9900012    2    1    2    0    0 -0.33003570272E+02  0.27136964107E+02 -0.76139864876E+01  0.47787271182E+02  0.20000000629E+02 0.  0.
         12    1    1    2    0    0  0.33003570272E+02 -0.27136964107E+02  0.76139864876E+01  0.43400728818E+02  0.00000000000E+00 0. -1.
         11    1    3    3    0    0 -0.10661292030E+01 -0.27391826280E+00  0.28257802757E+01  0.30326056651E+01  0.51100000000E-03 0. -1.
        -11    1    3    3    0    0 -0.10272571885E+02  0.15443060925E+02 -0.67126607270E+01  0.19724950651E+02  0.51100000000E-03 0.  1.
         12    1    3    3    0    0 -0.21664869184E+02  0.11967821445E+02 -0.37271060364E+01  0.25029714866E+02  0.00000000000E+00 0. -1.
</event>
<event>
 7    1  0.1749087E-010  0.4778732E+02  0.7816164E-02  0.1312668E+00
        -11   -1    0    0    0    0  0.00000000000E+00  0.00000000000E+00  0.45593999997E+02  0.45594000000E+02  0.51100000000E-03 0.  1.
         11   -1    0    0    0    0 -0.00000000000E+00 -0.00000000000E+00 -0.45593999997E+02  0.45594000000E+02  0.51100000000E-03 0. -1.
    9900012    2    1    2    0    0  0.15393311155E+02 -0.37540953384E+02  0.15405891153E+02  0.47787323835E+02  0.20000240694E+02 0.  0.
         12    1    1    2    0    0 -0.15393311155E+02  0.37540953384E+02 -0.15405891153E+02  0.43400676165E+02  0.00000000000E+00 0. -1.
         11    1    3    3    0    0  0.73079779732E+00 -0.36300826765E+01  0.78047589985E+01  0.86386242506E+01  0.51100000000E-03 0. -1.
        -11    1    3    3    0    0  0.97578881138E+01 -0.20548936029E+02  0.97578402367E+01  0.24752587717E+02  0.51100000000E-03 0.  1.
         12    1    3    3    0    0  0.49046252434E+01 -0.13361934679E+02 -0.21567080818E+01  0.14396111868E+02  0.00000000000E+00 0. -1.
</event>
<event>
 7    1  0.1384886E-010  0.4778727E+02  0.7816164E-02  0.1312668E+00
        -11   -1    0    0    0    0  0.00000000000E+00  0.00000000000E+00  0.45593999997E+02  0.45594000000E+02  0.51100000000E-03 0. -1.
         11   -1    0    0    0    0 -0.00000000000E+00 -0.00000000000E+00 -0.45593999997E+02  0.45594000000E+02  0.51100000000E-03 0.  1.
    9900012    2    1    2    0    0  0.36771601515E+02  0.14923800874E+02 -0.17571360516E+02  0.47787271655E+02  0.20000002784E+02 0.  0.
         12    1    1    2    0    0 -0.36771601515E+02 -0.14923800874E+02  0.17571360516E+02  0.43400728345E+02  0.00000000000E+00 0. -1.
         11    1    3    3    0    0  0.15374765990E+02  0.23575176134E+01 -0.29970158692E+01  0.15840562583E+02  0.51100000000E-03 0. -1.
        -11    1    3    3    0    0  0.12473998149E+02  0.71735960666E+01 -0.45702893627E+00  0.14396874176E+02  0.51100000000E-03 0.  1.
         12    1    3    3    0    0  0.89228373759E+01  0.53926871935E+01 -0.14117315711E+02  0.17549834896E+02  0.00000000000E+00 0. -1.
</event>
<event>
 7    1  0.1517708E-010  0.4778727E+02  0.7816164E-02  0.1312668E+00
        -11   -1    0    0    0    0  0.00000000000E+00  0.00000000000E+00  0.45593999997E+02  0.45594000000E+02  0.51100000000E-03 0.  1.
         11   -1    0    0    0    0 -0.00000000000E+00 -0.00000000000E+00 -0.45593999997E+02  0.45594000000E+02  0.51100000000E-03 0. -1.
    9900012    2    1    2    0    0  0.20044932163E+01 -0.37490361560E+02 -0.21773335251E+02  0.47787270387E+02  0.19999997004E+02 0.  0.
         12    1    1    2    0    0 -0.20044932163E+01  0.37490361560E+02  0.21773335251E+02  0.43400729613E+02  0.00000000000E+00 0. -1.
         11    1    3    3    0    0  0.52025765882E+01 -0.44766654967E+01 -0.56893542868E+01  0.89149363199E+01  0.51100000000E-03 0. -1.
        -11    1    3    3    0    0 -0.47517484252E+01 -0.14673852058E+02 -0.13079650390E+02  0.20223211958E+02  0.51100000000E-03 0.  1.
        -12    1    3    3    0    0  0.15536650533E+01 -0.18339844006E+02 -0.30043305738E+01  0.18649122110E+02  0.00000000000E+00 0.  1.
</event>
<event>
 7    1  0.1384886E-010  0.4778727E+02  0.7816164E-02  0.1312668E+00
        -11   -1    0    0    0    0  0.00000000000E+00  0.00000000000E+00  0.45593999997E+02  0.45594000000E+02  0.51100000000E-03 0. -1.
         11   -1    0    0    0    0 -0.00000000000E+00 -0.00000000000E+00 -0.45593999997E+02  0.45594000000E+02  0.51100000000E-03 0.  1.
    9900012    2    1    2    0    0 -0.33873515931E+02 -0.13275397677E+02 -0.23663735156E+02  0.47787266981E+02  0.19999981475E+02 0.  0.
         12    1    1    2    0    0  0.33873515931E+02  0.13275397677E+02  0.23663735156E+02  0.43400733019E+02  0.00000000000E+00 0. -1.
         11    1    3    3    0    0 -0.47592961841E+01 -0.14277114491E+01  0.10871367933E+01  0.50863667601E+01  0.51100000000E-03 0. -1.
        -11    1    3    3    0    0 -0.10974164548E+01 -0.55279753034E+01 -0.17380232479E+01  0.58977588032E+01  0.51100000000E-03 0.  1.
         12    1    3    3    0    0 -0.28016803292E+02 -0.63197109244E+01 -0.23012848702E+02  0.36803141418E+02  0.00000000000E+00 0. -1.
</event>
<event>
 7    1  0.1384886E-010  0.4778727E+02  0.7816164E-02  0.1312668E+00
        -11   -1    0    0    0    0  0.00000000000E+00  0.00000000000E+00  0.45593999997E+02  0.45594000000E+02  0.51100000000E-03 0.  1.
         11   -1    0    0    0    0 -0.00000000000E+00 -0.00000000000E+00 -0.45593999997E+02  0.45594000000E+02  0.51100000000E-03 0. -1.
    9900012    2    1    2    0    0 -0.19285532615E+02 -0.26444206100E+01  0.38790443394E+02  0.47787271581E+02  0.20000002445E+02 0.  0.
         12    1    1    2    0    0  0.19285532615E+02  0.26444206100E+01 -0.38790443394E+02  0.43400728419E+02  0.00000000000E+00 0. -1.
         11    1    3    3    0    0 -0.53931714913E+01  0.83697465945E+01  0.13588704798E+02  0.16846122852E+02  0.51100000000E-03 0. -1.
        -11    1    3    3    0    0 -0.71943194311E+01 -0.44407028784E+01  0.13670643806E+02  0.16073723167E+02  0.51100000000E-03 0.  1.
         12    1    3    3    0    0 -0.66980416930E+01 -0.65734643260E+01  0.11531094790E+02  0.14867425561E+02  0.00000000000E+00 0. -1.
</event>
<event>
 7    1  0.1384886E-010  0.4778727E+02  0.7816164E-02  0.1312668E+00
        -11   -1    0    0    0    0  0.00000000000E+00  0.00000000000E+00  0.45593999997E+02  0.45594000000E+02  0.51100000000E-03 0. -1.
         11   -1    0    0    0    0 -0.00000000000E+00 -0.00000000000E+00 -0.45593999997E+02  0.45594000000E+02  0.51100000000E-03 0.  1.
    9900012    2    1    2    0    0  0.35600061157E+02  0.10161385579E+02  0.22649618996E+02  0.47787270145E+02  0.19999995901E+02 0.  0.
         12    1    1    2    0    0 -0.35600061157E+02 -0.10161385579E+02 -0.22649618996E+02  0.43400729855E+02  0.00000000000E+00 0. -1.
         11    1    3    3    0    0  0.77605655998E+01 -0.20307724202E+01  0.28014743299E+01  0.84969802715E+01  0.51100000000E-03 0. -1.
        -11    1    3    3    0    0  0.85014773012E+01  0.11788053954E+02  0.76699429518E+01  0.16433543668E+02  0.51100000000E-03 0.  1.
        -12    1    3    3    0    0  0.19338018256E+02  0.40410404438E+00  0.12178201714E+02  0.22856746206E+02  0.00000000000E+00 0.  1.
</event>
<event>
 7    1  0.1384886E-010  0.4778727E+02  0.7816164E-02  0.1312668E+00
        -11   -1    0    0    0    0  0.00000000000E+00  0.00000000000E+00  0.45593999997E+02  0.45594000000E+02  0.51100000000E-03 0. -1.
         11   -1    0    0    0    0 -0.00000000000E+00 -0.00000000000E+00 -0.45593999997E+02  0.45594000000E+02  0.51100000000E-03 0.  1.
    9900012    2    1    2    0    0 -0.42941897069E+02  0.94039947743E+00 -0.62235284787E+01  0.47787272106E+02  0.20000004839E+02 0.  0.
         12    1    1    2    0    0  0.42941897069E+02 -0.94039947743E+00  0.62235284787E+01  0.43400727894E+02  0.00000000000E+00 0. -1.
         11    1    3    3    0    0 -0.10298961144E+02  0.30920455647E+01 -0.59738200266E+01  0.12301051678E+02  0.51100000000E-03 0. -1.
        -11    1    3    3    0    0 -0.99882120091E+01  0.15283629005E+01 -0.60969899015E+01  0.11801421881E+02  0.51100000000E-03 0.  1.
         12    1    3    3    0    0 -0.22654723916E+02 -0.36800089878E+01  0.58472814495E+01  0.23684798547E+02  0.00000000000E+00 0. -1.
</event>
<event>
 7    1  0.1384886E-010  0.4778727E+02  0.7816164E-02  0.1312668E+00
        -11   -1    0    0    0    0  0.00000000000E+00  0.00000000000E+00  0.45593999997E+02  0.45594000000E+02  0.51100000000E-03 0.  1.
         11   -1    0    0    0    0 -0.00000000000E+00 -0.00000000000E+00 -0.45593999997E+02  0.45594000000E+02  0.51100000000E-03 0. -1.
    9900012    2    1    2    0    0  0.28306408418E+02 -0.31622326234E+02  0.90773818423E+01  0.47787272643E+02  0.20000007291E+02 0.  0.
         12    1    1    2    0    0 -0.28306408418E+02  0.31622326234E+02 -0.90773818423E+01  0.43400727357E+02  0.00000000000E+00 0. -1.
         11    1    3    3    0    0  0.13736613937E+02 -0.42391113316E+01  0.43664427344E+00  0.14382464526E+02  0.51100000000E-03 0. -1.
        -11    1    3    3    0    0  0.98195442412E+01 -0.14606991363E+02  0.90020677586E+01  0.19769291084E+02  0.51100000000E-03 0.  1.
        -12    1    3    3    0    0  0.47502502389E+01 -0.12776223540E+02 -0.36133018973E+00  0.13635517034E+02  0.00000000000E+00 0.  1.
</event>
<event>
 7    1  0.1384886E-010  0.4778729E+02  0.7816164E-02  0.1312668E+00
        -11   -1    0    0    0    0  0.00000000000E+00  0.00000000000E+00  0.45593999997E+02  0.45594000000E+02  0.51100000000E-03 0.  1.
         11   -1    0    0    0    0 -0.00000000000E+00 -0.00000000000E+00 -0.45593999997E+02  0.45594000000E+02  0.51100000000E-03 0. -1.
    9900012    2    1    2    0    0 -0.12188419564E+02 -0.17342066352E+02  0.37872375793E+02  0.47787289348E+02  0.20000083455E+02 0.  0.
         12    1    1    2    0    0  0.12188419564E+02  0.17342066352E+02 -0.37872375793E+02  0.43400710652E+02  0.00000000000E+00 0. -1.
         11    1    3    3    0    0 -0.27709527376E+01 -0.59739904287E+00 -0.65951467273E+00  0.29103306608E+01  0.51100000000E-03 0. -1.
        -11    1    3    3    0    0  0.15278537505E+01 -0.55187573045E+01  0.18923765686E+02  0.19771189324E+02  0.51100000000E-03 0.  1.
        -12    1    3    3    0    0 -0.10945320577E+02 -0.11225910005E+02  0.19608124780E+02  0.25105769364E+02  0.00000000000E+00 0.  1.
</event>
<event>
 7    1  0.1384886E-010  0.4778727E+02  0.7816164E-02  0.1312668E+00
        -11   -1    0    0    0    0  0.00000000000E+00  0.00000000000E+00  0.45593999997E+02  0.45594000000E+02  0.51100000000E-03 0. -1.
         11   -1    0    0    0    0 -0.00000000000E+00 -0.00000000000E+00 -0.45593999997E+02  0.45594000000E+02  0.51100000000E-03 0.  1.
    9900012    2    1    2    0    0 -0.13436196892E+01  0.40326558424E+02 -0.15987078555E+02  0.47787270640E+02  0.19999998158E+02 0.  0.
         12    1    1    2    0    0  0.13436196892E+01 -0.40326558424E+02  0.15987078555E+02  0.43400729360E+02  0.00000000000E+00 0. -1.
         11    1    3    3    0    0  0.43242489427E+00  0.50618473387E+01  0.20379731567E+01  0.54738126218E+01  0.51100000000E-03 0. -1.
        -11    1    3    3    0    0 -0.22112908717E+01  0.31502798495E+02 -0.20625964544E+02  0.37719312480E+02  0.51100000000E-03 0.  1.
        -12    1    3    3    0    0  0.43524628827E+00  0.37619125908E+01  0.26009128322E+01  0.45941455389E+01  0.00000000000E+00 0.  1.
</event>
<event>
 7    1  0.1384886E-010  0.4778727E+02  0.7816164E-02  0.1312668E+00
        -11   -1    0    0    0    0  0.00000000000E+00  0.00000000000E+00  0.45593999997E+02  0.45594000000E+02  0.51100000000E-03 0.  1.
         11   -1    0    0    0    0 -0.00000000000E+00 -0.00000000000E+00 -0.45593999997E+02  0.45594000000E+02  0.51100000000E-03 0. -1.
    9900012    2    1    2    0    0 -0.30782531040E+01  0.12069833043E+02  0.41574834728E+02  0.47787269655E+02  0.19999993663E+02 0.  0.
         12    1    1    2    0    0  0.30782531040E+01 -0.12069833043E+02 -0.41574834728E+02  0.43400730345E+02  0.00000000000E+00 0. -1.
         11    1    3    3    0    0  0.49702141676E+01  0.48824001269E+01  0.39888276287E+01  0.80281757569E+01  0.51100000000E-03 0. -1.
        -11    1    3    3    0    0 -0.72788977697E+00  0.75709754182E+00  0.16469777025E+02  0.16503229252E+02  0.51100000000E-03 0.  1.
         12    1    3    3    0    0 -0.73205774947E+01  0.64303353747E+01  0.21116230074E+02  0.23255864646E+02  0.00000000000E+00 0. -1.
</event>
<event>
 7    1  0.1384886E-010  0.4778727E+02  0.7816164E-02  0.1312668E+00
        -11   -1    0    0    0    0  0.00000000000E+00  0.00000000000E+00  0.45593999997E+02  0.45594000000E+02  0.51100000000E-03 0.  1.
         11   -1    0    0    0    0 -0.00000000000E+00 -0.00000000000E+00 -0.45593999997E+02  0.45594000000E+02  0.51100000000E-03 0. -1.
    9900012    2    1    2    0    0 -0.10528272755E+02  0.40869923318E+02  0.10120664109E+02  0.47787274186E+02  0.20000014324E+02 0.  0.
         12    1    1    2    0    0  0.10528272755E+02 -0.40869923318E+02 -0.10120664109E+02  0.43400725814E+02  0.00000000000E+00 0. -1.
         11    1    3    3    0    0 -0.44956084362E+01  0.59436639034E+01 -0.19864907060E+01  0.77125729426E+01  0.51100000000E-03 0. -1.
        -11    1    3    3    0    0  0.45637612270E+01  0.11130002216E+02  0.53387189809E+01  0.13160804933E+02  0.51100000000E-03 0.  1.
         12    1    3    3    0    0 -0.10596425545E+02  0.23796257198E+02  0.67684358338E+01  0.26913896310E+02  0.00000000000E+00 0. -1.
</event>
<event>
 7    1  0.1384886E-010  0.4778727E+02  0.7816164E-02  0.1312668E+00
        -11   -1    0    0    0    0  0.00000000000E+00  0.00000000000E+00  0.45593999997E+02  0.45594000000E+02  0.51100000000E-03 0.  1.
         11   -1    0    0    0    0 -0.00000000000E+00 -0.00000000000E+00 -0.45593999997E+02  0.45594000000E+02  0.51100000000E-03 0. -1.
    9900012    2    1    2    0    0 -0.37078745542E+02 -0.62506351402E+01  0.21673010079E+02  0.47787272166E+02  0.20000005114E+02 0.  0.
         12    1    1    2    0    0  0.37078745542E+02  0.62506351402E+01 -0.21673010079E+02  0.43400727834E+02  0.00000000000E+00 0. -1.
         11    1    3    3    0    0 -0.86622631175E+01 -0.54538012636E+00  0.14138726619E+01  0.87938204419E+01  0.51100000000E-03 0. -1.
        -11    1    3    3    0    0 -0.56020119888E+01 -0.18964870558E+01  0.13745038569E+02  0.14963465074E+02  0.51100000000E-03 0.  1.
        -12    1    3    3    0    0 -0.22814470436E+02 -0.38087679580E+01  0.65140988473E+01  0.24029986650E+02  0.00000000000E+00 0.  1.
</event>
<event>
 7    1  0.1384886E-010  0.4778727E+02  0.7816164E-02  0.1312668E+00
        -11   -1    0    0    0    0  0.00000000000E+00  0.00000000000E+00  0.45593999997E+02  0.45594000000E+02  0.51100000000E-03 0.  1.
         11   -1    0    0    0    0 -0.00000000000E+00 -0.00000000000E+00 -0.45593999997E+02  0.45594000000E+02  0.51100000000E-03 0. -1.
    9900012    2    1    2    0    0  0.65503918709E+01  0.13637144136E+02  0.40678543499E+02  0.47787271491E+02  0.20000002037E+02 0.  0.
         12    1    1    2    0    0 -0.65503918709E+01 -0.13637144136E+02 -0.40678543499E+02  0.43400728509E+02  0.00000000000E+00 0. -1.
         11    1    3    3    0    0  0.22545200538E+01  0.55781187642E+01  0.70116719284E+00  0.60572192723E+01  0.51100000000E-03 0. -1.
        -11    1    3    3    0    0 -0.15764932137E+01  0.44444341719E+01  0.21419170622E+02  0.21932149834E+02  0.51100000000E-03 0.  1.
         12    1    3    3    0    0  0.58723650309E+01  0.36145912004E+01  0.18558205684E+02  0.19797902385E+02  0.00000000000E+00 0. -1.
</event>
<event>
 7    1  0.1384886E-010  0.4778725E+02  0.7816164E-02  0.1312668E+00
        -11   -1    0    0    0    0  0.00000000000E+00  0.00000000000E+00  0.45593999997E+02  0.45594000000E+02  0.51100000000E-03 0. -1.
         11   -1    0    0    0    0 -0.00000000000E+00 -0.00000000000E+00 -0.45593999997E+02  0.45594000000E+02  0.51100000000E-03 0.  1.
    9900012    2    1    2    0    0  0.38043552387E+02  0.84206470292E+01 -0.19115591132E+02  0.47787251170E+02  0.19999909385E+02 0.  0.
         12    1    1    2    0    0 -0.38043552387E+02 -0.84206470292E+01  0.19115591132E+02  0.43400748830E+02  0.00000000000E+00 0. -1.
         11    1    3    3    0    0  0.29881710966E+01 -0.27620872592E+01  0.25482297257E+01  0.48012256275E+01  0.51100000000E-03 0. -1.
        -11    1    3    3    0    0  0.14740158613E+02  0.24439986176E+01 -0.74355119272E+01  0.16689285277E+02  0.51100000000E-03 0.  1.
         12    1    3    3    0    0  0.20315222678E+02  0.87387356707E+01 -0.14228308931E+02  0.26296740266E+02  0.00000000000E+00 0. -1.
</event>
<event>
 7    1  0.1384886E-010  0.4778727E+02  0.7816164E-02  0.1312668E+00
        -11   -1    0    0    0    0  0.00000000000E+00  0.00000000000E+00  0.45593999997E+02  0.45594000000E+02  0.51100000000E-03 0. -1.
         11   -1    0    0    0    0 -0.00000000000E+00 -0.00000000000E+00 -0.45593999997E+02  0.45594000000E+02  0.51100000000E-03 0.  1.
    9900012    2    1    2    0    0 -0.39955818052E+02  0.16225743899E+02  0.48868277237E+01  0.47787271360E+02  0.20000001441E+02 0.  0.
         12    1    1    2    0    0  0.39955818052E+02 -0.16225743899E+02 -0.48868277237E+01  0.43400728640E+02  0.00000000000E+00 0. -1.
         11    1    3    3    0    0 -0.48114811384E+01  0.50733362355E+01  0.48642669757E+00  0.70089729987E+01  0.51100000000E-03 0. -1.
        -11    1    3    3    0    0 -0.46923129816E+01  0.88166100397E+01  0.67210106197E+00  0.10010101588E+02  0.51100000000E-03 0.  1.
         12    1    3    3    0    0 -0.30452023932E+02  0.23357976235E+01  0.37282999641E+01  0.30768196773E+02  0.00000000000E+00 0. -1.
</event>
<event>
 7    1  0.1384886E-010  0.4778727E+02  0.7816164E-02  0.1312668E+00
        -11   -1    0    0    0    0  0.00000000000E+00  0.00000000000E+00  0.45593999997E+02  0.45594000000E+02  0.51100000000E-03 0.  1.
         11   -1    0    0    0    0 -0.00000000000E+00 -0.00000000000E+00 -0.45593999997E+02  0.45594000000E+02  0.51100000000E-03 0. -1.
    9900012    2    1    2    0    0  0.47748544810E+01 -0.40974163709E+02 -0.13488597049E+02  0.47787267548E+02  0.19999984060E+02 0.  0.
         12    1    1    2    0    0 -0.47748544810E+01  0.40974163709E+02  0.13488597049E+02  0.43400732452E+02  0.00000000000E+00 0. -1.
         11    1    3    3    0    0  0.43812887584E+00 -0.62000478281E+01 -0.44168333188E+01  0.76250224137E+01  0.51100000000E-03 0.  1.
        -11    1    3    3    0    0 -0.35757658491E+01 -0.24650475617E+02 -0.10890522355E+02  0.27185207870E+02  0.51100000000E-03 0. -1.
         12    1    3    3    0    0  0.79124914543E+01 -0.10123640265E+02  0.18187586247E+01  0.12977037264E+02  0.00000000000E+00 0. -1.
</event>
<event>
 7    1  0.1384886E-010  0.4778727E+02  0.7816164E-02  0.1312668E+00
        -11   -1    0    0    0    0  0.00000000000E+00  0.00000000000E+00  0.45593999997E+02  0.45594000000E+02  0.51100000000E-03 0. -1.
         11   -1    0    0    0    0 -0.00000000000E+00 -0.00000000000E+00 -0.45593999997E+02  0.45594000000E+02  0.51100000000E-03 0.  1.
    9900012    2    1    2    0    0  0.11587521087E+02  0.20541336794E+02 -0.36433586135E+02  0.47787270042E+02  0.19999995430E+02 0.  0.
         12    1    1    2    0    0 -0.11587521087E+02 -0.20541336794E+02  0.36433586135E+02  0.43400729958E+02  0.00000000000E+00 0. -1.
         11    1    3    3    0    0  0.46640929232E+01  0.19547469953E+01 -0.48615664194E+00  0.50804672181E+01  0.51100000000E-03 0. -1.
        -11    1    3    3    0    0  0.43904986285E+01  0.23650341050E+00 -0.88613516816E+01  0.98922174438E+01  0.51100000000E-03 0.  1.
         12    1    3    3    0    0  0.25329295355E+01  0.18350086388E+02 -0.27086077811E+02  0.32814585380E+02  0.00000000000E+00 0. -1.
</event>
<event>
 7    1  0.1384886E-010  0.4778732E+02  0.7816164E-02  0.1312668E+00
        -11   -1    0    0    0    0  0.00000000000E+00  0.00000000000E+00  0.45593999997E+02  0.45594000000E+02  0.51100000000E-03 0.  1.
         11   -1    0    0    0    0 -0.00000000000E+00 -0.00000000000E+00 -0.45593999997E+02  0.45594000000E+02  0.51100000000E-03 0. -1.
    9900012    2    1    2    0    0  0.30905212121E+02  0.38583186292E+01  0.30225822698E+02  0.47787318938E+02  0.20000218364E+02 0.  0.
         12    1    1    2    0    0 -0.30905212121E+02 -0.38583186292E+01 -0.30225822698E+02  0.43400681062E+02  0.00000000000E+00 0. -1.
         11    1    3    3    0    0  0.83523337298E+00 -0.97136558961E+00  0.29959409354E+01  0.32583474716E+01  0.51100000000E-03 0. -1.
        -11    1    3    3    0    0  0.15436925629E+02 -0.62401664698E+01  0.10404388255E+02  0.19633890233E+02  0.51100000000E-03 0.  1.
        -12    1    3    3    0    0  0.14633053119E+02  0.11069850689E+02  0.16825493507E+02  0.24895081233E+02  0.00000000000E+00 0.  1.
</event>
<event>
 7    1  0.1384886E-010  0.4778727E+02  0.7816164E-02  0.1312668E+00
        -11   -1    0    0    0    0  0.00000000000E+00  0.00000000000E+00  0.45593999997E+02  0.45594000000E+02  0.51100000000E-03 0.  1.
         11   -1    0    0    0    0 -0.00000000000E+00 -0.00000000000E+00 -0.45593999997E+02  0.45594000000E+02  0.51100000000E-03 0. -1.
    9900012    2    1    2    0    0 -0.65240966875E+00  0.94157017451E+01  0.42362039885E+02  0.47787268429E+02  0.19999988073E+02 0.  0.
         12    1    1    2    0    0  0.65240966875E+00 -0.94157017451E+01 -0.42362039885E+02  0.43400731571E+02  0.00000000000E+00 0. -1.
         11    1    3    3    0    0 -0.40023462993E+01 -0.30698369940E+01  0.13784200227E+02  0.14678107890E+02  0.51100000000E-03 0. -1.
        -11    1    3    3    0    0 -0.28866273233E+01  0.69665974451E+01  0.84446725522E+01  0.11321598476E+02  0.51100000000E-03 0.  1.
         12    1    3    3    0    0  0.62365639538E+01  0.55189412940E+01  0.20133167105E+02  0.21787562063E+02  0.00000000000E+00 0. -1.
</event>
<event>
 7    1  0.1384886E-010  0.4778727E+02  0.7816164E-02  0.1312668E+00
        -11   -1    0    0    0    0  0.00000000000E+00  0.00000000000E+00  0.45593999997E+02  0.45594000000E+02  0.51100000000E-03 0.  1.
         11   -1    0    0    0    0 -0.00000000000E+00 -0.00000000000E+00 -0.45593999997E+02  0.45594000000E+02  0.51100000000E-03 0. -1.
    9900012    2    1    2    0    0 -0.21844209795E+02  0.35702283688E+02  0.11480468660E+02  0.47787265873E+02  0.19999976422E+02 0.  0.
         12    1    1    2    0    0  0.21844209795E+02 -0.35702283688E+02 -0.11480468660E+02  0.43400734127E+02  0.00000000000E+00 0. -1.
         11    1    3    3    0    0 -0.44702044446E+01  0.10259264036E+02  0.50768424363E+01  0.12288594538E+02  0.51100000000E-03 0.  1.
        -11    1    3    3    0    0 -0.19647211630E+02  0.20211645798E+02  0.19366088133E+01  0.28253743197E+02  0.51100000000E-03 0. -1.
         12    1    3    3    0    0  0.22732062789E+01  0.52313738536E+01  0.44670174104E+01  0.72449281382E+01  0.00000000000E+00 0. -1.
</event>
<event>
 7    1  0.1384886E-010  0.4778727E+02  0.7816164E-02  0.1312668E+00
        -11   -1    0    0    0    0  0.00000000000E+00  0.00000000000E+00  0.45593999997E+02  0.45594000000E+02  0.51100000000E-03 0. -1.
         11   -1    0    0    0    0 -0.00000000000E+00 -0.00000000000E+00 -0.45593999997E+02  0.45594000000E+02  0.51100000000E-03 0.  1.
    9900012    2    1    2    0    0 -0.27385828668E+02  0.31533111648E+02  0.11802654213E+02  0.47787269724E+02  0.19999993978E+02 0.  0.
         12    1    1    2    0    0  0.27385828668E+02 -0.31533111648E+02 -0.11802654213E+02  0.43400730276E+02  0.00000000000E+00 0. -1.
         11    1    3    3    0    0 -0.14585901345E+02  0.72468261413E+01  0.53880795965E+01  0.17155069489E+02  0.51100000000E-03 0. -1.
        -11    1    3    3    0    0 -0.10984707225E+02  0.14929612236E+02 -0.99164985940E+00  0.18561801745E+02  0.51100000000E-03 0.  1.
        -12    1    3    3    0    0 -0.18152200979E+01  0.93566732709E+01  0.74062244757E+01  0.12070398489E+02  0.00000000000E+00 0.  1.
</event>
<event>
 7    1  0.1384886E-010  0.4778727E+02  0.7816164E-02  0.1312668E+00
        -11   -1    0    0    0    0  0.00000000000E+00  0.00000000000E+00  0.45593999997E+02  0.45594000000E+02  0.51100000000E-03 0. -1.
         11   -1    0    0    0    0 -0.00000000000E+00 -0.00000000000E+00 -0.45593999997E+02  0.45594000000E+02  0.51100000000E-03 0.  1.
    9900012    2    1    2    0    0 -0.18096199930E+02  0.26653929818E+02  0.29081247751E+02  0.47787269621E+02  0.19999993512E+02 0.  0.
         12    1    1    2    0    0  0.18096199930E+02 -0.26653929818E+02 -0.29081247751E+02  0.43400730379E+02  0.00000000000E+00 0. -1.
         11    1    3    3    0    0 -0.56972116715E+01  0.31656470947E+01  0.30354975821E+01  0.71898392325E+01  0.51100000000E-03 0. -1.
        -11    1    3    3    0    0 -0.12263892218E+02  0.87663179733E+01  0.72658719733E+01  0.16734523565E+02  0.51100000000E-03 0.  1.
         12    1    3    3    0    0 -0.13509603961E+00  0.14721964750E+02  0.18779878195E+02  0.23862906824E+02  0.00000000000E+00 0. -1.
</event>
<event>
 7    1  0.1384886E-010  0.4778727E+02  0.7816164E-02  0.1312668E+00
        -11   -1    0    0    0    0  0.00000000000E+00  0.00000000000E+00  0.45593999997E+02  0.45594000000E+02  0.51100000000E-03 0.  1.
         11   -1    0    0    0    0 -0.00000000000E+00 -0.00000000000E+00 -0.45593999997E+02  0.45594000000E+02  0.51100000000E-03 0. -1.
    9900012    2    1    2    0    0 -0.36261069610E+02 -0.22477705395E+02  0.79693768632E+01  0.47787269860E+02  0.19999994600E+02 0.  0.
         12    1    1    2    0    0  0.36261069610E+02  0.22477705395E+02 -0.79693768632E+01  0.43400730140E+02  0.00000000000E+00 0. -1.
         11    1    3    3    0    0 -0.27818317398E+02 -0.23540662084E+02  0.36559531555E+01  0.36624957992E+02  0.51100000000E-03 0. -1.
        -11    1    3    3    0    0 -0.75188233882E+01 -0.11466672941E+01  0.43600502036E+01  0.87668460159E+01  0.51100000000E-03 0.  1.
        -12    1    3    3    0    0 -0.92392882358E+00  0.22096239829E+01 -0.46626495987E-01  0.23954658518E+01  0.00000000000E+00 0.  1.
</event>
<event>
 7    1  0.1384886E-010  0.4778727E+02  0.7816164E-02  0.1312668E+00
        -11   -1    0    0    0    0  0.00000000000E+00  0.00000000000E+00  0.45593999997E+02  0.45594000000E+02  0.51100000000E-03 0.  1.
         11   -1    0    0    0    0 -0.00000000000E+00 -0.00000000000E+00 -0.45593999997E+02  0.45594000000E+02  0.51100000000E-03 0. -1.
    9900012    2    1    2    0    0  0.12574555591E+02  0.38292534359E+02  0.16099235882E+02  0.47787273832E+02  0.20000012708E+02 0.  0.
         12    1    1    2    0    0 -0.12574555591E+02 -0.38292534359E+02 -0.16099235882E+02  0.43400726168E+02  0.00000000000E+00 0. -1.
         11    1    3    3    0    0  0.37513456337E+01  0.20320505510E+02  0.70102617331E+01  0.21820616583E+02  0.51100000000E-03 0.  1.
        -11    1    3    3    0    0  0.77815354276E+01  0.16920243557E+01  0.22269624474E+01  0.82688936402E+01  0.51100000000E-03 0. -1.
         12    1    3    3    0    0  0.10416745297E+01  0.16280004494E+02  0.68620117020E+01  0.17697763608E+02  0.00000000000E+00 0. -1.
</event>
<event>
 7    1  0.1384886E-010  0.4778727E+02  0.7816164E-02  0.1312668E+00
        -11   -1    0    0    0    0  0.00000000000E+00  0.00000000000E+00  0.45593999997E+02  0.45594000000E+02  0.51100000000E-03 0.  1.
         11   -1    0    0    0    0 -0.00000000000E+00 -0.00000000000E+00 -0.45593999997E+02  0.45594000000E+02  0.51100000000E-03 0. -1.
    9900012    2    1    2    0    0 -0.21086403931E+02  0.17820096048E+02  0.33487773941E+02  0.47787271234E+02  0.20000000863E+02 0.  0.
         12    1    1    2    0    0  0.21086403931E+02 -0.17820096048E+02 -0.33487773941E+02  0.43400728766E+02  0.00000000000E+00 0. -1.
         11    1    3    3    0    0 -0.32918732927E+00 -0.15339213160E+01 -0.17503652419E+01  0.23505441163E+01  0.51100000000E-03 0. -1.
        -11    1    3    3    0    0 -0.97886520888E+01  0.85996017655E+01  0.19430424596E+02  0.23394705822E+02  0.51100000000E-03 0.  1.
         12    1    3    3    0    0 -0.10968564513E+02  0.10754415599E+02  0.15807714587E+02  0.22042021296E+02  0.00000000000E+00 0. -1.
</event>
<event>
 7    1  0.1384886E-010  0.4778727E+02  0.7816164E-02  0.1312668E+00
        -11   -1    0    0    0    0  0.00000000000E+00  0.00000000000E+00  0.45593999997E+02  0.45594000000E+02  0.51100000000E-03 0.  1.
         11   -1    0    0    0    0 -0.00000000000E+00 -0.00000000000E+00 -0.45593999997E+02  0.45594000000E+02  0.51100000000E-03 0. -1.
    9900012    2    1    2    0    0 -0.18834690979E+02 -0.10357101671E+02  0.37704219024E+02  0.47787271072E+02  0.20000000127E+02 0.  0.
         12    1    1    2    0    0  0.18834690979E+02  0.10357101671E+02 -0.37704219024E+02  0.43400728928E+02  0.00000000000E+00 0. -1.
         11    1    3    3    0    0 -0.93808383252E+01 -0.86870152788E+01  0.25527827279E+02  0.28550557402E+02  0.51100000000E-03 0. -1.
        -11    1    3    3    0    0 -0.11675598412E+02 -0.39119059681E+00  0.11870867959E+02  0.16655033315E+02  0.51100000000E-03 0.  1.
         12    1    3    3    0    0  0.22217457586E+01 -0.12788957949E+01  0.30552378574E+00  0.25816803547E+01  0.00000000000E+00 0. -1.
</event>
<event>
 7    1  0.1384886E-010  0.4778727E+02  0.7816164E-02  0.1312668E+00
        -11   -1    0    0    0    0  0.00000000000E+00  0.00000000000E+00  0.45593999997E+02  0.45594000000E+02  0.51100000000E-03 0. -1.
         11   -1    0    0    0    0 -0.00000000000E+00 -0.00000000000E+00 -0.45593999997E+02  0.45594000000E+02  0.51100000000E-03 0.  1.
    9900012    2    1    2    0    0  0.11394384822E+02  0.25857651517E+02 -0.32941969733E+02  0.47787268239E+02  0.19999987210E+02 0.  0.
         12    1    1    2    0    0 -0.11394384822E+02 -0.25857651517E+02  0.32941969733E+02  0.43400731761E+02  0.00000000000E+00 0. -1.
         11    1    3    3    0    0  0.94917677569E+01  0.72902384940E+01 -0.15357374982E+02  0.19470238803E+02  0.51100000000E-03 0. -1.
        -11    1    3    3    0    0  0.55389555623E+01  0.15481992135E+02 -0.96670261812E+01  0.19074158033E+02  0.51100000000E-03 0.  1.
         12    1    3    3    0    0 -0.36363384972E+01  0.30854208881E+01 -0.79175685705E+01  0.92428714040E+01  0.00000000000E+00 0. -1.
</event>
<event>
 7    1  0.1384886E-010  0.4778728E+02  0.7816164E-02  0.1312668E+00
        -11   -1    0    0    0    0  0.00000000000E+00  0.00000000000E+00  0.45593999997E+02  0.45594000000E+02  0.51100000000E-03 0.  1.
         11   -1    0    0    0    0 -0.00000000000E+00 -0.00000000000E+00 -0.45593999997E+02  0.45594000000E+02  0.51100000000E-03 0. -1.
    9900012    2    1    2    0    0 -0.11266842812E+01 -0.19342050620E+02  0.38836047334E+02  0.47787275212E+02  0.20000019000E+02 0.  0.
         12    1    1    2    0    0  0.11266842812E+01  0.19342050620E+02 -0.38836047334E+02  0.43400724788E+02  0.00000000000E+00 0. -1.
         11    1    3    3    0    0  0.69148165237E+01 -0.81200754969E+01  0.19461621447E+02  0.22192454196E+02  0.51100000000E-03 0. -1.
        -11    1    3    3    0    0 -0.25620221186E+01  0.63686745160E+00  0.57459544992E+00  0.27017989709E+01  0.51100000000E-03 0.  1.
        -12    1    3    3    0    0 -0.54794786863E+01 -0.11858842575E+02  0.18799830436E+02  0.22893022044E+02  0.00000000000E+00 0.  1.
</event>
<event>
 7    1  0.1384886E-010  0.4778726E+02  0.7816164E-02  0.1312668E+00
        -11   -1    0    0    0    0  0.00000000000E+00  0.00000000000E+00  0.45593999997E+02  0.45594000000E+02  0.51100000000E-03 0. -1.
         11   -1    0    0    0    0 -0.00000000000E+00 -0.00000000000E+00 -0.45593999997E+02  0.45594000000E+02  0.51100000000E-03 0.  1.
    9900012    2    1    2    0    0  0.86745561632E+01  0.42439936709E+02  0.26885543092E+01  0.47787257187E+02  0.19999936818E+02 0.  0.
         12    1    1    2    0    0 -0.86745561632E+01 -0.42439936709E+02 -0.26885543092E+01  0.43400742813E+02  0.00000000000E+00 0. -1.
         11    1    3    3    0    0 -0.20693176947E+01  0.48993400939E+01  0.58014799642E+00  0.53499701903E+01  0.51100000000E-03 0.  1.
        -11    1    3    3    0    0  0.10507463825E+02  0.13556029988E+02 -0.41543562893E+01  0.17647419684E+02  0.51100000000E-03 0. -1.
         12    1    3    3    0    0  0.23641003326E+00  0.23984566627E+02  0.62627626021E+01  0.24789867313E+02  0.00000000000E+00 0. -1.
</event>
<event>
 7    1  0.1384886E-010  0.4778727E+02  0.7816164E-02  0.1312668E+00
        -11   -1    0    0    0    0  0.00000000000E+00  0.00000000000E+00  0.45593999997E+02  0.45594000000E+02  0.51100000000E-03 0.  1.
         11   -1    0    0    0    0 -0.00000000000E+00 -0.00000000000E+00 -0.45593999997E+02  0.45594000000E+02  0.51100000000E-03 0. -1.
    9900012    2    1    2    0    0  0.21565769059E+02  0.37475710444E+02  0.37565583989E+01  0.47787274207E+02  0.20000014418E+02 0.  0.
         12    1    1    2    0    0 -0.21565769059E+02 -0.37475710444E+02 -0.37565583989E+01  0.43400725793E+02  0.00000000000E+00 0. -1.
         11    1    3    3    0    0  0.12461773577E+02  0.19601484348E+02  0.13569910526E+01  0.23267045672E+02  0.51100000000E-03 0. -1.
        -11    1    3    3    0    0  0.55691050877E+01  0.10701027715E+01 -0.31332577469E+01  0.64789934241E+01  0.51100000000E-03 0.  1.
         12    1    3    3    0    0  0.35348903948E+01  0.16804123324E+02  0.55328250932E+01  0.18041235111E+02  0.00000000000E+00 0. -1.
</event>
<event>
 7    1  0.1384886E-010  0.4778728E+02  0.7816164E-02  0.1312668E+00
        -11   -1    0    0    0    0  0.00000000000E+00  0.00000000000E+00  0.45593999997E+02  0.45594000000E+02  0.51100000000E-03 0.  1.
         11   -1    0    0    0    0 -0.00000000000E+00 -0.00000000000E+00 -0.45593999997E+02  0.45594000000E+02  0.51100000000E-03 0. -1.
    9900012    2    1    2    0    0  0.29790791585E+02  0.18001851211E+02  0.25924201417E+02  0.47787284229E+02  0.20000060115E+02 0.  0.
         12    1    1    2    0    0 -0.29790791585E+02 -0.18001851211E+02 -0.25924201417E+02  0.43400715771E+02  0.00000000000E+00 0. -1.
         11    1    3    3    0    0  0.18706341083E+02  0.19084580260E+02  0.14643616443E+02  0.30472674697E+02  0.51100000000E-03 0. -1.
        -11    1    3    3    0    0 -0.84391706939E+00 -0.83339232054E+00  0.12977710855E+01  0.17581094481E+01  0.51100000000E-03 0.  1.
        -12    1    3    3    0    0  0.11928367572E+02 -0.24933672885E+00  0.99828138881E+01  0.15556500084E+02  0.00000000000E+00 0.  1.
</event>
<event>
 7    1  0.1384886E-010  0.4778727E+02  0.7816164E-02  0.1312668E+00
        -11   -1    0    0    0    0  0.00000000000E+00  0.00000000000E+00  0.45593999997E+02  0.45594000000E+02  0.51100000000E-03 0.  1.
         11   -1    0    0    0    0 -0.00000000000E+00 -0.00000000000E+00 -0.45593999997E+02  0.45594000000E+02  0.51100000000E-03 0. -1.
    9900012    2    1    2    0    0 -0.38770164648E+02 -0.29368225134E+01  0.19283998787E+02  0.47787271866E+02  0.20000003747E+02 0.  0.
         12    1    1    2    0    0  0.38770164648E+02  0.29368225134E+01 -0.19283998787E+02  0.43400728134E+02  0.00000000000E+00 0. -1.
         11    1    3    3    0    0 -0.11824169618E+02 -0.48633592067E+01  0.62396957809E+01  0.14226631844E+02  0.51100000000E-03 0. -1.
        -11    1    3    3    0    0 -0.27286475041E+02 -0.11656799109E+01  0.13414229681E+02  0.30427817667E+02  0.51100000000E-03 0.  1.
         12    1    3    3    0    0  0.34048001016E+00  0.30922166042E+01 -0.36992667473E+00  0.31328223552E+01  0.00000000000E+00 0. -1.
</event>
<event>
 7    1  0.1384886E-010  0.4778727E+02  0.7816164E-02  0.1312668E+00
        -11   -1    0    0    0    0  0.00000000000E+00  0.00000000000E+00  0.45593999997E+02  0.45594000000E+02  0.51100000000E-03 0.  1.
         11   -1    0    0    0    0 -0.00000000000E+00 -0.00000000000E+00 -0.45593999997E+02  0.45594000000E+02  0.51100000000E-03 0. -1.
    9900012    2    1    2    0    0 -0.19806683936E+02 -0.15449259794E+02  0.35392638089E+02  0.47787272038E+02  0.20000004530E+02 0.  0.
         12    1    1    2    0    0  0.19806683936E+02  0.15449259794E+02 -0.35392638089E+02  0.43400727962E+02  0.00000000000E+00 0. -1.
         11    1    3    3    0    0  0.88204547187E+00 -0.75523257228E+01  0.85173148727E+01  0.11417542684E+02  0.51100000000E-03 0. -1.
        -11    1    3    3    0    0 -0.11093559349E+02 -0.57625829239E+01  0.73291216981E+01  0.14491047102E+02  0.51100000000E-03 0.  1.
        -12    1    3    3    0    0 -0.95951700588E+01 -0.21343511473E+01  0.19546201518E+02  0.21878682252E+02  0.00000000000E+00 0.  1.
</event>
<event>
 7    1  0.1384886E-010  0.4778727E+02  0.7816164E-02  0.1312668E+00
        -11   -1    0    0    0    0  0.00000000000E+00  0.00000000000E+00  0.45593999997E+02  0.45594000000E+02  0.51100000000E-03 0. -1.
         11   -1    0    0    0    0 -0.00000000000E+00 -0.00000000000E+00 -0.45593999997E+02  0.45594000000E+02  0.51100000000E-03 0.  1.
    9900012    2    1    2    0    0 -0.35550374875E+02 -0.97232242976E+01 -0.22918394813E+02  0.47787273447E+02  0.20000010953E+02 0.  0.
         12    1    1    2    0    0  0.35550374875E+02  0.97232242976E+01  0.22918394813E+02  0.43400726553E+02  0.00000000000E+00 0. -1.
         11    1    3    3    0    0 -0.72865108143E+00  0.39269663813E+01 -0.18467973747E+01  0.44003020535E+01  0.51100000000E-03 0. -1.
        -11    1    3    3    0    0 -0.12836144226E+02 -0.32664702019E+01 -0.10369664936E+02  0.16821604481E+02  0.51100000000E-03 0.  1.
         12    1    3    3    0    0 -0.21985579568E+02 -0.10383720477E+02 -0.10701932502E+02  0.26565366912E+02  0.00000000000E+00 0. -1.
</event>
<event>
 7    1  0.1384886E-010  0.4778721E+02  0.7816164E-02  0.1312668E+00
        -11   -1    0    0    0    0  0.00000000000E+00  0.00000000000E+00  0.45593999997E+02  0.45594000000E+02  0.51100000000E-03 0.  1.
         11   -1    0    0    0    0 -0.00000000000E+00 -0.00000000000E+00 -0.45593999997E+02  0.45594000000E+02  0.51100000000E-03 0. -1.
    9900012    2    1    2    0    0 -0.21041983615E+02  0.65793046889E+01  0.37384174154E+02  0.47787207360E+02  0.19999709635E+02 0.  0.
         12    1    1    2    0    0  0.21041983615E+02 -0.65793046889E+01 -0.37384174154E+02  0.43400792640E+02  0.00000000000E+00 0. -1.
         11    1    3    3    0    0 -0.10683339927E+01 -0.42699994335E+01  0.36214996091E+01  0.56999554702E+01  0.51100000000E-03 0. -1.
        -11    1    3    3    0    0 -0.48738490800E+01  0.45186523242E+01  0.18675321275E+02  0.19822720516E+02  0.51100000000E-03 0.  1.
         12    1    3    3    0    0 -0.15099800542E+02  0.63306517982E+01  0.15087353270E+02  0.22264531374E+02  0.00000000000E+00 0. -1.
</event>
<event>
 7    1  0.1384886E-010  0.4778727E+02  0.7816164E-02  0.1312668E+00
        -11   -1    0    0    0    0  0.00000000000E+00  0.00000000000E+00  0.45593999997E+02  0.45594000000E+02  0.51100000000E-03 0.  1.
         11   -1    0    0    0    0 -0.00000000000E+00 -0.00000000000E+00 -0.45593999997E+02  0.45594000000E+02  0.51100000000E-03 0. -1.
    9900012    2    1    2    0    0 -0.43598054244E+01 -0.28757928362E+01  0.43085322102E+02  0.47787273411E+02  0.20000010791E+02 0.  0.
         12    1    1    2    0    0  0.43598054244E+01  0.28757928362E+01 -0.43085322102E+02  0.43400726589E+02  0.00000000000E+00 0. -1.
         11    1    3    3    0    0  0.48061674388E+01  0.13260348044E+01  0.53748372258E+01  0.73311997120E+01  0.51100000000E-03 0. -1.
        -11    1    3    3    0    0 -0.12525485729E+01 -0.58454873245E+01  0.21876060593E+02  0.22678197180E+02  0.51100000000E-03 0.  1.
        -12    1    3    3    0    0 -0.79134242904E+01  0.16436596839E+01  0.15834424284E+02  0.17777876520E+02  0.00000000000E+00 0.  1.
</event>
<event>
 7    1  0.1384886E-010  0.4778727E+02  0.7816164E-02  0.1312668E+00
        -11   -1    0    0    0    0  0.00000000000E+00  0.00000000000E+00  0.45593999997E+02  0.45594000000E+02  0.51100000000E-03 0. -1.
         11   -1    0    0    0    0 -0.00000000000E+00 -0.00000000000E+00 -0.45593999997E+02  0.45594000000E+02  0.51100000000E-03 0.  1.
    9900012    2    1    2    0    0 -0.22758907820E+02 -0.35459471480E+02 -0.10405827311E+02  0.47787271379E+02  0.20000001525E+02 0.  0.
         12    1    1    2    0    0  0.22758907820E+02  0.35459471480E+02  0.10405827311E+02  0.43400728621E+02  0.00000000000E+00 0. -1.
         11    1    3    3    0    0 -0.92354525758E+01 -0.18527495523E+02 -0.10675612767E+02  0.23292281615E+02  0.51100000000E-03 0.  1.
        -11    1    3    3    0    0 -0.27567568899E+01  0.14258651217E+01 -0.73342692283E+00  0.31891558770E+01  0.51100000000E-03 0. -1.
         12    1    3    3    0    0 -0.10766698355E+02 -0.18357841079E+02  0.10032123783E+01  0.21305833886E+02  0.00000000000E+00 0. -1.
</event>
<event>
 7    1  0.1384886E-010  0.4778728E+02  0.7816164E-02  0.1312668E+00
        -11   -1    0    0    0    0  0.00000000000E+00  0.00000000000E+00  0.45593999997E+02  0.45594000000E+02  0.51100000000E-03 0. -1.
         11   -1    0    0    0    0 -0.00000000000E+00 -0.00000000000E+00 -0.45593999997E+02  0.45594000000E+02  0.51100000000E-03 0.  1.
    9900012    2    1    2    0    0 -0.12446609491E+02 -0.13957582985E+02 -0.39164914319E+02  0.47787277377E+02  0.20000028873E+02 0.  0.
         12    1    1    2    0    0  0.12446609491E+02  0.13957582985E+02  0.39164914319E+02  0.43400722623E+02  0.00000000000E+00 0. -1.
         11    1    3    3    0    0 -0.58138489152E+00 -0.91559821207E+01 -0.50154321284E+01  0.10455839358E+02  0.51100000000E-03 0. -1.
        -11    1    3    3    0    0 -0.64915880103E+01 -0.66385541772E+01 -0.23383445416E+02  0.25159424402E+02  0.51100000000E-03 0.  1.
        -12    1    3    3    0    0 -0.53736365887E+01  0.18369533125E+01 -0.10766036774E+02  0.12172013617E+02  0.00000000000E+00 0.  1.
</event>
<event>
 7    1  0.1384886E-010  0.4778727E+02  0.7816164E-02  0.1312668E+00
        -11   -1    0    0    0    0  0.00000000000E+00  0.00000000000E+00  0.45593999997E+02  0.45594000000E+02  0.51100000000E-03 0.  1.
         11   -1    0    0    0    0 -0.00000000000E+00 -0.00000000000E+00 -0.45593999997E+02  0.45594000000E+02  0.51100000000E-03 0. -1.
    9900012    2    1    2    0    0  0.84544639303E+01  0.11749264934E+02  0.40915766521E+02  0.47787272623E+02  0.20000007197E+02 0.  0.
         12    1    1    2    0    0 -0.84544639303E+01 -0.11749264934E+02 -0.40915766521E+02  0.43400727377E+02  0.00000000000E+00 0. -1.
         11    1    3    3    0    0  0.45868524955E+01  0.58833433353E+01  0.26156838649E+01  0.79053619119E+01  0.51100000000E-03 0. -1.
        -11    1    3    3    0    0  0.63891232042E+01  0.24612294332E+01  0.22045536376E+02  0.23084285131E+02  0.51100000000E-03 0.  1.
        -12    1    3    3    0    0 -0.25215117695E+01  0.34046921653E+01  0.16254546280E+02  0.16797625580E+02  0.00000000000E+00 0.  1.
</event>
<event>
 7    1  0.1384886E-010  0.4778728E+02  0.7816164E-02  0.1312668E+00
        -11   -1    0    0    0    0  0.00000000000E+00  0.00000000000E+00  0.45593999997E+02  0.45594000000E+02  0.51100000000E-03 0.  1.
         11   -1    0    0    0    0 -0.00000000000E+00 -0.00000000000E+00 -0.45593999997E+02  0.45594000000E+02  0.51100000000E-03 0. -1.
    9900012    2    1    2    0    0  0.15201496783E+02  0.81309636542E+01  0.39829947731E+02  0.47787276382E+02  0.20000024334E+02 0.  0.
         12    1    1    2    0    0 -0.15201496783E+02 -0.81309636542E+01 -0.39829947731E+02  0.43400723618E+02  0.00000000000E+00 0. -1.
         11    1    3    3    0    0 -0.10198928819E+01  0.38099150039E+01  0.47291394542E+01  0.61579537239E+01  0.51100000000E-03 0. -1.
        -11    1    3    3    0    0  0.14427502692E+02  0.78891297331E+01  0.33516456717E+02  0.37332881928E+02  0.51100000000E-03 0.  1.
         12    1    3    3    0    0  0.17938869722E+01 -0.35680810829E+01  0.15843515590E+01  0.42964407299E+01  0.00000000000E+00 0. -1.
</event>
<event>
 7    1  0.1384886E-010  0.4778727E+02  0.7816164E-02  0.1312668E+00
        -11   -1    0    0    0    0  0.00000000000E+00  0.00000000000E+00  0.45593999997E+02  0.45594000000E+02  0.51100000000E-03 0.  1.
         11   -1    0    0    0    0 -0.00000000000E+00 -0.00000000000E+00 -0.45593999997E+02  0.45594000000E+02  0.51100000000E-03 0. -1.
    9900012    2    1    2    0    0  0.14218601190E+02 -0.36477442401E+02  0.18731012110E+02  0.47787271451E+02  0.20000001855E+02 0.  0.
         12    1    1    2    0    0 -0.14218601190E+02  0.36477442401E+02 -0.18731012110E+02  0.43400728549E+02  0.00000000000E+00 0. -1.
         11    1    3    3    0    0  0.48718158739E+01 -0.60791367210E+01  0.10707784069E+02  0.13241870453E+02  0.51100000000E-03 0.  1.
        -11    1    3    3    0    0 -0.23325241021E+00  0.37566116771E+00 -0.98488335598E+00  0.10795941301E+01  0.51100000000E-03 0. -1.
        -12    1    3    3    0    0  0.95800377265E+01 -0.30773966847E+02  0.90081113972E+01  0.33465806868E+02  0.00000000000E+00 0.  1.
</event>
<event>
 7    1  0.1384886E-010  0.4778727E+02  0.7816164E-02  0.1312668E+00
        -11   -1    0    0    0    0  0.00000000000E+00  0.00000000000E+00  0.45593999997E+02  0.45594000000E+02  0.51100000000E-03 0.  1.
         11   -1    0    0    0    0 -0.00000000000E+00 -0.00000000000E+00 -0.45593999997E+02  0.45594000000E+02  0.51100000000E-03 0. -1.
    9900012    2    1    2    0    0 -0.33268415182E+02  0.12515861436E+02  0.24903595911E+02  0.47787270450E+02  0.19999997290E+02 0.  0.
         12    1    1    2    0    0  0.33268415182E+02 -0.12515861436E+02 -0.24903595911E+02  0.43400729550E+02  0.00000000000E+00 0. -1.
         11    1    3    3    0    0 -0.11646764553E+02  0.43310075107E+01  0.93957828156E+01  0.15578365947E+02  0.51100000000E-03 0. -1.
        -11    1    3    3    0    0 -0.36904557785E+01  0.82779767513E+01  0.98974418650E+01  0.13420272675E+02  0.51100000000E-03 0.  1.
         12    1    3    3    0    0 -0.17931194850E+02 -0.93122825918E-01  0.56103712300E+01  0.18788631827E+02  0.00000000000E+00 0. -1.
</event>
<event>
 7    1  0.1384886E-010  0.4778727E+02  0.7816164E-02  0.1312668E+00
        -11   -1    0    0    0    0  0.00000000000E+00  0.00000000000E+00  0.45593999997E+02  0.45594000000E+02  0.51100000000E-03 0.  1.
         11   -1    0    0    0    0 -0.00000000000E+00 -0.00000000000E+00 -0.45593999997E+02  0.45594000000E+02  0.51100000000E-03 0. -1.
    9900012    2    1    2    0    0  0.29519611115E+02  0.19529339191E+02  0.25116138676E+02  0.47787274757E+02  0.20000016928E+02 0.  0.
         12    1    1    2    0    0 -0.29519611115E+02 -0.19529339191E+02 -0.25116138676E+02  0.43400725243E+02  0.00000000000E+00 0. -1.
         11    1    3    3    0    0  0.84269469678E+01 -0.99859599759E+00  0.83093539451E+01  0.11876699559E+02  0.51100000000E-03 0. -1.
        -11    1    3    3    0    0  0.96902350985E+01  0.11974584088E+02  0.15072328223E+02  0.21551482517E+02  0.51100000000E-03 0.  1.
         12    1    3    3    0    0  0.11402429049E+02  0.85533511001E+01  0.17344565076E+01  0.14359092682E+02  0.00000000000E+00 0. -1.
</event>
<event>
 7    1  0.1384886E-010  0.4778728E+02  0.7816164E-02  0.1312668E+00
        -11   -1    0    0    0    0  0.00000000000E+00  0.00000000000E+00  0.45593999997E+02  0.45594000000E+02  0.51100000000E-03 0. -1.
         11   -1    0    0    0    0 -0.00000000000E+00 -0.00000000000E+00 -0.45593999997E+02  0.45594000000E+02  0.51100000000E-03 0.  1.
    9900012    2    1    2    0    0  0.22444336728E+02  0.25681035409E+02 -0.26839497061E+02  0.47787280728E+02  0.20000044151E+02 0.  0.
         12    1    1    2    0    0 -0.22444336728E+02 -0.25681035409E+02  0.26839497061E+02  0.43400719272E+02  0.00000000000E+00 0. -1.
         11    1    3    3    0    0  0.78054629179E+01  0.21670065846E+01 -0.10241936380E+02  0.13058270558E+02  0.51100000000E-03 0. -1.
        -11    1    3    3    0    0  0.51648693432E+01  0.19501784041E+02 -0.10107806832E+02  0.22564645252E+02  0.51100000000E-03 0.  1.
        -12    1    3    3    0    0  0.94740044668E+01  0.40122447833E+01 -0.64897538490E+01  0.12164364918E+02  0.00000000000E+00 0.  1.
</event>
<event>
 7    1  0.1384886E-010  0.4778725E+02  0.7816164E-02  0.1312668E+00
        -11   -1    0    0    0    0  0.00000000000E+00  0.00000000000E+00  0.45593999997E+02  0.45594000000E+02  0.51100000000E-03 0.  1.
         11   -1    0    0    0    0 -0.00000000000E+00 -0.00000000000E+00 -0.45593999997E+02  0.45594000000E+02  0.51100000000E-03 0. -1.
    9900012    2    1    2    0    0  0.13403851419E+02  0.28349391404E+02  0.30004560792E+02  0.47787252378E+02  0.19999914892E+02 0.  0.
         12    1    1    2    0    0 -0.13403851419E+02 -0.28349391404E+02 -0.30004560792E+02  0.43400747622E+02  0.00000000000E+00 0. -1.
         11    1    3    3    0    0 -0.93363039580E+00  0.21955826340E+01  0.60065711359E+01  0.64630601026E+01  0.51100000000E-03 0. -1.
        -11    1    3    3    0    0  0.15074288341E+02  0.26135641338E+02  0.25595032984E+02  0.39565283151E+02  0.51100000000E-03 0.  1.
        -12    1    3    3    0    0 -0.73680652649E+00  0.18167432389E-01 -0.15970433284E+01  0.17589091238E+01  0.00000000000E+00 0.  1.
</event>
<event>
 7    1  0.1384886E-010  0.4778727E+02  0.7816164E-02  0.1312668E+00
        -11   -1    0    0    0    0  0.00000000000E+00  0.00000000000E+00  0.45593999997E+02  0.45594000000E+02  0.51100000000E-03 0. -1.
         11   -1    0    0    0    0 -0.00000000000E+00 -0.00000000000E+00 -0.45593999997E+02  0.45594000000E+02  0.51100000000E-03 0.  1.
    9900012    2    1    2    0    0  0.88373929177E+01  0.57663000310E+01 -0.42098384049E+02  0.47787266491E+02  0.19999979238E+02 0.  0.
         12    1    1    2    0    0 -0.88373929177E+01 -0.57663000310E+01  0.42098384049E+02  0.43400733509E+02  0.00000000000E+00 0. -1.
         11    1    3    3    0    0  0.24049507217E+01  0.32221517801E+01 -0.38183381831E+01  0.55448856444E+01  0.51100000000E-03 0. -1.
        -11    1    3    3    0    0  0.81978096284E+01  0.80702496808E+01 -0.20098775277E+02  0.23158017629E+02  0.51100000000E-03 0.  1.
         12    1    3    3    0    0 -0.17653674325E+01 -0.55261014299E+01 -0.18181270589E+02  0.19084363217E+02  0.00000000000E+00 0. -1.
</event>
<event>
 7    1  0.1384886E-010  0.4778727E+02  0.7816164E-02  0.1312668E+00
        -11   -1    0    0    0    0  0.00000000000E+00  0.00000000000E+00  0.45593999997E+02  0.45594000000E+02  0.51100000000E-03 0. -1.
         11   -1    0    0    0    0 -0.00000000000E+00 -0.00000000000E+00 -0.45593999997E+02  0.45594000000E+02  0.51100000000E-03 0.  1.
    9900012    2    1    2    0    0 -0.39528449854E+02  0.17906939538E+02 -0.68276670979E+00  0.47787274179E+02  0.20000014290E+02 0.  0.
         12    1    1    2    0    0  0.39528449854E+02 -0.17906939538E+02  0.68276670979E+00  0.43400725821E+02  0.00000000000E+00 0. -1.
         11    1    3    3    0    0 -0.11624668874E+02  0.27679790631E+01  0.61957696537E+01  0.13460393619E+02  0.51100000000E-03 0. -1.
        -11    1    3    3    0    0 -0.17351427080E+02  0.32095685628E+01 -0.46217614576E+01  0.18240998638E+02  0.51100000000E-03 0.  1.
        -12    1    3    3    0    0 -0.10552353899E+02  0.11929391912E+02 -0.22567749058E+01  0.16085881921E+02  0.00000000000E+00 0.  1.
</event>
<event>
 7    1  0.1384886E-010  0.4778727E+02  0.7816164E-02  0.1312668E+00
        -11   -1    0    0    0    0  0.00000000000E+00  0.00000000000E+00  0.45593999997E+02  0.45594000000E+02  0.51100000000E-03 0.  1.
         11   -1    0    0    0    0 -0.00000000000E+00 -0.00000000000E+00 -0.45593999997E+02  0.45594000000E+02  0.51100000000E-03 0. -1.
    9900012    2    1    2    0    0  0.12032096606E+02 -0.98063743691E+01  0.40530074694E+02  0.47787270954E+02  0.19999999587E+02 0.  0.
         12    1    1    2    0    0 -0.12032096606E+02  0.98063743691E+01 -0.40530074694E+02  0.43400729046E+02  0.00000000000E+00 0. -1.
         11    1    3    3    0    0 -0.27134239321E+01 -0.15556469261E+01  0.19804575537E+01  0.37020155560E+01  0.51100000000E-03 0. -1.
        -11    1    3    3    0    0  0.13984668840E+02 -0.68503536593E+01  0.19434321974E+02  0.24903637860E+02  0.51100000000E-03 0.  1.
         12    1    3    3    0    0  0.76085169819E+00 -0.14003737836E+01  0.19115295167E+02  0.19181617538E+02  0.00000000000E+00 0. -1.
</event>
<event>
 7    1  0.1384886E-010  0.4778727E+02  0.7816164E-02  0.1312668E+00
        -11   -1    0    0    0    0  0.00000000000E+00  0.00000000000E+00  0.45593999997E+02  0.45594000000E+02  0.51100000000E-03 0.  1.
         11   -1    0    0    0    0 -0.00000000000E+00 -0.00000000000E+00 -0.45593999997E+02  0.45594000000E+02  0.51100000000E-03 0. -1.
    9900012    2    1    2    0    0 -0.17721365879E+02  0.10039770758E+02  0.38324656917E+02  0.47787272664E+02  0.20000007383E+02 0.  0.
         12    1    1    2    0    0  0.17721365879E+02 -0.10039770758E+02 -0.38324656917E+02  0.43400727336E+02  0.00000000000E+00 0. -1.
         11    1    3    3    0    0 -0.90827933945E+01  0.13507010743E+01  0.21660621425E+02  0.23526666785E+02  0.51100000000E-03 0. -1.
        -11    1    3    3    0    0 -0.11035155156E+02  0.66782408684E+01  0.83193823489E+01  0.15348800388E+02  0.51100000000E-03 0.  1.
         12    1    3    3    0    0  0.23965826713E+01  0.20108288155E+01  0.83446531430E+01  0.89118054906E+01  0.00000000000E+00 0. -1.
</event>
<event>
 7    1  0.1384886E-010  0.4778727E+02  0.7816164E-02  0.1312668E+00
        -11   -1    0    0    0    0  0.00000000000E+00  0.00000000000E+00  0.45593999997E+02  0.45594000000E+02  0.51100000000E-03 0.  1.
         11   -1    0    0    0    0 -0.00000000000E+00 -0.00000000000E+00 -0.45593999997E+02  0.45594000000E+02  0.51100000000E-03 0. -1.
    9900012    2    1    2    0    0 -0.23238283136E+02  0.34027879774E+02  0.13627506383E+02  0.47787270338E+02  0.19999996777E+02 0.  0.
         12    1    1    2    0    0  0.23238283136E+02 -0.34027879774E+02 -0.13627506383E+02  0.43400729662E+02  0.00000000000E+00 0. -1.
         11    1    3    3    0    0 -0.14905845151E+02  0.11034072144E+02  0.45738032564E+01  0.19101168662E+02  0.51100000000E-03 0. -1.
        -11    1    3    3    0    0 -0.24390981428E+01  0.11727636726E+02  0.10448668222E+02  0.15895324180E+02  0.51100000000E-03 0.  1.
         12    1    3    3    0    0 -0.58933398414E+01  0.11266170904E+02 -0.13949650950E+01  0.12790777496E+02  0.00000000000E+00 0. -1.
</event>
<event>
 7    1  0.1384886E-010  0.4778727E+02  0.7816164E-02  0.1312668E+00
        -11   -1    0    0    0    0  0.00000000000E+00  0.00000000000E+00  0.45593999997E+02  0.45594000000E+02  0.51100000000E-03 0. -1.
         11   -1    0    0    0    0 -0.00000000000E+00 -0.00000000000E+00 -0.45593999997E+02  0.45594000000E+02  0.51100000000E-03 0.  1.
    9900012    2    1    2    0    0  0.27058141883E+02  0.61900910411E+01 -0.33364098011E+02  0.47787270682E+02  0.19999998346E+02 0.  0.
         12    1    1    2    0    0 -0.27058141883E+02 -0.61900910411E+01  0.33364098011E+02  0.43400729318E+02  0.00000000000E+00 0. -1.
         11    1    3    3    0    0  0.48696650006E+01 -0.59644870843E+00  0.64943865329E+00  0.49488543226E+01  0.51100000000E-03 0. -1.
        -11    1    3    3    0    0  0.55912539379E+01 -0.52040956642E+00 -0.18455224357E+01  0.59109136381E+01  0.51100000000E-03 0.  1.
         12    1    3    3    0    0  0.16597222945E+02  0.73069493160E+01 -0.32168014229E+02  0.36927502721E+02  0.00000000000E+00 0. -1.
</event>
<event>
 7    1  0.1384886E-010  0.4778727E+02  0.7816164E-02  0.1312668E+00
        -11   -1    0    0    0    0  0.00000000000E+00  0.00000000000E+00  0.45593999997E+02  0.45594000000E+02  0.51100000000E-03 0. -1.
         11   -1    0    0    0    0 -0.00000000000E+00 -0.00000000000E+00 -0.45593999997E+02  0.45594000000E+02  0.51100000000E-03 0.  1.
    9900012    2    1    2    0    0 -0.82318401332E+01  0.19727777454E+02 -0.37771352758E+02  0.47787268619E+02  0.19999988942E+02 0.  0.
         12    1    1    2    0    0  0.82318401332E+01 -0.19727777454E+02  0.37771352758E+02  0.43400731381E+02  0.00000000000E+00 0. -1.
         11    1    3    3    0    0  0.28862751634E+01  0.84536346631E+01 -0.12944948416E+02  0.15727880121E+02  0.51100000000E-03 0. -1.
        -11    1    3    3    0    0 -0.12589063958E+02  0.97365941978E+01 -0.25290654541E+02  0.29881482649E+02  0.51100000000E-03 0.  1.
         12    1    3    3    0    0  0.14709486612E+01  0.15375485932E+01  0.46425019979E+00  0.21779058493E+01  0.00000000000E+00 0. -1.
</event>
<event>
 7    1  0.1384886E-010  0.4778727E+02  0.7816164E-02  0.1312668E+00
        -11   -1    0    0    0    0  0.00000000000E+00  0.00000000000E+00  0.45593999997E+02  0.45594000000E+02  0.51100000000E-03 0. -1.
         11   -1    0    0    0    0 -0.00000000000E+00 -0.00000000000E+00 -0.45593999997E+02  0.45594000000E+02  0.51100000000E-03 0.  1.
    9900012    2    1    2    0    0 -0.29537630632E+02 -0.52125690294E+01 -0.31368471302E+02  0.47787268542E+02  0.19999988590E+02 0.  0.
         12    1    1    2    0    0  0.29537630632E+02  0.52125690294E+01  0.31368471302E+02  0.43400731458E+02  0.00000000000E+00 0. -1.
         11    1    3    3    0    0 -0.13112180700E+02  0.57308055120E+01 -0.81855114234E+01  0.16485569813E+02  0.51100000000E-03 0. -1.
        -11    1    3    3    0    0 -0.11615755002E+02 -0.39398688121E+01 -0.11181837760E+02  0.16597645209E+02  0.51100000000E-03 0.  1.
         12    1    3    3    0    0 -0.48096949299E+01 -0.70035057293E+01 -0.12001122119E+02  0.14704053521E+02  0.00000000000E+00 0. -1.
</event>
<event>
 7    1  0.1384886E-010  0.4778724E+02  0.7816164E-02  0.1312668E+00
        -11   -1    0    0    0    0  0.00000000000E+00  0.00000000000E+00  0.45593999997E+02  0.45594000000E+02  0.51100000000E-03 0. -1.
         11   -1    0    0    0    0 -0.00000000000E+00 -0.00000000000E+00 -0.45593999997E+02  0.45594000000E+02  0.51100000000E-03 0.  1.
    9900012    2    1    2    0    0 -0.33739621176E+02  0.26958253492E+02  0.43030841705E+01  0.47787239617E+02  0.19999856709E+02 0.  0.
         12    1    1    2    0    0  0.33739621176E+02 -0.26958253492E+02 -0.43030841705E+01  0.43400760383E+02  0.00000000000E+00 0. -1.
         11    1    3    3    0    0 -0.10841908411E+02  0.57269726129E+01  0.86270269620E+01  0.14992357646E+02  0.51100000000E-03 0. -1.
        -11    1    3    3    0    0 -0.15326092698E+02  0.81152596016E+01 -0.17073729453E+01  0.17425891037E+02  0.51100000000E-03 0.  1.
         12    1    3    3    0    0 -0.75716200665E+01  0.13116021277E+02 -0.26165698462E+01  0.15368990934E+02  0.00000000000E+00 0. -1.
</event>
<event>
 7    1  0.1384886E-010  0.4778727E+02  0.7816164E-02  0.1312668E+00
        -11   -1    0    0    0    0  0.00000000000E+00  0.00000000000E+00  0.45593999997E+02  0.45594000000E+02  0.51100000000E-03 0.  1.
         11   -1    0    0    0    0 -0.00000000000E+00 -0.00000000000E+00 -0.45593999997E+02  0.45594000000E+02  0.51100000000E-03 0. -1.
    9900012    2    1    2    0    0 -0.77332908522E+01  0.40634990300E+02 -0.13138392811E+02  0.47787267406E+02  0.19999983409E+02 0.  0.
         12    1    1    2    0    0  0.77332908522E+01 -0.40634990300E+02  0.13138392811E+02  0.43400732594E+02  0.00000000000E+00 0. -1.
         11    1    3    3    0    0  0.19316081741E+01  0.41692810036E+01 -0.41802489439E+01  0.62119639181E+01  0.51100000000E-03 0. -1.
        -11    1    3    3    0    0 -0.29017423086E+01  0.27910777289E+02 -0.10073372250E+01  0.28079286420E+02  0.51100000000E-03 0.  1.
        -12    1    3    3    0    0 -0.67631567176E+01  0.85549320072E+01 -0.79508066417E+01  0.13496017068E+02  0.00000000000E+00 0.  1.
</event>
<event>
 7    1  0.1384886E-010  0.4778726E+02  0.7816164E-02  0.1312668E+00
        -11   -1    0    0    0    0  0.00000000000E+00  0.00000000000E+00  0.45593999997E+02  0.45594000000E+02  0.51100000000E-03 0.  1.
         11   -1    0    0    0    0 -0.00000000000E+00 -0.00000000000E+00 -0.45593999997E+02  0.45594000000E+02  0.51100000000E-03 0. -1.
    9900012    2    1    2    0    0 -0.13712952994E+02 -0.60454512584E+01  0.40731214807E+02  0.47787257836E+02  0.19999939777E+02 0.  0.
         12    1    1    2    0    0  0.13712952994E+02  0.60454512584E+01 -0.40731214807E+02  0.43400742164E+02  0.00000000000E+00 0. -1.
         11    1    3    3    0    0 -0.57092378130E+01  0.47536292993E+01  0.20789641601E+02  0.22077173417E+02  0.51100000000E-03 0. -1.
        -11    1    3    3    0    0 -0.50821774071E+01 -0.88980491741E+01  0.19712712028E+02  0.22216993992E+02  0.51100000000E-03 0.  1.
        -12    1    3    3    0    0 -0.29215377742E+01 -0.19010313836E+01  0.22886117788E+00  0.34930904263E+01  0.00000000000E+00 0.  1.
</event>
<event>
 7    1  0.1384886E-010  0.4778722E+02  0.7816164E-02  0.1312668E+00
        -11   -1    0    0    0    0  0.00000000000E+00  0.00000000000E+00  0.45593999997E+02  0.45594000000E+02  0.51100000000E-03 0.  1.
         11   -1    0    0    0    0 -0.00000000000E+00 -0.00000000000E+00 -0.45593999997E+02  0.45594000000E+02  0.51100000000E-03 0. -1.
    9900012    2    1    2    0    0  0.23956190992E+02 -0.31363228942E+02  0.18057598739E+02  0.47787215574E+02  0.19999747088E+02 0.  0.
         12    1    1    2    0    0 -0.23956190992E+02  0.31363228942E+02 -0.18057598739E+02  0.43400784426E+02  0.00000000000E+00 0. -1.
         11    1    3    3    0    0  0.27428290787E+01  0.70367065271E+00  0.80851257288E+00  0.29448185995E+01  0.51100000000E-03 0. -1.
        -11    1    3    3    0    0  0.17884891760E+02 -0.33203031969E+02  0.14606841281E+02  0.40443423417E+02  0.51100000000E-03 0.  1.
        -12    1    3    3    0    0  0.33284701531E+01  0.11361323736E+01  0.26422448855E+01  0.43989735582E+01  0.00000000000E+00 0.  1.
</event>
<event>
 7    1  0.1384886E-010  0.4778727E+02  0.7816164E-02  0.1312668E+00
        -11   -1    0    0    0    0  0.00000000000E+00  0.00000000000E+00  0.45593999997E+02  0.45594000000E+02  0.51100000000E-03 0. -1.
         11   -1    0    0    0    0 -0.00000000000E+00 -0.00000000000E+00 -0.45593999997E+02  0.45594000000E+02  0.51100000000E-03 0.  1.
    9900012    2    1    2    0    0  0.36319586129E+02 -0.24002654420E+01 -0.23637891949E+02  0.47787267903E+02  0.19999985675E+02 0.  0.
         12    1    1    2    0    0 -0.36319586129E+02  0.24002654420E+01  0.23637891949E+02  0.43400732097E+02  0.00000000000E+00 0. -1.
         11    1    3    3    0    0  0.30309995886E+02 -0.49539454478E+00 -0.15788988119E+02  0.34179429668E+02  0.51100000000E-03 0. -1.
        -11    1    3    3    0    0  0.36633058882E+01  0.35015812482E+01 -0.47655264476E+01  0.69563728949E+01  0.51100000000E-03 0.  1.
        -12    1    3    3    0    0  0.23462843544E+01 -0.54064521454E+01 -0.30833773830E+01  0.66514653392E+01  0.00000000000E+00 0.  1.
</event>
<event>
 7    1  0.1384886E-010  0.4778727E+02  0.7816164E-02  0.1312668E+00
        -11   -1    0    0    0    0  0.00000000000E+00  0.00000000000E+00  0.45593999997E+02  0.45594000000E+02  0.51100000000E-03 0.  1.
         11   -1    0    0    0    0 -0.00000000000E+00 -0.00000000000E+00 -0.45593999997E+02  0.45594000000E+02  0.51100000000E-03 0. -1.
    9900012    2    1    2    0    0 -0.25900287751E+02 -0.27935936669E+02 -0.20793788073E+02  0.47787273214E+02  0.20000009891E+02 0.  0.
         12    1    1    2    0    0  0.25900287751E+02  0.27935936669E+02  0.20793788073E+02  0.43400726786E+02  0.00000000000E+00 0. -1.
         11    1    3    3    0    0 -0.30638663779E+01 -0.35415178737E+01  0.25691053533E+01  0.53413414616E+01  0.51100000000E-03 0.  1.
        -11    1    3    3    0    0 -0.21792928129E+01 -0.77810361095E+01 -0.18094811942E+01  0.82805834670E+01  0.51100000000E-03 0. -1.
        -12    1    3    3    0    0 -0.20657128560E+02 -0.16613382685E+02 -0.21553412232E+02  0.34165348285E+02  0.00000000000E+00 0.  1.
</event>
<event>
 7    1  0.1384886E-010  0.4778727E+02  0.7816164E-02  0.1312668E+00
        -11   -1    0    0    0    0  0.00000000000E+00  0.00000000000E+00  0.45593999997E+02  0.45594000000E+02  0.51100000000E-03 0. -1.
         11   -1    0    0    0    0 -0.00000000000E+00 -0.00000000000E+00 -0.45593999997E+02  0.45594000000E+02  0.51100000000E-03 0.  1.
    9900012    2    1    2    0    0 -0.19433912632E+02 -0.29735991682E+02  0.24934255024E+02  0.47787271491E+02  0.20000002037E+02 0.  0.
         12    1    1    2    0    0  0.19433912632E+02  0.29735991682E+02 -0.24934255024E+02  0.43400728509E+02  0.00000000000E+00 0. -1.
         11    1    3    3    0    0  0.13387250697E+01 -0.11370514267E+02  0.13424866030E+02  0.17643917017E+02  0.51100000000E-03 0.  1.
        -11    1    3    3    0    0 -0.81211153687E+01 -0.73933858604E+01  0.59953326688E+01  0.12512341243E+02  0.51100000000E-03 0. -1.
        -12    1    3    3    0    0 -0.12651522333E+02 -0.10972091554E+02  0.55140563256E+01  0.17631013231E+02  0.00000000000E+00 0.  1.
</event>
<event>
 7    1  0.1384886E-010  0.4778728E+02  0.7816164E-02  0.1312668E+00
        -11   -1    0    0    0    0  0.00000000000E+00  0.00000000000E+00  0.45593999997E+02  0.45594000000E+02  0.51100000000E-03 0.  1.
         11   -1    0    0    0    0 -0.00000000000E+00 -0.00000000000E+00 -0.45593999997E+02  0.45594000000E+02  0.51100000000E-03 0. -1.
    9900012    2    1    2    0    0  0.34120876756E+01  0.40826902420E+02  0.14322866234E+02  0.47787276496E+02  0.20000024854E+02 0.  0.
         12    1    1    2    0    0 -0.34120876756E+01 -0.40826902420E+02 -0.14322866234E+02  0.43400723504E+02  0.00000000000E+00 0. -1.
         11    1    3    3    0    0  0.89725100205E+01  0.90825262015E+01  0.42922286951E+01  0.13469277846E+02  0.51100000000E-03 0. -1.
        -11    1    3    3    0    0 -0.55230290266E+00  0.20173587238E+02  0.54564114070E+01  0.20905766818E+02  0.51100000000E-03 0.  1.
         12    1    3    3    0    0 -0.50081194422E+01  0.11570788981E+02  0.45742261320E+01  0.13412231831E+02  0.00000000000E+00 0. -1.
</event>
<event>
 7    1  0.1384886E-010  0.4778728E+02  0.7816164E-02  0.1312668E+00
        -11   -1    0    0    0    0  0.00000000000E+00  0.00000000000E+00  0.45593999997E+02  0.45594000000E+02  0.51100000000E-03 0. -1.
         11   -1    0    0    0    0 -0.00000000000E+00 -0.00000000000E+00 -0.45593999997E+02  0.45594000000E+02  0.51100000000E-03 0.  1.
    9900012    2    1    2    0    0  0.35648494955E+01 -0.41807195307E+02 -0.11093832887E+02  0.47787275818E+02  0.20000021765E+02 0.  0.
         12    1    1    2    0    0 -0.35648494955E+01  0.41807195307E+02  0.11093832887E+02  0.43400724182E+02  0.00000000000E+00 0. -1.
         11    1    3    3    0    0  0.49151429271E+01 -0.95917168571E+01 -0.74371869606E+01  0.13094709329E+02  0.51100000000E-03 0. -1.
        -11    1    3    3    0    0 -0.10052135699E+01 -0.35162132279E+01  0.35537836285E+01  0.50993713460E+01  0.51100000000E-03 0.  1.
         12    1    3    3    0    0 -0.34507986175E+00 -0.28699265222E+02 -0.72104295551E+01  0.29593195143E+02  0.00000000000E+00 0. -1.
</event>
<event>
 7    1  0.1384886E-010  0.4778728E+02  0.7816164E-02  0.1312668E+00
        -11   -1    0    0    0    0  0.00000000000E+00  0.00000000000E+00  0.45593999997E+02  0.45594000000E+02  0.51100000000E-03 0.  1.
         11   -1    0    0    0    0 -0.00000000000E+00 -0.00000000000E+00 -0.45593999997E+02  0.45594000000E+02  0.51100000000E-03 0. -1.
    9900012    2    1    2    0    0  0.41152462894E+01  0.11151577946E+02  0.41741226388E+02  0.47787275086E+02  0.20000018426E+02 0.  0.
         12    1    1    2    0    0 -0.41152462894E+01 -0.11151577946E+02 -0.41741226388E+02  0.43400724914E+02  0.00000000000E+00 0. -1.
         11    1    3    3    0    0  0.82913599873E+00  0.17176673442E-01  0.13959322951E+02  0.13983935749E+02  0.51100000000E-03 0. -1.
        -11    1    3    3    0    0  0.88195018465E+00  0.14673730403E+02  0.18893095173E+02  0.23938363468E+02  0.51100000000E-03 0.  1.
         12    1    3    3    0    0  0.24041601060E+01 -0.35393291310E+01  0.88888082646E+01  0.98649758681E+01  0.00000000000E+00 0. -1.
</event>
<event>
 7    1  0.1384886E-010  0.4778727E+02  0.7816164E-02  0.1312668E+00
        -11   -1    0    0    0    0  0.00000000000E+00  0.00000000000E+00  0.45593999997E+02  0.45594000000E+02  0.51100000000E-03 0.  1.
         11   -1    0    0    0    0 -0.00000000000E+00 -0.00000000000E+00 -0.45593999997E+02  0.45594000000E+02  0.51100000000E-03 0. -1.
    9900012    2    1    2    0    0  0.10047702992E+02  0.20632580689E+02  0.36836987206E+02  0.47787270193E+02  0.19999996120E+02 0.  0.
         12    1    1    2    0    0 -0.10047702992E+02 -0.20632580689E+02 -0.36836987206E+02  0.43400729807E+02  0.00000000000E+00 0. -1.
         11    1    3    3    0    0  0.45146723819E+01  0.68441053577E+01  0.10305178340E+01  0.82635350868E+01  0.51100000000E-03 0. -1.
        -11    1    3    3    0    0  0.65416940211E+01  0.86612380405E+01  0.18536532140E+02  0.21480545363E+02  0.51100000000E-03 0.  1.
        -12    1    3    3    0    0 -0.10086634112E+01  0.51272372910E+01  0.17269937233E+02  0.18043189744E+02  0.00000000000E+00 0.  1.
</event>
<event>
 7    1  0.1384886E-010  0.4778726E+02  0.7816164E-02  0.1312668E+00
        -11   -1    0    0    0    0  0.00000000000E+00  0.00000000000E+00  0.45593999997E+02  0.45594000000E+02  0.51100000000E-03 0. -1.
         11   -1    0    0    0    0 -0.00000000000E+00 -0.00000000000E+00 -0.45593999997E+02  0.45594000000E+02  0.51100000000E-03 0.  1.
    9900012    2    1    2    0    0  0.41329890834E+02  0.81876094358E+01  0.10412854657E+02  0.47787258455E+02  0.19999942598E+02 0.  0.
         12    1    1    2    0    0 -0.41329890834E+02 -0.81876094358E+01 -0.10412854657E+02  0.43400741545E+02  0.00000000000E+00 0. -1.
         11    1    3    3    0    0 -0.82020594836E+00 -0.29509625311E+00  0.10719329948E+01  0.13816150704E+01  0.51100000000E-03 0. -1.
        -11    1    3    3    0    0  0.32376981830E+02  0.80913507248E+00  0.10186397636E+02  0.33951234868E+02  0.51100000000E-03 0.  1.
        -12    1    3    3    0    0  0.97731149517E+01  0.76735706164E+01 -0.84547597386E+00  0.12454408516E+02  0.00000000000E+00 0.  1.
</event>
<event>
 7    1  0.1384886E-010  0.4778727E+02  0.7816164E-02  0.1312668E+00
        -11   -1    0    0    0    0  0.00000000000E+00  0.00000000000E+00  0.45593999997E+02  0.45594000000E+02  0.51100000000E-03 0.  1.
         11   -1    0    0    0    0 -0.00000000000E+00 -0.00000000000E+00 -0.45593999997E+02  0.45594000000E+02  0.51100000000E-03 0. -1.
    9900012    2    1    2    0    0  0.16167579807E+02  0.15925932673E+02  0.36994555461E+02  0.47787273023E+02  0.20000009023E+02 0.  0.
         12    1    1    2    0    0 -0.16167579807E+02 -0.15925932673E+02 -0.36994555461E+02  0.43400726977E+02  0.00000000000E+00 0. -1.
         11    1    3    3    0    0  0.15589422705E+01  0.87849594310E+01  0.27025392611E+01  0.93225281939E+01  0.51100000000E-03 0. -1.
        -11    1    3    3    0    0  0.78119273228E+01  0.26869263125E+01  0.10736057553E+02  0.13546538803E+02  0.51100000000E-03 0.  1.
         12    1    3    3    0    0  0.67967102134E+01  0.44540469290E+01  0.23555958648E+02  0.24918206026E+02  0.00000000000E+00 0. -1.
</event>
<event>
 7    1  0.1384886E-010  0.4778727E+02  0.7816164E-02  0.1312668E+00
        -11   -1    0    0    0    0  0.00000000000E+00  0.00000000000E+00  0.45593999997E+02  0.45594000000E+02  0.51100000000E-03 0. -1.
         11   -1    0    0    0    0 -0.00000000000E+00 -0.00000000000E+00 -0.45593999997E+02  0.45594000000E+02  0.51100000000E-03 0.  1.
    9900012    2    1    2    0    0 -0.15539156419E+02 -0.65151766412E+01 -0.39996379979E+02  0.47787270510E+02  0.19999997562E+02 0.  0.
         12    1    1    2    0    0  0.15539156419E+02  0.65151766412E+01  0.39996379979E+02  0.43400729490E+02  0.00000000000E+00 0. -1.
         11    1    3    3    0    0 -0.78923042525E+00 -0.47935831169E+01 -0.85874884091E+01  0.98664219046E+01  0.51100000000E-03 0. -1.
        -11    1    3    3    0    0 -0.11692392355E+02  0.55747586751E+01 -0.15880731319E+02  0.20493599019E+02  0.51100000000E-03 0.  1.
        -12    1    3    3    0    0 -0.30575336387E+01 -0.72963521993E+01 -0.15528160251E+02  0.17427249586E+02  0.00000000000E+00 0.  1.
</event>
<event>
 7    1  0.1384886E-010  0.4778727E+02  0.7816164E-02  0.1312668E+00
        -11   -1    0    0    0    0  0.00000000000E+00  0.00000000000E+00  0.45593999997E+02  0.45594000000E+02  0.51100000000E-03 0.  1.
         11   -1    0    0    0    0 -0.00000000000E+00 -0.00000000000E+00 -0.45593999997E+02  0.45594000000E+02  0.51100000000E-03 0. -1.
    9900012    2    1    2    0    0 -0.26768663821E+02 -0.24608770269E+02 -0.23695368498E+02  0.47787269301E+02  0.19999992050E+02 0.  0.
         12    1    1    2    0    0  0.26768663821E+02  0.24608770269E+02  0.23695368498E+02  0.43400730699E+02  0.00000000000E+00 0. -1.
         11    1    3    3    0    0 -0.15453189424E+02 -0.26216713601E+01 -0.54892230427E+01  0.16607401782E+02  0.51100000000E-03 0. -1.
        -11    1    3    3    0    0 -0.85110849967E+01 -0.10811011369E+02 -0.10670492688E+02  0.17411948458E+02  0.51100000000E-03 0.  1.
         12    1    3    3    0    0 -0.28043894011E+01 -0.11176087541E+02 -0.75356527672E+01  0.13767919060E+02  0.00000000000E+00 0. -1.
</event>
<event>
 7    1  0.1384886E-010  0.4778727E+02  0.7816164E-02  0.1312668E+00
        -11   -1    0    0    0    0  0.00000000000E+00  0.00000000000E+00  0.45593999997E+02  0.45594000000E+02  0.51100000000E-03 0.  1.
         11   -1    0    0    0    0 -0.00000000000E+00 -0.00000000000E+00 -0.45593999997E+02  0.45594000000E+02  0.51100000000E-03 0. -1.
    9900012    2    1    2    0    0  0.14270771340E+02  0.40389080157E+02 -0.69778637610E+01  0.47787270822E+02  0.19999998984E+02 0.  0.
         12    1    1    2    0    0 -0.14270771340E+02 -0.40389080157E+02  0.69778637610E+01  0.43400729178E+02  0.00000000000E+00 0. -1.
         11    1    3    3    0    0 -0.32955296196E+00  0.18046636878E+02 -0.53146240743E+01  0.18815816142E+02  0.51100000000E-03 0. -1.
        -11    1    3    3    0    0  0.58808670495E+01  0.18377017247E+02 -0.19108481713E+01  0.19389448191E+02  0.51100000000E-03 0.  1.
         12    1    3    3    0    0  0.87194572527E+01  0.39654260318E+01  0.24760848458E+00  0.95820064891E+01  0.00000000000E+00 0. -1.
</event>
<event>
 7    1  0.1384886E-010  0.4778727E+02  0.7816164E-02  0.1312668E+00
        -11   -1    0    0    0    0  0.00000000000E+00  0.00000000000E+00  0.45593999997E+02  0.45594000000E+02  0.51100000000E-03 0.  1.
         11   -1    0    0    0    0 -0.00000000000E+00 -0.00000000000E+00 -0.45593999997E+02  0.45594000000E+02  0.51100000000E-03 0. -1.
    9900012    2    1    2    0    0 -0.43041887155E+02 -0.43286962882E+01  0.35045502843E+01  0.47787268047E+02  0.19999986332E+02 0.  0.
         12    1    1    2    0    0  0.43041887155E+02  0.43286962882E+01 -0.35045502843E+01  0.43400731953E+02  0.00000000000E+00 0. -1.
         11    1    3    3    0    0 -0.14875300398E+01  0.24639416584E+01 -0.35778079055E+00  0.29003036859E+01  0.51100000000E-03 0. -1.
        -11    1    3    3    0    0 -0.12906318276E+02  0.40514939020E+01 -0.20737488942E+01  0.13685323855E+02  0.51100000000E-03 0.  1.
         12    1    3    3    0    0 -0.28648038838E+02 -0.10844131849E+02  0.59360799691E+01  0.31201640506E+02  0.00000000000E+00 0. -1.
</event>
<event>
 7    1  0.1384886E-010  0.4778725E+02  0.7816164E-02  0.1312668E+00
        -11   -1    0    0    0    0  0.00000000000E+00  0.00000000000E+00  0.45593999997E+02  0.45594000000E+02  0.51100000000E-03 0. -1.
         11   -1    0    0    0    0 -0.00000000000E+00 -0.00000000000E+00 -0.45593999997E+02  0.45594000000E+02  0.51100000000E-03 0.  1.
    9900012    2    1    2    0    0 -0.27261075080E+02  0.29107904312E+02 -0.17122765004E+02  0.47787246673E+02  0.19999888882E+02 0.  0.
         12    1    1    2    0    0  0.27261075080E+02 -0.29107904312E+02  0.17122765004E+02  0.43400753327E+02  0.00000000000E+00 0. -1.
         11    1    3    3    0    0 -0.76521495081E+01  0.36102883479E+01 -0.54009594319E+01  0.10037924940E+02  0.51100000000E-03 0. -1.
        -11    1    3    3    0    0 -0.20705102447E+02  0.15597518534E+02 -0.84934306847E+01  0.27278603645E+02  0.51100000000E-03 0.  1.
         12    1    3    3    0    0  0.10961768759E+01  0.99000974305E+01 -0.32283748876E+01  0.10470718089E+02  0.00000000000E+00 0. -1.
</event>
<event>
 7    1  0.1384886E-010  0.4778727E+02  0.7816164E-02  0.1312668E+00
        -11   -1    0    0    0    0  0.00000000000E+00  0.00000000000E+00  0.45593999997E+02  0.45594000000E+02  0.51100000000E-03 0.  1.
         11   -1    0    0    0    0 -0.00000000000E+00 -0.00000000000E+00 -0.45593999997E+02  0.45594000000E+02  0.51100000000E-03 0. -1.
    9900012    2    1    2    0    0  0.31443941399E+02  0.16956190435E+02  0.24645269364E+02  0.47787272508E+02  0.20000006675E+02 0.  0.
         12    1    1    2    0    0 -0.31443941399E+02 -0.16956190435E+02 -0.24645269364E+02  0.43400727492E+02  0.00000000000E+00 0. -1.
         11    1    3    3    0    0  0.19634277384E-01  0.22908103843E+01  0.39274362631E+00  0.23243161443E+01  0.51100000000E-03 0. -1.
        -11    1    3    3    0    0  0.83468341535E+01 -0.52354788664E+00  0.13368405270E+02  0.15768893509E+02  0.51100000000E-03 0.  1.
         12    1    3    3    0    0  0.23077472968E+02  0.15188927937E+02  0.10884120468E+02  0.29694062855E+02  0.00000000000E+00 0. -1.
</event>
<event>
 7    1  0.1384886E-010  0.4778728E+02  0.7816164E-02  0.1312668E+00
        -11   -1    0    0    0    0  0.00000000000E+00  0.00000000000E+00  0.45593999997E+02  0.45594000000E+02  0.51100000000E-03 0.  1.
         11   -1    0    0    0    0 -0.00000000000E+00 -0.00000000000E+00 -0.45593999997E+02  0.45594000000E+02  0.51100000000E-03 0. -1.
    9900012    2    1    2    0    0 -0.52584768455E+01 -0.32835720683E+02  0.27888828545E+02  0.47787275477E+02  0.20000020212E+02 0.  0.
         12    1    1    2    0    0  0.52584768455E+01  0.32835720683E+02 -0.27888828545E+02  0.43400724523E+02  0.00000000000E+00 0. -1.
         11    1    3    3    0    0  0.59002557236E+01 -0.19023661015E+02  0.19035574654E+02  0.27551148772E+02  0.51100000000E-03 0.  1.
        -11    1    3    3    0    0 -0.27753722634E+01 -0.56536729301E+01  0.16964149254E+01  0.65226170102E+01  0.51100000000E-03 0. -1.
        -12    1    3    3    0    0 -0.83833603056E+01 -0.81583867375E+01  0.71568389657E+01  0.13713509695E+02  0.00000000000E+00 0.  1.
</event>
<event>
 7    1  0.1384886E-010  0.4778727E+02  0.7816164E-02  0.1312668E+00
        -11   -1    0    0    0    0  0.00000000000E+00  0.00000000000E+00  0.45593999997E+02  0.45594000000E+02  0.51100000000E-03 0. -1.
         11   -1    0    0    0    0 -0.00000000000E+00 -0.00000000000E+00 -0.45593999997E+02  0.45594000000E+02  0.51100000000E-03 0.  1.
    9900012    2    1    2    0    0  0.23638305159E+02 -0.28880873151E+02 -0.22152858687E+02  0.47787268983E+02  0.19999990603E+02 0.  0.
         12    1    1    2    0    0 -0.23638305159E+02  0.28880873151E+02  0.22152858687E+02  0.43400731017E+02  0.00000000000E+00 0. -1.
         11    1    3    3    0    0  0.79984591410E+01 -0.12463530373E+02 -0.10723808598E+00  0.14809673806E+02  0.51100000000E-03 0. -1.
        -11    1    3    3    0    0  0.25706561752E+00 -0.52408651178E+01 -0.68998926744E+01  0.86684063757E+01  0.51100000000E-03 0.  1.
         12    1    3    3    0    0  0.15382780400E+02 -0.11176477660E+02 -0.15145727927E+02  0.24309188801E+02  0.00000000000E+00 0. -1.
</event>
<event>
 7    1  0.1384886E-010  0.4778727E+02  0.7816164E-02  0.1312668E+00
        -11   -1    0    0    0    0  0.00000000000E+00  0.00000000000E+00  0.45593999997E+02  0.45594000000E+02  0.51100000000E-03 0.  1.
         11   -1    0    0    0    0 -0.00000000000E+00 -0.00000000000E+00 -0.45593999997E+02  0.45594000000E+02  0.51100000000E-03 0. -1.
    9900012    2    1    2    0    0  0.28572867659E+02 -0.31553409433E+02  0.84614935568E+01  0.47787270901E+02  0.19999999346E+02 0.  0.
         12    1    1    2    0    0 -0.28572867659E+02  0.31553409433E+02 -0.84614935568E+01  0.43400729099E+02  0.00000000000E+00 0. -1.
         11    1    3    3    0    0  0.70063598744E+01  0.17274823854E-01 -0.24377965511E+00  0.70106209347E+01  0.51100000000E-03 0. -1.
        -11    1    3    3    0    0  0.78968950666E+01 -0.21053018598E+02  0.63804454010E+01  0.23373074841E+02  0.51100000000E-03 0.  1.
         12    1    3    3    0    0  0.13669612718E+02 -0.10517665660E+02  0.23248278109E+01  0.17403575125E+02  0.00000000000E+00 0. -1.
</event>
<event>
 7    1  0.1384886E-010  0.4778728E+02  0.7816164E-02  0.1312668E+00
        -11   -1    0    0    0    0  0.00000000000E+00  0.00000000000E+00  0.45593999997E+02  0.45594000000E+02  0.51100000000E-03 0. -1.
         11   -1    0    0    0    0 -0.00000000000E+00 -0.00000000000E+00 -0.45593999997E+02  0.45594000000E+02  0.51100000000E-03 0.  1.
    9900012    2    1    2    0    0 -0.24014530774E+02 -0.12229641303E+02 -0.34020003541E+02  0.47787280471E+02  0.20000042981E+02 0.  0.
         12    1    1    2    0    0  0.24014530774E+02  0.12229641303E+02  0.34020003541E+02  0.43400719529E+02  0.00000000000E+00 0. -1.
         11    1    3    3    0    0 -0.67088538437E+01  0.93570830083E+00 -0.30636274440E+01  0.74343851996E+01  0.51100000000E-03 0. -1.
        -11    1    3    3    0    0 -0.17178431008E+02 -0.10223906981E+02 -0.31549388259E+02  0.37349573835E+02  0.51100000000E-03 0.  1.
        -12    1    3    3    0    0 -0.12724592226E+00 -0.29414426227E+01  0.59301216250E+00  0.30033214367E+01  0.00000000000E+00 0.  1.
</event>
<event>
 7    1  0.1384886E-010  0.4778727E+02  0.7816164E-02  0.1312668E+00
        -11   -1    0    0    0    0  0.00000000000E+00  0.00000000000E+00  0.45593999997E+02  0.45594000000E+02  0.51100000000E-03 0.  1.
         11   -1    0    0    0    0 -0.00000000000E+00 -0.00000000000E+00 -0.45593999997E+02  0.45594000000E+02  0.51100000000E-03 0. -1.
    9900012    2    1    2    0    0 -0.27391916928E+02 -0.30793215058E+02  0.13604555427E+02  0.47787272645E+02  0.20000007298E+02 0.  0.
         12    1    1    2    0    0  0.27391916928E+02  0.30793215058E+02 -0.13604555427E+02  0.43400727355E+02  0.00000000000E+00 0. -1.
         11    1    3    3    0    0 -0.84200936055E+01 -0.16091894947E+02  0.33465880300E+00  0.18164775146E+02  0.51100000000E-03 0. -1.
        -11    1    3    3    0    0 -0.73015079150E+01 -0.94266303152E+01  0.11724947935E+02  0.16722672671E+02  0.51100000000E-03 0.  1.
         12    1    3    3    0    0 -0.11670315407E+02 -0.52746897954E+01  0.15449486887E+01  0.12899824828E+02  0.00000000000E+00 0. -1.
</event>
<event>
 7    1  0.1384886E-010  0.4778727E+02  0.7816164E-02  0.1312668E+00
        -11   -1    0    0    0    0  0.00000000000E+00  0.00000000000E+00  0.45593999997E+02  0.45594000000E+02  0.51100000000E-03 0.  1.
         11   -1    0    0    0    0 -0.00000000000E+00 -0.00000000000E+00 -0.45593999997E+02  0.45594000000E+02  0.51100000000E-03 0. -1.
    9900012    2    1    2    0    0  0.25010884881E+02 -0.12600548395E+02  0.33155765880E+02  0.47787274274E+02  0.20000014727E+02 0.  0.
         12    1    1    2    0    0 -0.25010884881E+02  0.12600548395E+02 -0.33155765880E+02  0.43400725726E+02  0.00000000000E+00 0. -1.
         11    1    3    3    0    0 -0.35163017831E+00  0.11848090832E+00 -0.19716578870E+01  0.20062693220E+01  0.51100000000E-03 0. -1.
        -11    1    3    3    0    0  0.34205284556E+01  0.72971317411E+00  0.29332652118E+01  0.45647060470E+01  0.51100000000E-03 0.  1.
        -12    1    3    3    0    0  0.21941986604E+02 -0.13448742478E+02  0.32194158555E+02  0.41216298905E+02  0.00000000000E+00 0.  1.
</event>
<event>
 7    1  0.1384886E-010  0.4778727E+02  0.7816164E-02  0.1312668E+00
        -11   -1    0    0    0    0  0.00000000000E+00  0.00000000000E+00  0.45593999997E+02  0.45594000000E+02  0.51100000000E-03 0. -1.
         11   -1    0    0    0    0 -0.00000000000E+00 -0.00000000000E+00 -0.45593999997E+02  0.45594000000E+02  0.51100000000E-03 0.  1.
    9900012    2    1    2    0    0  0.84704946666E+00 -0.42131198107E+02  0.10385953933E+02  0.47787269754E+02  0.19999994118E+02 0.  0.
         12    1    1    2    0    0 -0.84704946666E+00  0.42131198107E+02 -0.10385953933E+02  0.43400730246E+02  0.00000000000E+00 0. -1.
         11    1    3    3    0    0  0.36381332593E+01 -0.65840469024E+01 -0.33469645954E+01  0.82333382956E+01  0.51100000000E-03 0. -1.
        -11    1    3    3    0    0 -0.20144646958E+01 -0.55489760943E+00  0.89140330122E+00  0.22716908844E+01  0.51100000000E-03 0.  1.
        -12    1    3    3    0    0 -0.77661909690E+00 -0.34992253596E+02  0.12841515227E+02  0.37282240574E+02  0.00000000000E+00 0.  1.
</event>
<event>
 7    1  0.1384886E-010  0.4778726E+02  0.7816164E-02  0.1312668E+00
        -11   -1    0    0    0    0  0.00000000000E+00  0.00000000000E+00  0.45593999997E+02  0.45594000000E+02  0.51100000000E-03 0.  1.
         11   -1    0    0    0    0 -0.00000000000E+00 -0.00000000000E+00 -0.45593999997E+02  0.45594000000E+02  0.51100000000E-03 0. -1.
    9900012    2    1    2    0    0  0.34491983464E+02 -0.57435627057E+01  0.25708736013E+02  0.47787256421E+02  0.19999933325E+02 0.  0.
         12    1    1    2    0    0 -0.34491983464E+02  0.57435627057E+01 -0.25708736013E+02  0.43400743579E+02  0.00000000000E+00 0. -1.
         11    1    3    3    0    0  0.25089001477E+02 -0.24393233985E+01  0.26118976547E+02  0.36298887447E+02  0.51100000000E-03 0.  1.
        -11    1    3    3    0    0  0.93169097181E+00  0.61261740451E+00 -0.17344057288E+01  0.20619194079E+01  0.51100000000E-03 0. -1.
        -12    1    3    3    0    0  0.84712910149E+01 -0.39168567117E+01  0.13241651952E+01  0.94264495662E+01  0.00000000000E+00 0.  1.
</event>
<event>
 7    1  0.1384886E-010  0.4778728E+02  0.7816164E-02  0.1312668E+00
        -11   -1    0    0    0    0  0.00000000000E+00  0.00000000000E+00  0.45593999997E+02  0.45594000000E+02  0.51100000000E-03 0.  1.
         11   -1    0    0    0    0 -0.00000000000E+00 -0.00000000000E+00 -0.45593999997E+02  0.45594000000E+02  0.51100000000E-03 0. -1.
    9900012    2    1    2    0    0 -0.16374052827E+02  0.31086743207E+02  0.25477977828E+02  0.47787279230E+02  0.20000037320E+02 0.  0.
         12    1    1    2    0    0  0.16374052827E+02 -0.31086743207E+02 -0.25477977828E+02  0.43400720770E+02  0.00000000000E+00 0. -1.
         11    1    3    3    0    0 -0.68462092372E+01  0.30549827170E+01  0.26308957368E+01  0.79451313997E+01  0.51100000000E-03 0. -1.
        -11    1    3    3    0    0 -0.93780166596E+01  0.10254364294E+02  0.53273629154E+01  0.14882203447E+02  0.51100000000E-03 0.  1.
         12    1    3    3    0    0 -0.14982692990E+00  0.17777396196E+02  0.17519719176E+02  0.24959944383E+02  0.00000000000E+00 0. -1.
</event>
<event>
 7    1  0.1384886E-010  0.4778727E+02  0.7816164E-02  0.1312668E+00
        -11   -1    0    0    0    0  0.00000000000E+00  0.00000000000E+00  0.45593999997E+02  0.45594000000E+02  0.51100000000E-03 0. -1.
         11   -1    0    0    0    0 -0.00000000000E+00 -0.00000000000E+00 -0.45593999997E+02  0.45594000000E+02  0.51100000000E-03 0.  1.
    9900012    2    1    2    0    0 -0.23034013556E+00 -0.10068218553E+02 -0.42216125781E+02  0.47787270082E+02  0.19999995613E+02 0.  0.
         12    1    1    2    0    0  0.23034013556E+00  0.10068218553E+02  0.42216125781E+02  0.43400729918E+02  0.00000000000E+00 0. -1.
         11    1    3    3    0    0  0.24383642145E+01 -0.82562590150E+01 -0.11771107518E+02  0.14583223424E+02  0.51100000000E-03 0. -1.
        -11    1    3    3    0    0 -0.11067700240E+01 -0.62094321076E+01 -0.26018147123E+02  0.26771738213E+02  0.51100000000E-03 0.  1.
         12    1    3    3    0    0 -0.15619343261E+01  0.43974725697E+01 -0.44268711403E+01  0.64323084451E+01  0.00000000000E+00 0. -1.
</event>
<event>
 7    1  0.1384886E-010  0.4778727E+02  0.7816164E-02  0.1312668E+00
        -11   -1    0    0    0    0  0.00000000000E+00  0.00000000000E+00  0.45593999997E+02  0.45594000000E+02  0.51100000000E-03 0.  1.
         11   -1    0    0    0    0 -0.00000000000E+00 -0.00000000000E+00 -0.45593999997E+02  0.45594000000E+02  0.51100000000E-03 0. -1.
    9900012    2    1    2    0    0  0.28678319569E+02  0.32473486161E+02  0.25788312773E+01  0.47787266279E+02  0.19999978274E+02 0.  0.
         12    1    1    2    0    0 -0.28678319569E+02 -0.32473486161E+02 -0.25788312773E+01  0.43400733721E+02  0.00000000000E+00 0. -1.
         11    1    3    3    0    0  0.26872434200E+01  0.41421562131E+01  0.32472023194E+01  0.59095734581E+01  0.51100000000E-03 0. -1.
        -11    1    3    3    0    0  0.24396025933E+02  0.17078600946E+02 -0.39681242913E+01  0.30043147343E+02  0.51100000000E-03 0.  1.
        -12    1    3    3    0    0  0.15950502158E+01  0.11252729002E+02  0.32997532491E+01  0.11834545478E+02  0.00000000000E+00 0.  1.
</event>
<event>
 7    1  0.1384886E-010  0.4778727E+02  0.7816164E-02  0.1312668E+00
        -11   -1    0    0    0    0  0.00000000000E+00  0.00000000000E+00  0.45593999997E+02  0.45594000000E+02  0.51100000000E-03 0.  1.
         11   -1    0    0    0    0 -0.00000000000E+00 -0.00000000000E+00 -0.45593999997E+02  0.45594000000E+02  0.51100000000E-03 0. -1.
    9900012    2    1    2    0    0  0.13833154377E+02 -0.16624462265E+02  0.37628372120E+02  0.47787270813E+02  0.19999998944E+02 0.  0.
         12    1    1    2    0    0 -0.13833154377E+02  0.16624462265E+02 -0.37628372120E+02  0.43400729187E+02  0.00000000000E+00 0. -1.
         11    1    3    3    0    0  0.67389421283E+01 -0.24037525281E+01  0.12953240089E+02  0.14797898374E+02  0.51100000000E-03 0. -1.
        -11    1    3    3    0    0 -0.20034748111E+01 -0.26493057419E+01 -0.93488396829E+00  0.34506145146E+01  0.51100000000E-03 0.  1.
        -12    1    3    3    0    0  0.90976870598E+01 -0.11571403994E+02  0.25610015999E+02  0.29538757924E+02  0.00000000000E+00 0.  1.
</event>
<event>
 7    1  0.1384886E-010  0.4778726E+02  0.7816164E-02  0.1312668E+00
        -11   -1    0    0    0    0  0.00000000000E+00  0.00000000000E+00  0.45593999997E+02  0.45594000000E+02  0.51100000000E-03 0. -1.
         11   -1    0    0    0    0 -0.00000000000E+00 -0.00000000000E+00 -0.45593999997E+02  0.45594000000E+02  0.51100000000E-03 0.  1.
    9900012    2    1    2    0    0  0.29659963542E+02 -0.15710635779E+02 -0.27515201765E+02  0.47787264499E+02  0.19999970156E+02 0.  0.
         12    1    1    2    0    0 -0.29659963542E+02  0.15710635779E+02  0.27515201765E+02  0.43400735501E+02  0.00000000000E+00 0. -1.
         11    1    3    3    0    0  0.58280903253E+00 -0.38312025909E+01 -0.24881412073E+01  0.46052824657E+01  0.51100000000E-03 0. -1.
        -11    1    3    3    0    0 -0.31704656894E-01  0.12778274031E+01 -0.57097164144E+01  0.58510434839E+01  0.51100000000E-03 0.  1.
        -12    1    3    3    0    0  0.29108859166E+02 -0.13157260591E+02 -0.19317344143E+02  0.37330938549E+02  0.00000000000E+00 0.  1.
</event>
<event>
 7    1  0.1384886E-010  0.4778727E+02  0.7816164E-02  0.1312668E+00
        -11   -1    0    0    0    0  0.00000000000E+00  0.00000000000E+00  0.45593999997E+02  0.45594000000E+02  0.51100000000E-03 0. -1.
         11   -1    0    0    0    0 -0.00000000000E+00 -0.00000000000E+00 -0.45593999997E+02  0.45594000000E+02  0.51100000000E-03 0.  1.
    9900012    2    1    2    0    0 -0.12191786755E+02  0.11222575094E+01 -0.41638012178E+02  0.47787272076E+02  0.20000004702E+02 0.  0.
         12    1    1    2    0    0  0.12191786755E+02 -0.11222575094E+01  0.41638012178E+02  0.43400727924E+02  0.00000000000E+00 0. -1.
         11    1    3    3    0    0 -0.48055501968E+00  0.18789911016E+01 -0.10407414973E+02  0.10586587144E+02  0.51100000000E-03 0.  1.
        -11    1    3    3    0    0 -0.71327611977E+01  0.35587696278E+01 -0.29664685876E+02  0.30717010141E+02  0.51100000000E-03 0. -1.
         12    1    3    3    0    0 -0.45784705373E+01 -0.43155032201E+01 -0.15659113294E+01  0.64836747909E+01  0.00000000000E+00 0. -1.
</event>
<event>
 7    1  0.1384886E-010  0.4778727E+02  0.7816164E-02  0.1312668E+00
        -11   -1    0    0    0    0  0.00000000000E+00  0.00000000000E+00  0.45593999997E+02  0.45594000000E+02  0.51100000000E-03 0.  1.
         11   -1    0    0    0    0 -0.00000000000E+00 -0.00000000000E+00 -0.45593999997E+02  0.45594000000E+02  0.51100000000E-03 0. -1.
    9900012    2    1    2    0    0 -0.32945970163E+02 -0.21084568319E+02  0.18804979301E+02  0.47787271692E+02  0.20000002952E+02 0.  0.
         12    1    1    2    0    0  0.32945970163E+02  0.21084568319E+02 -0.18804979301E+02  0.43400728308E+02  0.00000000000E+00 0. -1.
         11    1    3    3    0    0 -0.30664041363E+02 -0.19564316789E+02  0.15937865086E+02  0.39712233227E+02  0.51100000000E-03 0. -1.
        -11    1    3    3    0    0 -0.40954966139E+01 -0.24209009900E+01  0.24733530427E+00  0.47639300091E+01  0.51100000000E-03 0.  1.
         12    1    3    3    0    0  0.18135678137E+01  0.90064946015E+00  0.26197789110E+01  0.33111084560E+01  0.00000000000E+00 0. -1.
</event>
<event>
 7    1  0.1384886E-010  0.4778727E+02  0.7816164E-02  0.1312668E+00
        -11   -1    0    0    0    0  0.00000000000E+00  0.00000000000E+00  0.45593999997E+02  0.45594000000E+02  0.51100000000E-03 0.  1.
         11   -1    0    0    0    0 -0.00000000000E+00 -0.00000000000E+00 -0.45593999997E+02  0.45594000000E+02  0.51100000000E-03 0. -1.
    9900012    2    1    2    0    0  0.39569032609E+02  0.17741851183E+02 -0.17724425664E+01  0.47787272153E+02  0.20000005053E+02 0.  0.
         12    1    1    2    0    0 -0.39569032609E+02 -0.17741851183E+02  0.17724425664E+01  0.43400727847E+02  0.00000000000E+00 0. -1.
         11    1    3    3    0    0  0.17434741993E+02  0.75515586848E+01  0.74877515157E+01  0.20422112770E+02  0.51100000000E-03 0.  1.
        -11    1    3    3    0    0  0.15457359885E+02  0.27002045617E+01 -0.50556160736E+01  0.16485761536E+02  0.51100000000E-03 0. -1.
        -12    1    3    3    0    0  0.66769307311E+01  0.74900879364E+01 -0.42045780085E+01  0.10879397847E+02  0.00000000000E+00 0.  1.
</event>
<event>
 7    1  0.1384886E-010  0.4778727E+02  0.7816164E-02  0.1312668E+00
        -11   -1    0    0    0    0  0.00000000000E+00  0.00000000000E+00  0.45593999997E+02  0.45594000000E+02  0.51100000000E-03 0.  1.
         11   -1    0    0    0    0 -0.00000000000E+00 -0.00000000000E+00 -0.45593999997E+02  0.45594000000E+02  0.51100000000E-03 0. -1.
    9900012    2    1    2    0    0 -0.14942181040E+02 -0.34500321192E+02  0.21681376980E+02  0.47787273689E+02  0.20000012057E+02 0.  0.
         12    1    1    2    0    0  0.14942181040E+02  0.34500321192E+02 -0.21681376980E+02  0.43400726311E+02  0.00000000000E+00 0. -1.
         11    1    3    3    0    0  0.12728618236E+01 -0.57756184209E+00 -0.25683108213E+01  0.29240341378E+01  0.51100000000E-03 0. -1.
        -11    1    3    3    0    0 -0.47655587058E+01 -0.11721363958E+02  0.65464500216E+01  0.14246295341E+02  0.51100000000E-03 0.  1.
        -12    1    3    3    0    0 -0.11449484158E+02 -0.22201395392E+02  0.17703237780E+02  0.30616944209E+02  0.00000000000E+00 0.  1.
</event>
<event>
 7    1  0.1384886E-010  0.4778727E+02  0.7816164E-02  0.1312668E+00
        -11   -1    0    0    0    0  0.00000000000E+00  0.00000000000E+00  0.45593999997E+02  0.45594000000E+02  0.51100000000E-03 0. -1.
         11   -1    0    0    0    0 -0.00000000000E+00 -0.00000000000E+00 -0.45593999997E+02  0.45594000000E+02  0.51100000000E-03 0.  1.
    9900012    2    1    2    0    0  0.54130782486E+01  0.11338114229E+02 -0.41542378836E+02  0.47787268558E+02  0.19999988662E+02 0.  0.
         12    1    1    2    0    0 -0.54130782486E+01 -0.11338114229E+02  0.41542378836E+02  0.43400731442E+02  0.00000000000E+00 0. -1.
         11    1    3    3    0    0 -0.17266913332E+01  0.47193621125E+01 -0.44337676137E+01  0.67016518279E+01  0.51100000000E-03 0. -1.
        -11    1    3    3    0    0  0.71843749274E+01  0.10033271210E+02 -0.34903401246E+02  0.37020659003E+02  0.51100000000E-03 0.  1.
         12    1    3    3    0    0 -0.44605345639E-01 -0.34145190936E+01 -0.22052099764E+01  0.40649577264E+01  0.00000000000E+00 0. -1.
</event>
<event>
 7    1  0.1384886E-010  0.4778727E+02  0.7816164E-02  0.1312668E+00
        -11   -1    0    0    0    0  0.00000000000E+00  0.00000000000E+00  0.45593999997E+02  0.45594000000E+02  0.51100000000E-03 0.  1.
         11   -1    0    0    0    0 -0.00000000000E+00 -0.00000000000E+00 -0.45593999997E+02  0.45594000000E+02  0.51100000000E-03 0. -1.
    9900012    2    1    2    0    0 -0.36629613174E+00  0.49261636399E+01  0.43118697373E+02  0.47787270464E+02  0.19999997355E+02 0.  0.
         12    1    1    2    0    0  0.36629613174E+00 -0.49261636399E+01 -0.43118697373E+02  0.43400729536E+02  0.00000000000E+00 0. -1.
         11    1    3    3    0    0  0.49786893379E-01 -0.60479580083E+00 -0.13207818622E+01  0.14535204450E+01  0.51100000000E-03 0. -1.
        -11    1    3    3    0    0  0.33462642449E+01 -0.19808292830E+01  0.22637646267E+02  0.22969201071E+02  0.51100000000E-03 0.  1.
         12    1    3    3    0    0 -0.37623472700E+01  0.75117887237E+01  0.21801832968E+02  0.23364548949E+02  0.00000000000E+00 0. -1.
</event>
<event>
 7    1  0.1384886E-010  0.4778727E+02  0.7816164E-02  0.1312668E+00
        -11   -1    0    0    0    0  0.00000000000E+00  0.00000000000E+00  0.45593999997E+02  0.45594000000E+02  0.51100000000E-03 0.  1.
         11   -1    0    0    0    0 -0.00000000000E+00 -0.00000000000E+00 -0.45593999997E+02  0.45594000000E+02  0.51100000000E-03 0. -1.
    9900012    2    1    2    0    0 -0.35853883198E+02 -0.15302144825E+02  0.19077909325E+02  0.47787271885E+02  0.20000003834E+02 0.  0.
         12    1    1    2    0    0  0.35853883198E+02  0.15302144825E+02 -0.19077909325E+02  0.43400728115E+02  0.00000000000E+00 0. -1.
         11    1    3    3    0    0 -0.18546721546E+01  0.18150858491E+01  0.12553088944E+01  0.28827324056E+01  0.51100000000E-03 0.  1.
        -11    1    3    3    0    0 -0.12321287994E+02  0.16792980264E+01  0.40505188892E+01  0.13078259946E+02  0.51100000000E-03 0. -1.
         12    1    3    3    0    0 -0.21677923050E+02 -0.18796528701E+02  0.13772081542E+02  0.31826279533E+02  0.00000000000E+00 0. -1.
</event>
<event>
 7    1  0.1384886E-010  0.4778727E+02  0.7816164E-02  0.1312668E+00
        -11   -1    0    0    0    0  0.00000000000E+00  0.00000000000E+00  0.45593999997E+02  0.45594000000E+02  0.51100000000E-03 0.  1.
         11   -1    0    0    0    0 -0.00000000000E+00 -0.00000000000E+00 -0.45593999997E+02  0.45594000000E+02  0.51100000000E-03 0. -1.
    9900012    2    1    2    0    0 -0.20279503519E+02  0.30697124571E+02  0.23022850864E+02  0.47787269801E+02  0.19999994333E+02 0.  0.
         12    1    1    2    0    0  0.20279503519E+02 -0.30697124571E+02 -0.23022850864E+02  0.43400730199E+02  0.00000000000E+00 0. -1.
         11    1    3    3    0    0 -0.57924048020E+01  0.11524281791E+02  0.13817779271E+02  0.18902170468E+02  0.51100000000E-03 0. -1.
        -11    1    3    3    0    0 -0.16037298123E+02  0.19854738219E+02  0.93591906458E+01  0.27184554634E+02  0.51100000000E-03 0.  1.
         12    1    3    3    0    0  0.15501994066E+01 -0.68189543929E+00 -0.15411905278E+00  0.17005446988E+01  0.00000000000E+00 0. -1.
</event>
<event>
 7    1  0.1384886E-010  0.4778727E+02  0.7816164E-02  0.1312668E+00
        -11   -1    0    0    0    0  0.00000000000E+00  0.00000000000E+00  0.45593999997E+02  0.45594000000E+02  0.51100000000E-03 0.  1.
         11   -1    0    0    0    0 -0.00000000000E+00 -0.00000000000E+00 -0.45593999997E+02  0.45594000000E+02  0.51100000000E-03 0. -1.
    9900012    2    1    2    0    0  0.20566584607E+02 -0.33451574258E+02  0.18483264518E+02  0.47787270859E+02  0.19999999155E+02 0.  0.
         12    1    1    2    0    0 -0.20566584607E+02  0.33451574258E+02 -0.18483264518E+02  0.43400729141E+02  0.00000000000E+00 0. -1.
         11    1    3    3    0    0  0.24015175067E+01 -0.22618587026E+01 -0.15613183805E+01  0.36497954014E+01  0.51100000000E-03 0. -1.
        -11    1    3    3    0    0  0.88795113800E+01 -0.19758498963E+02  0.19891348510E+02  0.29409347994E+02  0.51100000000E-03 0.  1.
         12    1    3    3    0    0  0.92855557202E+01 -0.11431216592E+02  0.15323438861E+00  0.14728127463E+02  0.00000000000E+00 0. -1.
</event>
<event>
 7    1  0.1384886E-010  0.4778727E+02  0.7816164E-02  0.1312668E+00
        -11   -1    0    0    0    0  0.00000000000E+00  0.00000000000E+00  0.45593999997E+02  0.45594000000E+02  0.51100000000E-03 0.  1.
         11   -1    0    0    0    0 -0.00000000000E+00 -0.00000000000E+00 -0.45593999997E+02  0.45594000000E+02  0.51100000000E-03 0. -1.
    9900012    2    1    2    0    0  0.31923996111E+02  0.22830880730E+01  0.29313292239E+02  0.47787272809E+02  0.20000008045E+02 0.  0.
         12    1    1    2    0    0 -0.31923996111E+02 -0.22830880730E+01 -0.29313292239E+02  0.43400727191E+02  0.00000000000E+00 0. -1.
         11    1    3    3    0    0  0.60584935869E+01  0.16318767531E+01  0.15614409125E+02  0.16827897636E+02  0.51100000000E-03 0. -1.
        -11    1    3    3    0    0  0.51085806817E+01  0.48630789519E+00  0.78764555040E+01  0.94006725035E+01  0.51100000000E-03 0.  1.
        -12    1    3    3    0    0  0.20756921842E+02  0.16490342467E+00  0.58224276100E+01  0.21558702669E+02  0.00000000000E+00 0.  1.
</event>
<event>
 7    1  0.1384886E-010  0.4778727E+02  0.7816164E-02  0.1312668E+00
        -11   -1    0    0    0    0  0.00000000000E+00  0.00000000000E+00  0.45593999997E+02  0.45594000000E+02  0.51100000000E-03 0. -1.
         11   -1    0    0    0    0 -0.00000000000E+00 -0.00000000000E+00 -0.45593999997E+02  0.45594000000E+02  0.51100000000E-03 0.  1.
    9900012    2    1    2    0    0 -0.39349942756E+02  0.11213017470E+02 -0.14473209947E+02  0.47787267726E+02  0.19999984872E+02 0.  0.
         12    1    1    2    0    0  0.39349942756E+02 -0.11213017470E+02  0.14473209947E+02  0.43400732274E+02  0.00000000000E+00 0. -1.
         11    1    3    3    0    0 -0.31965656956E+01  0.31254644896E+01  0.34965307480E+01  0.56755870229E+01  0.51100000000E-03 0. -1.
        -11    1    3    3    0    0 -0.26856783190E+02  0.62957260535E+01 -0.88594336771E+01  0.28972616989E+02  0.51100000000E-03 0.  1.
        -12    1    3    3    0    0 -0.92965938709E+01  0.17918269270E+01 -0.91103070182E+01  0.13139063715E+02  0.00000000000E+00 0.  1.
</event>
<event>
 7    1  0.1384886E-010  0.4778726E+02  0.7816164E-02  0.1312668E+00
        -11   -1    0    0    0    0  0.00000000000E+00  0.00000000000E+00  0.45593999997E+02  0.45594000000E+02  0.51100000000E-03 0. -1.
         11   -1    0    0    0    0 -0.00000000000E+00 -0.00000000000E+00 -0.45593999997E+02  0.45594000000E+02  0.51100000000E-03 0.  1.
    9900012    2    1    2    0    0 -0.41559357906E+02 -0.36465778043E+01 -0.11964375831E+02  0.47787262123E+02  0.19999959323E+02 0.  0.
         12    1    1    2    0    0  0.41559357906E+02  0.36465778043E+01  0.11964375831E+02  0.43400737877E+02  0.00000000000E+00 0. -1.
         11    1    3    3    0    0 -0.13131950437E+02  0.32646820477E+01 -0.71073582954E+01  0.15284659412E+02  0.51100000000E-03 0. -1.
        -11    1    3    3    0    0 -0.59284736236E+01 -0.71043762709E+01  0.84502765059E+00  0.92915571190E+01  0.51100000000E-03 0.  1.
         12    1    3    3    0    0 -0.22498933846E+02  0.19311641896E+00 -0.57020451864E+01  0.23211045592E+02  0.00000000000E+00 0. -1.
</event>
<event>
 7    1  0.1384886E-010  0.4778727E+02  0.7816164E-02  0.1312668E+00
        -11   -1    0    0    0    0  0.00000000000E+00  0.00000000000E+00  0.45593999997E+02  0.45594000000E+02  0.51100000000E-03 0.  1.
         11   -1    0    0    0    0 -0.00000000000E+00 -0.00000000000E+00 -0.45593999997E+02  0.45594000000E+02  0.51100000000E-03 0. -1.
    9900012    2    1    2    0    0  0.66706725723E+01 -0.19934959040E+02  0.37970028321E+02  0.47787268264E+02  0.19999987323E+02 0.  0.
         12    1    1    2    0    0 -0.66706725723E+01  0.19934959040E+02 -0.37970028321E+02  0.43400731736E+02  0.00000000000E+00 0. -1.
         11    1    3    3    0    0 -0.42708307356E+01 -0.14781081016E+02  0.22157714661E+02  0.26975631048E+02  0.51100000000E-03 0. -1.
        -11    1    3    3    0    0  0.18517650504E+01  0.90278942387E+00  0.51535506513E+01  0.55500582991E+01  0.51100000000E-03 0.  1.
         12    1    3    3    0    0  0.90897382575E+01 -0.60566674476E+01  0.10658763009E+02  0.15261578917E+02  0.00000000000E+00 0. -1.
</event>
<event>
 7    1  0.1384886E-010  0.4778727E+02  0.7816164E-02  0.1312668E+00
        -11   -1    0    0    0    0  0.00000000000E+00  0.00000000000E+00  0.45593999997E+02  0.45594000000E+02  0.51100000000E-03 0. -1.
         11   -1    0    0    0    0 -0.00000000000E+00 -0.00000000000E+00 -0.45593999997E+02  0.45594000000E+02  0.51100000000E-03 0.  1.
    9900012    2    1    2    0    0 -0.15395540459E+02 -0.39878593303E+02 -0.75032316748E+01  0.47787270105E+02  0.19999995716E+02 0.  0.
         12    1    1    2    0    0  0.15395540459E+02  0.39878593303E+02  0.75032316748E+01  0.43400729895E+02  0.00000000000E+00 0. -1.
         11    1    3    3    0    0 -0.36916499890E+01 -0.37467071469E+01  0.27850707759E+01  0.59516983773E+01  0.51100000000E-03 0. -1.
        -11    1    3    3    0    0 -0.46343258748E+01 -0.30654133927E+02 -0.48803756692E+01  0.31384247165E+02  0.51100000000E-03 0.  1.
         12    1    3    3    0    0 -0.70695645950E+01 -0.54777522290E+01 -0.54079267815E+01  0.10451324563E+02  0.00000000000E+00 0. -1.
</event>
<event>
 7    1  0.1384886E-010  0.4778727E+02  0.7816164E-02  0.1312668E+00
        -11   -1    0    0    0    0  0.00000000000E+00  0.00000000000E+00  0.45593999997E+02  0.45594000000E+02  0.51100000000E-03 0.  1.
         11   -1    0    0    0    0 -0.00000000000E+00 -0.00000000000E+00 -0.45593999997E+02  0.45594000000E+02  0.51100000000E-03 0. -1.
    9900012    2    1    2    0    0  0.39472071494E+02 -0.11357203970E+02 -0.14021159034E+02  0.47787269468E+02  0.19999992811E+02 0.  0.
         12    1    1    2    0    0 -0.39472071494E+02  0.11357203970E+02  0.14021159034E+02  0.43400730532E+02  0.00000000000E+00 0. -1.
         11    1    3    3    0    0  0.25498254351E+02 -0.35105149581E+01 -0.14727102842E+02  0.29654211314E+02  0.51100000000E-03 0. -1.
        -11    1    3    3    0    0  0.83053594535E+01 -0.12602578281E-01  0.14648492053E+01  0.84335602169E+01  0.51100000000E-03 0.  1.
        -12    1    3    3    0    0  0.56684576893E+01 -0.78340864341E+01 -0.75890539756E+00  0.96994979372E+01  0.00000000000E+00 0.  1.
</event>
<event>
 7    1  0.1384886E-010  0.4778727E+02  0.7816164E-02  0.1312668E+00
        -11   -1    0    0    0    0  0.00000000000E+00  0.00000000000E+00  0.45593999997E+02  0.45594000000E+02  0.51100000000E-03 0.  1.
         11   -1    0    0    0    0 -0.00000000000E+00 -0.00000000000E+00 -0.45593999997E+02  0.45594000000E+02  0.51100000000E-03 0. -1.
    9900012    2    1    2    0    0  0.26295107325E+02 -0.13032940139E+02  0.31973943037E+02  0.47787271536E+02  0.20000002240E+02 0.  0.
         12    1    1    2    0    0 -0.26295107325E+02  0.13032940139E+02 -0.31973943037E+02  0.43400728464E+02  0.00000000000E+00 0. -1.
         11    1    3    3    0    0  0.17799914750E+02 -0.27143834456E+00  0.94605165617E+01  0.20159663136E+02  0.51100000000E-03 0. -1.
        -11    1    3    3    0    0  0.12094491328E+01 -0.29604953302E+01  0.82624420553E+01  0.88597544426E+01  0.51100000000E-03 0.  1.
         12    1    3    3    0    0  0.72857434425E+01 -0.98010064641E+01  0.14250984420E+02  0.18767853957E+02  0.00000000000E+00 0. -1.
</event>
<event>
 7    1  0.1384886E-010  0.4778727E+02  0.7816164E-02  0.1312668E+00
        -11   -1    0    0    0    0  0.00000000000E+00  0.00000000000E+00  0.45593999997E+02  0.45594000000E+02  0.51100000000E-03 0.  1.
         11   -1    0    0    0    0 -0.00000000000E+00 -0.00000000000E+00 -0.45593999997E+02  0.45594000000E+02  0.51100000000E-03 0. -1.
    9900012    2    1    2    0    0 -0.32451057934E+02  0.25010288212E+01  0.28710570626E+02  0.47787272220E+02  0.20000005358E+02 0.  0.
         12    1    1    2    0    0  0.32451057934E+02 -0.25010288212E+01 -0.28710570626E+02  0.43400727780E+02  0.00000000000E+00 0. -1.
         11    1    3    3    0    0 -0.11396207952E+02  0.47532898511E+01  0.78433745520E+01  0.14628255013E+02  0.51100000000E-03 0. -1.
        -11    1    3    3    0    0 -0.22818215694E+02 -0.46232346551E+00  0.20383617423E+02  0.30600270750E+02  0.51100000000E-03 0.  1.
         12    1    3    3    0    0  0.17633657120E+01 -0.17899375644E+01  0.48357865021E+00  0.25587464567E+01  0.00000000000E+00 0. -1.
</event>
<event>
 7    1  0.1384886E-010  0.4778727E+02  0.7816164E-02  0.1312668E+00
        -11   -1    0    0    0    0  0.00000000000E+00  0.00000000000E+00  0.45593999997E+02  0.45594000000E+02  0.51100000000E-03 0. -1.
         11   -1    0    0    0    0 -0.00000000000E+00 -0.00000000000E+00 -0.45593999997E+02  0.45594000000E+02  0.51100000000E-03 0.  1.
    9900012    2    1    2    0    0 -0.29354687578E+02 -0.23551318499E+02 -0.21616215191E+02  0.47787273681E+02  0.20000012021E+02 0.  0.
         12    1    1    2    0    0  0.29354687578E+02  0.23551318499E+02  0.21616215191E+02  0.43400726319E+02  0.00000000000E+00 0. -1.
         11    1    3    3    0    0 -0.14808592154E+01 -0.15223484131E+01  0.15126397518E+01  0.26074063715E+01  0.51100000000E-03 0. -1.
        -11    1    3    3    0    0 -0.23342833116E+02 -0.24156253560E+02 -0.18435348028E+02  0.38318070165E+02  0.51100000000E-03 0.  1.
         12    1    3    3    0    0 -0.45309952460E+01  0.21272834740E+01 -0.46935069148E+01  0.68617971449E+01  0.00000000000E+00 0. -1.
</event>
<event>
 7    1  0.1384886E-010  0.4778727E+02  0.7816164E-02  0.1312668E+00
        -11   -1    0    0    0    0  0.00000000000E+00  0.00000000000E+00  0.45593999997E+02  0.45594000000E+02  0.51100000000E-03 0.  1.
         11   -1    0    0    0    0 -0.00000000000E+00 -0.00000000000E+00 -0.45593999997E+02  0.45594000000E+02  0.51100000000E-03 0. -1.
    9900012    2    1    2    0    0 -0.25962396316E+02  0.34762744250E+02  0.10624872426E+01  0.47787270866E+02  0.19999999186E+02 0.  0.
         12    1    1    2    0    0  0.25962396316E+02 -0.34762744250E+02 -0.10624872426E+01  0.43400729134E+02  0.00000000000E+00 0. -1.
         11    1    3    3    0    0 -0.50184495774E+01  0.11892990624E+02 -0.12504772250E+01  0.12968876423E+02  0.51100000000E-03 0. -1.
        -11    1    3    3    0    0 -0.16140535513E+02  0.19306751969E+02 -0.47017380254E+01  0.25600271463E+02  0.51100000000E-03 0.  1.
        -12    1    3    3    0    0 -0.48034112253E+01  0.35630016570E+01  0.70147024930E+01  0.92181229799E+01  0.00000000000E+00 0.  1.
</event>
<event>
 7    1  0.1384886E-010  0.4778727E+02  0.7816164E-02  0.1312668E+00
        -11   -1    0    0    0    0  0.00000000000E+00  0.00000000000E+00  0.45593999997E+02  0.45594000000E+02  0.51100000000E-03 0.  1.
         11   -1    0    0    0    0 -0.00000000000E+00 -0.00000000000E+00 -0.45593999997E+02  0.45594000000E+02  0.51100000000E-03 0. -1.
    9900012    2    1    2    0    0 -0.18732341707E+02 -0.37337483653E+02  0.11774331323E+02  0.47787272017E+02  0.20000004435E+02 0.  0.
         12    1    1    2    0    0  0.18732341707E+02  0.37337483653E+02 -0.11774331323E+02  0.43400727983E+02  0.00000000000E+00 0. -1.
         11    1    3    3    0    0 -0.10512719610E+02 -0.22860879376E+02  0.12828762276E+02  0.28243835101E+02  0.51100000000E-03 0. -1.
        -11    1    3    3    0    0 -0.72332373732E+01 -0.84180678623E+01  0.37854244814E+01  0.11726594911E+02  0.51100000000E-03 0.  1.
         12    1    3    3    0    0 -0.98638472298E+00 -0.60585364149E+01 -0.48398554341E+01  0.78168420053E+01  0.00000000000E+00 0. -1.
</event>
<event>
 7    1  0.1384886E-010  0.4778727E+02  0.7816164E-02  0.1312668E+00
        -11   -1    0    0    0    0  0.00000000000E+00  0.00000000000E+00  0.45593999997E+02  0.45594000000E+02  0.51100000000E-03 0.  1.
         11   -1    0    0    0    0 -0.00000000000E+00 -0.00000000000E+00 -0.45593999997E+02  0.45594000000E+02  0.51100000000E-03 0. -1.
    9900012    2    1    2    0    0  0.17302838662E+02  0.37278961235E+02  0.13946829560E+02  0.47787271535E+02  0.20000002237E+02 0.  0.
         12    1    1    2    0    0 -0.17302838662E+02 -0.37278961235E+02 -0.13946829560E+02  0.43400728465E+02  0.00000000000E+00 0. -1.
         11    1    3    3    0    0  0.50980974120E+01  0.15461637172E+02  0.11069594582E+02  0.19687273700E+02  0.51100000000E-03 0. -1.
        -11    1    3    3    0    0  0.10599999351E+02  0.68699753922E+01  0.33187560883E+01  0.13060271451E+02  0.51100000000E-03 0.  1.
         12    1    3    3    0    0  0.16047418989E+01  0.14947348671E+02 -0.44152110989E+00  0.15039726385E+02  0.00000000000E+00 0. -1.
</event>
<event>
 7    1  0.1384886E-010  0.4778727E+02  0.7816164E-02  0.1312668E+00
        -11   -1    0    0    0    0  0.00000000000E+00  0.00000000000E+00  0.45593999997E+02  0.45594000000E+02  0.51100000000E-03 0.  1.
         11   -1    0    0    0    0 -0.00000000000E+00 -0.00000000000E+00 -0.45593999997E+02  0.45594000000E+02  0.51100000000E-03 0. -1.
    9900012    2    1    2    0    0 -0.20540583225E+02  0.61680610740E+01  0.37731456551E+02  0.47787270167E+02  0.19999995999E+02 0.  0.
         12    1    1    2    0    0  0.20540583225E+02 -0.61680610740E+01 -0.37731456551E+02  0.43400729833E+02  0.00000000000E+00 0. -1.
         11    1    3    3    0    0 -0.52896319187E+01 -0.20637458502E+01  0.45414327663E+01  0.72707540600E+01  0.51100000000E-03 0. -1.
        -11    1    3    3    0    0  0.22493723585E+01  0.26937745348E+01  0.11896981425E+02  0.12403800407E+02  0.51100000000E-03 0.  1.
        -12    1    3    3    0    0 -0.17500323664E+02  0.55380323894E+01  0.21293042359E+02  0.28112715700E+02  0.00000000000E+00 0.  1.
</event>
<event>
 7    1  0.1384886E-010  0.4778727E+02  0.7816164E-02  0.1312668E+00
        -11   -1    0    0    0    0  0.00000000000E+00  0.00000000000E+00  0.45593999997E+02  0.45594000000E+02  0.51100000000E-03 0.  1.
         11   -1    0    0    0    0 -0.00000000000E+00 -0.00000000000E+00 -0.45593999997E+02  0.45594000000E+02  0.51100000000E-03 0. -1.
    9900012    2    1    2    0    0  0.33751290581E+02 -0.25890849446E+02  0.86103281978E+01  0.47787268986E+02  0.19999990613E+02 0.  0.
         12    1    1    2    0    0 -0.33751290581E+02  0.25890849446E+02 -0.86103281978E+01  0.43400731014E+02  0.00000000000E+00 0. -1.
         11    1    3    3    0    0  0.76870341976E+01 -0.14191995163E+02  0.27796044599E+01  0.16377711155E+02  0.51100000000E-03 0. -1.
        -11    1    3    3    0    0  0.21083635498E+02 -0.13210993507E+02  0.74263423541E+01  0.25965373024E+02  0.51100000000E-03 0.  1.
        -12    1    3    3    0    0  0.49806208853E+01  0.15121392246E+01 -0.15956186162E+01  0.54441848064E+01  0.00000000000E+00 0.  1.
</event>
<event>
 7    1  0.1384886E-010  0.4778727E+02  0.7816164E-02  0.1312668E+00
        -11   -1    0    0    0    0  0.00000000000E+00  0.00000000000E+00  0.45593999997E+02  0.45594000000E+02  0.51100000000E-03 0. -1.
         11   -1    0    0    0    0 -0.00000000000E+00 -0.00000000000E+00 -0.45593999997E+02  0.45594000000E+02  0.51100000000E-03 0.  1.
    9900012    2    1    2    0    0  0.14023880701E+02  0.36316400772E+02 -0.19185243483E+02  0.47787265415E+02  0.19999974335E+02 0.  0.
         12    1    1    2    0    0 -0.14023880701E+02 -0.36316400772E+02  0.19185243483E+02  0.43400734585E+02  0.00000000000E+00 0. -1.
         11    1    3    3    0    0  0.11465525733E+02  0.17117789882E+02 -0.10645353084E+02  0.23190527233E+02  0.51100000000E-03 0. -1.
        -11    1    3    3    0    0  0.86965378699E+00  0.16174947443E+02 -0.11641461511E+02  0.19947652716E+02  0.51100000000E-03 0.  1.
         12    1    3    3    0    0  0.16887011804E+01  0.30236634476E+01  0.31015711116E+01  0.46490854672E+01  0.00000000000E+00 0. -1.
</event>
<event>
 7    1  0.1384886E-010  0.4778727E+02  0.7816164E-02  0.1312668E+00
        -11   -1    0    0    0    0  0.00000000000E+00  0.00000000000E+00  0.45593999997E+02  0.45594000000E+02  0.51100000000E-03 0.  1.
         11   -1    0    0    0    0 -0.00000000000E+00 -0.00000000000E+00 -0.45593999997E+02  0.45594000000E+02  0.51100000000E-03 0. -1.
    9900012    2    1    2    0    0 -0.18334868236E+02 -0.33905405298E+02  0.19946913546E+02  0.47787271185E+02  0.20000000639E+02 0.  0.
         12    1    1    2    0    0  0.18334868236E+02  0.33905405298E+02 -0.19946913546E+02  0.43400728815E+02  0.00000000000E+00 0. -1.
         11    1    3    3    0    0 -0.13262348922E+01 -0.12092870645E+02  0.16192112826E+01  0.12272663316E+02  0.51100000000E-03 0. -1.
        -11    1    3    3    0    0 -0.12054450162E+02 -0.21746691009E+02  0.17699115261E+02  0.30520272276E+02  0.51100000000E-03 0.  1.
        -12    1    3    3    0    0 -0.49541831822E+01 -0.65843644335E-01  0.62858700239E+00  0.49943355922E+01  0.00000000000E+00 0.  1.
</event>
<event>
 7    1  0.1384886E-010  0.4778727E+02  0.7816164E-02  0.1312668E+00
        -11   -1    0    0    0    0  0.00000000000E+00  0.00000000000E+00  0.45593999997E+02  0.45594000000E+02  0.51100000000E-03 0.  1.
         11   -1    0    0    0    0 -0.00000000000E+00 -0.00000000000E+00 -0.45593999997E+02  0.45594000000E+02  0.51100000000E-03 0. -1.
    9900012    2    1    2    0    0 -0.26810379808E+02 -0.23346791970E+02  0.24894859470E+02  0.47787272025E+02  0.20000004470E+02 0.  0.
         12    1    1    2    0    0  0.26810379808E+02  0.23346791970E+02 -0.24894859470E+02  0.43400727975E+02  0.00000000000E+00 0. -1.
         11    1    3    3    0    0 -0.67479351939E+01 -0.32347553307E+01 -0.27050120586E+01  0.79570950685E+01  0.51100000000E-03 0. -1.
        -11    1    3    3    0    0 -0.53227037670E+01 -0.80093006154E+01  0.10104203651E+02  0.13949014425E+02  0.51100000000E-03 0.  1.
         12    1    3    3    0    0 -0.14739740847E+02 -0.12102736024E+02  0.17495667878E+02  0.25881162532E+02  0.00000000000E+00 0. -1.
</event>
<event>
 7    1  0.1384886E-010  0.4778727E+02  0.7816164E-02  0.1312668E+00
        -11   -1    0    0    0    0  0.00000000000E+00  0.00000000000E+00  0.45593999997E+02  0.45594000000E+02  0.51100000000E-03 0.  1.
         11   -1    0    0    0    0 -0.00000000000E+00 -0.00000000000E+00 -0.45593999997E+02  0.45594000000E+02  0.51100000000E-03 0. -1.
    9900012    2    1    2    0    0  0.11121538537E+02 -0.20841359062E+02  0.36408413519E+02  0.47787269108E+02  0.19999991171E+02 0.  0.
         12    1    1    2    0    0 -0.11121538537E+02  0.20841359062E+02 -0.36408413519E+02  0.43400730892E+02  0.00000000000E+00 0. -1.
         11    1    3    3    0    0  0.24677681713E+01 -0.76148232321E+01  0.17476566773E+02  0.19222533627E+02  0.51100000000E-03 0. -1.
        -11    1    3    3    0    0  0.56548716117E+01 -0.10964935570E+02  0.20941039434E+02  0.24305030710E+02  0.51100000000E-03 0.  1.
         12    1    3    3    0    0  0.29988987542E+01 -0.22616002599E+01 -0.20091926881E+01  0.42597047704E+01  0.00000000000E+00 0. -1.
</event>
<event>
 7    1  0.1384886E-010  0.4778727E+02  0.7816164E-02  0.1312668E+00
        -11   -1    0    0    0    0  0.00000000000E+00  0.00000000000E+00  0.45593999997E+02  0.45594000000E+02  0.51100000000E-03 0. -1.
         11   -1    0    0    0    0 -0.00000000000E+00 -0.00000000000E+00 -0.45593999997E+02  0.45594000000E+02  0.51100000000E-03 0.  1.
    9900012    2    1    2    0    0 -0.47161983118E+01 -0.21211290943E+02 -0.37569428975E+02  0.47787269782E+02  0.19999994243E+02 0.  0.
         12    1    1    2    0    0  0.47161983118E+01  0.21211290943E+02  0.37569428975E+02  0.43400730218E+02  0.00000000000E+00 0. -1.
         11    1    3    3    0    0  0.25419162105E+01 -0.11654383783E+01  0.18918095257E+00  0.28027440713E+01  0.51100000000E-03 0. -1.
        -11    1    3    3    0    0 -0.44190169442E+01 -0.30979363321E+00 -0.55152152793E+01  0.70739863364E+01  0.51100000000E-03 0.  1.
        -12    1    3    3    0    0 -0.28390975781E+01 -0.19736058932E+02 -0.32243394648E+02  0.37910539374E+02  0.00000000000E+00 0.  1.
</event>
<event>
 7    1  0.1384886E-010  0.4778727E+02  0.7816164E-02  0.1312668E+00
        -11   -1    0    0    0    0  0.00000000000E+00  0.00000000000E+00  0.45593999997E+02  0.45594000000E+02  0.51100000000E-03 0.  1.
         11   -1    0    0    0    0 -0.00000000000E+00 -0.00000000000E+00 -0.45593999997E+02  0.45594000000E+02  0.51100000000E-03 0. -1.
    9900012    2    1    2    0    0 -0.11653470271E+01  0.41813625643E+02  0.11570915740E+02  0.47787269428E+02  0.19999992632E+02 0.  0.
         12    1    1    2    0    0  0.11653470271E+01 -0.41813625643E+02 -0.11570915740E+02  0.43400730572E+02  0.00000000000E+00 0. -1.
         11    1    3    3    0    0 -0.85037670278E+01  0.30816489341E+02  0.12220202298E+02  0.34224310270E+02  0.51100000000E-03 0. -1.
        -11    1    3    3    0    0  0.19890609191E+01  0.37499432912E+01  0.11045630038E+01  0.43861711911E+01  0.51100000000E-03 0.  1.
         12    1    3    3    0    0  0.53493590816E+01  0.72471930107E+01 -0.17538495622E+01  0.91767879677E+01  0.00000000000E+00 0. -1.
</event>
<event>
 7    1  0.1384886E-010  0.4778728E+02  0.7816164E-02  0.1312668E+00
        -11   -1    0    0    0    0  0.00000000000E+00  0.00000000000E+00  0.45593999997E+02  0.45594000000E+02  0.51100000000E-03 0. -1.
         11   -1    0    0    0    0 -0.00000000000E+00 -0.00000000000E+00 -0.45593999997E+02  0.45594000000E+02  0.51100000000E-03 0.  1.
    9900012    2    1    2    0    0  0.73281468803E+00  0.16670884521E+02 -0.40064541693E+02  0.47787275246E+02  0.20000019156E+02 0.  0.
         12    1    1    2    0    0 -0.73281468803E+00 -0.16670884521E+02  0.40064541693E+02  0.43400724754E+02  0.00000000000E+00 0. -1.
         11    1    3    3    0    0 -0.13729599435E+01  0.10560398441E+02 -0.14430922545E+02  0.17934842068E+02  0.51100000000E-03 0.  1.
        -11    1    3    3    0    0  0.80078717859E+01  0.29700144702E+01 -0.15812520732E+02  0.17971722473E+02  0.51100000000E-03 0. -1.
         12    1    3    3    0    0 -0.59020971544E+01  0.31404716103E+01 -0.98210984167E+01  0.11880710705E+02  0.00000000000E+00 0. -1.
</event>
<event>
 7    1  0.1384886E-010  0.4778727E+02  0.7816164E-02  0.1312668E+00
        -11   -1    0    0    0    0  0.00000000000E+00  0.00000000000E+00  0.45593999997E+02  0.45594000000E+02  0.51100000000E-03 0.  1.
         11   -1    0    0    0    0 -0.00000000000E+00 -0.00000000000E+00 -0.45593999997E+02  0.45594000000E+02  0.51100000000E-03 0. -1.
    9900012    2    1    2    0    0  0.19769940541E+02  0.38559484009E+02 -0.24369964908E+01  0.47787270653E+02  0.19999998213E+02 0.  0.
         12    1    1    2    0    0 -0.19769940541E+02 -0.38559484009E+02  0.24369964908E+01  0.43400729347E+02  0.00000000000E+00 0. -1.
         11    1    3    3    0    0 -0.75668567612E+00  0.15784518914E+02 -0.24598012668E+01  0.15992943228E+02  0.51100000000E-03 0.  1.
        -11    1    3    3    0    0  0.99039049974E+01  0.16243704748E+02  0.21438850376E+01  0.19145274128E+02  0.51100000000E-03 0. -1.
         12    1    3    3    0    0  0.10622721219E+02  0.65312603473E+01 -0.21210802616E+01  0.12649053297E+02  0.00000000000E+00 0. -1.
</event>
<event>
 7    1  0.1384886E-010  0.4778727E+02  0.7816164E-02  0.1312668E+00
        -11   -1    0    0    0    0  0.00000000000E+00  0.00000000000E+00  0.45593999997E+02  0.45594000000E+02  0.51100000000E-03 0. -1.
         11   -1    0    0    0    0 -0.00000000000E+00 -0.00000000000E+00 -0.45593999997E+02  0.45594000000E+02  0.51100000000E-03 0.  1.
    9900012    2    1    2    0    0 -0.19697014265E+02 -0.36330390266E+02 -0.13257213693E+02  0.47787270251E+02  0.19999996383E+02 0.  0.
         12    1    1    2    0    0  0.19697014265E+02  0.36330390266E+02  0.13257213693E+02  0.43400729749E+02  0.00000000000E+00 0. -1.
         11    1    3    3    0    0  0.17623791255E+01 -0.23143744737E+01 -0.22304692684E+01  0.36656926773E+01  0.51100000000E-03 0. -1.
        -11    1    3    3    0    0 -0.55258864347E+01 -0.21571353196E+02 -0.34629961243E+01  0.22535550626E+02  0.51100000000E-03 0.  1.
         12    1    3    3    0    0 -0.15933506956E+02 -0.12444662597E+02 -0.75637482999E+01  0.21586026948E+02  0.00000000000E+00 0. -1.
</event>
<event>
 7    1  0.1384886E-010  0.4778726E+02  0.7816164E-02  0.1312668E+00
        -11   -1    0    0    0    0  0.00000000000E+00  0.00000000000E+00  0.45593999997E+02  0.45594000000E+02  0.51100000000E-03 0. -1.
         11   -1    0    0    0    0 -0.00000000000E+00 -0.00000000000E+00 -0.45593999997E+02  0.45594000000E+02  0.51100000000E-03 0.  1.
    9900012    2    1    2    0    0 -0.22770192252E+02 -0.15283333003E+02 -0.33638699113E+02  0.47787262669E+02  0.19999961812E+02 0.  0.
         12    1    1    2    0    0  0.22770192252E+02  0.15283333003E+02  0.33638699113E+02  0.43400737331E+02  0.00000000000E+00 0. -1.
         11    1    3    3    0    0 -0.38515104831E+01 -0.48767877999E+01 -0.15440247062E+02  0.16643870398E+02  0.51100000000E-03 0. -1.
        -11    1    3    3    0    0 -0.33952164489E+01 -0.31962258423E+01 -0.12109621826E+02  0.12976374509E+02  0.51100000000E-03 0.  1.
        -12    1    3    3    0    0 -0.15523465320E+02 -0.72103193610E+01 -0.60888302252E+01  0.18167017762E+02  0.00000000000E+00 0.  1.
</event>
<event>
 7    1  0.1384886E-010  0.4778727E+02  0.7816164E-02  0.1312668E+00
        -11   -1    0    0    0    0  0.00000000000E+00  0.00000000000E+00  0.45593999997E+02  0.45594000000E+02  0.51100000000E-03 0.  1.
         11   -1    0    0    0    0 -0.00000000000E+00 -0.00000000000E+00 -0.45593999997E+02  0.45594000000E+02  0.51100000000E-03 0. -1.
    9900012    2    1    2    0    0 -0.13695604787E+02  0.29306781725E+02  0.28933825597E+02  0.47787270637E+02  0.19999998141E+02 0.  0.
         12    1    1    2    0    0  0.13695604787E+02 -0.29306781725E+02 -0.28933825597E+02  0.43400729363E+02  0.00000000000E+00 0. -1.
         11    1    3    3    0    0  0.24059071203E+01  0.11154088325E+01  0.41709865155E+00  0.26844920342E+01  0.51100000000E-03 0. -1.
        -11    1    3    3    0    0 -0.92470191810E+01  0.10096068598E+02  0.19318163467E+02  0.23677614003E+02  0.51100000000E-03 0.  1.
         12    1    3    3    0    0 -0.68544927263E+01  0.18095304294E+02  0.91985634781E+01  0.21425164599E+02  0.00000000000E+00 0. -1.
</event>
<event>
 7    1  0.1598288E-010  0.4778727E+02  0.7816164E-02  0.1312668E+00
        -11   -1    0    0    0    0  0.00000000000E+00  0.00000000000E+00  0.45593999997E+02  0.45594000000E+02  0.51100000000E-03 0.  1.
         11   -1    0    0    0    0 -0.00000000000E+00 -0.00000000000E+00 -0.45593999997E+02  0.45594000000E+02  0.51100000000E-03 0. -1.
    9900012    2    1    2    0    0 -0.42547603631E+02  0.70323659014E+01 -0.48857598348E+01  0.47787269659E+02  0.19999993685E+02 0.  0.
         12    1    1    2    0    0  0.42547603631E+02 -0.70323659014E+01  0.48857598348E+01  0.43400730341E+02  0.00000000000E+00 0. -1.
         11    1    3    3    0    0  0.90958041559E-01  0.13735283925E+01 -0.45324095350E+00  0.14492347061E+01  0.51100000000E-03 0. -1.
        -11    1    3    3    0    0 -0.40675552751E+02  0.12574798856E+01 -0.15542035248E+01  0.40724653419E+02  0.51100000000E-03 0.  1.
        -12    1    3    3    0    0 -0.19630089219E+01  0.44013576233E+01 -0.28783153565E+01  0.56133815341E+01  0.00000000000E+00 0.  1.
</event>
<event>
 7    1  0.1384886E-010  0.4778727E+02  0.7816164E-02  0.1312668E+00
        -11   -1    0    0    0    0  0.00000000000E+00  0.00000000000E+00  0.45593999997E+02  0.45594000000E+02  0.51100000000E-03 0.  1.
         11   -1    0    0    0    0 -0.00000000000E+00 -0.00000000000E+00 -0.45593999997E+02  0.45594000000E+02  0.51100000000E-03 0. -1.
    9900012    2    1    2    0    0 -0.98471333576E+01 -0.16499777843E+02  0.38915482107E+02  0.47787268994E+02  0.19999990649E+02 0.  0.
         12    1    1    2    0    0  0.98471333576E+01  0.16499777843E+02 -0.38915482107E+02  0.43400731006E+02  0.00000000000E+00 0. -1.
         11    1    3    3    0    0  0.12831403063E+01 -0.19925200773E+01  0.18619724866E+02  0.18769942452E+02  0.51100000000E-03 0. -1.
        -11    1    3    3    0    0 -0.25675335590E+01 -0.10983371425E+02  0.13125212323E+02  0.17306006911E+02  0.51100000000E-03 0.  1.
        -12    1    3    3    0    0 -0.85627401048E+01 -0.35238863406E+01  0.71705449184E+01  0.11711319630E+02  0.00000000000E+00 0.  1.
</event>
<event>
 7    1  0.1384886E-010  0.4778728E+02  0.7816164E-02  0.1312668E+00
        -11   -1    0    0    0    0  0.00000000000E+00  0.00000000000E+00  0.45593999997E+02  0.45594000000E+02  0.51100000000E-03 0. -1.
         11   -1    0    0    0    0 -0.00000000000E+00 -0.00000000000E+00 -0.45593999997E+02  0.45594000000E+02  0.51100000000E-03 0.  1.
    9900012    2    1    2    0    0  0.27840515348E+02  0.31379342023E+02 -0.11129463761E+02  0.47787281524E+02  0.20000047782E+02 0.  0.
         12    1    1    2    0    0 -0.27840515348E+02 -0.31379342023E+02  0.11129463761E+02  0.43400718476E+02  0.00000000000E+00 0. -1.
         11    1    3    3    0    0  0.94257029130E+00  0.47745742788E+00  0.26640491780E+01  0.28659313728E+01  0.51100000000E-03 0. -1.
        -11    1    3    3    0    0  0.18957096586E+02  0.19526077807E+02 -0.30709604151E+01  0.27387406296E+02  0.51100000000E-03 0.  1.
         12    1    3    3    0    0  0.79408484704E+01  0.11375806788E+02 -0.10722552524E+02  0.17533943856E+02  0.00000000000E+00 0. -1.
</event>
<event>
 7    1  0.1384886E-010  0.4778727E+02  0.7816164E-02  0.1312668E+00
        -11   -1    0    0    0    0  0.00000000000E+00  0.00000000000E+00  0.45593999997E+02  0.45594000000E+02  0.51100000000E-03 0.  1.
         11   -1    0    0    0    0 -0.00000000000E+00 -0.00000000000E+00 -0.45593999997E+02  0.45594000000E+02  0.51100000000E-03 0. -1.
    9900012    2    1    2    0    0  0.28401185965E+02  0.52850427770E+00  0.32813364250E+02  0.47787267813E+02  0.19999985266E+02 0.  0.
         12    1    1    2    0    0 -0.28401185965E+02 -0.52850427770E+00 -0.32813364250E+02  0.43400732187E+02  0.00000000000E+00 0. -1.
         11    1    3    3    0    0  0.25061744593E+01  0.26367100462E+01  0.85778472800E+01  0.93173287217E+01  0.51100000000E-03 0. -1.
        -11    1    3    3    0    0  0.25966950437E+02 -0.35067099912E+01  0.17309550068E+02  0.31403822280E+02  0.51100000000E-03 0.  1.
        -12    1    3    3    0    0 -0.71938931284E-01  0.13985042227E+01  0.69259669011E+01  0.70661168110E+01  0.00000000000E+00 0.  1.
</event>
<event>
 7    1  0.1384886E-010  0.4778727E+02  0.7816164E-02  0.1312668E+00
        -11   -1    0    0    0    0  0.00000000000E+00  0.00000000000E+00  0.45593999997E+02  0.45594000000E+02  0.51100000000E-03 0. -1.
         11   -1    0    0    0    0 -0.00000000000E+00 -0.00000000000E+00 -0.45593999997E+02  0.45594000000E+02  0.51100000000E-03 0.  1.
    9900012    2    1    2    0    0 -0.15232399250E+02  0.29920390764E+02 -0.27502135267E+02  0.47787271727E+02  0.20000003112E+02 0.  0.
         12    1    1    2    0    0  0.15232399250E+02 -0.29920390764E+02  0.27502135267E+02  0.43400728273E+02  0.00000000000E+00 0. -1.
         11    1    3    3    0    0 -0.40909257380E+01  0.39361919104E+01  0.20124329956E+01  0.60232189876E+01  0.51100000000E-03 0. -1.
        -11    1    3    3    0    0 -0.38832239451E+01  0.17766020987E+02 -0.14999644609E+02  0.23573295666E+02  0.51100000000E-03 0.  1.
        -12    1    3    3    0    0 -0.72582495665E+01  0.82181778667E+01 -0.14514923654E+02  0.18190757073E+02  0.00000000000E+00 0.  1.
</event>
<event>
 7    1  0.1384886E-010  0.4778727E+02  0.7816164E-02  0.1312668E+00
        -11   -1    0    0    0    0  0.00000000000E+00  0.00000000000E+00  0.45593999997E+02  0.45594000000E+02  0.51100000000E-03 0.  1.
         11   -1    0    0    0    0 -0.00000000000E+00 -0.00000000000E+00 -0.45593999997E+02  0.45594000000E+02  0.51100000000E-03 0. -1.
    9900012    2    1    2    0    0  0.16685710339E+02 -0.10814517901E+02  0.38577928434E+02  0.47787270868E+02  0.19999999194E+02 0.  0.
         12    1    1    2    0    0 -0.16685710339E+02  0.10814517901E+02 -0.38577928434E+02  0.43400729132E+02  0.00000000000E+00 0. -1.
         11    1    3    3    0    0  0.25494681221E+01 -0.58047085429E+01  0.13468856065E+01  0.64813987743E+01  0.51100000000E-03 0. -1.
        -11    1    3    3    0    0  0.44218554312E+01  0.29400605785E+01  0.12117305792E+02  0.13229733995E+02  0.51100000000E-03 0.  1.
        -12    1    3    3    0    0  0.97143867855E+01 -0.79498699362E+01  0.25113737036E+02  0.28076138099E+02  0.00000000000E+00 0.  1.
</event>
<event>
 7    1  0.1384886E-010  0.4778728E+02  0.7816164E-02  0.1312668E+00
        -11   -1    0    0    0    0  0.00000000000E+00  0.00000000000E+00  0.45593999997E+02  0.45594000000E+02  0.51100000000E-03 0. -1.
         11   -1    0    0    0    0 -0.00000000000E+00 -0.00000000000E+00 -0.45593999997E+02  0.45594000000E+02  0.51100000000E-03 0.  1.
    9900012    2    1    2    0    0  0.19365414341E+02  0.32138296258E+02 -0.21811316691E+02  0.47787275412E+02  0.20000019915E+02 0.  0.
         12    1    1    2    0    0 -0.19365414341E+02 -0.32138296258E+02  0.21811316691E+02  0.43400724588E+02  0.00000000000E+00 0. -1.
         11    1    3    3    0    0  0.20070113368E+02  0.23096349447E+02 -0.13746114249E+02  0.33544097329E+02  0.51100000000E-03 0.  1.
        -11    1    3    3    0    0 -0.13388721476E+01  0.74336894249E+01 -0.18287233403E+01  0.77715214990E+01  0.51100000000E-03 0. -1.
        -12    1    3    3    0    0  0.63417312009E+00  0.16082573856E+01 -0.62364791014E+01  0.64716565844E+01  0.00000000000E+00 0.  1.
</event>
<event>
 7    1  0.1384886E-010  0.4778728E+02  0.7816164E-02  0.1312668E+00
        -11   -1    0    0    0    0  0.00000000000E+00  0.00000000000E+00  0.45593999997E+02  0.45594000000E+02  0.51100000000E-03 0.  1.
         11   -1    0    0    0    0 -0.00000000000E+00 -0.00000000000E+00 -0.45593999997E+02  0.45594000000E+02  0.51100000000E-03 0. -1.
    9900012    2    1    2    0    0  0.12319305501E+02  0.31297044582E+02  0.27429046509E+02  0.47787275582E+02  0.20000020690E+02 0.  0.
         12    1    1    2    0    0 -0.12319305501E+02 -0.31297044582E+02 -0.27429046509E+02  0.43400724418E+02  0.00000000000E+00 0. -1.
         11    1    3    3    0    0  0.67529276865E+01  0.52447186814E+01  0.11085248235E+02  0.13999708393E+02  0.51100000000E-03 0. -1.
        -11    1    3    3    0    0  0.89519943628E+01  0.19175460281E+02  0.84564566302E+01  0.22789211023E+02  0.51100000000E-03 0.  1.
        -12    1    3    3    0    0 -0.33856165483E+01  0.68768656198E+01  0.78873416438E+01  0.10998356167E+02  0.00000000000E+00 0.  1.
</event>
<event>
 7    1  0.1384886E-010  0.4778727E+02  0.7816164E-02  0.1312668E+00
        -11   -1    0    0    0    0  0.00000000000E+00  0.00000000000E+00  0.45593999997E+02  0.45594000000E+02  0.51100000000E-03 0. -1.
         11   -1    0    0    0    0 -0.00000000000E+00 -0.00000000000E+00 -0.45593999997E+02  0.45594000000E+02  0.51100000000E-03 0.  1.
    9900012    2    1    2    0    0  0.29335151183E+02 -0.65388324651E+00 -0.31978817401E+02  0.47787269354E+02  0.19999992293E+02 0.  0.
         12    1    1    2    0    0 -0.29335151183E+02  0.65388324651E+00  0.31978817401E+02  0.43400730646E+02  0.00000000000E+00 0. -1.
         11    1    3    3    0    0  0.92455475537E+00 -0.23983242397E+01 -0.40442029706E+00  0.26019832229E+01  0.51100000000E-03 0. -1.
        -11    1    3    3    0    0  0.46756122467E+01 -0.72461676735E+00 -0.16011207386E+02  0.16695663556E+02  0.51100000000E-03 0.  1.
        -12    1    3    3    0    0  0.23734984181E+02  0.24690577606E+01 -0.15563189717E+02  0.28489622575E+02  0.00000000000E+00 0.  1.
</event>
<event>
 7    1  0.1456964E-010  0.4778727E+02  0.7816164E-02  0.1312668E+00
        -11   -1    0    0    0    0  0.00000000000E+00  0.00000000000E+00  0.45593999997E+02  0.45594000000E+02  0.51100000000E-03 0. -1.
         11   -1    0    0    0    0 -0.00000000000E+00 -0.00000000000E+00 -0.45593999997E+02  0.45594000000E+02  0.51100000000E-03 0.  1.
    9900012    2    1    2    0    0  0.17953975823E+02  0.32301101633E+01 -0.39380760464E+02  0.47787272422E+02  0.20000006283E+02 0.  0.
         12    1    1    2    0    0 -0.17953975823E+02 -0.32301101633E+01  0.39380760464E+02  0.43400727578E+02  0.00000000000E+00 0. -1.
         11    1    3    3    0    0 -0.37683856798E+01 -0.10058936973E+01 -0.50960739947E+01  0.64173610762E+01  0.51100000000E-03 0. -1.
        -11    1    3    3    0    0  0.11710333510E+02 -0.11147838266E+01 -0.16279398448E+02  0.20084657527E+02  0.51100000000E-03 0.  1.
        -12    1    3    3    0    0  0.10012027993E+02  0.53507876872E+01 -0.18005288021E+02  0.21285253819E+02  0.00000000000E+00 0.  1.
</event>
<event>
 7    1  0.1384886E-010  0.4778727E+02  0.7816164E-02  0.1312668E+00
        -11   -1    0    0    0    0  0.00000000000E+00  0.00000000000E+00  0.45593999997E+02  0.45594000000E+02  0.51100000000E-03 0.  1.
         11   -1    0    0    0    0 -0.00000000000E+00 -0.00000000000E+00 -0.45593999997E+02  0.45594000000E+02  0.51100000000E-03 0. -1.
    9900012    2    1    2    0    0 -0.40295879518E+02 -0.20679171821E-01  0.16120328724E+02  0.47787270375E+02  0.19999996949E+02 0.  0.
         12    1    1    2    0    0  0.40295879518E+02  0.20679171821E-01 -0.16120328724E+02  0.43400729625E+02  0.00000000000E+00 0. -1.
         11    1    3    3    0    0 -0.18242070386E+02 -0.36365337450E+01  0.56032450772E+01  0.19426627739E+02  0.51100000000E-03 0.  1.
        -11    1    3    3    0    0 -0.15042876156E+02  0.80111281534E+01  0.32549859711E+01  0.17351116139E+02  0.51100000000E-03 0. -1.
         12    1    3    3    0    0 -0.70109329770E+01 -0.43952735802E+01  0.72620976760E+01  0.11009526498E+02  0.00000000000E+00 0. -1.
</event>
<event>
 7    1  0.1384886E-010  0.4778728E+02  0.7816164E-02  0.1312668E+00
        -11   -1    0    0    0    0  0.00000000000E+00  0.00000000000E+00  0.45593999997E+02  0.45594000000E+02  0.51100000000E-03 0.  1.
         11   -1    0    0    0    0 -0.00000000000E+00 -0.00000000000E+00 -0.45593999997E+02  0.45594000000E+02  0.51100000000E-03 0. -1.
    9900012    2    1    2    0    0 -0.18690962920E+02  0.33386419567E+02  0.20484568753E+02  0.47787278077E+02  0.20000032066E+02 0.  0.
         12    1    1    2    0    0  0.18690962920E+02 -0.33386419567E+02 -0.20484568753E+02  0.43400721923E+02  0.00000000000E+00 0. -1.
         11    1    3    3    0    0 -0.84907643130E+01  0.12470526898E+02  0.75289171230E+01  0.16860952317E+02  0.51100000000E-03 0. -1.
        -11    1    3    3    0    0 -0.10716217056E+02  0.18644018804E+02  0.42577240346E+01  0.21921791883E+02  0.51100000000E-03 0.  1.
         12    1    3    3    0    0  0.51601844856E+00  0.22718738659E+01  0.86979275952E+01  0.90045338777E+01  0.00000000000E+00 0. -1.
</event>
<event>
 7    1  0.1384886E-010  0.4778727E+02  0.7816164E-02  0.1312668E+00
        -11   -1    0    0    0    0  0.00000000000E+00  0.00000000000E+00  0.45593999997E+02  0.45594000000E+02  0.51100000000E-03 0.  1.
         11   -1    0    0    0    0 -0.00000000000E+00 -0.00000000000E+00 -0.45593999997E+02  0.45594000000E+02  0.51100000000E-03 0. -1.
    9900012    2    1    2    0    0  0.38190511742E+01  0.59863859970E+01  0.42815899957E+02  0.47787271224E+02  0.20000000818E+02 0.  0.
         12    1    1    2    0    0 -0.38190511742E+01 -0.59863859970E+01 -0.42815899957E+02  0.43400728776E+02  0.00000000000E+00 0. -1.
         11    1    3    3    0    0  0.53032916373E+01  0.27041512267E+01  0.11044198198E+02  0.12546379962E+02  0.51100000000E-03 0. -1.
        -11    1    3    3    0    0 -0.26677369701E+01 -0.28225405699E+01  0.27316482977E+02  0.27591190592E+02  0.51100000000E-03 0.  1.
        -12    1    3    3    0    0  0.11834965071E+01  0.61047753402E+01  0.44552187816E+01  0.76497006693E+01  0.00000000000E+00 0.  1.
</event>
<event>
 7    1  0.1384886E-010  0.4778727E+02  0.7816164E-02  0.1312668E+00
        -11   -1    0    0    0    0  0.00000000000E+00  0.00000000000E+00  0.45593999997E+02  0.45594000000E+02  0.51100000000E-03 0. -1.
         11   -1    0    0    0    0 -0.00000000000E+00 -0.00000000000E+00 -0.45593999997E+02  0.45594000000E+02  0.51100000000E-03 0.  1.
    9900012    2    1    2    0    0 -0.42033317548E+02  0.58971716818E+01 -0.90579615348E+01  0.47787273219E+02  0.20000009916E+02 0.  0.
         12    1    1    2    0    0  0.42033317548E+02 -0.58971716818E+01  0.90579615348E+01  0.43400726781E+02  0.00000000000E+00 0. -1.
         11    1    3    3    0    0 -0.22890112996E+02  0.11209454411E+02 -0.31532371567E+01  0.25681745385E+02  0.51100000000E-03 0. -1.
        -11    1    3    3    0    0 -0.16050936220E+02 -0.19380193831E+01 -0.24081912923E+01  0.16345881997E+02  0.51100000000E-03 0.  1.
         12    1    3    3    0    0 -0.30922683310E+01 -0.33742633461E+01 -0.34965330858E+01  0.57596458380E+01  0.00000000000E+00 0. -1.
</event>
<event>
 7    1  0.1384886E-010  0.4778727E+02  0.7816164E-02  0.1312668E+00
        -11   -1    0    0    0    0  0.00000000000E+00  0.00000000000E+00  0.45593999997E+02  0.45594000000E+02  0.51100000000E-03 0.  1.
         11   -1    0    0    0    0 -0.00000000000E+00 -0.00000000000E+00 -0.45593999997E+02  0.45594000000E+02  0.51100000000E-03 0. -1.
    9900012    2    1    2    0    0  0.29851687342E+02  0.25135803037E+02  0.18991881515E+02  0.47787269649E+02  0.19999993639E+02 0.  0.
         12    1    1    2    0    0 -0.29851687342E+02 -0.25135803037E+02 -0.18991881515E+02  0.43400730351E+02  0.00000000000E+00 0. -1.
         11    1    3    3    0    0  0.65106322813E+01  0.25650711870E+01 -0.14199471355E+01  0.71403202327E+01  0.51100000000E-03 0. -1.
        -11    1    3    3    0    0  0.82787720084E+01  0.16422567796E+02  0.14189454024E+02  0.23228848545E+02  0.51100000000E-03 0.  1.
        -12    1    3    3    0    0  0.15062283052E+02  0.61481640546E+01  0.62223746272E+01  0.17418100872E+02  0.00000000000E+00 0.  1.
</event>
<event>
 7    1  0.1384886E-010  0.4778727E+02  0.7816164E-02  0.1312668E+00
        -11   -1    0    0    0    0  0.00000000000E+00  0.00000000000E+00  0.45593999997E+02  0.45594000000E+02  0.51100000000E-03 0.  1.
         11   -1    0    0    0    0 -0.00000000000E+00 -0.00000000000E+00 -0.45593999997E+02  0.45594000000E+02  0.51100000000E-03 0. -1.
    9900012    2    1    2    0    0  0.29814220526E+02  0.23582313819E+02  0.20943020668E+02  0.47787269761E+02  0.19999994146E+02 0.  0.
         12    1    1    2    0    0 -0.29814220526E+02 -0.23582313819E+02 -0.20943020668E+02  0.43400730239E+02  0.00000000000E+00 0. -1.
         11    1    3    3    0    0  0.21217833247E+02  0.92948032130E+01  0.97047542412E+01  0.25115176082E+02  0.51100000000E-03 0. -1.
        -11    1    3    3    0    0  0.86321573389E+01  0.98483648192E+01  0.12450941087E+02  0.18070151193E+02  0.51100000000E-03 0.  1.
         12    1    3    3    0    0 -0.35770059847E-01  0.44391457864E+01 -0.12126746602E+01  0.46019424857E+01  0.00000000000E+00 0. -1.
</event>
<event>
 7    1  0.1384886E-010  0.4778727E+02  0.7816164E-02  0.1312668E+00
        -11   -1    0    0    0    0  0.00000000000E+00  0.00000000000E+00  0.45593999997E+02  0.45594000000E+02  0.51100000000E-03 0.  1.
         11   -1    0    0    0    0 -0.00000000000E+00 -0.00000000000E+00 -0.45593999997E+02  0.45594000000E+02  0.51100000000E-03 0. -1.
    9900012    2    1    2    0    0 -0.39188844517E+02  0.16803670108E+02 -0.80928585514E+01  0.47787271628E+02  0.20000002661E+02 0.  0.
         12    1    1    2    0    0  0.39188844517E+02 -0.16803670108E+02  0.80928585514E+01  0.43400728372E+02  0.00000000000E+00 0. -1.
         11    1    3    3    0    0 -0.12325263035E+02  0.82975956075E+00 -0.71929829622E+01  0.14294740780E+02  0.51100000000E-03 0. -1.
        -11    1    3    3    0    0 -0.26950359455E+01 -0.17483699222E+01 -0.14335678594E+01  0.35178307522E+01  0.51100000000E-03 0.  1.
        -12    1    3    3    0    0 -0.24168545537E+02  0.17722280469E+02  0.53369227017E+00  0.29974700096E+02  0.00000000000E+00 0.  1.
</event>
<event>
 7    1  0.1384886E-010  0.4778729E+02  0.7816164E-02  0.1312668E+00
        -11   -1    0    0    0    0  0.00000000000E+00  0.00000000000E+00  0.45593999997E+02  0.45594000000E+02  0.51100000000E-03 0. -1.
         11   -1    0    0    0    0 -0.00000000000E+00 -0.00000000000E+00 -0.45593999997E+02  0.45594000000E+02  0.51100000000E-03 0.  1.
    9900012    2    1    2    0    0  0.27383214996E+02  0.32128235845E+02 -0.10077598089E+02  0.47787285890E+02  0.20000067686E+02 0.  0.
         12    1    1    2    0    0 -0.27383214996E+02 -0.32128235845E+02  0.10077598089E+02  0.43400714110E+02  0.00000000000E+00 0. -1.
         11    1    3    3    0    0  0.38007373088E+01  0.11328200529E+02 -0.50145916092E+01  0.12958389583E+02  0.51100000000E-03 0. -1.
        -11    1    3    3    0    0  0.15491162875E+02  0.46200696358E+01 -0.50568730407E+00  0.16173338881E+02  0.51100000000E-03 0.  1.
         12    1    3    3    0    0  0.80913148127E+01  0.16179965680E+02 -0.45573191759E+01  0.18655557426E+02  0.00000000000E+00 0. -1.
</event>
<event>
 7    1  0.1384886E-010  0.4778728E+02  0.7816164E-02  0.1312668E+00
        -11   -1    0    0    0    0  0.00000000000E+00  0.00000000000E+00  0.45593999997E+02  0.45594000000E+02  0.51100000000E-03 0.  1.
         11   -1    0    0    0    0 -0.00000000000E+00 -0.00000000000E+00 -0.45593999997E+02  0.45594000000E+02  0.51100000000E-03 0. -1.
    9900012    2    1    2    0    0  0.80540385442E+01  0.18451296712E+02  0.38448730308E+02  0.47787277085E+02  0.20000027543E+02 0.  0.
         12    1    1    2    0    0 -0.80540385442E+01 -0.18451296712E+02 -0.38448730308E+02  0.43400722915E+02  0.00000000000E+00 0. -1.
         11    1    3    3    0    0  0.11021027080E+01  0.12644752351E+02  0.98553476871E+01  0.16069607048E+02  0.51100000000E-03 0. -1.
        -11    1    3    3    0    0  0.92427025306E+01  0.53415602639E+01  0.18517697202E+02  0.21374398846E+02  0.51100000000E-03 0.  1.
        -12    1    3    3    0    0 -0.22907666944E+01  0.46498409682E+00  0.10075685419E+02  0.10343271191E+02  0.00000000000E+00 0.  1.
</event>
<event>
 7    1  0.1384886E-010  0.4778728E+02  0.7816164E-02  0.1312668E+00
        -11   -1    0    0    0    0  0.00000000000E+00  0.00000000000E+00  0.45593999997E+02  0.45594000000E+02  0.51100000000E-03 0.  1.
         11   -1    0    0    0    0 -0.00000000000E+00 -0.00000000000E+00 -0.45593999997E+02  0.45594000000E+02  0.51100000000E-03 0. -1.
    9900012    2    1    2    0    0 -0.14574449885E+01 -0.27381963638E+02  0.33641140501E+02  0.47787280965E+02  0.20000045231E+02 0.  0.
         12    1    1    2    0    0  0.14574449885E+01  0.27381963638E+02 -0.33641140501E+02  0.43400719035E+02  0.00000000000E+00 0. -1.
         11    1    3    3    0    0  0.59272253616E+01 -0.13802298687E+02  0.91470134490E+01  0.17587020920E+02  0.51100000000E-03 0. -1.
        -11    1    3    3    0    0 -0.36549490688E+01 -0.13194827811E+02  0.21037293639E+02  0.25100395566E+02  0.51100000000E-03 0.  1.
         12    1    3    3    0    0 -0.37297212813E+01 -0.38483714004E+00  0.34568334132E+01  0.50998644793E+01  0.00000000000E+00 0. -1.
</event>
<event>
 7    1  0.1384886E-010  0.4778727E+02  0.7816164E-02  0.1312668E+00
        -11   -1    0    0    0    0  0.00000000000E+00  0.00000000000E+00  0.45593999997E+02  0.45594000000E+02  0.51100000000E-03 0.  1.
         11   -1    0    0    0    0 -0.00000000000E+00 -0.00000000000E+00 -0.45593999997E+02  0.45594000000E+02  0.51100000000E-03 0. -1.
    9900012    2    1    2    0    0  0.32339085533E+02  0.24589229296E+02 -0.15270112904E+02  0.47787274216E+02  0.20000014459E+02 0.  0.
         12    1    1    2    0    0 -0.32339085533E+02 -0.24589229296E+02  0.15270112904E+02  0.43400725784E+02  0.00000000000E+00 0. -1.
         11    1    3    3    0    0  0.69908305788E+00  0.10474094380E+02 -0.27228691529E+01  0.10844786162E+02  0.51100000000E-03 0. -1.
        -11    1    3    3    0    0  0.96396194541E+01  0.30257880779E+01 -0.39591026392E+01  0.10851366305E+02  0.51100000000E-03 0.  1.
         12    1    3    3    0    0  0.22000383021E+02  0.11089346838E+02 -0.85881411123E+01  0.26091121749E+02  0.00000000000E+00 0. -1.
</event>
<event>
 7    1  0.1384886E-010  0.4778727E+02  0.7816164E-02  0.1312668E+00
        -11   -1    0    0    0    0  0.00000000000E+00  0.00000000000E+00  0.45593999997E+02  0.45594000000E+02  0.51100000000E-03 0. -1.
         11   -1    0    0    0    0 -0.00000000000E+00 -0.00000000000E+00 -0.45593999997E+02  0.45594000000E+02  0.51100000000E-03 0.  1.
    9900012    2    1    2    0    0 -0.10101688887E+02 -0.40563006830E+02 -0.11671415070E+02  0.47787267619E+02  0.19999984383E+02 0.  0.
         12    1    1    2    0    0  0.10101688887E+02  0.40563006830E+02  0.11671415070E+02  0.43400732381E+02  0.00000000000E+00 0. -1.
         11    1    3    3    0    0  0.14806543433E+01 -0.21236429887E+00 -0.16528156080E+01  0.22291782286E+01  0.51100000000E-03 0. -1.
        -11    1    3    3    0    0 -0.56475195594E+01 -0.35544233916E+02 -0.48009553809E+01  0.36308899937E+02  0.51100000000E-03 0.  1.
        -12    1    3    3    0    0 -0.59348236709E+01 -0.48064086154E+01 -0.52176440812E+01  0.92491894532E+01  0.00000000000E+00 0.  1.
</event>
<event>
 7    1  0.1384886E-010  0.4778727E+02  0.7816164E-02  0.1312668E+00
        -11   -1    0    0    0    0  0.00000000000E+00  0.00000000000E+00  0.45593999997E+02  0.45594000000E+02  0.51100000000E-03 0.  1.
         11   -1    0    0    0    0 -0.00000000000E+00 -0.00000000000E+00 -0.45593999997E+02  0.45594000000E+02  0.51100000000E-03 0. -1.
    9900012    2    1    2    0    0 -0.34858104599E+02  0.25266267328E+02  0.54910364570E+01  0.47787271869E+02  0.20000003759E+02 0.  0.
         12    1    1    2    0    0  0.34858104599E+02 -0.25266267328E+02 -0.54910364570E+01  0.43400728131E+02  0.00000000000E+00 0. -1.
         11    1    3    3    0    0 -0.73530285293E+01  0.32499809826E+01 -0.47841778256E+01  0.93550928733E+01  0.51100000000E-03 0. -1.
        -11    1    3    3    0    0 -0.11693159999E+02  0.11187732880E+02 -0.96988969272E+00  0.16212218973E+02  0.51100000000E-03 0.  1.
        -12    1    3    3    0    0 -0.15811916071E+02  0.10828553465E+02  0.11245103975E+02  0.22219960023E+02  0.00000000000E+00 0.  1.
</event>
<event>
 7    1  0.1384886E-010  0.4778727E+02  0.7816164E-02  0.1312668E+00
        -11   -1    0    0    0    0  0.00000000000E+00  0.00000000000E+00  0.45593999997E+02  0.45594000000E+02  0.51100000000E-03 0.  1.
         11   -1    0    0    0    0 -0.00000000000E+00 -0.00000000000E+00 -0.45593999997E+02  0.45594000000E+02  0.51100000000E-03 0. -1.
    9900012    2    1    2    0    0 -0.20365876526E+02 -0.33858953369E+02  0.17956209451E+02  0.47787272958E+02  0.20000008725E+02 0.  0.
         12    1    1    2    0    0  0.20365876526E+02  0.33858953369E+02 -0.17956209451E+02  0.43400727042E+02  0.00000000000E+00 0. -1.
         11    1    3    3    0    0 -0.98223100141E+01 -0.17806888681E+02  0.10530640403E+02  0.22901035917E+02  0.51100000000E-03 0. -1.
        -11    1    3    3    0    0 -0.85846543429E+01 -0.18486980403E+02  0.51588985268E+01  0.21025674041E+02  0.51100000000E-03 0.  1.
         12    1    3    3    0    0 -0.19589121694E+01  0.24349157152E+01  0.22666705213E+01  0.38605630003E+01  0.00000000000E+00 0. -1.
</event>
<event>
 7    1  0.1384886E-010  0.4778722E+02  0.7816164E-02  0.1312668E+00
        -11   -1    0    0    0    0  0.00000000000E+00  0.00000000000E+00  0.45593999997E+02  0.45594000000E+02  0.51100000000E-03 0.  1.
         11   -1    0    0    0    0 -0.00000000000E+00 -0.00000000000E+00 -0.45593999997E+02  0.45594000000E+02  0.51100000000E-03 0. -1.
    9900012    2    1    2    0    0  0.28400080610E+02  0.16193188534E+02  0.28545473562E+02  0.47787216661E+02  0.19999752043E+02 0.  0.
         12    1    1    2    0    0 -0.28400080610E+02 -0.16193188534E+02 -0.28545473562E+02  0.43400783339E+02  0.00000000000E+00 0. -1.
         11    1    3    3    0    0  0.68292269919E+01  0.12327369670E+02  0.64238669038E+01  0.15487687063E+02  0.51100000000E-03 0. -1.
        -11    1    3    3    0    0  0.16639594978E+02  0.65006959196E+01  0.17941433707E+02  0.25318574451E+02  0.51100000000E-03 0.  1.
        -12    1    3    3    0    0  0.49312586400E+01 -0.26348770559E+01  0.41801729512E+01  0.69809551478E+01  0.00000000000E+00 0.  1.
</event>
<event>
 7    1  0.1384886E-010  0.4778727E+02  0.7816164E-02  0.1312668E+00
        -11   -1    0    0    0    0  0.00000000000E+00  0.00000000000E+00  0.45593999997E+02  0.45594000000E+02  0.51100000000E-03 0. -1.
         11   -1    0    0    0    0 -0.00000000000E+00 -0.00000000000E+00 -0.45593999997E+02  0.45594000000E+02  0.51100000000E-03 0.  1.
    9900012    2    1    2    0    0  0.17526538998E+02 -0.17778372565E+02 -0.35501734701E+02  0.47787271122E+02  0.20000000356E+02 0.  0.
         12    1    1    2    0    0 -0.17526538998E+02  0.17778372565E+02  0.35501734701E+02  0.43400728878E+02  0.00000000000E+00 0. -1.
         11    1    3    3    0    0 -0.67459142573E+00  0.26791869217E+01 -0.55078923954E+01  0.61619797998E+01  0.51100000000E-03 0. -1.
        -11    1    3    3    0    0 -0.53939151447E+00 -0.27385810583E+01 -0.49102886681E+01  0.56481593890E+01  0.51100000000E-03 0.  1.
        -12    1    3    3    0    0  0.18740521938E+02 -0.17718978429E+02 -0.25083553638E+02  0.35977131934E+02  0.00000000000E+00 0.  1.
</event>
<event>
 7    1  0.1384886E-010  0.4778727E+02  0.7816164E-02  0.1312668E+00
        -11   -1    0    0    0    0  0.00000000000E+00  0.00000000000E+00  0.45593999997E+02  0.45594000000E+02  0.51100000000E-03 0.  1.
         11   -1    0    0    0    0 -0.00000000000E+00 -0.00000000000E+00 -0.45593999997E+02  0.45594000000E+02  0.51100000000E-03 0. -1.
    9900012    2    1    2    0    0  0.16001118062E+02 -0.13922767973E+02  0.37864813520E+02  0.47787270165E+02  0.19999995990E+02 0.  0.
         12    1    1    2    0    0 -0.16001118062E+02  0.13922767973E+02 -0.37864813520E+02  0.43400729835E+02  0.00000000000E+00 0. -1.
         11    1    3    3    0    0 -0.78321986181E+00 -0.54399090235E+01  0.48186518405E+01  0.73092714656E+01  0.51100000000E-03 0. -1.
        -11    1    3    3    0    0  0.14939968467E+02 -0.11801954753E+02  0.30325615869E+02  0.35806867663E+02  0.51100000000E-03 0.  1.
         12    1    3    3    0    0  0.18443694573E+01  0.33190958032E+01  0.27205458114E+01  0.46711310363E+01  0.00000000000E+00 0. -1.
</event>
<event>
 7    1  0.1384886E-010  0.4778727E+02  0.7816164E-02  0.1312668E+00
        -11   -1    0    0    0    0  0.00000000000E+00  0.00000000000E+00  0.45593999997E+02  0.45594000000E+02  0.51100000000E-03 0.  1.
         11   -1    0    0    0    0 -0.00000000000E+00 -0.00000000000E+00 -0.45593999997E+02  0.45594000000E+02  0.51100000000E-03 0. -1.
    9900012    2    1    2    0    0 -0.18525193503E+02 -0.29393268928E+02 -0.26009159372E+02  0.47787269316E+02  0.19999992121E+02 0.  0.
         12    1    1    2    0    0  0.18525193503E+02  0.29393268928E+02  0.26009159372E+02  0.43400730684E+02  0.00000000000E+00 0. -1.
         11    1    3    3    0    0  0.15930002968E+01  0.76296862955E+00 -0.45728247338E+01  0.49020911234E+01  0.51100000000E-03 0. -1.
        -11    1    3    3    0    0 -0.85378097787E+01 -0.19437902962E+02 -0.10488115312E+02  0.23679671248E+02  0.51100000000E-03 0.  1.
        -12    1    3    3    0    0 -0.11580384021E+02 -0.10718334596E+02 -0.10948219326E+02  0.19205506945E+02  0.00000000000E+00 0.  1.
</event>
<event>
 7    1  0.1384886E-010  0.4778727E+02  0.7816164E-02  0.1312668E+00
        -11   -1    0    0    0    0  0.00000000000E+00  0.00000000000E+00  0.45593999997E+02  0.45594000000E+02  0.51100000000E-03 0.  1.
         11   -1    0    0    0    0 -0.00000000000E+00 -0.00000000000E+00 -0.45593999997E+02  0.45594000000E+02  0.51100000000E-03 0. -1.
    9900012    2    1    2    0    0 -0.76109710870E+01 -0.15826700006E+02  0.39688944794E+02  0.47787266679E+02  0.19999980094E+02 0.  0.
         12    1    1    2    0    0  0.76109710870E+01  0.15826700006E+02 -0.39688944794E+02  0.43400733321E+02  0.00000000000E+00 0. -1.
         11    1    3    3    0    0  0.54820889499E+01 -0.88175749523E-01  0.91871972786E+01  0.10698862945E+02  0.51100000000E-03 0.  1.
        -11    1    3    3    0    0 -0.60486353024E+01 -0.41038624102E+01  0.13108474832E+02  0.15008657114E+02  0.51100000000E-03 0. -1.
        -12    1    3    3    0    0 -0.70444247345E+01 -0.11634661846E+02  0.17393272684E+02  0.22079746619E+02  0.00000000000E+00 0.  1.
</event>
<event>
 7    1  0.1384886E-010  0.4778727E+02  0.7816164E-02  0.1312668E+00
        -11   -1    0    0    0    0  0.00000000000E+00  0.00000000000E+00  0.45593999997E+02  0.45594000000E+02  0.51100000000E-03 0.  1.
         11   -1    0    0    0    0 -0.00000000000E+00 -0.00000000000E+00 -0.45593999997E+02  0.45594000000E+02  0.51100000000E-03 0. -1.
    9900012    2    1    2    0    0 -0.34350015571E+01 -0.41546270300E+02 -0.12071941492E+02  0.47787267484E+02  0.19999983768E+02 0.  0.
         12    1    1    2    0    0  0.34350015571E+01  0.41546270300E+02  0.12071941492E+02  0.43400732516E+02  0.00000000000E+00 0. -1.
         11    1    3    3    0    0  0.53105197742E+01 -0.25372444440E+02 -0.12452139733E+02  0.28757926583E+02  0.51100000000E-03 0. -1.
        -11    1    3    3    0    0 -0.19225347057E+01 -0.94718478408E+00  0.92667935959E+00  0.23349590160E+01  0.51100000000E-03 0.  1.
         12    1    3    3    0    0 -0.68229866256E+01 -0.15226641075E+02 -0.54648111890E+00  0.16694381886E+02  0.00000000000E+00 0. -1.
</event>
<event>
 7    1  0.1384886E-010  0.4778727E+02  0.7816164E-02  0.1312668E+00
        -11   -1    0    0    0    0  0.00000000000E+00  0.00000000000E+00  0.45593999997E+02  0.45594000000E+02  0.51100000000E-03 0. -1.
         11   -1    0    0    0    0 -0.00000000000E+00 -0.00000000000E+00 -0.45593999997E+02  0.45594000000E+02  0.51100000000E-03 0.  1.
    9900012    2    1    2    0    0  0.11534813681E+02 -0.34125575715E+02 -0.24207772268E+02  0.47787273246E+02  0.20000010040E+02 0.  0.
         12    1    1    2    0    0 -0.11534813681E+02  0.34125575715E+02  0.24207772268E+02  0.43400726754E+02  0.00000000000E+00 0. -1.
         11    1    3    3    0    0  0.98479574670E+00  0.92204505498E+00  0.11545403890E+01  0.17756557992E+01  0.51100000000E-03 0. -1.
        -11    1    3    3    0    0  0.88207444579E+00 -0.15907993841E+02 -0.16110174912E+02  0.22657891767E+02  0.51100000000E-03 0.  1.
         12    1    3    3    0    0  0.96679434889E+01 -0.19139626930E+02 -0.92521377450E+01  0.23353725681E+02  0.00000000000E+00 0. -1.
</event>
<event>
 7    1  0.1384886E-010  0.4778727E+02  0.7816164E-02  0.1312668E+00
        -11   -1    0    0    0    0  0.00000000000E+00  0.00000000000E+00  0.45593999997E+02  0.45594000000E+02  0.51100000000E-03 0.  1.
         11   -1    0    0    0    0 -0.00000000000E+00 -0.00000000000E+00 -0.45593999997E+02  0.45594000000E+02  0.51100000000E-03 0. -1.
    9900012    2    1    2    0    0 -0.36253598526E+02 -0.21593342790E+02  0.10150235991E+02  0.47787272476E+02  0.20000006527E+02 0.  0.
         12    1    1    2    0    0  0.36253598526E+02  0.21593342790E+02 -0.10150235991E+02  0.43400727524E+02  0.00000000000E+00 0. -1.
         11    1    3    3    0    0 -0.22640991024E+01 -0.63523555383E+01  0.72605129241E+00  0.67827513864E+01  0.51100000000E-03 0. -1.
        -11    1    3    3    0    0 -0.23684024289E+02 -0.11053403324E+02  0.13169925371E+02  0.29267006442E+02  0.51100000000E-03 0.  1.
         12    1    3    3    0    0 -0.10305475135E+02 -0.41875839275E+01 -0.37457406723E+01  0.11737514647E+02  0.00000000000E+00 0. -1.
</event>
<event>
 7    1  0.1384886E-010  0.4778727E+02  0.7816164E-02  0.1312668E+00
        -11   -1    0    0    0    0  0.00000000000E+00  0.00000000000E+00  0.45593999997E+02  0.45594000000E+02  0.51100000000E-03 0.  1.
         11   -1    0    0    0    0 -0.00000000000E+00 -0.00000000000E+00 -0.45593999997E+02  0.45594000000E+02  0.51100000000E-03 0. -1.
    9900012    2    1    2    0    0 -0.41158185724E+02  0.94202116179E+01  0.10044232199E+02  0.47787271441E+02  0.20000001808E+02 0.  0.
         12    1    1    2    0    0  0.41158185724E+02 -0.94202116179E+01 -0.10044232199E+02  0.43400728559E+02  0.00000000000E+00 0. -1.
         11    1    3    3    0    0 -0.77474975536E+01 -0.25343051067E+01  0.15976224010E+01  0.83065527334E+01  0.51100000000E-03 0. -1.
        -11    1    3    3    0    0 -0.24202646226E+02  0.14775128003E+02  0.92248562981E+01  0.29818961515E+02  0.51100000000E-03 0.  1.
        -12    1    3    3    0    0 -0.92080419440E+01 -0.28206112787E+01 -0.77824650016E+00  0.96617571923E+01  0.00000000000E+00 0.  1.
</event>
<event>
 7    1  0.1384886E-010  0.4778728E+02  0.7816164E-02  0.1312668E+00
        -11   -1    0    0    0    0  0.00000000000E+00  0.00000000000E+00  0.45593999997E+02  0.45594000000E+02  0.51100000000E-03 0.  1.
         11   -1    0    0    0    0 -0.00000000000E+00 -0.00000000000E+00 -0.45593999997E+02  0.45594000000E+02  0.51100000000E-03 0. -1.
    9900012    2    1    2    0    0 -0.27007762897E+02  0.33070349569E+02 -0.77817394348E+01  0.47787277126E+02  0.20000027728E+02 0.  0.
         12    1    1    2    0    0  0.27007762897E+02 -0.33070349569E+02  0.77817394348E+01  0.43400722874E+02  0.00000000000E+00 0. -1.
         11    1    3    3    0    0 -0.98663361111E+01  0.48894811212E+01  0.10124164553E+01  0.11057875078E+02  0.51100000000E-03 0. -1.
        -11    1    3    3    0    0 -0.14235527786E+02  0.18046861306E+02 -0.11702513412E+02  0.25793182719E+02  0.51100000000E-03 0.  1.
         12    1    3    3    0    0 -0.29058990000E+01  0.10134007142E+02  0.29083575216E+01  0.10936219329E+02  0.00000000000E+00 0. -1.
</event>
<event>
 7    1  0.1384886E-010  0.4778727E+02  0.7816164E-02  0.1312668E+00
        -11   -1    0    0    0    0  0.00000000000E+00  0.00000000000E+00  0.45593999997E+02  0.45594000000E+02  0.51100000000E-03 0.  1.
         11   -1    0    0    0    0 -0.00000000000E+00 -0.00000000000E+00 -0.45593999997E+02  0.45594000000E+02  0.51100000000E-03 0. -1.
    9900012    2    1    2    0    0 -0.29452627429E+02  0.14826613498E+02  0.28219455308E+02  0.47787269728E+02  0.19999993996E+02 0.  0.
         12    1    1    2    0    0  0.29452627429E+02 -0.14826613498E+02 -0.28219455308E+02  0.43400730272E+02  0.00000000000E+00 0. -1.
         11    1    3    3    0    0 -0.99430314781E+01 -0.47439363501E+00  0.11134821444E+01  0.10016424863E+02  0.51100000000E-03 0. -1.
        -11    1    3    3    0    0 -0.10489440593E+02  0.45406837571E+01  0.75584119053E+01  0.13703129705E+02  0.51100000000E-03 0.  1.
        -12    1    3    3    0    0 -0.90201553588E+01  0.10760323376E+02  0.19547561258E+02  0.24067715159E+02  0.00000000000E+00 0.  1.
</event>
<event>
 7    1  0.1384886E-010  0.4778727E+02  0.7816164E-02  0.1312668E+00
        -11   -1    0    0    0    0  0.00000000000E+00  0.00000000000E+00  0.45593999997E+02  0.45594000000E+02  0.51100000000E-03 0.  1.
         11   -1    0    0    0    0 -0.00000000000E+00 -0.00000000000E+00 -0.45593999997E+02  0.45594000000E+02  0.51100000000E-03 0. -1.
    9900012    2    1    2    0    0  0.14552563077E+02  0.26891692850E+02  0.30800704843E+02  0.47787266651E+02  0.19999979969E+02 0.  0.
         12    1    1    2    0    0 -0.14552563077E+02 -0.26891692850E+02 -0.30800704843E+02  0.43400733349E+02  0.00000000000E+00 0. -1.
         11    1    3    3    0    0 -0.44679520852E+01  0.57993711906E+01  0.37939972184E+01  0.82455877412E+01  0.51100000000E-03 0. -1.
        -11    1    3    3    0    0  0.99616705794E+01  0.14441664834E+02  0.14837109940E+02  0.22976866530E+02  0.51100000000E-03 0.  1.
        -12    1    3    3    0    0  0.90588445826E+01  0.66506568247E+01  0.12169597684E+02  0.16564812380E+02  0.00000000000E+00 0.  1.
</event>
<event>
 7    1  0.1384886E-010  0.4778727E+02  0.7816164E-02  0.1312668E+00
        -11   -1    0    0    0    0  0.00000000000E+00  0.00000000000E+00  0.45593999997E+02  0.45594000000E+02  0.51100000000E-03 0. -1.
         11   -1    0    0    0    0 -0.00000000000E+00 -0.00000000000E+00 -0.45593999997E+02  0.45594000000E+02  0.51100000000E-03 0.  1.
    9900012    2    1    2    0    0  0.42530601189E+02  0.22584781265E+00  0.86440916219E+01  0.47787269998E+02  0.19999995229E+02 0.  0.
         12    1    1    2    0    0 -0.42530601189E+02 -0.22584781265E+00 -0.86440916219E+01  0.43400730002E+02  0.00000000000E+00 0. -1.
         11    1    3    3    0    0  0.68778073701E+01 -0.49753510208E+01  0.28831628136E+01  0.89649863397E+01  0.51100000000E-03 0. -1.
        -11    1    3    3    0    0  0.33332105741E+02  0.36210040455E+01  0.88212128096E+01  0.34669218900E+02  0.51100000000E-03 0.  1.
         12    1    3    3    0    0  0.23206880780E+01  0.15801947879E+01 -0.30602840012E+01  0.41530647589E+01  0.00000000000E+00 0. -1.
</event>
<event>
 7    1  0.1384886E-010  0.4778727E+02  0.7816164E-02  0.1312668E+00
        -11   -1    0    0    0    0  0.00000000000E+00  0.00000000000E+00  0.45593999997E+02  0.45594000000E+02  0.51100000000E-03 0.  1.
         11   -1    0    0    0    0 -0.00000000000E+00 -0.00000000000E+00 -0.45593999997E+02  0.45594000000E+02  0.51100000000E-03 0. -1.
    9900012    2    1    2    0    0 -0.35312601291E+02 -0.28596221714E+01  0.25069223873E+02  0.47787271498E+02  0.20000002067E+02 0.  0.
         12    1    1    2    0    0  0.35312601291E+02  0.28596221714E+01 -0.25069223873E+02  0.43400728502E+02  0.00000000000E+00 0. -1.
         11    1    3    3    0    0  0.76585654699E+00 -0.25134453920E+01  0.15250332228E+01  0.30380372908E+01  0.51100000000E-03 0. -1.
        -11    1    3    3    0    0 -0.14810334140E+02  0.40691393055E+01  0.14813243956E+02  0.21338605596E+02  0.51100000000E-03 0.  1.
         12    1    3    3    0    0 -0.21268123698E+02 -0.44153160849E+01  0.87309466948E+01  0.23410628611E+02  0.00000000000E+00 0. -1.
</event>
<event>
 7    1  0.1384886E-010  0.4778727E+02  0.7816164E-02  0.1312668E+00
        -11   -1    0    0    0    0  0.00000000000E+00  0.00000000000E+00  0.45593999997E+02  0.45594000000E+02  0.51100000000E-03 0.  1.
         11   -1    0    0    0    0 -0.00000000000E+00 -0.00000000000E+00 -0.45593999997E+02  0.45594000000E+02  0.51100000000E-03 0. -1.
    9900012    2    1    2    0    0  0.14548080175E+02 -0.11386010340E+02  0.39272582484E+02  0.47787267250E+02  0.19999982700E+02 0.  0.
         12    1    1    2    0    0 -0.14548080175E+02  0.11386010340E+02 -0.39272582484E+02  0.43400732750E+02  0.00000000000E+00 0. -1.
         11    1    3    3    0    0  0.19847268368E+00 -0.16958905597E+01 -0.94531524519E+00  0.19516806528E+01  0.51100000000E-03 0. -1.
        -11    1    3    3    0    0  0.10443158382E+02 -0.37471034921E+01  0.10490437255E+02  0.15269237559E+02  0.51100000000E-03 0.  1.
         12    1    3    3    0    0  0.39064491089E+01 -0.59430162883E+01  0.29727460475E+02  0.30566349038E+02  0.00000000000E+00 0. -1.
</event>
<event>
 7    1  0.1384886E-010  0.4778730E+02  0.7816164E-02  0.1312668E+00
        -11   -1    0    0    0    0  0.00000000000E+00  0.00000000000E+00  0.45593999997E+02  0.45594000000E+02  0.51100000000E-03 0.  1.
         11   -1    0    0    0    0 -0.00000000000E+00 -0.00000000000E+00 -0.45593999997E+02  0.45594000000E+02  0.51100000000E-03 0. -1.
    9900012    2    1    2    0    0 -0.20839326738E+02 -0.35324257807E+02 -0.14196488971E+02  0.47787296923E+02  0.20000117990E+02 0.  0.
         12    1    1    2    0    0  0.20839326738E+02  0.35324257807E+02  0.14196488971E+02  0.43400703077E+02  0.00000000000E+00 0. -1.
         11    1    3    3    0    0 -0.83362631910E+01 -0.39277061981E+01 -0.21550101353E+01  0.94638379589E+01  0.51100000000E-03 0. -1.
        -11    1    3    3    0    0 -0.12040066370E+02 -0.15798537632E+02 -0.10946973350E+02  0.22680238431E+02  0.51100000000E-03 0.  1.
        -12    1    3    3    0    0 -0.46299717744E+00 -0.15598013977E+02 -0.10945054859E+01  0.15643220533E+02  0.00000000000E+00 0.  1.
</event>
<event>
 7    1  0.1384886E-010  0.4778727E+02  0.7816164E-02  0.1312668E+00
        -11   -1    0    0    0    0  0.00000000000E+00  0.00000000000E+00  0.45593999997E+02  0.45594000000E+02  0.51100000000E-03 0. -1.
         11   -1    0    0    0    0 -0.00000000000E+00 -0.00000000000E+00 -0.45593999997E+02  0.45594000000E+02  0.51100000000E-03 0.  1.
    9900012    2    1    2    0    0  0.26934643426E+02 -0.24896293561E+02 -0.23201782381E+02  0.47787272411E+02  0.20000006230E+02 0.  0.
         12    1    1    2    0    0 -0.26934643426E+02  0.24896293561E+02  0.23201782381E+02  0.43400727589E+02  0.00000000000E+00 0. -1.
         11    1    3    3    0    0  0.63241926643E+01 -0.17823085964E+01 -0.23056168048E+01  0.69633257786E+01  0.51100000000E-03 0. -1.
        -11    1    3    3    0    0  0.45690238026E+01 -0.15640931927E+02 -0.15064002470E+02  0.22190964394E+02  0.51100000000E-03 0.  1.
         12    1    3    3    0    0  0.16041426959E+02 -0.74730530379E+01 -0.58321631069E+01  0.18632982239E+02  0.00000000000E+00 0. -1.
</event>
<event>
 7    1  0.1384886E-010  0.4778727E+02  0.7816164E-02  0.1312668E+00
        -11   -1    0    0    0    0  0.00000000000E+00  0.00000000000E+00  0.45593999997E+02  0.45594000000E+02  0.51100000000E-03 0. -1.
         11   -1    0    0    0    0 -0.00000000000E+00 -0.00000000000E+00 -0.45593999997E+02  0.45594000000E+02  0.51100000000E-03 0.  1.
    9900012    2    1    2    0    0 -0.22825824755E+02  0.31833934847E+02 -0.18687044849E+02  0.47787270412E+02  0.19999997117E+02 0.  0.
         12    1    1    2    0    0  0.22825824755E+02 -0.31833934847E+02  0.18687044849E+02  0.43400729588E+02  0.00000000000E+00 0. -1.
         11    1    3    3    0    0 -0.55081359909E+01  0.11187778618E+02  0.18698635766E+01  0.12609613101E+02  0.51100000000E-03 0. -1.
        -11    1    3    3    0    0 -0.97429099636E+00  0.23634397660E+01 -0.63302831249E+01  0.68269740864E+01  0.51100000000E-03 0.  1.
        -12    1    3    3    0    0 -0.16343397768E+02  0.18282716462E+02 -0.14226625300E+02  0.28350683224E+02  0.00000000000E+00 0.  1.
</event>
<event>
 7    1  0.1384886E-010  0.4778727E+02  0.7816164E-02  0.1312668E+00
        -11   -1    0    0    0    0  0.00000000000E+00  0.00000000000E+00  0.45593999997E+02  0.45594000000E+02  0.51100000000E-03 0. -1.
         11   -1    0    0    0    0 -0.00000000000E+00 -0.00000000000E+00 -0.45593999997E+02  0.45594000000E+02  0.51100000000E-03 0.  1.
    9900012    2    1    2    0    0 -0.32259484560E+02  0.27167301906E+02 -0.10241410106E+02  0.47787272841E+02  0.20000008194E+02 0.  0.
         12    1    1    2    0    0  0.32259484560E+02 -0.27167301906E+02  0.10241410106E+02  0.43400727159E+02  0.00000000000E+00 0. -1.
         11    1    3    3    0    0 -0.41771764538E+01  0.14569880520E+02 -0.15287625040E+01  0.15233756482E+02  0.51100000000E-03 0. -1.
        -11    1    3    3    0    0 -0.15420025020E+02  0.97228017705E+01 -0.66595220954E+01  0.19407711887E+02  0.51100000000E-03 0.  1.
         12    1    3    3    0    0 -0.12662283086E+02  0.28746196154E+01 -0.20531255064E+01  0.13145804472E+02  0.00000000000E+00 0. -1.
</event>
<event>
 7    1  0.1384886E-010  0.4778727E+02  0.7816164E-02  0.1312668E+00
        -11   -1    0    0    0    0  0.00000000000E+00  0.00000000000E+00  0.45593999997E+02  0.45594000000E+02  0.51100000000E-03 0. -1.
         11   -1    0    0    0    0 -0.00000000000E+00 -0.00000000000E+00 -0.45593999997E+02  0.45594000000E+02  0.51100000000E-03 0.  1.
    9900012    2    1    2    0    0 -0.21255407689E+02 -0.20866818044E+02 -0.31565914239E+02  0.47787269671E+02  0.19999993738E+02 0.  0.
         12    1    1    2    0    0  0.21255407689E+02  0.20866818044E+02  0.31565914239E+02  0.43400730329E+02  0.00000000000E+00 0. -1.
         11    1    3    3    0    0 -0.39675866064E+01 -0.52261336211E+01 -0.21210581414E+02  0.22202319255E+02  0.51100000000E-03 0. -1.
        -11    1    3    3    0    0 -0.71536026939E+01 -0.61186280855E+01 -0.52008390770E+01  0.10754551061E+02  0.51100000000E-03 0.  1.
         12    1    3    3    0    0 -0.10134218389E+02 -0.95220563372E+01 -0.51544937481E+01  0.14830399356E+02  0.00000000000E+00 0. -1.
</event>
<event>
 7    1  0.1384886E-010  0.4778727E+02  0.7816164E-02  0.1312668E+00
        -11   -1    0    0    0    0  0.00000000000E+00  0.00000000000E+00  0.45593999997E+02  0.45594000000E+02  0.51100000000E-03 0.  1.
         11   -1    0    0    0    0 -0.00000000000E+00 -0.00000000000E+00 -0.45593999997E+02  0.45594000000E+02  0.51100000000E-03 0. -1.
    9900012    2    1    2    0    0  0.20751710514E+02  0.89055696086E+01  0.37063199098E+02  0.47787269745E+02  0.19999994074E+02 0.  0.
         12    1    1    2    0    0 -0.20751710514E+02 -0.89055696086E+01 -0.37063199098E+02  0.43400730255E+02  0.00000000000E+00 0. -1.
         11    1    3    3    0    0  0.89861866278E+01  0.10099649060E+02  0.12571593682E+02  0.18460753755E+02  0.51100000000E-03 0. -1.
        -11    1    3    3    0    0 -0.11853684088E+01 -0.25416053708E+01  0.24384500783E+01  0.37163012756E+01  0.51100000000E-03 0.  1.
        -12    1    3    3    0    0  0.12950892295E+02  0.13475259192E+01  0.22053155338E+02  0.25610214714E+02  0.00000000000E+00 0.  1.
</event>
<event>
 7    1  0.1384886E-010  0.4778727E+02  0.7816164E-02  0.1312668E+00
        -11   -1    0    0    0    0  0.00000000000E+00  0.00000000000E+00  0.45593999997E+02  0.45594000000E+02  0.51100000000E-03 0.  1.
         11   -1    0    0    0    0 -0.00000000000E+00 -0.00000000000E+00 -0.45593999997E+02  0.45594000000E+02  0.51100000000E-03 0. -1.
    9900012    2    1    2    0    0 -0.21923510727E+02  0.16601116146E+01  0.37419605164E+02  0.47787272543E+02  0.20000006831E+02 0.  0.
         12    1    1    2    0    0  0.21923510727E+02 -0.16601116146E+01 -0.37419605164E+02  0.43400727457E+02  0.00000000000E+00 0. -1.
         11    1    3    3    0    0 -0.88133748620E+01  0.53455449602E+01  0.14616675912E+02  0.17885682608E+02  0.51100000000E-03 0. -1.
        -11    1    3    3    0    0 -0.30523440350E+01  0.26365536662E+01  0.15364937045E+02  0.15885512583E+02  0.51100000000E-03 0.  1.
         12    1    3    3    0    0 -0.10057791830E+02 -0.63219870118E+01  0.74379922071E+01  0.14016077352E+02  0.00000000000E+00 0. -1.
</event>
<event>
 7    1  0.1384886E-010  0.4778727E+02  0.7816164E-02  0.1312668E+00
        -11   -1    0    0    0    0  0.00000000000E+00  0.00000000000E+00  0.45593999997E+02  0.45594000000E+02  0.51100000000E-03 0.  1.
         11   -1    0    0    0    0 -0.00000000000E+00 -0.00000000000E+00 -0.45593999997E+02  0.45594000000E+02  0.51100000000E-03 0. -1.
    9900012    2    1    2    0    0 -0.25372410373E+01 -0.84137309705E+01  0.42501703534E+02  0.47787271156E+02  0.20000000509E+02 0.  0.
         12    1    1    2    0    0  0.25372410373E+01  0.84137309705E+01 -0.42501703534E+02  0.43400728844E+02  0.00000000000E+00 0. -1.
         11    1    3    3    0    0 -0.25544461441E+01  0.21220412006E+01  0.19701946088E+01  0.38613366880E+01  0.51100000000E-03 0. -1.
        -11    1    3    3    0    0  0.63840085807E+01 -0.33228256379E+01  0.19900036027E+02  0.21161478443E+02  0.51100000000E-03 0.  1.
        -12    1    3    3    0    0 -0.63668034740E+01 -0.72129465331E+01  0.20631472898E+02  0.22764456025E+02  0.00000000000E+00 0.  1.
</event>
<event>
 7    1  0.1384886E-010  0.4778727E+02  0.7816164E-02  0.1312668E+00
        -11   -1    0    0    0    0  0.00000000000E+00  0.00000000000E+00  0.45593999997E+02  0.45594000000E+02  0.51100000000E-03 0. -1.
         11   -1    0    0    0    0 -0.00000000000E+00 -0.00000000000E+00 -0.45593999997E+02  0.45594000000E+02  0.51100000000E-03 0.  1.
    9900012    2    1    2    0    0 -0.38475222511E+02 -0.95262203565E+01 -0.17678563821E+02  0.47787271431E+02  0.20000001762E+02 0.  0.
         12    1    1    2    0    0  0.38475222511E+02  0.95262203565E+01  0.17678563821E+02  0.43400728569E+02  0.00000000000E+00 0. -1.
         11    1    3    3    0    0 -0.21377542439E+02 -0.12387843020E+02 -0.48325542532E+01  0.25175614318E+02  0.51100000000E-03 0. -1.
        -11    1    3    3    0    0 -0.47566391076E+01 -0.99441141688E+00 -0.67498089924E+01  0.83171143650E+01  0.51100000000E-03 0.  1.
        -12    1    3    3    0    0 -0.12341040965E+02  0.38560340803E+01 -0.60962005750E+01  0.14294542748E+02  0.00000000000E+00 0.  1.
</event>
<event>
 7    1  0.1384886E-010  0.4778727E+02  0.7816164E-02  0.1312668E+00
        -11   -1    0    0    0    0  0.00000000000E+00  0.00000000000E+00  0.45593999997E+02  0.45594000000E+02  0.51100000000E-03 0.  1.
         11   -1    0    0    0    0 -0.00000000000E+00 -0.00000000000E+00 -0.45593999997E+02  0.45594000000E+02  0.51100000000E-03 0. -1.
    9900012    2    1    2    0    0 -0.37708423328E+02  0.19641854211E+01  0.21397199824E+02  0.47787269885E+02  0.19999994712E+02 0.  0.
         12    1    1    2    0    0  0.37708423328E+02 -0.19641854211E+01 -0.21397199824E+02  0.43400730115E+02  0.00000000000E+00 0. -1.
         11    1    3    3    0    0 -0.84120365314E+01  0.31870480806E+01  0.99941727997E+01  0.13446305228E+02  0.51100000000E-03 0.  1.
        -11    1    3    3    0    0 -0.29789906006E+02  0.29834645720E+00  0.12596966869E+02  0.32345186427E+02  0.51100000000E-03 0. -1.
         12    1    3    3    0    0  0.49351920942E+00 -0.15212091167E+01 -0.11939398451E+01  0.19957782293E+01  0.00000000000E+00 0. -1.
</event>
<event>
 7    1  0.1384886E-010  0.4778727E+02  0.7816164E-02  0.1312668E+00
        -11   -1    0    0    0    0  0.00000000000E+00  0.00000000000E+00  0.45593999997E+02  0.45594000000E+02  0.51100000000E-03 0. -1.
         11   -1    0    0    0    0 -0.00000000000E+00 -0.00000000000E+00 -0.45593999997E+02  0.45594000000E+02  0.51100000000E-03 0.  1.
    9900012    2    1    2    0    0 -0.41400539386E+02  0.12882879171E+02 -0.19105503788E+01  0.47787269131E+02  0.19999991275E+02 0.  0.
         12    1    1    2    0    0  0.41400539386E+02 -0.12882879171E+02  0.19105503788E+01  0.43400730869E+02  0.00000000000E+00 0. -1.
         11    1    3    3    0    0 -0.14574332399E+02  0.59462876530E+01  0.30301750157E+00  0.15743612088E+02  0.51100000000E-03 0. -1.
        -11    1    3    3    0    0  0.10627554207E+01  0.19686372919E+01  0.24684038859E+01  0.33313660676E+01  0.51100000000E-03 0.  1.
        -12    1    3    3    0    0 -0.27888962408E+02  0.49679542264E+01 -0.46819717663E+01  0.28712290975E+02  0.00000000000E+00 0.  1.
</event>
<event>
 7    1  0.1384886E-010  0.4778727E+02  0.7816164E-02  0.1312668E+00
        -11   -1    0    0    0    0  0.00000000000E+00  0.00000000000E+00  0.45593999997E+02  0.45594000000E+02  0.51100000000E-03 0. -1.
         11   -1    0    0    0    0 -0.00000000000E+00 -0.00000000000E+00 -0.45593999997E+02  0.45594000000E+02  0.51100000000E-03 0.  1.
    9900012    2    1    2    0    0  0.16152930895E+01  0.15540145529E+02 -0.40490961972E+02  0.47787270786E+02  0.19999998823E+02 0.  0.
         12    1    1    2    0    0 -0.16152930895E+01 -0.15540145529E+02  0.40490961972E+02  0.43400729214E+02  0.00000000000E+00 0. -1.
         11    1    3    3    0    0  0.21750713016E+01  0.14690803001E+02 -0.22880858707E+02  0.27277909073E+02  0.51100000000E-03 0. -1.
        -11    1    3    3    0    0  0.72848884363E+00  0.16029806952E+01 -0.18622708800E+02  0.18705761851E+02  0.51100000000E-03 0.  1.
        -12    1    3    3    0    0 -0.12882670557E+01 -0.75363816724E+00  0.10126055347E+01  0.18035998622E+01  0.00000000000E+00 0.  1.
</event>
<event>
 7    1  0.1384886E-010  0.4778727E+02  0.7816164E-02  0.1312668E+00
        -11   -1    0    0    0    0  0.00000000000E+00  0.00000000000E+00  0.45593999997E+02  0.45594000000E+02  0.51100000000E-03 0.  1.
         11   -1    0    0    0    0 -0.00000000000E+00 -0.00000000000E+00 -0.45593999997E+02  0.45594000000E+02  0.51100000000E-03 0. -1.
    9900012    2    1    2    0    0  0.75741235607E+01  0.20786670848E+02  0.37338587047E+02  0.47787272871E+02  0.20000008328E+02 0.  0.
         12    1    1    2    0    0 -0.75741235607E+01 -0.20786670848E+02 -0.37338587047E+02  0.43400727129E+02  0.00000000000E+00 0. -1.
         11    1    3    3    0    0  0.70418977733E+01  0.84765469774E+01  0.61847815321E+01  0.12636917970E+02  0.51100000000E-03 0. -1.
        -11    1    3    3    0    0  0.47769972667E+01  0.10056995495E+02  0.24793217015E+02  0.27178419224E+02  0.51100000000E-03 0.  1.
        -12    1    3    3    0    0 -0.42447714793E+01  0.22531283748E+01  0.63605884998E+01  0.79719356776E+01  0.00000000000E+00 0.  1.
</event>
<event>
 7    1  0.1384886E-010  0.4778727E+02  0.7816164E-02  0.1312668E+00
        -11   -1    0    0    0    0  0.00000000000E+00  0.00000000000E+00  0.45593999997E+02  0.45594000000E+02  0.51100000000E-03 0. -1.
         11   -1    0    0    0    0 -0.00000000000E+00 -0.00000000000E+00 -0.45593999997E+02  0.45594000000E+02  0.51100000000E-03 0.  1.
    9900012    2    1    2    0    0 -0.99636193069E+01 -0.36137714399E+02  0.21872712958E+02  0.47787266322E+02  0.19999978468E+02 0.  0.
         12    1    1    2    0    0  0.99636193069E+01  0.36137714399E+02 -0.21872712958E+02  0.43400733678E+02  0.00000000000E+00 0. -1.
         11    1    3    3    0    0 -0.12656925633E+02 -0.22209239420E+02  0.17317000406E+02  0.30875987197E+02  0.51100000000E-03 0. -1.
        -11    1    3    3    0    0 -0.21714313645E+01 -0.93561391564E+01  0.24800420375E+01  0.99198317957E+01  0.51100000000E-03 0.  1.
        -12    1    3    3    0    0  0.48647376902E+01 -0.45723358224E+01  0.20756705142E+01  0.69914473288E+01  0.00000000000E+00 0.  1.
</event>
<event>
 7    1  0.1384886E-010  0.4778727E+02  0.7816164E-02  0.1312668E+00
        -11   -1    0    0    0    0  0.00000000000E+00  0.00000000000E+00  0.45593999997E+02  0.45594000000E+02  0.51100000000E-03 0.  1.
         11   -1    0    0    0    0 -0.00000000000E+00 -0.00000000000E+00 -0.45593999997E+02  0.45594000000E+02  0.51100000000E-03 0. -1.
    9900012    2    1    2    0    0  0.51766374653E+01 -0.23384427901E+01  0.43027401436E+02  0.47787272305E+02  0.20000005748E+02 0.  0.
         12    1    1    2    0    0 -0.51766374653E+01  0.23384427901E+01 -0.43027401436E+02  0.43400727695E+02  0.00000000000E+00 0. -1.
         11    1    3    3    0    0  0.46661557831E+01 -0.50191820250E+01  0.17393495893E+02  0.18694889613E+02  0.51100000000E-03 0. -1.
        -11    1    3    3    0    0 -0.25240098681E+01 -0.27898703721E+01  0.20929768171E+02  0.21265210990E+02  0.51100000000E-03 0.  1.
         12    1    3    3    0    0  0.30344915503E+01  0.54706096069E+01  0.47041373714E+01  0.78271717018E+01  0.00000000000E+00 0. -1.
</event>
<event>
 7    1  0.1384886E-010  0.4778727E+02  0.7816164E-02  0.1312668E+00
        -11   -1    0    0    0    0  0.00000000000E+00  0.00000000000E+00  0.45593999997E+02  0.45594000000E+02  0.51100000000E-03 0.  1.
         11   -1    0    0    0    0 -0.00000000000E+00 -0.00000000000E+00 -0.45593999997E+02  0.45594000000E+02  0.51100000000E-03 0. -1.
    9900012    2    1    2    0    0 -0.30348246753E+02 -0.21191625695E+01  0.30953452310E+02  0.47787272576E+02  0.20000006984E+02 0.  0.
         12    1    1    2    0    0  0.30348246753E+02  0.21191625695E+01 -0.30953452310E+02  0.43400727424E+02  0.00000000000E+00 0. -1.
         11    1    3    3    0    0 -0.10368841560E+02  0.40165403870E+01  0.92823288346E+01  0.14484719564E+02  0.51100000000E-03 0. -1.
        -11    1    3    3    0    0 -0.16960373971E+02 -0.72293629651E+01  0.23291849909E+02  0.29705693841E+02  0.51100000000E-03 0.  1.
        -12    1    3    3    0    0 -0.30190312217E+01  0.10936600086E+01 -0.16207264330E+01  0.35968591719E+01  0.00000000000E+00 0.  1.
</event>
<event>
 7    1  0.1384886E-010  0.4778727E+02  0.7816164E-02  0.1312668E+00
        -11   -1    0    0    0    0  0.00000000000E+00  0.00000000000E+00  0.45593999997E+02  0.45594000000E+02  0.51100000000E-03 0. -1.
         11   -1    0    0    0    0 -0.00000000000E+00 -0.00000000000E+00 -0.45593999997E+02  0.45594000000E+02  0.51100000000E-03 0.  1.
    9900012    2    1    2    0    0  0.86351567326E+01 -0.20614834463E+02 -0.37203305137E+02  0.47787271379E+02  0.20000001525E+02 0.  0.
         12    1    1    2    0    0 -0.86351567326E+01  0.20614834463E+02  0.37203305137E+02  0.43400728621E+02  0.00000000000E+00 0. -1.
         11    1    3    3    0    0  0.99155840596E+01 -0.18901330112E+02 -0.36639104785E+02  0.42402866494E+02  0.51100000000E-03 0. -1.
        -11    1    3    3    0    0 -0.21614201754E+01 -0.67988790704E+00 -0.22677579710E+01  0.32057309957E+01  0.51100000000E-03 0.  1.
         12    1    3    3    0    0  0.88099284835E+00 -0.10336164439E+01  0.17035576191E+01  0.21786738887E+01  0.00000000000E+00 0. -1.
</event>
<event>
 7    1  0.1384886E-010  0.4778728E+02  0.7816164E-02  0.1312668E+00
        -11   -1    0    0    0    0  0.00000000000E+00  0.00000000000E+00  0.45593999997E+02  0.45594000000E+02  0.51100000000E-03 0.  1.
         11   -1    0    0    0    0 -0.00000000000E+00 -0.00000000000E+00 -0.45593999997E+02  0.45594000000E+02  0.51100000000E-03 0. -1.
    9900012    2    1    2    0    0 -0.36117415774E+02 -0.16922888777E+02  0.17110551757E+02  0.47787275719E+02  0.20000021311E+02 0.  0.
         12    1    1    2    0    0  0.36117415774E+02  0.16922888777E+02 -0.17110551757E+02  0.43400724281E+02  0.00000000000E+00 0. -1.
         11    1    3    3    0    0 -0.12187808779E+02 -0.13359302855E+02  0.65550624379E+01  0.19234929151E+02  0.51100000000E-03 0. -1.
        -11    1    3    3    0    0 -0.21976554099E+01  0.16008524336E+01  0.47499428570E+01  0.54730590368E+01  0.51100000000E-03 0.  1.
        -12    1    3    3    0    0 -0.21731951585E+02 -0.51644383557E+01  0.58055464622E+01  0.23079287531E+02  0.00000000000E+00 0.  1.
</event>
<event>
 7    1  0.1384886E-010  0.4778727E+02  0.7816164E-02  0.1312668E+00
        -11   -1    0    0    0    0  0.00000000000E+00  0.00000000000E+00  0.45593999997E+02  0.45594000000E+02  0.51100000000E-03 0.  1.
         11   -1    0    0    0    0 -0.00000000000E+00 -0.00000000000E+00 -0.45593999997E+02  0.45594000000E+02  0.51100000000E-03 0. -1.
    9900012    2    1    2    0    0 -0.15074811302E+02  0.23584677594E+02  0.33168297882E+02  0.47787274921E+02  0.20000017674E+02 0.  0.
         12    1    1    2    0    0  0.15074811302E+02 -0.23584677594E+02 -0.33168297882E+02  0.43400725079E+02  0.00000000000E+00 0. -1.
         11    1    3    3    0    0 -0.38772817648E+01  0.42771919032E+01  0.13765017491E+02  0.14926600124E+02  0.51100000000E-03 0. -1.
        -11    1    3    3    0    0 -0.14096064270E+02  0.12005132651E+02  0.11989356948E+02  0.22058261903E+02  0.51100000000E-03 0.  1.
         12    1    3    3    0    0  0.28985347332E+01  0.73023530399E+01  0.74139234428E+01  0.10802412894E+02  0.00000000000E+00 0. -1.
</event>
<event>
 7    1  0.1384886E-010  0.4778727E+02  0.7816164E-02  0.1312668E+00
        -11   -1    0    0    0    0  0.00000000000E+00  0.00000000000E+00  0.45593999997E+02  0.45594000000E+02  0.51100000000E-03 0.  1.
         11   -1    0    0    0    0 -0.00000000000E+00 -0.00000000000E+00 -0.45593999997E+02  0.45594000000E+02  0.51100000000E-03 0. -1.
    9900012    2    1    2    0    0  0.28002701965E+02 -0.62184892467E+01  0.32569960322E+02  0.47787271421E+02  0.20000001716E+02 0.  0.
         12    1    1    2    0    0 -0.28002701965E+02  0.62184892467E+01 -0.32569960322E+02  0.43400728579E+02  0.00000000000E+00 0. -1.
         11    1    3    3    0    0  0.27966421985E+01 -0.49572846196E+01  0.11974585402E+01  0.58163378171E+01  0.51100000000E-03 0. -1.
        -11    1    3    3    0    0  0.19054800226E+02 -0.45550887418E+00  0.14364940905E+02  0.23867224963E+02  0.51100000000E-03 0.  1.
        -12    1    3    3    0    0  0.61512595409E+01 -0.80569575287E+00  0.17007560876E+02  0.18103708640E+02  0.00000000000E+00 0.  1.
</event>
<event>
 7    1  0.1384886E-010  0.4778727E+02  0.7816164E-02  0.1312668E+00
        -11   -1    0    0    0    0  0.00000000000E+00  0.00000000000E+00  0.45593999997E+02  0.45594000000E+02  0.51100000000E-03 0.  1.
         11   -1    0    0    0    0 -0.00000000000E+00 -0.00000000000E+00 -0.45593999997E+02  0.45594000000E+02  0.51100000000E-03 0. -1.
    9900012    2    1    2    0    0  0.42493739860E+02 -0.72048120156E+01  0.50986459728E+01  0.47787269197E+02  0.19999991576E+02 0.  0.
         12    1    1    2    0    0 -0.42493739860E+02  0.72048120156E+01 -0.50986459728E+01  0.43400730803E+02  0.00000000000E+00 0. -1.
         11    1    3    3    0    0  0.19181758070E+02 -0.95365864276E+00  0.28911414751E+01  0.19421843547E+02  0.51100000000E-03 0. -1.
        -11    1    3    3    0    0  0.19538441231E+02  0.84049451469E+00 -0.13005847570E+01  0.19599710144E+02  0.51100000000E-03 0.  1.
         12    1    3    3    0    0  0.37735405593E+01 -0.70916478875E+01  0.35080892547E+01  0.87657155060E+01  0.00000000000E+00 0. -1.
</event>
<event>
 7    1  0.1384886E-010  0.4778726E+02  0.7816164E-02  0.1312668E+00
        -11   -1    0    0    0    0  0.00000000000E+00  0.00000000000E+00  0.45593999997E+02  0.45594000000E+02  0.51100000000E-03 0. -1.
         11   -1    0    0    0    0 -0.00000000000E+00 -0.00000000000E+00 -0.45593999997E+02  0.45594000000E+02  0.51100000000E-03 0.  1.
    9900012    2    1    2    0    0  0.13237319045E+02 -0.33270016462E+02 -0.24525576615E+02  0.47787256698E+02  0.19999934588E+02 0.  0.
         12    1    1    2    0    0 -0.13237319045E+02  0.33270016462E+02  0.24525576615E+02  0.43400743302E+02  0.00000000000E+00 0. -1.
         11    1    3    3    0    0  0.10647771741E+02 -0.24580681679E+02 -0.12477540178E+02  0.29551209180E+02  0.51100000000E-03 0.  1.
        -11    1    3    3    0    0 -0.26800499366E+01 -0.72567157408E+01 -0.45986045149E+01  0.89994308015E+01  0.51100000000E-03 0. -1.
        -12    1    3    3    0    0  0.52695972406E+01 -0.14326190419E+01 -0.74494319221E+01  0.92366167161E+01  0.00000000000E+00 0.  1.
</event>
<event>
 7    1  0.1384886E-010  0.4778728E+02  0.7816164E-02  0.1312668E+00
        -11   -1    0    0    0    0  0.00000000000E+00  0.00000000000E+00  0.45593999997E+02  0.45594000000E+02  0.51100000000E-03 0.  1.
         11   -1    0    0    0    0 -0.00000000000E+00 -0.00000000000E+00 -0.45593999997E+02  0.45594000000E+02  0.51100000000E-03 0. -1.
    9900012    2    1    2    0    0 -0.10155872271E+02  0.16686921059E+02  0.38755998793E+02  0.47787279748E+02  0.20000039682E+02 0.  0.
         12    1    1    2    0    0  0.10155872271E+02 -0.16686921059E+02 -0.38755998793E+02  0.43400720252E+02  0.00000000000E+00 0. -1.
         11    1    3    3    0    0 -0.33361600003E+01 -0.30322451430E+01  0.84993194192E+01  0.96209617505E+01  0.51100000000E-03 0. -1.
        -11    1    3    3    0    0 -0.82482985300E+01  0.87519907860E+01  0.13400497965E+02  0.18005696802E+02  0.51100000000E-03 0.  1.
        -12    1    3    3    0    0  0.14285862596E+01  0.10967175416E+02  0.16856181408E+02  0.20160621195E+02  0.00000000000E+00 0.  1.
</event>
<event>
 7    1  0.1384886E-010  0.4778727E+02  0.7816164E-02  0.1312668E+00
        -11   -1    0    0    0    0  0.00000000000E+00  0.00000000000E+00  0.45593999997E+02  0.45594000000E+02  0.51100000000E-03 0.  1.
         11   -1    0    0    0    0 -0.00000000000E+00 -0.00000000000E+00 -0.45593999997E+02  0.45594000000E+02  0.51100000000E-03 0. -1.
    9900012    2    1    2    0    0 -0.34884188542E+02 -0.18243111023E+02  0.18273080188E+02  0.47787272246E+02  0.20000005479E+02 0.  0.
         12    1    1    2    0    0  0.34884188542E+02  0.18243111023E+02 -0.18273080188E+02  0.43400727754E+02  0.00000000000E+00 0. -1.
         11    1    3    3    0    0 -0.69896914297E+01 -0.19103102914E+00  0.91034739003E+01  0.11478916171E+02  0.51100000000E-03 0. -1.
        -11    1    3    3    0    0 -0.24438079014E+02 -0.13003165413E+02  0.11199325703E+02  0.29861796884E+02  0.51100000000E-03 0.  1.
         12    1    3    3    0    0 -0.34564180977E+01 -0.50489145807E+01 -0.20297194151E+01  0.64465591918E+01  0.00000000000E+00 0. -1.
</event>
<event>
 7    1  0.1384886E-010  0.4778727E+02  0.7816164E-02  0.1312668E+00
        -11   -1    0    0    0    0  0.00000000000E+00  0.00000000000E+00  0.45593999997E+02  0.45594000000E+02  0.51100000000E-03 0. -1.
         11   -1    0    0    0    0 -0.00000000000E+00 -0.00000000000E+00 -0.45593999997E+02  0.45594000000E+02  0.51100000000E-03 0.  1.
    9900012    2    1    2    0    0 -0.10056090964E+02 -0.41914155497E+02 -0.50696773783E+01  0.47787273909E+02  0.20000013059E+02 0.  0.
         12    1    1    2    0    0  0.10056090964E+02  0.41914155497E+02  0.50696773783E+01  0.43400726091E+02  0.00000000000E+00 0. -1.
         11    1    3    3    0    0  0.17891809065E+01 -0.56155753738E+01 -0.32358180231E+01  0.67235685194E+01  0.51100000000E-03 0. -1.
        -11    1    3    3    0    0 -0.87745391097E+01 -0.80441836527E+01  0.28984764758E+01  0.12251636355E+02  0.51100000000E-03 0.  1.
        -12    1    3    3    0    0 -0.30707327612E+01 -0.28254396471E+02 -0.47323358310E+01  0.28812069034E+02  0.00000000000E+00 0.  1.
</event>
<event>
 7    1  0.1384886E-010  0.4778727E+02  0.7816164E-02  0.1312668E+00
        -11   -1    0    0    0    0  0.00000000000E+00  0.00000000000E+00  0.45593999997E+02  0.45594000000E+02  0.51100000000E-03 0. -1.
         11   -1    0    0    0    0 -0.00000000000E+00 -0.00000000000E+00 -0.45593999997E+02  0.45594000000E+02  0.51100000000E-03 0.  1.
    9900012    2    1    2    0    0  0.25209367906E+02 -0.21901828466E+02 -0.27720405327E+02  0.47787271989E+02  0.20000004307E+02 0.  0.
         12    1    1    2    0    0 -0.25209367906E+02  0.21901828466E+02  0.27720405327E+02  0.43400728011E+02  0.00000000000E+00 0. -1.
         11    1    3    3    0    0  0.14650304317E+02 -0.14518094474E+02 -0.10566958929E+02  0.23174708304E+02  0.51100000000E-03 0.  1.
        -11    1    3    3    0    0  0.10510803532E+02 -0.81675444075E+01 -0.18655546198E+02  0.22917573535E+02  0.51100000000E-03 0. -1.
         12    1    3    3    0    0  0.48260057671E-01  0.78381041511E+00  0.15020997997E+01  0.16949901499E+01  0.00000000000E+00 0. -1.
</event>
<event>
 7    1  0.1384886E-010  0.4778727E+02  0.7816164E-02  0.1312668E+00
        -11   -1    0    0    0    0  0.00000000000E+00  0.00000000000E+00  0.45593999997E+02  0.45594000000E+02  0.51100000000E-03 0.  1.
         11   -1    0    0    0    0 -0.00000000000E+00 -0.00000000000E+00 -0.45593999997E+02  0.45594000000E+02  0.51100000000E-03 0. -1.
    9900012    2    1    2    0    0  0.16558516443E+02 -0.17221662657E+02  0.36233314838E+02  0.47787271485E+02  0.20000002009E+02 0.  0.
         12    1    1    2    0    0 -0.16558516443E+02  0.17221662657E+02 -0.36233314838E+02  0.43400728515E+02  0.00000000000E+00 0. -1.
         11    1    3    3    0    0  0.32359887623E+01 -0.39621440945E+01  0.19088367018E+00  0.51192427108E+01  0.51100000000E-03 0. -1.
        -11    1    3    3    0    0  0.68118730815E+01 -0.21912598688E+00  0.52595181304E+01  0.86088421000E+01  0.51100000000E-03 0.  1.
        -12    1    3    3    0    0  0.65106545987E+01 -0.13040392575E+02  0.30782913038E+02  0.34059186674E+02  0.00000000000E+00 0.  1.
</event>
<event>
 7    1  0.1384886E-010  0.4778727E+02  0.7816164E-02  0.1312668E+00
        -11   -1    0    0    0    0  0.00000000000E+00  0.00000000000E+00  0.45593999997E+02  0.45594000000E+02  0.51100000000E-03 0.  1.
         11   -1    0    0    0    0 -0.00000000000E+00 -0.00000000000E+00 -0.45593999997E+02  0.45594000000E+02  0.51100000000E-03 0. -1.
    9900012    2    1    2    0    0  0.12493484324E+02 -0.40692606343E+02  0.84645079294E+01  0.47787271250E+02  0.20000000937E+02 0.  0.
         12    1    1    2    0    0 -0.12493484324E+02  0.40692606343E+02 -0.84645079294E+01  0.43400728750E+02  0.00000000000E+00 0. -1.
         11    1    3    3    0    0 -0.75164334939E+00 -0.19342729876E+02  0.56771050080E+01  0.20172647033E+02  0.51100000000E-03 0. -1.
        -11    1    3    3    0    0  0.56851767600E+01 -0.18681295506E+01  0.30481666462E+01  0.67158367292E+01  0.51100000000E-03 0.  1.
         12    1    3    3    0    0  0.75599509133E+01 -0.19481746917E+02 -0.26076372482E+00  0.20898787488E+02  0.00000000000E+00 0. -1.
</event>
<event>
 7    1  0.1384886E-010  0.4778727E+02  0.7816164E-02  0.1312668E+00
        -11   -1    0    0    0    0  0.00000000000E+00  0.00000000000E+00  0.45593999997E+02  0.45594000000E+02  0.51100000000E-03 0. -1.
         11   -1    0    0    0    0 -0.00000000000E+00 -0.00000000000E+00 -0.45593999997E+02  0.45594000000E+02  0.51100000000E-03 0.  1.
    9900012    2    1    2    0    0  0.28740079860E+02  0.44212059692E+01 -0.32219311570E+02  0.47787270852E+02  0.19999999120E+02 0.  0.
         12    1    1    2    0    0 -0.28740079860E+02 -0.44212059692E+01  0.32219311570E+02  0.43400729148E+02  0.00000000000E+00 0. -1.
         11    1    3    3    0    0  0.94384097959E+01  0.85519743361E+01 -0.12573238206E+02  0.17897099311E+02  0.51100000000E-03 0. -1.
        -11    1    3    3    0    0  0.16469054941E+02 -0.19387510922E+01 -0.20338638784E+02  0.26242117945E+02  0.51100000000E-03 0.  1.
         12    1    3    3    0    0  0.28326151234E+01 -0.21920172747E+01  0.69256541930E+00  0.36480535947E+01  0.00000000000E+00 0. -1.
</event>
<event>
 7    1  0.1384886E-010  0.4778729E+02  0.7816164E-02  0.1312668E+00
        -11   -1    0    0    0    0  0.00000000000E+00  0.00000000000E+00  0.45593999997E+02  0.45594000000E+02  0.51100000000E-03 0. -1.
         11   -1    0    0    0    0 -0.00000000000E+00 -0.00000000000E+00 -0.45593999997E+02  0.45594000000E+02  0.51100000000E-03 0.  1.
    9900012    2    1    2    0    0 -0.31357127096E+02  0.23926398573E+02 -0.18107458941E+02  0.47787285286E+02  0.20000064933E+02 0.  0.
         12    1    1    2    0    0  0.31357127096E+02 -0.23926398573E+02  0.18107458941E+02  0.43400714714E+02  0.00000000000E+00 0. -1.
         11    1    3    3    0    0  0.72210823787E+00 -0.55706592315E+00  0.60119996184E+00  0.10923389608E+01  0.51100000000E-03 0. -1.
        -11    1    3    3    0    0 -0.28507892352E+02  0.14996313387E+02 -0.11288697453E+02  0.34132448374E+02  0.51100000000E-03 0.  1.
        -12    1    3    3    0    0 -0.35713429822E+01  0.94871511093E+01 -0.74199614491E+01  0.12562497951E+02  0.00000000000E+00 0.  1.
</event>
<event>
 7    1  0.1384886E-010  0.4778727E+02  0.7816164E-02  0.1312668E+00
        -11   -1    0    0    0    0  0.00000000000E+00  0.00000000000E+00  0.45593999997E+02  0.45594000000E+02  0.51100000000E-03 0.  1.
         11   -1    0    0    0    0 -0.00000000000E+00 -0.00000000000E+00 -0.45593999997E+02  0.45594000000E+02  0.51100000000E-03 0. -1.
    9900012    2    1    2    0    0 -0.37715561239E+02  0.21062168442E+02 -0.41886350315E+01  0.47787272328E+02  0.20000005850E+02 0.  0.
         12    1    1    2    0    0  0.37715561239E+02 -0.21062168442E+02  0.41886350315E+01  0.43400727672E+02  0.00000000000E+00 0. -1.
         11    1    3    3    0    0 -0.42052125595E+01  0.54936559818E+01 -0.28709630624E+01  0.74904270828E+01  0.51100000000E-03 0. -1.
        -11    1    3    3    0    0 -0.20779784179E+02  0.97742060105E+00  0.79446835037E+00  0.20817924051E+02  0.51100000000E-03 0.  1.
        -12    1    3    3    0    0 -0.12730564501E+02  0.14591091859E+02 -0.21121403195E+01  0.19478921194E+02  0.00000000000E+00 0.  1.
</event>
<event>
 7    1  0.1384886E-010  0.4778727E+02  0.7816164E-02  0.1312668E+00
        -11   -1    0    0    0    0  0.00000000000E+00  0.00000000000E+00  0.45593999997E+02  0.45594000000E+02  0.51100000000E-03 0. -1.
         11   -1    0    0    0    0 -0.00000000000E+00 -0.00000000000E+00 -0.45593999997E+02  0.45594000000E+02  0.51100000000E-03 0.  1.
    9900012    2    1    2    0    0 -0.29877483999E+02  0.15109090676E+02 -0.27616566487E+02  0.47787269410E+02  0.19999992548E+02 0.  0.
         12    1    1    2    0    0  0.29877483999E+02 -0.15109090676E+02  0.27616566487E+02  0.43400730590E+02  0.00000000000E+00 0. -1.
         11    1    3    3    0    0 -0.48713399813E+01  0.21962437234E+01  0.18495822822E+01  0.56545905763E+01  0.51100000000E-03 0. -1.
        -11    1    3    3    0    0 -0.53079349606E+01  0.16914734366E+01 -0.12909518718E+02  0.14060260657E+02  0.51100000000E-03 0.  1.
         12    1    3    3    0    0 -0.19698209057E+02  0.11221373516E+02 -0.16556630051E+02  0.28072418177E+02  0.00000000000E+00 0. -1.
</event>
<event>
 7    1  0.1384886E-010  0.4778728E+02  0.7816164E-02  0.1312668E+00
        -11   -1    0    0    0    0  0.00000000000E+00  0.00000000000E+00  0.45593999997E+02  0.45594000000E+02  0.51100000000E-03 0.  1.
         11   -1    0    0    0    0 -0.00000000000E+00 -0.00000000000E+00 -0.45593999997E+02  0.45594000000E+02  0.51100000000E-03 0. -1.
    9900012    2    1    2    0    0  0.25413372663E+02  0.33425995806E+01  0.35022993263E+02  0.47787279509E+02  0.20000038592E+02 0.  0.
         12    1    1    2    0    0 -0.25413372663E+02 -0.33425995806E+01 -0.35022993263E+02  0.43400720491E+02  0.00000000000E+00 0. -1.
         11    1    3    3    0    0  0.11549268102E+02  0.12658327185E+01  0.21267471386E+02  0.24234134307E+02  0.51100000000E-03 0. -1.
        -11    1    3    3    0    0  0.13268698686E+02  0.47568551293E+00  0.15962310984E+02  0.20762466466E+02  0.51100000000E-03 0.  1.
         12    1    3    3    0    0  0.59540587485E+00  0.16010813492E+01 -0.22067891076E+01  0.27906787361E+01  0.00000000000E+00 0. -1.
</event>
<event>
 7    1  0.1384886E-010  0.4778727E+02  0.7816164E-02  0.1312668E+00
        -11   -1    0    0    0    0  0.00000000000E+00  0.00000000000E+00  0.45593999997E+02  0.45594000000E+02  0.51100000000E-03 0.  1.
         11   -1    0    0    0    0 -0.00000000000E+00 -0.00000000000E+00 -0.45593999997E+02  0.45594000000E+02  0.51100000000E-03 0. -1.
    9900012    2    1    2    0    0  0.15349060843E+02  0.71828842443E+01  0.39955422644E+02  0.47787270818E+02  0.19999998969E+02 0.  0.
         12    1    1    2    0    0 -0.15349060843E+02 -0.71828842443E+01 -0.39955422644E+02  0.43400729182E+02  0.00000000000E+00 0. -1.
         11    1    3    3    0    0  0.53245931033E+01  0.32572036386E+01  0.59094030597E+01  0.85954471694E+01  0.51100000000E-03 0. -1.
        -11    1    3    3    0    0  0.14333216838E+02  0.17410866901E+01  0.27452654680E+02  0.31018071137E+02  0.51100000000E-03 0.  1.
         12    1    3    3    0    0 -0.43087490984E+01  0.21845939156E+01  0.65933649042E+01  0.81737525121E+01  0.00000000000E+00 0. -1.
</event>
<event>
 7    1  0.1384886E-010  0.4778727E+02  0.7816164E-02  0.1312668E+00
        -11   -1    0    0    0    0  0.00000000000E+00  0.00000000000E+00  0.45593999997E+02  0.45594000000E+02  0.51100000000E-03 0.  1.
         11   -1    0    0    0    0 -0.00000000000E+00 -0.00000000000E+00 -0.45593999997E+02  0.45594000000E+02  0.51100000000E-03 0. -1.
    9900012    2    1    2    0    0  0.99480501333E+01  0.28835033991E+01  0.42146709494E+02  0.47787269424E+02  0.19999992614E+02 0.  0.
         12    1    1    2    0    0 -0.99480501333E+01 -0.28835033991E+01 -0.42146709494E+02  0.43400730576E+02  0.00000000000E+00 0. -1.
         11    1    3    3    0    0  0.26657808335E+00 -0.67260725946E-01 -0.10286622597E+01  0.10647695457E+01  0.51100000000E-03 0. -1.
        -11    1    3    3    0    0  0.13369616646E+02  0.82499964722E+00  0.35542074365E+02  0.37982447579E+02  0.51100000000E-03 0.  1.
        -12    1    3    3    0    0 -0.36881445958E+01  0.21257644778E+01  0.76332973890E+01  0.87400522998E+01  0.00000000000E+00 0.  1.
</event>
<event>
 7    1  0.1384886E-010  0.4778726E+02  0.7816164E-02  0.1312668E+00
        -11   -1    0    0    0    0  0.00000000000E+00  0.00000000000E+00  0.45593999997E+02  0.45594000000E+02  0.51100000000E-03 0. -1.
         11   -1    0    0    0    0 -0.00000000000E+00 -0.00000000000E+00 -0.45593999997E+02  0.45594000000E+02  0.51100000000E-03 0.  1.
    9900012    2    1    2    0    0 -0.41374338511E+02 -0.11782508139E+02 -0.57411279453E+01  0.47787263424E+02  0.19999965256E+02 0.  0.
         12    1    1    2    0    0  0.41374338511E+02  0.11782508139E+02  0.57411279453E+01  0.43400736576E+02  0.00000000000E+00 0. -1.
         11    1    3    3    0    0 -0.68859266695E+01 -0.68354607155E+01  0.21655979553E+01  0.99412938824E+01  0.51100000000E-03 0. -1.
        -11    1    3    3    0    0 -0.21968686213E+02  0.15137956488E+01 -0.72530627821E+00  0.22032721589E+02  0.51100000000E-03 0.  1.
         12    1    3    3    0    0 -0.12519725629E+02 -0.64608430720E+01 -0.71814196223E+01  0.15813247953E+02  0.00000000000E+00 0. -1.
</event>
<event>
 7    1  0.1384886E-010  0.4778728E+02  0.7816164E-02  0.1312668E+00
        -11   -1    0    0    0    0  0.00000000000E+00  0.00000000000E+00  0.45593999997E+02  0.45594000000E+02  0.51100000000E-03 0.  1.
         11   -1    0    0    0    0 -0.00000000000E+00 -0.00000000000E+00 -0.45593999997E+02  0.45594000000E+02  0.51100000000E-03 0. -1.
    9900012    2    1    2    0    0  0.13203017397E+02  0.15184725017E+02  0.38454218194E+02  0.47787280661E+02  0.20000043847E+02 0.  0.
         12    1    1    2    0    0 -0.13203017397E+02 -0.15184725017E+02 -0.38454218194E+02  0.43400719339E+02  0.00000000000E+00 0. -1.
         11    1    3    3    0    0 -0.57057114115E+00  0.57810475033E+01  0.60996953599E+01  0.84233215187E+01  0.51100000000E-03 0. -1.
        -11    1    3    3    0    0  0.11380425244E+02  0.81415876477E+01  0.33591222657E+02  0.36389143545E+02  0.51100000000E-03 0.  1.
        -12    1    3    3    0    0  0.23931632947E+01  0.12620898662E+01 -0.12366998228E+01  0.29748155972E+01  0.00000000000E+00 0.  1.
</event>
<event>
 7    1  0.1384886E-010  0.4778727E+02  0.7816164E-02  0.1312668E+00
        -11   -1    0    0    0    0  0.00000000000E+00  0.00000000000E+00  0.45593999997E+02  0.45594000000E+02  0.51100000000E-03 0. -1.
         11   -1    0    0    0    0 -0.00000000000E+00 -0.00000000000E+00 -0.45593999997E+02  0.45594000000E+02  0.51100000000E-03 0.  1.
    9900012    2    1    2    0    0  0.21109902802E+02 -0.20302863105E+02  0.32027940825E+02  0.47787271434E+02  0.20000001778E+02 0.  0.
         12    1    1    2    0    0 -0.21109902802E+02  0.20302863105E+02 -0.32027940825E+02  0.43400728566E+02  0.00000000000E+00 0. -1.
         11    1    3    3    0    0  0.16615506477E+02 -0.10313570118E+02  0.21604729435E+02  0.29141192809E+02  0.51100000000E-03 0.  1.
        -11    1    3    3    0    0  0.54774466690E+00  0.23543251038E+01  0.23885127292E+01  0.33982148598E+01  0.51100000000E-03 0. -1.
         12    1    3    3    0    0  0.39466516579E+01 -0.12343618090E+02  0.80346986600E+01  0.15247863766E+02  0.00000000000E+00 0. -1.
</event>
<event>
 7    1  0.1384886E-010  0.4778727E+02  0.7816164E-02  0.1312668E+00
        -11   -1    0    0    0    0  0.00000000000E+00  0.00000000000E+00  0.45593999997E+02  0.45594000000E+02  0.51100000000E-03 0. -1.
         11   -1    0    0    0    0 -0.00000000000E+00 -0.00000000000E+00 -0.45593999997E+02  0.45594000000E+02  0.51100000000E-03 0.  1.
    9900012    2    1    2    0    0  0.36213233665E+02 -0.23679588061E+02 -0.33914772150E+01  0.47787270733E+02  0.19999998582E+02 0.  0.
         12    1    1    2    0    0 -0.36213233665E+02  0.23679588061E+02  0.33914772150E+01  0.43400729267E+02  0.00000000000E+00 0. -1.
         11    1    3    3    0    0  0.33448682005E+01 -0.11592050649E+02 -0.29505510519E+01  0.12420528705E+02  0.51100000000E-03 0. -1.
        -11    1    3    3    0    0  0.12149695683E+02 -0.59874462781E+01  0.17517027098E+01  0.13657711403E+02  0.51100000000E-03 0.  1.
         12    1    3    3    0    0  0.20718669781E+02 -0.61000911332E+01 -0.21926288729E+01  0.21709030626E+02  0.00000000000E+00 0. -1.
</event>
<event>
 7    1  0.1384886E-010  0.4778727E+02  0.7816164E-02  0.1312668E+00
        -11   -1    0    0    0    0  0.00000000000E+00  0.00000000000E+00  0.45593999997E+02  0.45594000000E+02  0.51100000000E-03 0.  1.
         11   -1    0    0    0    0 -0.00000000000E+00 -0.00000000000E+00 -0.45593999997E+02  0.45594000000E+02  0.51100000000E-03 0. -1.
    9900012    2    1    2    0    0 -0.26990333746E+01  0.35838310898E+02  0.24330103928E+02  0.47787271131E+02  0.20000000396E+02 0.  0.
         12    1    1    2    0    0  0.26990333746E+01 -0.35838310898E+02 -0.24330103928E+02  0.43400728869E+02  0.00000000000E+00 0. -1.
         11    1    3    3    0    0  0.54816049112E+01  0.76011531612E+01  0.61935513698E+01  0.11233236427E+02  0.51100000000E-03 0. -1.
        -11    1    3    3    0    0  0.13351766145E+01  0.91510275590E+01  0.10276376831E+02  0.13824902279E+02  0.51100000000E-03 0.  1.
         12    1    3    3    0    0 -0.95158149003E+01  0.19086130178E+02  0.78601757267E+01  0.22729132426E+02  0.00000000000E+00 0. -1.
</event>
<event>
 7    1  0.1384886E-010  0.4778727E+02  0.7816164E-02  0.1312668E+00
        -11   -1    0    0    0    0  0.00000000000E+00  0.00000000000E+00  0.45593999997E+02  0.45594000000E+02  0.51100000000E-03 0. -1.
         11   -1    0    0    0    0 -0.00000000000E+00 -0.00000000000E+00 -0.45593999997E+02  0.45594000000E+02  0.51100000000E-03 0.  1.
    9900012    2    1    2    0    0  0.18746569137E+02  0.18676615173E+02 -0.34400192714E+02  0.47787273422E+02  0.20000010839E+02 0.  0.
         12    1    1    2    0    0 -0.18746569137E+02 -0.18676615173E+02  0.34400192714E+02  0.43400726578E+02  0.00000000000E+00 0. -1.
         11    1    3    3    0    0  0.63106785822E+01  0.11780110059E+02 -0.14434588636E+02  0.19671121131E+02  0.51100000000E-03 0. -1.
        -11    1    3    3    0    0  0.14830633392E+01  0.79275729620E+01 -0.12297158772E+02  0.14705985315E+02  0.51100000000E-03 0.  1.
         12    1    3    3    0    0  0.10952827216E+02 -0.10310678486E+01 -0.76684453058E+01  0.13410166977E+02  0.00000000000E+00 0. -1.
</event>
<event>
 7    1  0.1384886E-010  0.4778727E+02  0.7816164E-02  0.1312668E+00
        -11   -1    0    0    0    0  0.00000000000E+00  0.00000000000E+00  0.45593999997E+02  0.45594000000E+02  0.51100000000E-03 0. -1.
         11   -1    0    0    0    0 -0.00000000000E+00 -0.00000000000E+00 -0.45593999997E+02  0.45594000000E+02  0.51100000000E-03 0.  1.
    9900012    2    1    2    0    0 -0.26283123298E+02  0.18953373724E+02 -0.28871967149E+02  0.47787269213E+02  0.19999991649E+02 0.  0.
         12    1    1    2    0    0  0.26283123298E+02 -0.18953373724E+02  0.28871967149E+02  0.43400730787E+02  0.00000000000E+00 0. -1.
         11    1    3    3    0    0 -0.78796491092E+00 -0.32280197962E+01 -0.52745776430E+01  0.62339530058E+01  0.51100000000E-03 0. -1.
        -11    1    3    3    0    0 -0.51280329882E+01  0.74474121650E+01 -0.69216727030E+01  0.11387283414E+02  0.51100000000E-03 0.  1.
         12    1    3    3    0    0 -0.20367125399E+02  0.14733981356E+02 -0.16675716803E+02  0.30166032793E+02  0.00000000000E+00 0. -1.
</event>
<event>
 7    1  0.1384886E-010  0.4778726E+02  0.7816164E-02  0.1312668E+00
        -11   -1    0    0    0    0  0.00000000000E+00  0.00000000000E+00  0.45593999997E+02  0.45594000000E+02  0.51100000000E-03 0.  1.
         11   -1    0    0    0    0 -0.00000000000E+00 -0.00000000000E+00 -0.45593999997E+02  0.45594000000E+02  0.51100000000E-03 0. -1.
    9900012    2    1    2    0    0  0.26204839396E+02 -0.27415613277E+02 -0.21102480995E+02  0.47787260798E+02  0.19999953283E+02 0.  0.
         12    1    1    2    0    0 -0.26204839396E+02  0.27415613277E+02  0.21102480995E+02  0.43400739202E+02  0.00000000000E+00 0. -1.
         11    1    3    3    0    0  0.14019698177E+02 -0.15512795751E+02 -0.15093898351E+02  0.25788069657E+02  0.51100000000E-03 0. -1.
        -11    1    3    3    0    0  0.13044505045E+02 -0.11487725798E+02 -0.15625599067E+01  0.17451892437E+02  0.51100000000E-03 0.  1.
        -12    1    3    3    0    0 -0.85936382552E+00 -0.41509172796E+00 -0.44460227370E+01  0.45472987042E+01  0.00000000000E+00 0.  1.
</event>
<event>
 7    1  0.1384886E-010  0.4778726E+02  0.7816164E-02  0.1312668E+00
        -11   -1    0    0    0    0  0.00000000000E+00  0.00000000000E+00  0.45593999997E+02  0.45594000000E+02  0.51100000000E-03 0.  1.
         11   -1    0    0    0    0 -0.00000000000E+00 -0.00000000000E+00 -0.45593999997E+02  0.45594000000E+02  0.51100000000E-03 0. -1.
    9900012    2    1    2    0    0  0.76907019825E+01 -0.77461247669E+01  0.42005655479E+02  0.47787257632E+02  0.19999938847E+02 0.  0.
         12    1    1    2    0    0 -0.76907019825E+01  0.77461247669E+01 -0.42005655479E+02  0.43400742368E+02  0.00000000000E+00 0. -1.
         11    1    3    3    0    0  0.21075532524E+01  0.19622825883E+01  0.10831837872E+01  0.30766249440E+01  0.51100000000E-03 0. -1.
        -11    1    3    3    0    0 -0.94853326072E+00 -0.10058825639E+02  0.15828876382E+02  0.18778525405E+02  0.51100000000E-03 0.  1.
         12    1    3    3    0    0  0.65316819909E+01  0.35041828376E+00  0.25093595309E+02  0.25932107283E+02  0.00000000000E+00 0. -1.
</event>
<event>
 7    1  0.1384886E-010  0.4778727E+02  0.7816164E-02  0.1312668E+00
        -11   -1    0    0    0    0  0.00000000000E+00  0.00000000000E+00  0.45593999997E+02  0.45594000000E+02  0.51100000000E-03 0.  1.
         11   -1    0    0    0    0 -0.00000000000E+00 -0.00000000000E+00 -0.45593999997E+02  0.45594000000E+02  0.51100000000E-03 0. -1.
    9900012    2    1    2    0    0  0.25595011763E+02  0.80025136722E+01  0.34124458074E+02  0.47787268542E+02  0.19999988589E+02 0.  0.
         12    1    1    2    0    0 -0.25595011763E+02 -0.80025136722E+01 -0.34124458074E+02  0.43400731458E+02  0.00000000000E+00 0. -1.
         11    1    3    3    0    0  0.49791362792E+01 -0.18919801326E+01  0.14597681290E+02  0.15539101847E+02  0.51100000000E-03 0.  1.
        -11    1    3    3    0    0  0.86593075406E+00  0.52200891373E+01  0.30588941563E+01  0.61119555293E+01  0.51100000000E-03 0. -1.
        -12    1    3    3    0    0  0.19749944730E+02  0.46744046675E+01  0.16467882628E+02  0.26136211166E+02  0.00000000000E+00 0.  1.
</event>
<event>
 7    1  0.1384886E-010  0.4778727E+02  0.7816164E-02  0.1312668E+00
        -11   -1    0    0    0    0  0.00000000000E+00  0.00000000000E+00  0.45593999997E+02  0.45594000000E+02  0.51100000000E-03 0.  1.
         11   -1    0    0    0    0 -0.00000000000E+00 -0.00000000000E+00 -0.45593999997E+02  0.45594000000E+02  0.51100000000E-03 0. -1.
    9900012    2    1    2    0    0 -0.15669132208E+02 -0.30098129828E+02  0.27059268398E+02  0.47787272708E+02  0.20000007583E+02 0.  0.
         12    1    1    2    0    0  0.15669132208E+02  0.30098129828E+02 -0.27059268398E+02  0.43400727292E+02  0.00000000000E+00 0. -1.
         11    1    3    3    0    0 -0.17978779328E+02 -0.25930378725E+02  0.16708853449E+02  0.35704437130E+02  0.51100000000E-03 0. -1.
        -11    1    3    3    0    0 -0.40654208414E+00 -0.22287206124E+01  0.17658856921E+01  0.28724248594E+01  0.51100000000E-03 0.  1.
        -12    1    3    3    0    0  0.27161892044E+01 -0.19390304906E+01  0.85845292565E+01  0.92104107179E+01  0.00000000000E+00 0.  1.
</event>
<event>
 7    1  0.1384886E-010  0.4778728E+02  0.7816164E-02  0.1312668E+00
        -11   -1    0    0    0    0  0.00000000000E+00  0.00000000000E+00  0.45593999997E+02  0.45594000000E+02  0.51100000000E-03 0. -1.
         11   -1    0    0    0    0 -0.00000000000E+00 -0.00000000000E+00 -0.45593999997E+02  0.45594000000E+02  0.51100000000E-03 0.  1.
    9900012    2    1    2    0    0  0.42113742848E+02 -0.39497665303E+01  0.97187909687E+01  0.47787275464E+02  0.20000020152E+02 0.  0.
         12    1    1    2    0    0 -0.42113742848E+02  0.39497665303E+01 -0.97187909687E+01  0.43400724536E+02  0.00000000000E+00 0. -1.
         11    1    3    3    0    0  0.27825776850E+02 -0.86889583849E+01  0.11500801490E+02  0.31337522083E+02  0.51100000000E-03 0. -1.
        -11    1    3    3    0    0  0.13718773007E+02  0.25530183192E+01 -0.22723023188E+01  0.14138104309E+02  0.51100000000E-03 0.  1.
         12    1    3    3    0    0  0.56919299149E+00  0.21861735355E+01  0.49029179725E+00  0.23116490727E+01  0.00000000000E+00 0. -1.
</event>
<event>
 7    1  0.1384886E-010  0.4778727E+02  0.7816164E-02  0.1312668E+00
        -11   -1    0    0    0    0  0.00000000000E+00  0.00000000000E+00  0.45593999997E+02  0.45594000000E+02  0.51100000000E-03 0.  1.
         11   -1    0    0    0    0 -0.00000000000E+00 -0.00000000000E+00 -0.45593999997E+02  0.45594000000E+02  0.51100000000E-03 0. -1.
    9900012    2    1    2    0    0  0.11414964738E+02 -0.25193757680E+02  0.33445430874E+02  0.47787266223E+02  0.19999978019E+02 0.  0.
         12    1    1    2    0    0 -0.11414964738E+02  0.25193757680E+02 -0.33445430874E+02  0.43400733777E+02  0.00000000000E+00 0. -1.
         11    1    3    3    0    0  0.32426245909E+01 -0.40246024314E+01 -0.14785249266E+01  0.53756929961E+01  0.51100000000E-03 0. -1.
        -11    1    3    3    0    0  0.14400742052E+01 -0.14087184236E+02  0.18450685836E+02  0.23258340042E+02  0.51100000000E-03 0.  1.
        -12    1    3    3    0    0  0.67322659418E+01 -0.70819710126E+01  0.16473269965E+02  0.19153233186E+02  0.00000000000E+00 0.  1.
</event>
<event>
 7    1  0.1384886E-010  0.4778724E+02  0.7816164E-02  0.1312668E+00
        -11   -1    0    0    0    0  0.00000000000E+00  0.00000000000E+00  0.45593999997E+02  0.45594000000E+02  0.51100000000E-03 0.  1.
         11   -1    0    0    0    0 -0.00000000000E+00 -0.00000000000E+00 -0.45593999997E+02  0.45594000000E+02  0.51100000000E-03 0. -1.
    9900012    2    1    2    0    0  0.34454172243E+02 -0.20605715074E+02  0.16490617712E+02  0.47787240200E+02  0.19999859370E+02 0.  0.
         12    1    1    2    0    0 -0.34454172243E+02  0.20605715074E+02 -0.16490617712E+02  0.43400759800E+02  0.00000000000E+00 0. -1.
         11    1    3    3    0    0  0.12231509309E+02 -0.10284198227E+02  0.43726354538E+01  0.16567875369E+02  0.51100000000E-03 0. -1.
        -11    1    3    3    0    0  0.19491823959E+02 -0.18911341707E+01  0.61149595010E+01  0.20515855323E+02  0.51100000000E-03 0.  1.
         12    1    3    3    0    0  0.27308389749E+01 -0.84303826765E+01  0.60030227570E+01  0.10703509509E+02  0.00000000000E+00 0. -1.
</event>
<event>
 7    1  0.1384886E-010  0.4778727E+02  0.7816164E-02  0.1312668E+00
        -11   -1    0    0    0    0  0.00000000000E+00  0.00000000000E+00  0.45593999997E+02  0.45594000000E+02  0.51100000000E-03 0. -1.
         11   -1    0    0    0    0 -0.00000000000E+00 -0.00000000000E+00 -0.45593999997E+02  0.45594000000E+02  0.51100000000E-03 0.  1.
    9900012    2    1    2    0    0 -0.22074815364E+02 -0.88338328645E+01 -0.36308253520E+02  0.47787270166E+02  0.19999995994E+02 0.  0.
         12    1    1    2    0    0  0.22074815364E+02  0.88338328645E+01  0.36308253520E+02  0.43400729834E+02  0.00000000000E+00 0. -1.
         11    1    3    3    0    0 -0.41788723282E+01 -0.51003815403E+01 -0.28071188552E+01  0.71663646516E+01  0.51100000000E-03 0.  1.
        -11    1    3    3    0    0 -0.89009494303E+01  0.10315187030E+01 -0.27226819774E+02  0.28663402569E+02  0.51100000000E-03 0. -1.
         12    1    3    3    0    0 -0.89949936053E+01 -0.47649700273E+01 -0.62743148914E+01  0.11957502945E+02  0.00000000000E+00 0. -1.
</event>
<event>
 7    1  0.1384886E-010  0.4778727E+02  0.7816164E-02  0.1312668E+00
        -11   -1    0    0    0    0  0.00000000000E+00  0.00000000000E+00  0.45593999997E+02  0.45594000000E+02  0.51100000000E-03 0.  1.
         11   -1    0    0    0    0 -0.00000000000E+00 -0.00000000000E+00 -0.45593999997E+02  0.45594000000E+02  0.51100000000E-03 0. -1.
    9900012    2    1    2    0    0  0.13137879279E+02  0.21659504097E+02  0.35240395379E+02  0.47787268945E+02  0.19999990426E+02 0.  0.
         12    1    1    2    0    0 -0.13137879279E+02 -0.21659504097E+02 -0.35240395379E+02  0.43400731055E+02  0.00000000000E+00 0. -1.
         11    1    3    3    0    0  0.25885096006E+01  0.36293275757E+01  0.48219616391E+01  0.65668649228E+01  0.51100000000E-03 0. -1.
        -11    1    3    3    0    0  0.41863040516E+01  0.17497783979E+02  0.29793683653E+02  0.34804614229E+02  0.51100000000E-03 0.  1.
         12    1    3    3    0    0  0.63630656268E+01  0.53239254273E+00  0.62475008694E+00  0.64157897925E+01  0.00000000000E+00 0. -1.
</event>
<event>
 7    1  0.1384886E-010  0.4778726E+02  0.7816164E-02  0.1312668E+00
        -11   -1    0    0    0    0  0.00000000000E+00  0.00000000000E+00  0.45593999997E+02  0.45594000000E+02  0.51100000000E-03 0. -1.
         11   -1    0    0    0    0 -0.00000000000E+00 -0.00000000000E+00 -0.45593999997E+02  0.45594000000E+02  0.51100000000E-03 0.  1.
    9900012    2    1    2    0    0 -0.33741382218E+02  0.25915423477E+02 -0.85752203661E+01  0.47787257468E+02  0.19999938099E+02 0.  0.
         12    1    1    2    0    0  0.33741382218E+02 -0.25915423477E+02  0.85752203661E+01  0.43400742532E+02  0.00000000000E+00 0. -1.
         11    1    3    3    0    0 -0.23884552569E+01  0.35167528909E+01  0.35267891978E+01  0.55236321127E+01  0.51100000000E-03 0. -1.
        -11    1    3    3    0    0 -0.20164263158E+02  0.13839575368E+02 -0.13788733393E+02  0.28075977702E+02  0.51100000000E-03 0.  1.
         12    1    3    3    0    0 -0.11188663804E+02  0.85590952180E+01  0.16867238291E+01  0.14187647653E+02  0.00000000000E+00 0. -1.
</event>
<event>
 7    1  0.1384886E-010  0.4778727E+02  0.7816164E-02  0.1312668E+00
        -11   -1    0    0    0    0  0.00000000000E+00  0.00000000000E+00  0.45593999997E+02  0.45594000000E+02  0.51100000000E-03 0. -1.
         11   -1    0    0    0    0 -0.00000000000E+00 -0.00000000000E+00 -0.45593999997E+02  0.45594000000E+02  0.51100000000E-03 0.  1.
    9900012    2    1    2    0    0 -0.50197615514E+01 -0.41278234032E+02  0.12431121261E+02  0.47787269746E+02  0.19999994078E+02 0.  0.
         12    1    1    2    0    0  0.50197615514E+01  0.41278234032E+02 -0.12431121261E+02  0.43400730254E+02  0.00000000000E+00 0. -1.
         11    1    3    3    0    0  0.56633368879E+01 -0.22255350957E+02  0.58108451267E+01  0.23688392775E+02  0.51100000000E-03 0. -1.
        -11    1    3    3    0    0 -0.48730631335E+01 -0.10257539033E+02 -0.55227851213E+00  0.11369646571E+02  0.51100000000E-03 0.  1.
         12    1    3    3    0    0 -0.58100353058E+01 -0.87653440413E+01  0.71725546463E+01  0.12729230400E+02  0.00000000000E+00 0. -1.
</event>
<event>
 7    1  0.1384886E-010  0.4778727E+02  0.7816164E-02  0.1312668E+00
        -11   -1    0    0    0    0  0.00000000000E+00  0.00000000000E+00  0.45593999997E+02  0.45594000000E+02  0.51100000000E-03 0.  1.
         11   -1    0    0    0    0 -0.00000000000E+00 -0.00000000000E+00 -0.45593999997E+02  0.45594000000E+02  0.51100000000E-03 0. -1.
    9900012    2    1    2    0    0 -0.23685428381E+02 -0.33381406919E+02 -0.14432788854E+02  0.47787271440E+02  0.20000001802E+02 0.  0.
         12    1    1    2    0    0  0.23685428381E+02  0.33381406919E+02  0.14432788854E+02  0.43400728560E+02  0.00000000000E+00 0. -1.
         11    1    3    3    0    0 -0.10318437740E+02 -0.14890827931E+02 -0.81780746022E+01  0.19876816101E+02  0.51100000000E-03 0. -1.
        -11    1    3    3    0    0 -0.10873577708E+02 -0.94620274876E+01 -0.10291567128E+02  0.17711042052E+02  0.51100000000E-03 0.  1.
         12    1    3    3    0    0 -0.24934129327E+01 -0.90285515002E+01  0.40368528764E+01  0.10199413287E+02  0.00000000000E+00 0. -1.
</event>
<event>
 7    1  0.1384886E-010  0.4778727E+02  0.7816164E-02  0.1312668E+00
        -11   -1    0    0    0    0  0.00000000000E+00  0.00000000000E+00  0.45593999997E+02  0.45594000000E+02  0.51100000000E-03 0.  1.
         11   -1    0    0    0    0 -0.00000000000E+00 -0.00000000000E+00 -0.45593999997E+02  0.45594000000E+02  0.51100000000E-03 0. -1.
    9900012    2    1    2    0    0 -0.37438647022E+02  0.17171055494E+02  0.13679402014E+02  0.47787268703E+02  0.19999989324E+02 0.  0.
         12    1    1    2    0    0  0.37438647022E+02 -0.17171055494E+02 -0.13679402014E+02  0.43400731297E+02  0.00000000000E+00 0. -1.
         11    1    3    3    0    0 -0.35428385950E+02  0.11645186873E+02  0.88308283606E+01  0.38324462659E+02  0.51100000000E-03 0. -1.
        -11    1    3    3    0    0 -0.36745434692E+01  0.52903825657E+01  0.37220951948E+01  0.74393823870E+01  0.51100000000E-03 0.  1.
         12    1    3    3    0    0  0.16642823964E+01  0.23548605589E+00  0.11264784588E+01  0.20234236570E+01  0.00000000000E+00 0. -1.
</event>
<event>
 7    1  0.1384886E-010  0.4778727E+02  0.7816164E-02  0.1312668E+00
        -11   -1    0    0    0    0  0.00000000000E+00  0.00000000000E+00  0.45593999997E+02  0.45594000000E+02  0.51100000000E-03 0.  1.
         11   -1    0    0    0    0 -0.00000000000E+00 -0.00000000000E+00 -0.45593999997E+02  0.45594000000E+02  0.51100000000E-03 0. -1.
    9900012    2    1    2    0    0  0.28593537856E+02 -0.19693705425E+02  0.26042099329E+02  0.47787269846E+02  0.19999994536E+02 0.  0.
         12    1    1    2    0    0 -0.28593537856E+02  0.19693705425E+02 -0.26042099329E+02  0.43400730154E+02  0.00000000000E+00 0. -1.
         11    1    3    3    0    0  0.77388830162E+00 -0.28783202532E+01 -0.93069404963E+00  0.31224705376E+01  0.51100000000E-03 0. -1.
        -11    1    3    3    0    0  0.15156494092E+02 -0.10428116322E+02  0.23886379082E+02  0.30150025359E+02  0.51100000000E-03 0.  1.
         12    1    3    3    0    0  0.12663155462E+02 -0.63872688499E+01  0.30864142958E+01  0.14514773950E+02  0.00000000000E+00 0. -1.
</event>
<event>
 7    1  0.1384886E-010  0.4778727E+02  0.7816164E-02  0.1312668E+00
        -11   -1    0    0    0    0  0.00000000000E+00  0.00000000000E+00  0.45593999997E+02  0.45594000000E+02  0.51100000000E-03 0.  1.
         11   -1    0    0    0    0 -0.00000000000E+00 -0.00000000000E+00 -0.45593999997E+02  0.45594000000E+02  0.51100000000E-03 0. -1.
    9900012    2    1    2    0    0 -0.57024284089E+01  0.30161287677E+02  0.30682285205E+02  0.47787267408E+02  0.19999983420E+02 0.  0.
         12    1    1    2    0    0  0.57024284089E+01 -0.30161287677E+02 -0.30682285205E+02  0.43400732592E+02  0.00000000000E+00 0. -1.
         11    1    3    3    0    0  0.36633039072E+00 -0.18878431219E+01  0.10456600295E+01  0.21889620295E+01  0.51100000000E-03 0. -1.
        -11    1    3    3    0    0  0.20198975610E+01  0.17119960061E+02  0.18530207852E+02  0.25308923761E+02  0.51100000000E-03 0.  1.
        -12    1    3    3    0    0 -0.80886563606E+01  0.14929170739E+02  0.11106417324E+02  0.20289381618E+02  0.00000000000E+00 0.  1.
</event>
<event>
 7    1  0.1384886E-010  0.4778730E+02  0.7816164E-02  0.1312668E+00
        -11   -1    0    0    0    0  0.00000000000E+00  0.00000000000E+00  0.45593999997E+02  0.45594000000E+02  0.51100000000E-03 0.  1.
         11   -1    0    0    0    0 -0.00000000000E+00 -0.00000000000E+00 -0.45593999997E+02  0.45594000000E+02  0.51100000000E-03 0. -1.
    9900012    2    1    2    0    0 -0.29614623362E+02  0.18129522623E+02  0.26036810396E+02  0.47787297206E+02  0.20000119280E+02 0.  0.
         12    1    1    2    0    0  0.29614623362E+02 -0.18129522623E+02 -0.26036810396E+02  0.43400702794E+02  0.00000000000E+00 0. -1.
         11    1    3    3    0    0 -0.21096208001E+02  0.77729016373E+01  0.14280855378E+02  0.26634767174E+02  0.51100000000E-03 0. -1.
        -11    1    3    3    0    0 -0.69093843976E+01  0.11649166164E+02  0.55935357329E+01  0.14653678969E+02  0.51100000000E-03 0.  1.
         12    1    3    3    0    0 -0.16090309643E+01 -0.12925451784E+01  0.61624192856E+01  0.64988510626E+01  0.00000000000E+00 0. -1.
</event>
<event>
 7    1  0.1384886E-010  0.4778727E+02  0.7816164E-02  0.1312668E+00
        -11   -1    0    0    0    0  0.00000000000E+00  0.00000000000E+00  0.45593999997E+02  0.45594000000E+02  0.51100000000E-03 0.  1.
         11   -1    0    0    0    0 -0.00000000000E+00 -0.00000000000E+00 -0.45593999997E+02  0.45594000000E+02  0.51100000000E-03 0. -1.
    9900012    2    1    2    0    0  0.80010461897E+01 -0.34455017432E+01  0.42517467841E+02  0.47787270812E+02  0.19999998941E+02 0.  0.
         12    1    1    2    0    0 -0.80010461897E+01  0.34455017432E+01 -0.42517467841E+02  0.43400729188E+02  0.00000000000E+00 0. -1.
         11    1    3    3    0    0  0.25146893815E+01  0.45482072233E+01  0.10875454602E+02  0.12053437878E+02  0.51100000000E-03 0. -1.
        -11    1    3    3    0    0  0.45106192013E+01 -0.62937213773E+01  0.32631864868E+02  0.33537966834E+02  0.51100000000E-03 0.  1.
         12    1    3    3    0    0  0.97573760690E+00 -0.16999875892E+01 -0.98985162825E+00  0.21958660995E+01  0.00000000000E+00 0. -1.
</event>
<event>
 7    1  0.1384886E-010  0.4778728E+02  0.7816164E-02  0.1312668E+00
        -11   -1    0    0    0    0  0.00000000000E+00  0.00000000000E+00  0.45593999997E+02  0.45594000000E+02  0.51100000000E-03 0.  1.
         11   -1    0    0    0    0 -0.00000000000E+00 -0.00000000000E+00 -0.45593999997E+02  0.45594000000E+02  0.51100000000E-03 0. -1.
    9900012    2    1    2    0    0  0.28307567925E+02  0.45334957181E+01  0.32584533621E+02  0.47787276313E+02  0.20000024021E+02 0.  0.
         12    1    1    2    0    0 -0.28307567925E+02 -0.45334957181E+01 -0.32584533621E+02  0.43400723687E+02  0.00000000000E+00 0. -1.
         11    1    3    3    0    0  0.92039599470E+01 -0.17948887545E+01  0.18238453303E+02  0.20507941961E+02  0.51100000000E-03 0. -1.
        -11    1    3    3    0    0  0.76199564638E+01 -0.18359479841E+01  0.10532142396E+01  0.79084576250E+01  0.51100000000E-03 0.  1.
         12    1    3    3    0    0  0.11483651514E+02  0.81643324568E+01  0.13292866079E+02  0.19370876727E+02  0.00000000000E+00 0. -1.
</event>
<event>
 7    1  0.1384886E-010  0.4778726E+02  0.7816164E-02  0.1312668E+00
        -11   -1    0    0    0    0  0.00000000000E+00  0.00000000000E+00  0.45593999997E+02  0.45594000000E+02  0.51100000000E-03 0. -1.
         11   -1    0    0    0    0 -0.00000000000E+00 -0.00000000000E+00 -0.45593999997E+02  0.45594000000E+02  0.51100000000E-03 0.  1.
    9900012    2    1    2    0    0  0.12619405847E+02  0.30966324310E+02  0.27666971392E+02  0.47787263242E+02  0.19999964424E+02 0.  0.
         12    1    1    2    0    0 -0.12619405847E+02 -0.30966324310E+02 -0.27666971392E+02  0.43400736758E+02  0.00000000000E+00 0. -1.
         11    1    3    3    0    0  0.32948634963E+01  0.70951957078E+01  0.14863781040E+02  0.16796723331E+02  0.51100000000E-03 0. -1.
        -11    1    3    3    0    0  0.62657109408E+01  0.21882888557E+02  0.14477719306E+02  0.26976365614E+02  0.51100000000E-03 0.  1.
        -12    1    3    3    0    0  0.30588314095E+01  0.19882400453E+01 -0.16745289537E+01  0.40141742969E+01  0.00000000000E+00 0.  1.
</event>
<event>
 7    1  0.1475971E-010  0.4778727E+02  0.7816164E-02  0.1312668E+00
        -11   -1    0    0    0    0  0.00000000000E+00  0.00000000000E+00  0.45593999997E+02  0.45594000000E+02  0.51100000000E-03 0.  1.
         11   -1    0    0    0    0 -0.00000000000E+00 -0.00000000000E+00 -0.45593999997E+02  0.45594000000E+02  0.51100000000E-03 0. -1.
    9900012    2    1    2    0    0  0.12678320448E+01 -0.23755493625E+02  0.36300040079E+02  0.47787265153E+02  0.19999973141E+02 0.  0.
         12    1    1    2    0    0 -0.12678320448E+01  0.23755493625E+02 -0.36300040079E+02  0.43400734847E+02  0.00000000000E+00 0. -1.
         11    1    3    3    0    0 -0.30371794397E+01 -0.53926398332E+01  0.11400134478E+01  0.62932228819E+01  0.51100000000E-03 0. -1.
        -11    1    3    3    0    0  0.65828210305E+01 -0.10652964130E+02  0.13616645113E+02  0.18499518963E+02  0.51100000000E-03 0.  1.
        -12    1    3    3    0    0 -0.22778095459E+01 -0.77098896614E+01  0.21543381518E+02  0.22994523308E+02  0.00000000000E+00 0.  1.
</event>
<event>
 7    1  0.1384886E-010  0.4778727E+02  0.7816164E-02  0.1312668E+00
        -11   -1    0    0    0    0  0.00000000000E+00  0.00000000000E+00  0.45593999997E+02  0.45594000000E+02  0.51100000000E-03 0.  1.
         11   -1    0    0    0    0 -0.00000000000E+00 -0.00000000000E+00 -0.45593999997E+02  0.45594000000E+02  0.51100000000E-03 0. -1.
    9900012    2    1    2    0    0 -0.30517770228E+02 -0.14954662029E+01  0.30822922559E+02  0.47787271044E+02  0.19999999996E+02 0.  0.
         12    1    1    2    0    0  0.30517770228E+02  0.14954662029E+01 -0.30822922559E+02  0.43400728956E+02  0.00000000000E+00 0. -1.
         11    1    3    3    0    0 -0.17688078719E+02 -0.48215532848E+01  0.15092446826E+02  0.23746525141E+02  0.51100000000E-03 0. -1.
        -11    1    3    3    0    0 -0.11244809550E+02  0.76326769768E+01  0.11690715815E+02  0.17926972309E+02  0.51100000000E-03 0.  1.
         12    1    3    3    0    0 -0.15848819595E+01 -0.43065898949E+01  0.40397599185E+01  0.61137735931E+01  0.00000000000E+00 0. -1.
</event>
<event>
 7    1  0.1384886E-010  0.4778728E+02  0.7816164E-02  0.1312668E+00
        -11   -1    0    0    0    0  0.00000000000E+00  0.00000000000E+00  0.45593999997E+02  0.45594000000E+02  0.51100000000E-03 0.  1.
         11   -1    0    0    0    0 -0.00000000000E+00 -0.00000000000E+00 -0.45593999997E+02  0.45594000000E+02  0.51100000000E-03 0. -1.
    9900012    2    1    2    0    0  0.25342195916E+02  0.24451454962E+02  0.25367741003E+02  0.47787276191E+02  0.20000023464E+02 0.  0.
         12    1    1    2    0    0 -0.25342195916E+02 -0.24451454962E+02 -0.25367741003E+02  0.43400723809E+02  0.00000000000E+00 0. -1.
         11    1    3    3    0    0  0.75863651943E+01  0.12201556566E+02  0.36343807000E+01  0.14820244358E+02  0.51100000000E-03 0. -1.
        -11    1    3    3    0    0  0.10529864339E+02  0.13491540870E+02  0.17605295784E+02  0.24552925650E+02  0.51100000000E-03 0.  1.
         12    1    3    3    0    0  0.72259663822E+01 -0.12416424739E+01  0.41280645184E+01  0.84141061830E+01  0.00000000000E+00 0. -1.
</event>
<event>
 7    1  0.1384886E-010  0.4778726E+02  0.7816164E-02  0.1312668E+00
        -11   -1    0    0    0    0  0.00000000000E+00  0.00000000000E+00  0.45593999997E+02  0.45594000000E+02  0.51100000000E-03 0.  1.
         11   -1    0    0    0    0 -0.00000000000E+00 -0.00000000000E+00 -0.45593999997E+02  0.45594000000E+02  0.51100000000E-03 0. -1.
    9900012    2    1    2    0    0 -0.13905076995E+02 -0.29422712356E+02  0.28715452964E+02  0.47787257984E+02  0.19999940452E+02 0.  0.
         12    1    1    2    0    0  0.13905076995E+02  0.29422712356E+02 -0.28715452964E+02  0.43400742016E+02  0.00000000000E+00 0. -1.
         11    1    3    3    0    0  0.18924683270E+01  0.32966478513E+00  0.15359141145E+01  0.24595015079E+01  0.51100000000E-03 0. -1.
        -11    1    3    3    0    0 -0.91863015001E+01 -0.27932524078E+02  0.21547875270E+02  0.36454423127E+02  0.51100000000E-03 0.  1.
         12    1    3    3    0    0 -0.66112438219E+01 -0.18198530627E+01  0.56316635802E+01  0.88733333490E+01  0.00000000000E+00 0. -1.
</event>
<event>
 7    1  0.1384886E-010  0.4778727E+02  0.7816164E-02  0.1312668E+00
        -11   -1    0    0    0    0  0.00000000000E+00  0.00000000000E+00  0.45593999997E+02  0.45594000000E+02  0.51100000000E-03 0.  1.
         11   -1    0    0    0    0 -0.00000000000E+00 -0.00000000000E+00 -0.45593999997E+02  0.45594000000E+02  0.51100000000E-03 0. -1.
    9900012    2    1    2    0    0 -0.29611602192E+02  0.31014388788E+02 -0.66995458967E+01  0.47787271764E+02  0.20000003279E+02 0.  0.
         12    1    1    2    0    0  0.29611602192E+02 -0.31014388788E+02  0.66995458967E+01  0.43400728236E+02  0.00000000000E+00 0. -1.
         11    1    3    3    0    0 -0.89746928756E+01  0.38026945577E+01 -0.84441969584E+01  0.12896125800E+02  0.51100000000E-03 0. -1.
        -11    1    3    3    0    0 -0.69702518655E+01  0.44247996448E+01  0.92135480654E+00  0.83073556506E+01  0.51100000000E-03 0.  1.
        -12    1    3    3    0    0 -0.13666657451E+02  0.22786894585E+02  0.82329625511E+00  0.26583790313E+02  0.00000000000E+00 0.  1.
</event>
<event>
 7    1  0.1384886E-010  0.4778727E+02  0.7816164E-02  0.1312668E+00
        -11   -1    0    0    0    0  0.00000000000E+00  0.00000000000E+00  0.45593999997E+02  0.45594000000E+02  0.51100000000E-03 0.  1.
         11   -1    0    0    0    0 -0.00000000000E+00 -0.00000000000E+00 -0.45593999997E+02  0.45594000000E+02  0.51100000000E-03 0. -1.
    9900012    2    1    2    0    0  0.90283320197E+01  0.15833813910E+02  0.39387857269E+02  0.47787265648E+02  0.19999975396E+02 0.  0.
         12    1    1    2    0    0 -0.90283320197E+01 -0.15833813910E+02 -0.39387857269E+02  0.43400734352E+02  0.00000000000E+00 0. -1.
         11    1    3    3    0    0 -0.22913762286E+01  0.77315051765E+01  0.11638998096E+02  0.14159549931E+02  0.51100000000E-03 0. -1.
        -11    1    3    3    0    0  0.11262191164E+02  0.11191865359E+02  0.22528589742E+02  0.27561425146E+02  0.51100000000E-03 0.  1.
         12    1    3    3    0    0  0.57517084143E-01 -0.30895566257E+01  0.52202694313E+01  0.60662905711E+01  0.00000000000E+00 0. -1.
</event>
<event>
 7    1  0.1384886E-010  0.4778727E+02  0.7816164E-02  0.1312668E+00
        -11   -1    0    0    0    0  0.00000000000E+00  0.00000000000E+00  0.45593999997E+02  0.45594000000E+02  0.51100000000E-03 0. -1.
         11   -1    0    0    0    0 -0.00000000000E+00 -0.00000000000E+00 -0.45593999997E+02  0.45594000000E+02  0.51100000000E-03 0.  1.
    9900012    2    1    2    0    0  0.11957832267E+02 -0.48773135029E+01 -0.41434831874E+02  0.47787271527E+02  0.20000002200E+02 0.  0.
         12    1    1    2    0    0 -0.11957832267E+02  0.48773135029E+01  0.41434831874E+02  0.43400728473E+02  0.00000000000E+00 0. -1.
         11    1    3    3    0    0 -0.14076012545E+01  0.72697557191E+00  0.20603776994E+00  0.15975877433E+01  0.51100000000E-03 0. -1.
        -11    1    3    3    0    0  0.12511952521E+01 -0.34510001470E+00  0.94340079103E+00  0.16045525522E+01  0.51100000000E-03 0.  1.
        -12    1    3    3    0    0  0.12114238270E+02 -0.52591890601E+01 -0.42584270435E+02  0.44585131231E+02  0.00000000000E+00 0.  1.
</event>
<event>
 7    1  0.1384886E-010  0.4778727E+02  0.7816164E-02  0.1312668E+00
        -11   -1    0    0    0    0  0.00000000000E+00  0.00000000000E+00  0.45593999997E+02  0.45594000000E+02  0.51100000000E-03 0.  1.
         11   -1    0    0    0    0 -0.00000000000E+00 -0.00000000000E+00 -0.45593999997E+02  0.45594000000E+02  0.51100000000E-03 0. -1.
    9900012    2    1    2    0    0 -0.17403674744E+02 -0.24956838714E+02  0.30949821931E+02  0.47787272232E+02  0.20000005416E+02 0.  0.
         12    1    1    2    0    0  0.17403674744E+02  0.24956838714E+02 -0.30949821931E+02  0.43400727768E+02  0.00000000000E+00 0. -1.
         11    1    3    3    0    0 -0.14619572553E+02 -0.15500447250E+02  0.19423085347E+02  0.28831441366E+02  0.51100000000E-03 0. -1.
        -11    1    3    3    0    0 -0.76236796624E+00 -0.29175216671E+01  0.11727121977E+02  0.12108613782E+02  0.51100000000E-03 0.  1.
         12    1    3    3    0    0 -0.20217342251E+01 -0.65388697971E+01 -0.20038539275E+00  0.68472170848E+01  0.00000000000E+00 0. -1.
</event>
<event>
 7    1  0.1384886E-010  0.4778727E+02  0.7816164E-02  0.1312668E+00
        -11   -1    0    0    0    0  0.00000000000E+00  0.00000000000E+00  0.45593999997E+02  0.45594000000E+02  0.51100000000E-03 0.  1.
         11   -1    0    0    0    0 -0.00000000000E+00 -0.00000000000E+00 -0.45593999997E+02  0.45594000000E+02  0.51100000000E-03 0. -1.
    9900012    2    1    2    0    0 -0.29883706127E+02 -0.10615255968E+02  0.29629439548E+02  0.47787271446E+02  0.20000001829E+02 0.  0.
         12    1    1    2    0    0  0.29883706127E+02  0.10615255968E+02 -0.29629439548E+02  0.43400728554E+02  0.00000000000E+00 0. -1.
         11    1    3    3    0    0 -0.15146411247E+02 -0.25189962145E+01  0.91737185909E+01  0.17886202186E+02  0.51100000000E-03 0. -1.
        -11    1    3    3    0    0 -0.12880006328E+02 -0.11189317193E+02  0.19961690820E+02  0.26259559838E+02  0.51100000000E-03 0.  1.
        -12    1    3    3    0    0 -0.18572885522E+01  0.30930574398E+01  0.49403013713E+00  0.36415094217E+01  0.00000000000E+00 0.  1.
</event>
<event>
 7    1  0.1384886E-010  0.4778727E+02  0.7816164E-02  0.1312668E+00
        -11   -1    0    0    0    0  0.00000000000E+00  0.00000000000E+00  0.45593999997E+02  0.45594000000E+02  0.51100000000E-03 0. -1.
         11   -1    0    0    0    0 -0.00000000000E+00 -0.00000000000E+00 -0.45593999997E+02  0.45594000000E+02  0.51100000000E-03 0.  1.
    9900012    2    1    2    0    0  0.10200557316E+02 -0.31884773640E+02 -0.27621243720E+02  0.47787271155E+02  0.20000000506E+02 0.  0.
         12    1    1    2    0    0 -0.10200557316E+02  0.31884773640E+02  0.27621243720E+02  0.43400728845E+02  0.00000000000E+00 0. -1.
         11    1    3    3    0    0  0.26874528369E+01 -0.24585982778E+01  0.16028393164E+01  0.39794726256E+01  0.51100000000E-03 0. -1.
        -11    1    3    3    0    0 -0.16737348591E+01 -0.99128844361E+01 -0.14687561243E+02  0.17798626962E+02  0.51100000000E-03 0.  1.
        -12    1    3    3    0    0  0.91868393379E+01 -0.19513290926E+02 -0.14536521793E+02  0.26009171567E+02  0.00000000000E+00 0.  1.
</event>
<event>
 7    1  0.1384886E-010  0.4778727E+02  0.7816164E-02  0.1312668E+00
        -11   -1    0    0    0    0  0.00000000000E+00  0.00000000000E+00  0.45593999997E+02  0.45594000000E+02  0.51100000000E-03 0. -1.
         11   -1    0    0    0    0 -0.00000000000E+00 -0.00000000000E+00 -0.45593999997E+02  0.45594000000E+02  0.51100000000E-03 0.  1.
    9900012    2    1    2    0    0  0.11582513568E+02 -0.31063731673E+02 -0.28009163101E+02  0.47787271163E+02  0.20000000541E+02 0.  0.
         12    1    1    2    0    0 -0.11582513568E+02  0.31063731673E+02  0.28009163101E+02  0.43400728837E+02  0.00000000000E+00 0. -1.
         11    1    3    3    0    0 -0.18911653970E+01 -0.27240659870E+00  0.60188880087E+00  0.20032429467E+01  0.51100000000E-03 0. -1.
        -11    1    3    3    0    0 -0.80331644273E+00  0.22887121687E+00  0.44570914580E+00  0.94676092275E+00  0.51100000000E-03 0.  1.
        -12    1    3    3    0    0  0.14276995407E+02 -0.31020196291E+02 -0.29056761047E+02  0.44837267294E+02  0.00000000000E+00 0.  1.
</event>
<event>
 7    1  0.1384886E-010  0.4778728E+02  0.7816164E-02  0.1312668E+00
        -11   -1    0    0    0    0  0.00000000000E+00  0.00000000000E+00  0.45593999997E+02  0.45594000000E+02  0.51100000000E-03 0. -1.
         11   -1    0    0    0    0 -0.00000000000E+00 -0.00000000000E+00 -0.45593999997E+02  0.45594000000E+02  0.51100000000E-03 0.  1.
    9900012    2    1    2    0    0 -0.38719516563E+02  0.18923852734E+02  0.51292945735E+01  0.47787276181E+02  0.20000023421E+02 0.  0.
         12    1    1    2    0    0  0.38719516563E+02 -0.18923852734E+02 -0.51292945735E+01  0.43400723819E+02  0.00000000000E+00 0. -1.
         11    1    3    3    0    0  0.10846950403E+01  0.45818970550E+00 -0.19974165123E+01  0.23186578276E+01  0.51100000000E-03 0. -1.
        -11    1    3    3    0    0 -0.98690926157E+01  0.16051518325E+01 -0.13286995342E+01  0.10086671610E+02  0.51100000000E-03 0.  1.
        -12    1    3    3    0    0 -0.29935118987E+02  0.16860511196E+02  0.84554106200E+01  0.35381946743E+02  0.00000000000E+00 0.  1.
</event>
<event>
 7    1  0.1384886E-010  0.4778728E+02  0.7816164E-02  0.1312668E+00
        -11   -1    0    0    0    0  0.00000000000E+00  0.00000000000E+00  0.45593999997E+02  0.45594000000E+02  0.51100000000E-03 0.  1.
         11   -1    0    0    0    0 -0.00000000000E+00 -0.00000000000E+00 -0.45593999997E+02  0.45594000000E+02  0.51100000000E-03 0. -1.
    9900012    2    1    2    0    0  0.41777029388E+02  0.43399631674E+01  0.10930115132E+02  0.47787275563E+02  0.20000020604E+02 0.  0.
         12    1    1    2    0    0 -0.41777029388E+02 -0.43399631674E+01 -0.10930115132E+02  0.43400724437E+02  0.00000000000E+00 0. -1.
         11    1    3    3    0    0  0.15999769989E+02  0.32549072069E+01  0.10171878104E+02  0.19236791964E+02  0.51100000000E-03 0. -1.
        -11    1    3    3    0    0  0.26790907242E+02  0.22081034006E+01  0.54123636776E-01  0.26881803532E+02  0.51100000000E-03 0.  1.
         12    1    3    3    0    0 -0.10136478427E+01 -0.11230474401E+01  0.70411339156E+00  0.16686800682E+01  0.00000000000E+00 0. -1.
</event>
<event>
 7    1  0.1384886E-010  0.4778727E+02  0.7816164E-02  0.1312668E+00
        -11   -1    0    0    0    0  0.00000000000E+00  0.00000000000E+00  0.45593999997E+02  0.45594000000E+02  0.51100000000E-03 0. -1.
         11   -1    0    0    0    0 -0.00000000000E+00 -0.00000000000E+00 -0.45593999997E+02  0.45594000000E+02  0.51100000000E-03 0.  1.
    9900012    2    1    2    0    0 -0.27815231680E+02 -0.18515270120E+02 -0.27696945271E+02  0.47787272836E+02  0.20000008167E+02 0.  0.
         12    1    1    2    0    0  0.27815231680E+02  0.18515270120E+02  0.27696945271E+02  0.43400727164E+02  0.00000000000E+00 0. -1.
         11    1    3    3    0    0 -0.11912541221E+02 -0.18240994231E+02 -0.19675391686E+02  0.29355809427E+02  0.51100000000E-03 0. -1.
        -11    1    3    3    0    0 -0.43969768404E+01  0.43288793743E+00 -0.54135009043E-01  0.44185663016E+01  0.51100000000E-03 0.  1.
         12    1    3    3    0    0 -0.11505713619E+02 -0.70716382673E+00 -0.79674185756E+01  0.14012897107E+02  0.00000000000E+00 0. -1.
</event>
<event>
 7    1  0.1384886E-010  0.4778727E+02  0.7816164E-02  0.1312668E+00
        -11   -1    0    0    0    0  0.00000000000E+00  0.00000000000E+00  0.45593999997E+02  0.45594000000E+02  0.51100000000E-03 0.  1.
         11   -1    0    0    0    0 -0.00000000000E+00 -0.00000000000E+00 -0.45593999997E+02  0.45594000000E+02  0.51100000000E-03 0. -1.
    9900012    2    1    2    0    0  0.30818918816E+02 -0.25343525364E+01  0.30453150879E+02  0.47787273068E+02  0.20000009226E+02 0.  0.
         12    1    1    2    0    0 -0.30818918816E+02  0.25343525364E+01 -0.30453150879E+02  0.43400726932E+02  0.00000000000E+00 0. -1.
         11    1    3    3    0    0  0.13536258638E+02  0.10756938779E+01  0.12303103377E+02  0.18323585026E+02  0.51100000000E-03 0. -1.
        -11    1    3    3    0    0  0.47332676860E+01  0.44047393191E+01  0.11419300214E+02  0.13122727197E+02  0.51100000000E-03 0.  1.
        -12    1    3    3    0    0  0.12549392492E+02 -0.80147857334E+01  0.67307472881E+01  0.16340960845E+02  0.00000000000E+00 0.  1.
</event>
<event>
 7    1  0.1384886E-010  0.4778727E+02  0.7816164E-02  0.1312668E+00
        -11   -1    0    0    0    0  0.00000000000E+00  0.00000000000E+00  0.45593999997E+02  0.45594000000E+02  0.51100000000E-03 0.  1.
         11   -1    0    0    0    0 -0.00000000000E+00 -0.00000000000E+00 -0.45593999997E+02  0.45594000000E+02  0.51100000000E-03 0. -1.
    9900012    2    1    2    0    0  0.31946537720E+02  0.24251982649E+02  0.16579620218E+02  0.47787265660E+02  0.19999975448E+02 0.  0.
         12    1    1    2    0    0 -0.31946537720E+02 -0.24251982649E+02 -0.16579620218E+02  0.43400734340E+02  0.00000000000E+00 0. -1.
         11    1    3    3    0    0  0.10143436888E+02  0.33067392739E+01  0.94597081261E+01  0.14258678572E+02  0.51100000000E-03 0. -1.
        -11    1    3    3    0    0  0.11140019223E+02  0.26292493441E+01  0.11135991195E+01  0.11500134072E+02  0.51100000000E-03 0.  1.
        -12    1    3    3    0    0  0.10663081608E+02  0.18315994031E+02  0.60063129729E+01  0.22028453016E+02  0.00000000000E+00 0.  1.
</event>
<event>
 7    1  0.1384886E-010  0.4778726E+02  0.7816164E-02  0.1312668E+00
        -11   -1    0    0    0    0  0.00000000000E+00  0.00000000000E+00  0.45593999997E+02  0.45594000000E+02  0.51100000000E-03 0.  1.
         11   -1    0    0    0    0 -0.00000000000E+00 -0.00000000000E+00 -0.45593999997E+02  0.45594000000E+02  0.51100000000E-03 0. -1.
    9900012    2    1    2    0    0 -0.27320781666E+02 -0.26098317111E+02  0.21355951889E+02  0.47787263279E+02  0.19999964593E+02 0.  0.
         12    1    1    2    0    0  0.27320781666E+02  0.26098317111E+02 -0.21355951889E+02  0.43400736721E+02  0.00000000000E+00 0. -1.
         11    1    3    3    0    0 -0.54635798368E+01 -0.12647484821E+02  0.11711952313E+02  0.18082571835E+02  0.51100000000E-03 0.  1.
        -11    1    3    3    0    0 -0.14668967315E+02 -0.56696624906E+01  0.10756390158E+02  0.19053178327E+02  0.51100000000E-03 0. -1.
         12    1    3    3    0    0 -0.71882345135E+01 -0.77811697999E+01 -0.11123905817E+01  0.10651513117E+02  0.00000000000E+00 0. -1.
</event>
<event>
 7    1  0.1384886E-010  0.4778727E+02  0.7816164E-02  0.1312668E+00
        -11   -1    0    0    0    0  0.00000000000E+00  0.00000000000E+00  0.45593999997E+02  0.45594000000E+02  0.51100000000E-03 0.  1.
         11   -1    0    0    0    0 -0.00000000000E+00 -0.00000000000E+00 -0.45593999997E+02  0.45594000000E+02  0.51100000000E-03 0. -1.
    9900012    2    1    2    0    0  0.71850529236E+01  0.31928707300E+02  0.28505366212E+02  0.47787271455E+02  0.20000001873E+02 0.  0.
         12    1    1    2    0    0 -0.71850529236E+01 -0.31928707300E+02 -0.28505366212E+02  0.43400728545E+02  0.00000000000E+00 0. -1.
         11    1    3    3    0    0  0.41393780319E+01  0.92194085014E+01  0.54443395438E+01  0.11479232419E+02  0.51100000000E-03 0. -1.
        -11    1    3    3    0    0  0.65256617770E+01  0.20287589904E+02  0.23862148279E+02  0.31993322530E+02  0.51100000000E-03 0.  1.
         12    1    3    3    0    0 -0.34799868853E+01  0.24217088943E+01 -0.80112161155E+00  0.43147165060E+01  0.00000000000E+00 0. -1.
</event>
<event>
 7    1  0.1384886E-010  0.4778727E+02  0.7816164E-02  0.1312668E+00
        -11   -1    0    0    0    0  0.00000000000E+00  0.00000000000E+00  0.45593999997E+02  0.45594000000E+02  0.51100000000E-03 0.  1.
         11   -1    0    0    0    0 -0.00000000000E+00 -0.00000000000E+00 -0.45593999997E+02  0.45594000000E+02  0.51100000000E-03 0. -1.
    9900012    2    1    2    0    0 -0.37798888483E+02 -0.19365067925E+02  0.89365111869E+01  0.47787273526E+02  0.20000011314E+02 0.  0.
         12    1    1    2    0    0  0.37798888483E+02  0.19365067925E+02 -0.89365111869E+01  0.43400726474E+02  0.00000000000E+00 0. -1.
         11    1    3    3    0    0 -0.46096214711E+01 -0.11100529086E+02 -0.50879359503E+00  0.12030346099E+02  0.51100000000E-03 0. -1.
        -11    1    3    3    0    0 -0.15843125103E+02 -0.61251026384E+01  0.53133334873E+01  0.17797556248E+02  0.51100000000E-03 0.  1.
         12    1    3    3    0    0 -0.17346141908E+02 -0.21394362012E+01  0.41319712947E+01  0.17959371179E+02  0.00000000000E+00 0. -1.
</event>
<event>
 7    1  0.1384886E-010  0.4778727E+02  0.7816164E-02  0.1312668E+00
        -11   -1    0    0    0    0  0.00000000000E+00  0.00000000000E+00  0.45593999997E+02  0.45594000000E+02  0.51100000000E-03 0. -1.
         11   -1    0    0    0    0 -0.00000000000E+00 -0.00000000000E+00 -0.45593999997E+02  0.45594000000E+02  0.51100000000E-03 0.  1.
    9900012    2    1    2    0    0 -0.39994753661E+02 -0.13897815772E+02  0.95338372835E+01  0.47787266631E+02  0.19999979877E+02 0.  0.
         12    1    1    2    0    0  0.39994753661E+02  0.13897815772E+02 -0.95338372835E+01  0.43400733369E+02  0.00000000000E+00 0. -1.
         11    1    3    3    0    0  0.11754684919E+01  0.29104799472E-01  0.14427724946E+01  0.18612270138E+01  0.51100000000E-03 0. -1.
        -11    1    3    3    0    0 -0.31159190624E+00 -0.16416576569E+01 -0.14434037863E+01  0.22080634343E+01  0.51100000000E-03 0.  1.
        -12    1    3    3    0    0 -0.40858630247E+02 -0.12285262914E+02  0.95344685753E+01  0.43717976183E+02  0.00000000000E+00 0.  1.
</event>
<event>
 7    1  0.1384886E-010  0.4778727E+02  0.7816164E-02  0.1312668E+00
        -11   -1    0    0    0    0  0.00000000000E+00  0.00000000000E+00  0.45593999997E+02  0.45594000000E+02  0.51100000000E-03 0.  1.
         11   -1    0    0    0    0 -0.00000000000E+00 -0.00000000000E+00 -0.45593999997E+02  0.45594000000E+02  0.51100000000E-03 0. -1.
    9900012    2    1    2    0    0  0.61690916661E+01  0.18729602438E+02  0.38662223495E+02  0.47787271608E+02  0.20000002568E+02 0.  0.
         12    1    1    2    0    0 -0.61690916661E+01 -0.18729602438E+02 -0.38662223495E+02  0.43400728392E+02  0.00000000000E+00 0. -1.
         11    1    3    3    0    0 -0.20647128063E-01  0.89380566078E+01  0.59794072712E+01  0.10753724648E+02  0.51100000000E-03 0. -1.
        -11    1    3    3    0    0 -0.11927995567E+01  0.62858925142E+01  0.25038631155E+02  0.25843147368E+02  0.51100000000E-03 0.  1.
        -12    1    3    3    0    0  0.73825383508E+01  0.35056533155E+01  0.76441850679E+01  0.11190399592E+02  0.00000000000E+00 0.  1.
</event>
<event>
 7    1  0.1384886E-010  0.4778727E+02  0.7816164E-02  0.1312668E+00
        -11   -1    0    0    0    0  0.00000000000E+00  0.00000000000E+00  0.45593999997E+02  0.45594000000E+02  0.51100000000E-03 0.  1.
         11   -1    0    0    0    0 -0.00000000000E+00 -0.00000000000E+00 -0.45593999997E+02  0.45594000000E+02  0.51100000000E-03 0. -1.
    9900012    2    1    2    0    0 -0.34546573704E+01  0.35758974267E+02  0.24351270644E+02  0.47787270972E+02  0.19999999672E+02 0.  0.
         12    1    1    2    0    0  0.34546573704E+01 -0.35758974267E+02 -0.24351270644E+02  0.43400729028E+02  0.00000000000E+00 0. -1.
         11    1    3    3    0    0 -0.73813092823E+01  0.23166789642E+02  0.13466535035E+02  0.27794449718E+02  0.51100000000E-03 0. -1.
        -11    1    3    3    0    0  0.33359219889E+01  0.14014740042E+02  0.11397206258E+02  0.18369475352E+02  0.51100000000E-03 0.  1.
         12    1    3    3    0    0  0.59072992294E+00 -0.14225554163E+01 -0.51247064884E+00  0.16233459029E+01  0.00000000000E+00 0. -1.
</event>
<event>
 7    1  0.1384886E-010  0.4778728E+02  0.7816164E-02  0.1312668E+00
        -11   -1    0    0    0    0  0.00000000000E+00  0.00000000000E+00  0.45593999997E+02  0.45594000000E+02  0.51100000000E-03 0. -1.
         11   -1    0    0    0    0 -0.00000000000E+00 -0.00000000000E+00 -0.45593999997E+02  0.45594000000E+02  0.51100000000E-03 0.  1.
    9900012    2    1    2    0    0 -0.17112215590E+02  0.87141657363E+01 -0.38921173150E+02  0.47787281962E+02  0.20000049777E+02 0.  0.
         12    1    1    2    0    0  0.17112215590E+02 -0.87141657363E+01  0.38921173150E+02  0.43400718038E+02  0.00000000000E+00 0. -1.
         11    1    3    3    0    0  0.26093044369E+00  0.23462328559E+00 -0.16264864669E+02  0.16268649475E+02  0.51100000000E-03 0. -1.
        -11    1    3    3    0    0 -0.10646196719E+02  0.90336040273E+01 -0.19708922822E+02  0.24153449969E+02  0.51100000000E-03 0.  1.
         12    1    3    3    0    0 -0.67269493145E+01 -0.55406157665E+00 -0.29473856586E+01  0.73651825185E+01  0.00000000000E+00 0. -1.
</event>
<event>
 7    1  0.1384886E-010  0.4778727E+02  0.7816164E-02  0.1312668E+00
        -11   -1    0    0    0    0  0.00000000000E+00  0.00000000000E+00  0.45593999997E+02  0.45594000000E+02  0.51100000000E-03 0.  1.
         11   -1    0    0    0    0 -0.00000000000E+00 -0.00000000000E+00 -0.45593999997E+02  0.45594000000E+02  0.51100000000E-03 0. -1.
    9900012    2    1    2    0    0 -0.27930349004E+02 -0.17051784243E+02  0.28508866572E+02  0.47787271727E+02  0.20000003113E+02 0.  0.
         12    1    1    2    0    0  0.27930349004E+02  0.17051784243E+02 -0.28508866572E+02  0.43400728273E+02  0.00000000000E+00 0. -1.
         11    1    3    3    0    0  0.15885630138E+01 -0.33278978703E+01  0.23619740388E+01  0.43791960798E+01  0.51100000000E-03 0. -1.
        -11    1    3    3    0    0 -0.96236028789E+01  0.26176134226E-01  0.12027376264E+02  0.15403642349E+02  0.51100000000E-03 0.  1.
         12    1    3    3    0    0 -0.19895309139E+02 -0.13750062507E+02  0.14119516270E+02  0.28004433299E+02  0.00000000000E+00 0. -1.
</event>
<event>
 7    1  0.1384886E-010  0.4778727E+02  0.7816164E-02  0.1312668E+00
        -11   -1    0    0    0    0  0.00000000000E+00  0.00000000000E+00  0.45593999997E+02  0.45594000000E+02  0.51100000000E-03 0.  1.
         11   -1    0    0    0    0 -0.00000000000E+00 -0.00000000000E+00 -0.45593999997E+02  0.45594000000E+02  0.51100000000E-03 0. -1.
    9900012    2    1    2    0    0 -0.43916857550E+01 -0.33235539796E+02  0.27563293575E+02  0.47787272333E+02  0.20000005875E+02 0.  0.
         12    1    1    2    0    0  0.43916857550E+01  0.33235539796E+02 -0.27563293575E+02  0.43400727667E+02  0.00000000000E+00 0. -1.
         11    1    3    3    0    0 -0.46458096688E+01 -0.39589475540E+01  0.67557098868E+01  0.91047476379E+01  0.51100000000E-03 0. -1.
        -11    1    3    3    0    0 -0.70933557636E+00 -0.15983445509E+02  0.19598613142E+02  0.25299789024E+02  0.51100000000E-03 0.  1.
        -12    1    3    3    0    0  0.96345949008E+00 -0.13293146734E+02  0.12089705459E+01  0.13382735671E+02  0.00000000000E+00 0.  1.
</event>
<event>
 7    1  0.1384886E-010  0.4778727E+02  0.7816164E-02  0.1312668E+00
        -11   -1    0    0    0    0  0.00000000000E+00  0.00000000000E+00  0.45593999997E+02  0.45594000000E+02  0.51100000000E-03 0.  1.
         11   -1    0    0    0    0 -0.00000000000E+00 -0.00000000000E+00 -0.45593999997E+02  0.45594000000E+02  0.51100000000E-03 0. -1.
    9900012    2    1    2    0    0 -0.32651314207E+02 -0.25869754167E+02  0.12176636633E+02  0.47787274432E+02  0.20000015446E+02 0.  0.
         12    1    1    2    0    0  0.32651314207E+02  0.25869754167E+02 -0.12176636633E+02  0.43400725568E+02  0.00000000000E+00 0. -1.
         11    1    3    3    0    0 -0.24386588902E+01 -0.93121809956E+01  0.25311003530E+01  0.99534035051E+01  0.51100000000E-03 0. -1.
        -11    1    3    3    0    0 -0.12868057659E+02 -0.33866418837E+01  0.89651315835E+01  0.16044620149E+02  0.51100000000E-03 0.  1.
        -12    1    3    3    0    0 -0.17344597658E+02 -0.13170931288E+02  0.68040469694E+00  0.21789250778E+02  0.00000000000E+00 0.  1.
</event>
<event>
 7    1  0.1384886E-010  0.4778729E+02  0.7816164E-02  0.1312668E+00
        -11   -1    0    0    0    0  0.00000000000E+00  0.00000000000E+00  0.45593999997E+02  0.45594000000E+02  0.51100000000E-03 0. -1.
         11   -1    0    0    0    0 -0.00000000000E+00 -0.00000000000E+00 -0.45593999997E+02  0.45594000000E+02  0.51100000000E-03 0.  1.
    9900012    2    1    2    0    0 -0.11389298861E+02  0.13526233320E+02 -0.39635167047E+02  0.47787290522E+02  0.20000088807E+02 0.  0.
         12    1    1    2    0    0  0.11389298861E+02 -0.13526233320E+02  0.39635167047E+02  0.43400709478E+02  0.00000000000E+00 0. -1.
         11    1    3    3    0    0  0.23498260244E+01  0.28274472231E+01 -0.62860893870E+01  0.72822427992E+01  0.51100000000E-03 0. -1.
        -11    1    3    3    0    0  0.14089305667E+01  0.16928887774E+01  0.57527123993E+00  0.22763776082E+01  0.51100000000E-03 0.  1.
        -12    1    3    3    0    0 -0.15148055452E+02  0.90058973190E+01 -0.33924348900E+02  0.38228670115E+02  0.00000000000E+00 0.  1.
</event>
<event>
 7    1  0.1384886E-010  0.4778727E+02  0.7816164E-02  0.1312668E+00
        -11   -1    0    0    0    0  0.00000000000E+00  0.00000000000E+00  0.45593999997E+02  0.45594000000E+02  0.51100000000E-03 0.  1.
         11   -1    0    0    0    0 -0.00000000000E+00 -0.00000000000E+00 -0.45593999997E+02  0.45594000000E+02  0.51100000000E-03 0. -1.
    9900012    2    1    2    0    0  0.18588824350E+02  0.22960250172E+01  0.39151081776E+02  0.47787270446E+02  0.19999997270E+02 0.  0.
         12    1    1    2    0    0 -0.18588824350E+02 -0.22960250172E+01 -0.39151081776E+02  0.43400729554E+02  0.00000000000E+00 0. -1.
         11    1    3    3    0    0  0.77486204455E+01 -0.31809625734E+01  0.93166606063E+01  0.12528360101E+02  0.51100000000E-03 0. -1.
        -11    1    3    3    0    0  0.11355846623E+02  0.86813385562E+01  0.28220689878E+02  0.31634288819E+02  0.51100000000E-03 0.  1.
         12    1    3    3    0    0 -0.51564271792E+00 -0.32043509655E+01  0.16137312919E+01  0.36246215258E+01  0.00000000000E+00 0. -1.
</event>
<event>
 7    1  0.1384886E-010  0.4778727E+02  0.7816164E-02  0.1312668E+00
        -11   -1    0    0    0    0  0.00000000000E+00  0.00000000000E+00  0.45593999997E+02  0.45594000000E+02  0.51100000000E-03 0.  1.
         11   -1    0    0    0    0 -0.00000000000E+00 -0.00000000000E+00 -0.45593999997E+02  0.45594000000E+02  0.51100000000E-03 0. -1.
    9900012    2    1    2    0    0 -0.34849182536E+02 -0.16218261751E+02  0.20152555804E+02  0.47787273703E+02  0.20000012122E+02 0.  0.
         12    1    1    2    0    0  0.34849182536E+02  0.16218261751E+02 -0.20152555804E+02  0.43400726297E+02  0.00000000000E+00 0. -1.
         11    1    3    3    0    0 -0.80243839271E+01 -0.11320358288E+02  0.13246148273E+02  0.19183370233E+02  0.51100000000E-03 0. -1.
        -11    1    3    3    0    0 -0.13179472880E+02 -0.39562176944E+01  0.56266491054E+01  0.14866383025E+02  0.51100000000E-03 0.  1.
         12    1    3    3    0    0 -0.13645325729E+02 -0.94168576834E+00  0.12797584260E+01  0.13737520445E+02  0.00000000000E+00 0. -1.
</event>
<event>
 7    1  0.1384886E-010  0.4778727E+02  0.7816164E-02  0.1312668E+00
        -11   -1    0    0    0    0  0.00000000000E+00  0.00000000000E+00  0.45593999997E+02  0.45594000000E+02  0.51100000000E-03 0. -1.
         11   -1    0    0    0    0 -0.00000000000E+00 -0.00000000000E+00 -0.45593999997E+02  0.45594000000E+02  0.51100000000E-03 0.  1.
    9900012    2    1    2    0    0 -0.40435056999E+02  0.10888270800E+02  0.11405036871E+02  0.47787272569E+02  0.20000006949E+02 0.  0.
         12    1    1    2    0    0  0.40435056999E+02 -0.10888270800E+02 -0.11405036871E+02  0.43400727431E+02  0.00000000000E+00 0. -1.
         11    1    3    3    0    0 -0.60255204381E+01  0.37509765971E+01  0.85851513988E+01  0.11139189683E+02  0.51100000000E-03 0. -1.
        -11    1    3    3    0    0 -0.30481760204E+01  0.28378865837E+01  0.27546786605E+01  0.49933187458E+01  0.51100000000E-03 0.  1.
        -12    1    3    3    0    0 -0.31361360541E+02  0.42994076190E+01  0.65206811318E-01  0.31654764140E+02  0.00000000000E+00 0.  1.
</event>
<event>
 7    1  0.1384886E-010  0.4778727E+02  0.7816164E-02  0.1312668E+00
        -11   -1    0    0    0    0  0.00000000000E+00  0.00000000000E+00  0.45593999997E+02  0.45594000000E+02  0.51100000000E-03 0. -1.
         11   -1    0    0    0    0 -0.00000000000E+00 -0.00000000000E+00 -0.45593999997E+02  0.45594000000E+02  0.51100000000E-03 0.  1.
    9900012    2    1    2    0    0 -0.10356013671E+02  0.40119304773E+02 -0.12915795244E+02  0.47787269575E+02  0.19999993302E+02 0.  0.
         12    1    1    2    0    0  0.10356013671E+02 -0.40119304773E+02  0.12915795244E+02  0.43400730425E+02  0.00000000000E+00 0. -1.
         11    1    3    3    0    0  0.34928665636E+01  0.88636388516E+01 -0.58890196803E+01  0.11200212658E+02  0.51100000000E-03 0. -1.
        -11    1    3    3    0    0 -0.73956310034E+01  0.18730297592E+02 -0.95261592114E+01  0.22277053562E+02  0.51100000000E-03 0.  1.
         12    1    3    3    0    0 -0.64532492310E+01  0.12525368329E+02  0.24993836479E+01  0.14310003356E+02  0.00000000000E+00 0. -1.
</event>
<event>
 7    1  0.1384886E-010  0.4778727E+02  0.7816164E-02  0.1312668E+00
        -11   -1    0    0    0    0  0.00000000000E+00  0.00000000000E+00  0.45593999997E+02  0.45594000000E+02  0.51100000000E-03 0.  1.
         11   -1    0    0    0    0 -0.00000000000E+00 -0.00000000000E+00 -0.45593999997E+02  0.45594000000E+02  0.51100000000E-03 0. -1.
    9900012    2    1    2    0    0  0.22772639759E+02 -0.36634341606E+02  0.47911608128E+01  0.47787270416E+02  0.19999997135E+02 0.  0.
         12    1    1    2    0    0 -0.22772639759E+02  0.36634341606E+02 -0.47911608128E+01  0.43400729584E+02  0.00000000000E+00 0. -1.
         11    1    3    3    0    0  0.20263188354E+02 -0.19358267664E+02 -0.73413562293E+00  0.28033520731E+02  0.51100000000E-03 0. -1.
        -11    1    3    3    0    0  0.45717578717E+01 -0.62349329374E+01  0.23839381421E+01  0.80906439853E+01  0.51100000000E-03 0.  1.
        -12    1    3    3    0    0 -0.20623064663E+01 -0.11041141004E+02  0.31413582937E+01  0.11663105699E+02  0.00000000000E+00 0.  1.
</event>
<event>
 7    1  0.1384886E-010  0.4778728E+02  0.7816164E-02  0.1312668E+00
        -11   -1    0    0    0    0  0.00000000000E+00  0.00000000000E+00  0.45593999997E+02  0.45594000000E+02  0.51100000000E-03 0. -1.
         11   -1    0    0    0    0 -0.00000000000E+00 -0.00000000000E+00 -0.45593999997E+02  0.45594000000E+02  0.51100000000E-03 0.  1.
    9900012    2    1    2    0    0  0.40641725303E+02 -0.14588092867E+02 -0.43658111369E+01  0.47787278854E+02  0.20000035606E+02 0.  0.
         12    1    1    2    0    0 -0.40641725303E+02  0.14588092867E+02  0.43658111369E+01  0.43400721146E+02  0.00000000000E+00 0. -1.
         11    1    3    3    0    0  0.19046996093E+02 -0.46286793323E+01  0.53846407216E+01  0.20327495874E+02  0.51100000000E-03 0. -1.
        -11    1    3    3    0    0  0.12285214517E+02 -0.35148263867E+00 -0.48319167237E+01  0.13205962868E+02  0.51100000000E-03 0.  1.
         12    1    3    3    0    0  0.93095146934E+01 -0.96079308960E+01 -0.49185351347E+01  0.14253820113E+02  0.00000000000E+00 0. -1.
</event>
<event>
 7    1  0.1384886E-010  0.4778727E+02  0.7816164E-02  0.1312668E+00
        -11   -1    0    0    0    0  0.00000000000E+00  0.00000000000E+00  0.45593999997E+02  0.45594000000E+02  0.51100000000E-03 0. -1.
         11   -1    0    0    0    0 -0.00000000000E+00 -0.00000000000E+00 -0.45593999997E+02  0.45594000000E+02  0.51100000000E-03 0.  1.
    9900012    2    1    2    0    0  0.23628072652E+02 -0.35948037702E+02 -0.57511766205E+01  0.47787271154E+02  0.20000000498E+02 0.  0.
         12    1    1    2    0    0 -0.23628072652E+02  0.35948037702E+02  0.57511766205E+01  0.43400728846E+02  0.00000000000E+00 0. -1.
         11    1    3    3    0    0 -0.14745397916E+01 -0.57136080672E+01 -0.58170884811E+01  0.82860185494E+01  0.51100000000E-03 0. -1.
        -11    1    3    3    0    0  0.12548035408E+02 -0.13020885642E+02 -0.14554265215E+01  0.18141524801E+02  0.51100000000E-03 0.  1.
        -12    1    3    3    0    0  0.12554577036E+02 -0.17213543993E+02  0.15213383821E+01  0.21359727803E+02  0.00000000000E+00 0.  1.
</event>
<event>
 7    1  0.1384886E-010  0.4778727E+02  0.7816164E-02  0.1312668E+00
        -11   -1    0    0    0    0  0.00000000000E+00  0.00000000000E+00  0.45593999997E+02  0.45594000000E+02  0.51100000000E-03 0.  1.
         11   -1    0    0    0    0 -0.00000000000E+00 -0.00000000000E+00 -0.45593999997E+02  0.45594000000E+02  0.51100000000E-03 0. -1.
    9900012    2    1    2    0    0 -0.30225505500E+02  0.23366254426E+02  0.20592718423E+02  0.47787273270E+02  0.20000010148E+02 0.  0.
         12    1    1    2    0    0  0.30225505500E+02 -0.23366254426E+02 -0.20592718423E+02  0.43400726730E+02  0.00000000000E+00 0. -1.
         11    1    3    3    0    0 -0.24887029311E+02  0.11325459166E+02  0.90317013456E+01  0.28795865722E+02  0.51100000000E-03 0. -1.
        -11    1    3    3    0    0 -0.25401828274E+01  0.15510003312E+01  0.62128802715E+01  0.68889775986E+01  0.51100000000E-03 0.  1.
        -12    1    3    3    0    0 -0.27982933618E+01  0.10489794929E+02  0.53481368058E+01  0.12102429950E+02  0.00000000000E+00 0.  1.
</event>
<event>
 7    1  0.1384886E-010  0.4778728E+02  0.7816164E-02  0.1312668E+00
        -11   -1    0    0    0    0  0.00000000000E+00  0.00000000000E+00  0.45593999997E+02  0.45594000000E+02  0.51100000000E-03 0. -1.
         11   -1    0    0    0    0 -0.00000000000E+00 -0.00000000000E+00 -0.45593999997E+02  0.45594000000E+02  0.51100000000E-03 0.  1.
    9900012    2    1    2    0    0 -0.17911379077E+02 -0.20844992262E+02 -0.33590053748E+02  0.47787275195E+02  0.20000018923E+02 0.  0.
         12    1    1    2    0    0  0.17911379077E+02  0.20844992262E+02  0.33590053748E+02  0.43400724805E+02  0.00000000000E+00 0. -1.
         11    1    3    3    0    0  0.13273441158E+01 -0.83412531514E+01 -0.33191947207E+01  0.90749876250E+01  0.51100000000E-03 0. -1.
        -11    1    3    3    0    0 -0.45706876281E+01 -0.43468147633E+01 -0.13912120523E+02  0.15275244079E+02  0.51100000000E-03 0.  1.
         12    1    3    3    0    0 -0.14668035565E+02 -0.81569243470E+01 -0.16358738505E+02  0.23437043491E+02  0.00000000000E+00 0. -1.
</event>
<event>
 7    1  0.1384886E-010  0.4778727E+02  0.7816164E-02  0.1312668E+00
        -11   -1    0    0    0    0  0.00000000000E+00  0.00000000000E+00  0.45593999997E+02  0.45594000000E+02  0.51100000000E-03 0.  1.
         11   -1    0    0    0    0 -0.00000000000E+00 -0.00000000000E+00 -0.45593999997E+02  0.45594000000E+02  0.51100000000E-03 0. -1.
    9900012    2    1    2    0    0 -0.60930185050E+01  0.33835172343E+02  0.26489242934E+02  0.47787265522E+02  0.19999974821E+02 0.  0.
         12    1    1    2    0    0  0.60930185050E+01 -0.33835172343E+02 -0.26489242934E+02  0.43400734478E+02  0.00000000000E+00 0. -1.
         11    1    3    3    0    0 -0.57033195211E+01  0.12050678891E+02  0.20960523773E+01  0.13495930910E+02  0.51100000000E-03 0. -1.
        -11    1    3    3    0    0  0.31309119813E+01  0.13524254844E+02  0.92346197321E+01  0.16672920584E+02  0.51100000000E-03 0.  1.
         12    1    3    3    0    0 -0.35206109652E+01  0.82602386080E+01  0.15158570825E+02  0.17618414029E+02  0.00000000000E+00 0. -1.
</event>
<event>
 7    1  0.1384886E-010  0.4778727E+02  0.7816164E-02  0.1312668E+00
        -11   -1    0    0    0    0  0.00000000000E+00  0.00000000000E+00  0.45593999997E+02  0.45594000000E+02  0.51100000000E-03 0.  1.
         11   -1    0    0    0    0 -0.00000000000E+00 -0.00000000000E+00 -0.45593999997E+02  0.45594000000E+02  0.51100000000E-03 0. -1.
    9900012    2    1    2    0    0  0.31832322124E+01  0.38583559061E+02  0.19616303439E+02  0.47787270078E+02  0.19999995594E+02 0.  0.
         12    1    1    2    0    0 -0.31832322124E+01 -0.38583559061E+02 -0.19616303439E+02  0.43400729922E+02  0.00000000000E+00 0. -1.
         11    1    3    3    0    0  0.14659347264E+01 -0.66531225358E+00  0.51449932073E+01  0.53909702634E+01  0.51100000000E-03 0. -1.
        -11    1    3    3    0    0  0.36634528438E+01  0.14039030363E+02  0.41996188551E+01  0.15104703210E+02  0.51100000000E-03 0.  1.
         12    1    3    3    0    0 -0.19461553578E+01  0.25209840952E+02  0.10271691376E+02  0.27291596604E+02  0.00000000000E+00 0. -1.
</event>
<event>
 7    1  0.1384886E-010  0.4778727E+02  0.7816164E-02  0.1312668E+00
        -11   -1    0    0    0    0  0.00000000000E+00  0.00000000000E+00  0.45593999997E+02  0.45594000000E+02  0.51100000000E-03 0. -1.
         11   -1    0    0    0    0 -0.00000000000E+00 -0.00000000000E+00 -0.45593999997E+02  0.45594000000E+02  0.51100000000E-03 0.  1.
    9900012    2    1    2    0    0 -0.36020217207E+02  0.19377337333E+02  0.14515025858E+02  0.47787271603E+02  0.20000002546E+02 0.  0.
         12    1    1    2    0    0  0.36020217207E+02 -0.19377337333E+02 -0.14515025858E+02  0.43400728397E+02  0.00000000000E+00 0. -1.
         11    1    3    3    0    0 -0.49379383637E+01 -0.36697712065E+01  0.10419816898E+01  0.62398863848E+01  0.51100000000E-03 0. -1.
        -11    1    3    3    0    0 -0.12639868379E+02  0.11073956380E+02  0.25551899344E+01  0.16997875703E+02  0.51100000000E-03 0.  1.
        -12    1    3    3    0    0 -0.18442410464E+02  0.11973152159E+02  0.10917854234E+02  0.24549509515E+02  0.00000000000E+00 0.  1.
</event>
<event>
 7    1  0.1384886E-010  0.4778729E+02  0.7816164E-02  0.1312668E+00
        -11   -1    0    0    0    0  0.00000000000E+00  0.00000000000E+00  0.45593999997E+02  0.45594000000E+02  0.51100000000E-03 0.  1.
         11   -1    0    0    0    0 -0.00000000000E+00 -0.00000000000E+00 -0.45593999997E+02  0.45594000000E+02  0.51100000000E-03 0. -1.
    9900012    2    1    2    0    0 -0.18156104230E+02  0.79244045165E+01  0.38615818216E+02  0.47787288896E+02  0.20000081394E+02 0.  0.
         12    1    1    2    0    0  0.18156104230E+02 -0.79244045165E+01 -0.38615818216E+02  0.43400711104E+02  0.00000000000E+00 0. -1.
         11    1    3    3    0    0 -0.15440645704E+02  0.83561658320E+01  0.18180658752E+02  0.25274006411E+02  0.51100000000E-03 0.  1.
        -11    1    3    3    0    0 -0.49656045258E+01 -0.30458289026E+01  0.10665717612E+02  0.12152852935E+02  0.51100000000E-03 0. -1.
         12    1    3    3    0    0  0.22501459990E+01  0.26140675870E+01  0.97694418518E+01  0.10360429550E+02  0.00000000000E+00 0. -1.
</event>
<event>
 7    1  0.1384886E-010  0.4778726E+02  0.7816164E-02  0.1312668E+00
        -11   -1    0    0    0    0  0.00000000000E+00  0.00000000000E+00  0.45593999997E+02  0.45594000000E+02  0.51100000000E-03 0.  1.
         11   -1    0    0    0    0 -0.00000000000E+00 -0.00000000000E+00 -0.45593999997E+02  0.45594000000E+02  0.51100000000E-03 0. -1.
    9900012    2    1    2    0    0 -0.33028458869E+02 -0.67133560244E+01  0.27343656648E+02  0.47787264946E+02  0.19999972193E+02 0.  0.
         12    1    1    2    0    0  0.33028458869E+02  0.67133560244E+01 -0.27343656648E+02  0.43400735054E+02  0.00000000000E+00 0. -1.
         11    1    3    3    0    0 -0.10729162889E+02 -0.60717038073E+01  0.26632092722E+01  0.12612422738E+02  0.51100000000E-03 0. -1.
        -11    1    3    3    0    0 -0.18122655400E+02 -0.51654274215E+01  0.19632715300E+02  0.27213154714E+02  0.51100000000E-03 0.  1.
        -12    1    3    3    0    0 -0.41766405800E+01  0.45237752044E+01  0.50477320761E+01  0.79616874937E+01  0.00000000000E+00 0.  1.
</event>
<event>
 7    1  0.1384886E-010  0.4778727E+02  0.7816164E-02  0.1312668E+00
        -11   -1    0    0    0    0  0.00000000000E+00  0.00000000000E+00  0.45593999997E+02  0.45594000000E+02  0.51100000000E-03 0.  1.
         11   -1    0    0    0    0 -0.00000000000E+00 -0.00000000000E+00 -0.45593999997E+02  0.45594000000E+02  0.51100000000E-03 0. -1.
    9900012    2    1    2    0    0  0.28363079564E+02 -0.81891037145E+01  0.31813487368E+02  0.47787266360E+02  0.19999978640E+02 0.  0.
         12    1    1    2    0    0 -0.28363079564E+02  0.81891037145E+01 -0.31813487368E+02  0.43400733640E+02  0.00000000000E+00 0. -1.
         11    1    3    3    0    0  0.79225706659E+01 -0.17714622685E-01  0.18288050512E+01  0.81309266348E+01  0.51100000000E-03 0. -1.
        -11    1    3    3    0    0  0.11971557137E+02 -0.72814634966E+00  0.24142820506E+02  0.26957821864E+02  0.51100000000E-03 0.  1.
         12    1    3    3    0    0  0.84689517609E+01 -0.74432427422E+01  0.58418618112E+01  0.12698517861E+02  0.00000000000E+00 0. -1.
</event>
<event>
 7    1  0.1384886E-010  0.4778727E+02  0.7816164E-02  0.1312668E+00
        -11   -1    0    0    0    0  0.00000000000E+00  0.00000000000E+00  0.45593999997E+02  0.45594000000E+02  0.51100000000E-03 0.  1.
         11   -1    0    0    0    0 -0.00000000000E+00 -0.00000000000E+00 -0.45593999997E+02  0.45594000000E+02  0.51100000000E-03 0. -1.
    9900012    2    1    2    0    0  0.36936965295E+01  0.49610753633E+01  0.42957738806E+02  0.47787274360E+02  0.20000015116E+02 0.  0.
         12    1    1    2    0    0 -0.36936965295E+01 -0.49610753633E+01 -0.42957738806E+02  0.43400725640E+02  0.00000000000E+00 0. -1.
         11    1    3    3    0    0 -0.21073360474E+01  0.55070242501E+01  0.64648282335E+01  0.87499820375E+01  0.51100000000E-03 0. -1.
        -11    1    3    3    0    0  0.17783478471E+01  0.16820605709E+01  0.20193902639E+00  0.24561409693E+01  0.51100000000E-03 0.  1.
        -12    1    3    3    0    0  0.40226847299E+01 -0.22280094577E+01  0.36290971546E+02  0.36581151353E+02  0.00000000000E+00 0.  1.
</event>
<event>
 7    1  0.1384886E-010  0.4778727E+02  0.7816164E-02  0.1312668E+00
        -11   -1    0    0    0    0  0.00000000000E+00  0.00000000000E+00  0.45593999997E+02  0.45594000000E+02  0.51100000000E-03 0. -1.
         11   -1    0    0    0    0 -0.00000000000E+00 -0.00000000000E+00 -0.45593999997E+02  0.45594000000E+02  0.51100000000E-03 0.  1.
    9900012    2    1    2    0    0 -0.30309957914E+01  0.14081856159E+02 -0.40940661877E+02  0.47787269554E+02  0.19999993203E+02 0.  0.
         12    1    1    2    0    0  0.30309957914E+01 -0.14081856159E+02  0.40940661877E+02  0.43400730446E+02  0.00000000000E+00 0. -1.
         11    1    3    3    0    0 -0.80780839397E+00  0.24422257936E+01 -0.19597664744E+02  0.19765765477E+02  0.51100000000E-03 0.  1.
        -11    1    3    3    0    0  0.19156188874E+01  0.13389449285E+02 -0.17434495011E+02  0.22066004723E+02  0.51100000000E-03 0. -1.
        -12    1    3    3    0    0 -0.41388062848E+01 -0.17498189197E+01 -0.39085021219E+01  0.59554993537E+01  0.00000000000E+00 0.  1.
</event>
<event>
 7    1  0.1384886E-010  0.4778727E+02  0.7816164E-02  0.1312668E+00
        -11   -1    0    0    0    0  0.00000000000E+00  0.00000000000E+00  0.45593999997E+02  0.45594000000E+02  0.51100000000E-03 0.  1.
         11   -1    0    0    0    0 -0.00000000000E+00 -0.00000000000E+00 -0.45593999997E+02  0.45594000000E+02  0.51100000000E-03 0. -1.
    9900012    2    1    2    0    0  0.17121586246E+02  0.35283443965E+02  0.18589063894E+02  0.47787269245E+02  0.19999991796E+02 0.  0.
         12    1    1    2    0    0 -0.17121586246E+02 -0.35283443965E+02 -0.18589063894E+02  0.43400730755E+02  0.00000000000E+00 0. -1.
         11    1    3    3    0    0  0.45779149531E+01  0.69571698396E+01 -0.34253925665E+01  0.90051558559E+01  0.51100000000E-03 0. -1.
        -11    1    3    3    0    0 -0.17041242920E+00  0.55059334108E+01  0.19526484130E+01  0.58444143596E+01  0.51100000000E-03 0.  1.
        -12    1    3    3    0    0  0.12714083722E+02  0.22820340714E+02  0.20061808048E+02  0.32937699030E+02  0.00000000000E+00 0.  1.
</event>
<event>
 7    1  0.1384886E-010  0.4778727E+02  0.7816164E-02  0.1312668E+00
        -11   -1    0    0    0    0  0.00000000000E+00  0.00000000000E+00  0.45593999997E+02  0.45594000000E+02  0.51100000000E-03 0. -1.
         11   -1    0    0    0    0 -0.00000000000E+00 -0.00000000000E+00 -0.45593999997E+02  0.45594000000E+02  0.51100000000E-03 0.  1.
    9900012    2    1    2    0    0  0.40592492851E+02  0.71518355392E+01 -0.13591328527E+02  0.47787269147E+02  0.19999991350E+02 0.  0.
         12    1    1    2    0    0 -0.40592492851E+02 -0.71518355392E+01  0.13591328527E+02  0.43400730853E+02  0.00000000000E+00 0. -1.
         11    1    3    3    0    0  0.16667222788E+01  0.34873234185E+01  0.17056369057E+01  0.42247586079E+01  0.51100000000E-03 0. -1.
        -11    1    3    3    0    0  0.13670415101E+02  0.44648211108E+01 -0.73738606853E+00  0.14399951912E+02  0.51100000000E-03 0.  1.
        -12    1    3    3    0    0  0.25255355471E+02 -0.80030899011E+00 -0.14559579364E+02  0.29162558627E+02  0.00000000000E+00 0.  1.
</event>
<event>
 7    1  0.1384886E-010  0.4778725E+02  0.7816164E-02  0.1312668E+00
        -11   -1    0    0    0    0  0.00000000000E+00  0.00000000000E+00  0.45593999997E+02  0.45594000000E+02  0.51100000000E-03 0.  1.
         11   -1    0    0    0    0 -0.00000000000E+00 -0.00000000000E+00 -0.45593999997E+02  0.45594000000E+02  0.51100000000E-03 0. -1.
    9900012    2    1    2    0    0  0.22366811315E+02  0.13342460097E+02  0.34717857569E+02  0.47787249729E+02  0.19999902816E+02 0.  0.
         12    1    1    2    0    0 -0.22366811315E+02 -0.13342460097E+02 -0.34717857569E+02  0.43400750271E+02  0.00000000000E+00 0. -1.
         11    1    3    3    0    0  0.21403847323E+02  0.11536479734E+02  0.23885428859E+02  0.34084142309E+02  0.51100000000E-03 0.  1.
        -11    1    3    3    0    0  0.32861526901E+01 -0.30237695096E+00  0.98919886502E+01  0.10427927457E+02  0.51100000000E-03 0. -1.
        -12    1    3    3    0    0 -0.23231886980E+01  0.21083573141E+01  0.94044005981E+00  0.32751799640E+01  0.00000000000E+00 0.  1.
</event>
<event>
 7    1  0.1384886E-010  0.4778726E+02  0.7816164E-02  0.1312668E+00
        -11   -1    0    0    0    0  0.00000000000E+00  0.00000000000E+00  0.45593999997E+02  0.45594000000E+02  0.51100000000E-03 0.  1.
         11   -1    0    0    0    0 -0.00000000000E+00 -0.00000000000E+00 -0.45593999997E+02  0.45594000000E+02  0.51100000000E-03 0. -1.
    9900012    2    1    2    0    0  0.19263517729E+02  0.37963448462E+02 -0.84449683478E+01  0.47787262393E+02  0.19999960557E+02 0.  0.
         12    1    1    2    0    0 -0.19263517729E+02 -0.37963448462E+02  0.84449683478E+01  0.43400737607E+02  0.00000000000E+00 0. -1.
         11    1    3    3    0    0  0.76715910286E+01  0.92619373742E+01 -0.26222035962E+01  0.12309051336E+02  0.51100000000E-03 0. -1.
        -11    1    3    3    0    0  0.14792989285E+02  0.26149376147E+02 -0.76387999204E+01  0.30999575310E+02  0.51100000000E-03 0.  1.
         12    1    3    3    0    0 -0.32010625851E+01  0.25521349402E+01  0.18160351687E+01  0.44786357477E+01  0.00000000000E+00 0. -1.
</event>
<event>
 7    1  0.1384886E-010  0.4778727E+02  0.7816164E-02  0.1312668E+00
        -11   -1    0    0    0    0  0.00000000000E+00  0.00000000000E+00  0.45593999997E+02  0.45594000000E+02  0.51100000000E-03 0. -1.
         11   -1    0    0    0    0 -0.00000000000E+00 -0.00000000000E+00 -0.45593999997E+02  0.45594000000E+02  0.51100000000E-03 0.  1.
    9900012    2    1    2    0    0  0.43777442647E+01  0.30034166274E+02 -0.31022690705E+02  0.47787272734E+02  0.20000007706E+02 0.  0.
         12    1    1    2    0    0 -0.43777442647E+01 -0.30034166274E+02  0.31022690705E+02  0.43400727266E+02  0.00000000000E+00 0. -1.
         11    1    3    3    0    0 -0.31582337643E+01  0.64033388040E+01 -0.56662993727E+01  0.91150500377E+01  0.51100000000E-03 0. -1.
        -11    1    3    3    0    0  0.74547779135E+01  0.14768459837E+02 -0.63849585937E+01  0.17732704707E+02  0.51100000000E-03 0.  1.
        -12    1    3    3    0    0  0.81200115547E-01  0.88623676326E+01 -0.18971432738E+02  0.20939517990E+02  0.00000000000E+00 0.  1.
</event>
<event>
 7    1  0.1384886E-010  0.4778727E+02  0.7816164E-02  0.1312668E+00
        -11   -1    0    0    0    0  0.00000000000E+00  0.00000000000E+00  0.45593999997E+02  0.45594000000E+02  0.51100000000E-03 0.  1.
         11   -1    0    0    0    0 -0.00000000000E+00 -0.00000000000E+00 -0.45593999997E+02  0.45594000000E+02  0.51100000000E-03 0. -1.
    9900012    2    1    2    0    0 -0.16871014301E+02  0.34099154282E+02  0.20886354765E+02  0.47787271185E+02  0.20000000642E+02 0.  0.
         12    1    1    2    0    0  0.16871014301E+02 -0.34099154282E+02 -0.20886354765E+02  0.43400728815E+02  0.00000000000E+00 0. -1.
         11    1    3    3    0    0 -0.42527789378E+01  0.11429587683E+02  0.23395056978E+01  0.12417523524E+02  0.51100000000E-03 0. -1.
        -11    1    3    3    0    0 -0.94959076293E+01  0.20006120884E+02  0.21057477171E+02  0.30558705463E+02  0.51100000000E-03 0.  1.
        -12    1    3    3    0    0 -0.31223277342E+01  0.26634457150E+01 -0.25106281039E+01  0.48110421981E+01  0.00000000000E+00 0.  1.
</event>
<event>
 7    1  0.1384886E-010  0.4778727E+02  0.7816164E-02  0.1312668E+00
        -11   -1    0    0    0    0  0.00000000000E+00  0.00000000000E+00  0.45593999997E+02  0.45594000000E+02  0.51100000000E-03 0.  1.
         11   -1    0    0    0    0 -0.00000000000E+00 -0.00000000000E+00 -0.45593999997E+02  0.45594000000E+02  0.51100000000E-03 0. -1.
    9900012    2    1    2    0    0  0.57259515571E+01 -0.42563052087E+02  0.62628711997E+01  0.47787268672E+02  0.19999989182E+02 0.  0.
         12    1    1    2    0    0 -0.57259515571E+01  0.42563052087E+02 -0.62628711997E+01  0.43400731328E+02  0.00000000000E+00 0. -1.
         11    1    3    3    0    0 -0.41388805056E-01 -0.15530476832E+02 -0.32095029568E+01  0.15858698974E+02  0.51100000000E-03 0. -1.
        -11    1    3    3    0    0  0.27719507066E+01 -0.27339429100E+02  0.84851801200E+01  0.28759804870E+02  0.51100000000E-03 0.  1.
         12    1    3    3    0    0  0.29953896556E+01  0.30685384458E+00  0.98719403651E+00  0.31687648282E+01  0.00000000000E+00 0. -1.
</event>
<event>
 7    1  0.1384886E-010  0.4778728E+02  0.7816164E-02  0.1312668E+00
        -11   -1    0    0    0    0  0.00000000000E+00  0.00000000000E+00  0.45593999997E+02  0.45594000000E+02  0.51100000000E-03 0.  1.
         11   -1    0    0    0    0 -0.00000000000E+00 -0.00000000000E+00 -0.45593999997E+02  0.45594000000E+02  0.51100000000E-03 0. -1.
    9900012    2    1    2    0    0  0.18730962838E+02 -0.98837978576E+01  0.37882499100E+02  0.47787283797E+02  0.20000058142E+02 0.  0.
         12    1    1    2    0    0 -0.18730962838E+02  0.98837978576E+01 -0.37882499100E+02  0.43400716203E+02  0.00000000000E+00 0. -1.
         11    1    3    3    0    0  0.11427704319E+02 -0.54620148376E+01  0.71041069780E+01  0.14522202599E+02  0.51100000000E-03 0. -1.
        -11    1    3    3    0    0  0.37382190158E+01 -0.28844404659E+01  0.39465685242E+01  0.61538347060E+01  0.51100000000E-03 0.  1.
        -12    1    3    3    0    0  0.35650395028E+01 -0.15373425541E+01  0.26831823598E+02  0.27111246492E+02  0.00000000000E+00 0.  1.
</event>
<event>
 7    1  0.1384886E-010  0.4778727E+02  0.7816164E-02  0.1312668E+00
        -11   -1    0    0    0    0  0.00000000000E+00  0.00000000000E+00  0.45593999997E+02  0.45594000000E+02  0.51100000000E-03 0. -1.
         11   -1    0    0    0    0 -0.00000000000E+00 -0.00000000000E+00 -0.45593999997E+02  0.45594000000E+02  0.51100000000E-03 0.  1.
    9900012    2    1    2    0    0 -0.38774485889E+02 -0.16460183970E+02 -0.10451079074E+02  0.47787268830E+02  0.19999989904E+02 0.  0.
         12    1    1    2    0    0  0.38774485889E+02  0.16460183970E+02  0.10451079074E+02  0.43400731170E+02  0.00000000000E+00 0. -1.
         11    1    3    3    0    0 -0.48315529524E+01  0.12133858995E+01 -0.52613793636E+01  0.72455726027E+01  0.51100000000E-03 0. -1.
        -11    1    3    3    0    0 -0.76714030802E+01 -0.10442909363E+02 -0.14862999858E+01  0.13042770760E+02  0.51100000000E-03 0.  1.
        -12    1    3    3    0    0 -0.26271529856E+02 -0.72306605056E+01 -0.37033997249E+01  0.27498925467E+02  0.00000000000E+00 0.  1.
</event>
<event>
 7    1  0.1384886E-010  0.4778727E+02  0.7816164E-02  0.1312668E+00
        -11   -1    0    0    0    0  0.00000000000E+00  0.00000000000E+00  0.45593999997E+02  0.45594000000E+02  0.51100000000E-03 0.  1.
         11   -1    0    0    0    0 -0.00000000000E+00 -0.00000000000E+00 -0.45593999997E+02  0.45594000000E+02  0.51100000000E-03 0. -1.
    9900012    2    1    2    0    0 -0.24207320017E+02 -0.81374467232E+01  0.35091464966E+02  0.47787270801E+02  0.19999998888E+02 0.  0.
         12    1    1    2    0    0  0.24207320017E+02  0.81374467232E+01 -0.35091464966E+02  0.43400729199E+02  0.00000000000E+00 0. -1.
         11    1    3    3    0    0 -0.58052549966E+01 -0.75523387847E+01  0.61043203977E+01  0.11313776314E+02  0.51100000000E-03 0. -1.
        -11    1    3    3    0    0 -0.10285890428E+01 -0.42364876187E+01  0.64205916035E+01  0.77607873030E+01  0.51100000000E-03 0.  1.
         12    1    3    3    0    0 -0.17373475978E+02  0.36513796802E+01  0.22566552965E+02  0.28712707184E+02  0.00000000000E+00 0. -1.
</event>
<event>
 7    1  0.1384886E-010  0.4778727E+02  0.7816164E-02  0.1312668E+00
        -11   -1    0    0    0    0  0.00000000000E+00  0.00000000000E+00  0.45593999997E+02  0.45594000000E+02  0.51100000000E-03 0.  1.
         11   -1    0    0    0    0 -0.00000000000E+00 -0.00000000000E+00 -0.45593999997E+02  0.45594000000E+02  0.51100000000E-03 0. -1.
    9900012    2    1    2    0    0  0.44092600807E+01 -0.38737449533E+02 -0.19068083368E+02  0.47787269890E+02  0.19999994736E+02 0.  0.
         12    1    1    2    0    0 -0.44092600807E+01  0.38737449533E+02  0.19068083368E+02  0.43400730110E+02  0.00000000000E+00 0. -1.
         11    1    3    3    0    0  0.25592627151E+01  0.21653766743E+00 -0.23313993877E+01  0.34687371726E+01  0.51100000000E-03 0.  1.
        -11    1    3    3    0    0  0.35124976025E+01 -0.15113365229E+02 -0.12765067971E+02  0.20092247473E+02  0.51100000000E-03 0. -1.
        -12    1    3    3    0    0 -0.16625002369E+01 -0.23840621971E+02 -0.39716160094E+01  0.24226285244E+02  0.00000000000E+00 0.  1.
</event>
<event>
 7    1  0.1384886E-010  0.4778727E+02  0.7816164E-02  0.1312668E+00
        -11   -1    0    0    0    0  0.00000000000E+00  0.00000000000E+00  0.45593999997E+02  0.45594000000E+02  0.51100000000E-03 0.  1.
         11   -1    0    0    0    0 -0.00000000000E+00 -0.00000000000E+00 -0.45593999997E+02  0.45594000000E+02  0.51100000000E-03 0. -1.
    9900012    2    1    2    0    0  0.25757650844E+02  0.10787206669E+02  0.33223524372E+02  0.47787274471E+02  0.20000015625E+02 0.  0.
         12    1    1    2    0    0 -0.25757650844E+02 -0.10787206669E+02 -0.33223524372E+02  0.43400725529E+02  0.00000000000E+00 0. -1.
         11    1    3    3    0    0  0.96356886308E+01 -0.44524517329E+01  0.75440584381E+01  0.13022428337E+02  0.51100000000E-03 0. -1.
        -11    1    3    3    0    0  0.54639414895E+00  0.41590928303E+01  0.33286309973E+01  0.53550335493E+01  0.51100000000E-03 0.  1.
        -12    1    3    3    0    0  0.15575568065E+02  0.11080565572E+02  0.22350834936E+02  0.29409812585E+02  0.00000000000E+00 0.  1.
</event>
<event>
 7    1  0.1384886E-010  0.4778728E+02  0.7816164E-02  0.1312668E+00
        -11   -1    0    0    0    0  0.00000000000E+00  0.00000000000E+00  0.45593999997E+02  0.45594000000E+02  0.51100000000E-03 0. -1.
         11   -1    0    0    0    0 -0.00000000000E+00 -0.00000000000E+00 -0.45593999997E+02  0.45594000000E+02  0.51100000000E-03 0.  1.
    9900012    2    1    2    0    0  0.33305295490E+02  0.16755391722E+02 -0.22217938445E+02  0.47787278253E+02  0.20000032866E+02 0.  0.
         12    1    1    2    0    0 -0.33305295490E+02 -0.16755391722E+02  0.22217938445E+02  0.43400721747E+02  0.00000000000E+00 0. -1.
         11    1    3    3    0    0  0.14841530680E+02  0.46695671633E+01 -0.59528928259E+01  0.16658716147E+02  0.51100000000E-03 0. -1.
        -11    1    3    3    0    0  0.13503273002E+02  0.72898031984E+00 -0.51149436248E+01  0.14457954302E+02  0.51100000000E-03 0.  1.
        -12    1    3    3    0    0  0.49604918088E+01  0.11356844239E+02 -0.11150101994E+02  0.16670607803E+02  0.00000000000E+00 0.  1.
</event>
<event>
 7    1  0.1384886E-010  0.4778727E+02  0.7816164E-02  0.1312668E+00
        -11   -1    0    0    0    0  0.00000000000E+00  0.00000000000E+00  0.45593999997E+02  0.45594000000E+02  0.51100000000E-03 0. -1.
         11   -1    0    0    0    0 -0.00000000000E+00 -0.00000000000E+00 -0.45593999997E+02  0.45594000000E+02  0.51100000000E-03 0.  1.
    9900012    2    1    2    0    0  0.62653602083E+01 -0.41123084672E+02 -0.12379850623E+02  0.47787268060E+02  0.19999986394E+02 0.  0.
         12    1    1    2    0    0 -0.62653602083E+01  0.41123084672E+02  0.12379850623E+02  0.43400731940E+02  0.00000000000E+00 0. -1.
         11    1    3    3    0    0 -0.12209309630E+01 -0.31808373594E+00  0.18756743931E+01  0.22605318775E+01  0.51100000000E-03 0. -1.
        -11    1    3    3    0    0  0.88226066171E+01 -0.24700211293E+02 -0.43906512851E+01  0.26593545164E+02  0.51100000000E-03 0.  1.
        -12    1    3    3    0    0 -0.13363154458E+01 -0.16104789643E+02 -0.98648737308E+01  0.18933191018E+02  0.00000000000E+00 0.  1.
</event>
<event>
 7    1  0.1384886E-010  0.4778727E+02  0.7816164E-02  0.1312668E+00
        -11   -1    0    0    0    0  0.00000000000E+00  0.00000000000E+00  0.45593999997E+02  0.45594000000E+02  0.51100000000E-03 0.  1.
         11   -1    0    0    0    0 -0.00000000000E+00 -0.00000000000E+00 -0.45593999997E+02  0.45594000000E+02  0.51100000000E-03 0. -1.
    9900012    2    1    2    0    0  0.15289383082E+02 -0.10438887059E+02  0.39254140947E+02  0.47787272131E+02  0.20000004954E+02 0.  0.
         12    1    1    2    0    0 -0.15289383082E+02  0.10438887059E+02 -0.39254140947E+02  0.43400727869E+02  0.00000000000E+00 0. -1.
         11    1    3    3    0    0  0.63816930687E+01  0.78471755669E+00  0.27000050148E+01  0.69736515118E+01  0.51100000000E-03 0. -1.
        -11    1    3    3    0    0 -0.92803982197E+00  0.35714346471E+00  0.11281887749E+02  0.11325625846E+02  0.51100000000E-03 0.  1.
        -12    1    3    3    0    0  0.98357298356E+01 -0.11580748080E+02  0.25272248184E+02  0.29487994773E+02  0.00000000000E+00 0.  1.
</event>
<event>
 7    1  0.1384886E-010  0.4778727E+02  0.7816164E-02  0.1312668E+00
        -11   -1    0    0    0    0  0.00000000000E+00  0.00000000000E+00  0.45593999997E+02  0.45594000000E+02  0.51100000000E-03 0.  1.
         11   -1    0    0    0    0 -0.00000000000E+00 -0.00000000000E+00 -0.45593999997E+02  0.45594000000E+02  0.51100000000E-03 0. -1.
    9900012    2    1    2    0    0 -0.26084853959E+02  0.61855342206E+01  0.34131260208E+02  0.47787270018E+02  0.19999995318E+02 0.  0.
         12    1    1    2    0    0  0.26084853959E+02 -0.61855342206E+01 -0.34131260208E+02  0.43400729982E+02  0.00000000000E+00 0. -1.
         11    1    3    3    0    0  0.12665484245E+01  0.10092705152E+00  0.32447788290E+01  0.34846694379E+01  0.51100000000E-03 0. -1.
        -11    1    3    3    0    0 -0.77266544798E+01  0.78080429257E+01  0.58524015929E+01  0.12446578986E+02  0.51100000000E-03 0.  1.
        -12    1    3    3    0    0 -0.19624747903E+02 -0.17234357566E+01  0.25034079786E+02  0.31856021594E+02  0.00000000000E+00 0.  1.
</event>
<event>
 7    1  0.1384886E-010  0.4778729E+02  0.7816164E-02  0.1312668E+00
        -11   -1    0    0    0    0  0.00000000000E+00  0.00000000000E+00  0.45593999997E+02  0.45594000000E+02  0.51100000000E-03 0. -1.
         11   -1    0    0    0    0 -0.00000000000E+00 -0.00000000000E+00 -0.45593999997E+02  0.45594000000E+02  0.51100000000E-03 0.  1.
    9900012    2    1    2    0    0  0.40494619290E+02  0.11270627137E+02 -0.10806492270E+02  0.47787291450E+02  0.20000093036E+02 0.  0.
         12    1    1    2    0    0 -0.40494619290E+02 -0.11270627137E+02  0.10806492270E+02  0.43400708550E+02  0.00000000000E+00 0. -1.
         11    1    3    3    0    0  0.24702288505E+02  0.28109877369E+01  0.21934145476E+01  0.24958280732E+02  0.51100000000E-03 0. -1.
        -11    1    3    3    0    0  0.13413244291E+02  0.51068105087E+01 -0.82797920492E+01  0.16569538093E+02  0.51100000000E-03 0.  1.
        -12    1    3    3    0    0  0.23790864936E+01  0.33528288917E+01 -0.47201147680E+01  0.62594726251E+01  0.00000000000E+00 0.  1.
</event>
<event>
 7    1  0.1384886E-010  0.4778728E+02  0.7816164E-02  0.1312668E+00
        -11   -1    0    0    0    0  0.00000000000E+00  0.00000000000E+00  0.45593999997E+02  0.45594000000E+02  0.51100000000E-03 0. -1.
         11   -1    0    0    0    0 -0.00000000000E+00 -0.00000000000E+00 -0.45593999997E+02  0.45594000000E+02  0.51100000000E-03 0.  1.
    9900012    2    1    2    0    0  0.17503626244E+02 -0.32295230322E+02 -0.23114153410E+02  0.47787275108E+02  0.20000018528E+02 0.  0.
         12    1    1    2    0    0 -0.17503626244E+02  0.32295230322E+02  0.23114153410E+02  0.43400724892E+02  0.00000000000E+00 0. -1.
         11    1    3    3    0    0  0.75100057854E+01 -0.75102159604E+01 -0.44155477951E+01  0.11502199497E+02  0.51100000000E-03 0. -1.
        -11    1    3    3    0    0  0.86569918110E+00 -0.64550127848E+01 -0.13756213599E+02  0.15220053810E+02  0.51100000000E-03 0.  1.
        -12    1    3    3    0    0  0.91279212774E+01 -0.18330001577E+02 -0.49423920162E+01  0.21065021802E+02  0.00000000000E+00 0.  1.
</event>
<event>
 7    1  0.1478103E-010  0.4778727E+02  0.7816164E-02  0.1312668E+00
        -11   -1    0    0    0    0  0.00000000000E+00  0.00000000000E+00  0.45593999997E+02  0.45594000000E+02  0.51100000000E-03 0. -1.
         11   -1    0    0    0    0 -0.00000000000E+00 -0.00000000000E+00 -0.45593999997E+02  0.45594000000E+02  0.51100000000E-03 0.  1.
    9900012    2    1    2    0    0 -0.43180638106E+02 -0.43574632439E+01 -0.26208045773E+00  0.47787266374E+02  0.19999978704E+02 0.  0.
         12    1    1    2    0    0  0.43180638106E+02  0.43574632439E+01  0.26208045773E+00  0.43400733626E+02  0.00000000000E+00 0. -1.
         11    1    3    3    0    0 -0.41149340706E+01 -0.21662088919E+01  0.50505826854E+01  0.68653863032E+01  0.51100000000E-03 0. -1.
        -11    1    3    3    0    0 -0.12795363262E+02 -0.41931017977E+01 -0.55767050096E+01  0.14574054437E+02  0.51100000000E-03 0.  1.
        -12    1    3    3    0    0 -0.26270340773E+02  0.20018474457E+01  0.26404186651E+00  0.26347825634E+02  0.00000000000E+00 0.  1.
</event>
<event>
 7    1  0.1384886E-010  0.4778727E+02  0.7816164E-02  0.1312668E+00
        -11   -1    0    0    0    0  0.00000000000E+00  0.00000000000E+00  0.45593999997E+02  0.45594000000E+02  0.51100000000E-03 0.  1.
         11   -1    0    0    0    0 -0.00000000000E+00 -0.00000000000E+00 -0.45593999997E+02  0.45594000000E+02  0.51100000000E-03 0. -1.
    9900012    2    1    2    0    0  0.41667237142E+02  0.25349780571E+01  0.11875952010E+02  0.47787274189E+02  0.20000014337E+02 0.  0.
         12    1    1    2    0    0 -0.41667237142E+02 -0.25349780571E+01 -0.11875952010E+02  0.43400725811E+02  0.00000000000E+00 0. -1.
         11    1    3    3    0    0 -0.85856746527E+00  0.14160524059E+01  0.15611461720E+01  0.22758559138E+01  0.51100000000E-03 0. -1.
        -11    1    3    3    0    0  0.24759300621E+01  0.30590638010E+01 -0.53725121347E+00  0.39719944786E+01  0.51100000000E-03 0.  1.
        -12    1    3    3    0    0  0.40049874545E+02 -0.19401381498E+01  0.10852057051E+02  0.41539423797E+02  0.00000000000E+00 0.  1.
</event>
<event>
 7    1  0.1384886E-010  0.4778729E+02  0.7816164E-02  0.1312668E+00
        -11   -1    0    0    0    0  0.00000000000E+00  0.00000000000E+00  0.45593999997E+02  0.45594000000E+02  0.51100000000E-03 0.  1.
         11   -1    0    0    0    0 -0.00000000000E+00 -0.00000000000E+00 -0.45593999997E+02  0.45594000000E+02  0.51100000000E-03 0. -1.
    9900012    2    1    2    0    0 -0.82631571084E+01  0.23314114542E+02  0.35662215460E+02  0.47787293626E+02  0.20000102957E+02 0.  0.
         12    1    1    2    0    0  0.82631571084E+01 -0.23314114542E+02 -0.35662215460E+02  0.43400706374E+02  0.00000000000E+00 0. -1.
         11    1    3    3    0    0 -0.87517612341E+00  0.59126833936E-01 -0.14944044103E+01  0.17328225622E+01  0.51100000000E-03 0. -1.
        -11    1    3    3    0    0 -0.67322700233E+01  0.11333418677E+02  0.28199691584E+02  0.31128643470E+02  0.51100000000E-03 0.  1.
         12    1    3    3    0    0 -0.65571096166E+00  0.11921569031E+02  0.89569282857E+01  0.14925827593E+02  0.00000000000E+00 0. -1.
</event>
<event>
 7    1  0.1384886E-010  0.4778727E+02  0.7816164E-02  0.1312668E+00
        -11   -1    0    0    0    0  0.00000000000E+00  0.00000000000E+00  0.45593999997E+02  0.45594000000E+02  0.51100000000E-03 0.  1.
         11   -1    0    0    0    0 -0.00000000000E+00 -0.00000000000E+00 -0.45593999997E+02  0.45594000000E+02  0.51100000000E-03 0. -1.
    9900012    2    1    2    0    0  0.70119568404E+01 -0.27838336528E+02  0.32549695149E+02  0.47787272198E+02  0.20000005261E+02 0.  0.
         12    1    1    2    0    0 -0.70119568404E+01  0.27838336528E+02 -0.32549695149E+02  0.43400727802E+02  0.00000000000E+00 0. -1.
         11    1    3    3    0    0  0.49354234945E+01 -0.37911775310E+01  0.93243654535E+01  0.11210496131E+02  0.51100000000E-03 0. -1.
        -11    1    3    3    0    0 -0.54409743648E+01 -0.44095766792E+01  0.78993906777E+01  0.10556938092E+02  0.51100000000E-03 0.  1.
         12    1    3    3    0    0  0.75175077107E+01 -0.19637582318E+02  0.15325939018E+02  0.26019837975E+02  0.00000000000E+00 0. -1.
</event>
<event>
 7    1  0.1384886E-010  0.4778730E+02  0.7816164E-02  0.1312668E+00
        -11   -1    0    0    0    0  0.00000000000E+00  0.00000000000E+00  0.45593999997E+02  0.45594000000E+02  0.51100000000E-03 0.  1.
         11   -1    0    0    0    0 -0.00000000000E+00 -0.00000000000E+00 -0.45593999997E+02  0.45594000000E+02  0.51100000000E-03 0. -1.
    9900012    2    1    2    0    0  0.13030838674E+02 -0.21069316191E+02  0.35635679501E+02  0.47787303061E+02  0.20000145975E+02 0.  0.
         12    1    1    2    0    0 -0.13030838674E+02  0.21069316191E+02 -0.35635679501E+02  0.43400696939E+02  0.00000000000E+00 0. -1.
         11    1    3    3    0    0  0.36489620374E+01 -0.42277978574E+01  0.28796019173E+01  0.62834151650E+01  0.51100000000E-03 0. -1.
        -11    1    3    3    0    0  0.74264615922E+01 -0.16297555376E+02  0.14251039486E+02  0.22887873857E+02  0.51100000000E-03 0.  1.
         12    1    3    3    0    0  0.19554150448E+01 -0.54396295839E+00  0.18505038097E+02  0.18616014039E+02  0.00000000000E+00 0. -1.
</event>
<event>
 7    1  0.1384886E-010  0.4778730E+02  0.7816164E-02  0.1312668E+00
        -11   -1    0    0    0    0  0.00000000000E+00  0.00000000000E+00  0.45593999997E+02  0.45594000000E+02  0.51100000000E-03 0. -1.
         11   -1    0    0    0    0 -0.00000000000E+00 -0.00000000000E+00 -0.45593999997E+02  0.45594000000E+02  0.51100000000E-03 0.  1.
    9900012    2    1    2    0    0 -0.41065621579E+02 -0.86111970397E+01  0.11094286327E+02  0.47787295176E+02  0.20000110025E+02 0.  0.
         12    1    1    2    0    0  0.41065621579E+02  0.86111970397E+01 -0.11094286327E+02  0.43400704824E+02  0.00000000000E+00 0. -1.
         11    1    3    3    0    0 -0.82018518308E+01 -0.90770840238E+00 -0.26346997726E+01  0.86623294299E+01  0.51100000000E-03 0. -1.
        -11    1    3    3    0    0 -0.17138568238E+02 -0.37464942582E+01 -0.50194762517E+00  0.17550461309E+02  0.51100000000E-03 0.  1.
         12    1    3    3    0    0 -0.15725201511E+02 -0.39569943791E+01  0.14230933724E+02  0.21574504438E+02  0.00000000000E+00 0. -1.
</event>
<event>
 7    1  0.1384886E-010  0.4778727E+02  0.7816164E-02  0.1312668E+00
        -11   -1    0    0    0    0  0.00000000000E+00  0.00000000000E+00  0.45593999997E+02  0.45594000000E+02  0.51100000000E-03 0.  1.
         11   -1    0    0    0    0 -0.00000000000E+00 -0.00000000000E+00 -0.45593999997E+02  0.45594000000E+02  0.51100000000E-03 0. -1.
    9900012    2    1    2    0    0  0.17772008864E+02 -0.22297030131E+02  0.32720347834E+02  0.47787274037E+02  0.20000013643E+02 0.  0.
         12    1    1    2    0    0 -0.17772008864E+02  0.22297030131E+02 -0.32720347834E+02  0.43400725963E+02  0.00000000000E+00 0. -1.
         11    1    3    3    0    0 -0.18361757059E+01 -0.10764999499E+02  0.85480452800E+01  0.13868158991E+02  0.51100000000E-03 0. -1.
        -11    1    3    3    0    0  0.10360572011E+02 -0.95928631894E+01  0.12146005640E+02  0.18624981338E+02  0.51100000000E-03 0.  1.
         12    1    3    3    0    0  0.92476125587E+01 -0.19391674435E+01  0.12026296915E+02  0.15294133708E+02  0.00000000000E+00 0. -1.
</event>
<event>
 7    1  0.1384886E-010  0.4778727E+02  0.7816164E-02  0.1312668E+00
        -11   -1    0    0    0    0  0.00000000000E+00  0.00000000000E+00  0.45593999997E+02  0.45594000000E+02  0.51100000000E-03 0.  1.
         11   -1    0    0    0    0 -0.00000000000E+00 -0.00000000000E+00 -0.45593999997E+02  0.45594000000E+02  0.51100000000E-03 0. -1.
    9900012    2    1    2    0    0  0.63019447300E+00 -0.32355560796E+02  0.28919611526E+02  0.47787269703E+02  0.19999993885E+02 0.  0.
         12    1    1    2    0    0 -0.63019447300E+00  0.32355560796E+02 -0.28919611526E+02  0.43400730297E+02  0.00000000000E+00 0. -1.
         11    1    3    3    0    0  0.19350217128E+01 -0.41786314974E+01  0.94274457794E+01  0.10491997160E+02  0.51100000000E-03 0. -1.
        -11    1    3    3    0    0 -0.75752563482E+01 -0.20612576100E+02  0.13026480696E+02  0.25533350775E+02  0.51100000000E-03 0.  1.
        -12    1    3    3    0    0  0.62704291084E+01 -0.75643531982E+01  0.64656850504E+01  0.11761921768E+02  0.00000000000E+00 0.  1.
</event>
<event>
 7    1  0.1384886E-010  0.4778727E+02  0.7816164E-02  0.1312668E+00
        -11   -1    0    0    0    0  0.00000000000E+00  0.00000000000E+00  0.45593999997E+02  0.45594000000E+02  0.51100000000E-03 0.  1.
         11   -1    0    0    0    0 -0.00000000000E+00 -0.00000000000E+00 -0.45593999997E+02  0.45594000000E+02  0.51100000000E-03 0. -1.
    9900012    2    1    2    0    0 -0.40343649441E+02 -0.15738612856E+02  0.28825361268E+01  0.47787274207E+02  0.20000014421E+02 0.  0.
         12    1    1    2    0    0  0.40343649441E+02  0.15738612856E+02 -0.28825361268E+01  0.43400725793E+02  0.00000000000E+00 0. -1.
         11    1    3    3    0    0 -0.12366991439E+01 -0.16563426939E+01 -0.33626673059E+01  0.39472050319E+01  0.51100000000E-03 0. -1.
        -11    1    3    3    0    0 -0.22954269531E+02 -0.14643922601E+02  0.41640588431E+01  0.27544188954E+02  0.51100000000E-03 0.  1.
         12    1    3    3    0    0 -0.16152680766E+02  0.56165243867E+00  0.20811445896E+01  0.16295880222E+02  0.00000000000E+00 0. -1.
</event>
<event>
 7    1  0.1384886E-010  0.4778727E+02  0.7816164E-02  0.1312668E+00
        -11   -1    0    0    0    0  0.00000000000E+00  0.00000000000E+00  0.45593999997E+02  0.45594000000E+02  0.51100000000E-03 0. -1.
         11   -1    0    0    0    0 -0.00000000000E+00 -0.00000000000E+00 -0.45593999997E+02  0.45594000000E+02  0.51100000000E-03 0.  1.
    9900012    2    1    2    0    0  0.23453246525E+02 -0.66735486766E+01 -0.35903094006E+02  0.47787272083E+02  0.20000004734E+02 0.  0.
         12    1    1    2    0    0 -0.23453246525E+02  0.66735486766E+01  0.35903094006E+02  0.43400727917E+02  0.00000000000E+00 0. -1.
         11    1    3    3    0    0  0.17207800002E+02 -0.70234770711E+01 -0.19726038883E+02  0.27102660780E+02  0.51100000000E-03 0. -1.
        -11    1    3    3    0    0  0.51504900035E+01  0.39466968980E+01 -0.15580706595E+02  0.16877866629E+02  0.51100000000E-03 0.  1.
        -12    1    3    3    0    0  0.10949565199E+01 -0.35967685035E+01 -0.59634852909E+00  0.38067446745E+01  0.00000000000E+00 0.  1.
</event>
<event>
 7    1  0.1384886E-010  0.4778726E+02  0.7816164E-02  0.1312668E+00
        -11   -1    0    0    0    0  0.00000000000E+00  0.00000000000E+00  0.45593999997E+02  0.45594000000E+02  0.51100000000E-03 0. -1.
         11   -1    0    0    0    0 -0.00000000000E+00 -0.00000000000E+00 -0.45593999997E+02  0.45594000000E+02  0.51100000000E-03 0.  1.
    9900012    2    1    2    0    0  0.18481671984E+02  0.24603014360E+02 -0.30606270788E+02  0.47787258918E+02  0.19999944709E+02 0.  0.
         12    1    1    2    0    0 -0.18481671984E+02 -0.24603014360E+02  0.30606270788E+02  0.43400741082E+02  0.00000000000E+00 0. -1.
         11    1    3    3    0    0 -0.19242505793E+01  0.61629468976E+00  0.28031801723E+00  0.20398867342E+01  0.51100000000E-03 0. -1.
        -11    1    3    3    0    0  0.56963530691E+01  0.37684804928E+01 -0.12003842953E+01  0.69347535090E+01  0.51100000000E-03 0.  1.
        -12    1    3    3    0    0  0.14709569494E+02  0.20218239177E+02 -0.29686204510E+02  0.38812618674E+02  0.00000000000E+00 0.  1.
</event>
<event>
 7    1  0.1384886E-010  0.4778727E+02  0.7816164E-02  0.1312668E+00
        -11   -1    0    0    0    0  0.00000000000E+00  0.00000000000E+00  0.45593999997E+02  0.45594000000E+02  0.51100000000E-03 0.  1.
         11   -1    0    0    0    0 -0.00000000000E+00 -0.00000000000E+00 -0.45593999997E+02  0.45594000000E+02  0.51100000000E-03 0. -1.
    9900012    2    1    2    0    0  0.15879141661E+02  0.18374892422E+02  0.35969986411E+02  0.47787265746E+02  0.19999975841E+02 0.  0.
         12    1    1    2    0    0 -0.15879141661E+02 -0.18374892422E+02 -0.35969986411E+02  0.43400734254E+02  0.00000000000E+00 0. -1.
         11    1    3    3    0    0 -0.57041731650E+00  0.72943034694E-01  0.77068974643E+00  0.96159219404E+00  0.51100000000E-03 0. -1.
        -11    1    3    3    0    0  0.12753392913E+02  0.20553639447E+02  0.34932062512E+02  0.42489411822E+02  0.51100000000E-03 0.  1.
        -12    1    3    3    0    0  0.36961660643E+01 -0.22516900598E+01  0.26723415210E+00  0.43362617302E+01  0.00000000000E+00 0.  1.
</event>
<event>
 7    1  0.1384886E-010  0.4778727E+02  0.7816164E-02  0.1312668E+00
        -11   -1    0    0    0    0  0.00000000000E+00  0.00000000000E+00  0.45593999997E+02  0.45594000000E+02  0.51100000000E-03 0. -1.
         11   -1    0    0    0    0 -0.00000000000E+00 -0.00000000000E+00 -0.45593999997E+02  0.45594000000E+02  0.51100000000E-03 0.  1.
    9900012    2    1    2    0    0  0.17536431383E+02  0.60839135076E+01 -0.39231146487E+02  0.47787270929E+02  0.19999999474E+02 0.  0.
         12    1    1    2    0    0 -0.17536431383E+02 -0.60839135076E+01  0.39231146487E+02  0.43400729071E+02  0.00000000000E+00 0. -1.
         11    1    3    3    0    0 -0.59584948445E+00 -0.40861330215E+01 -0.26847562618E+01  0.49253869010E+01  0.51100000000E-03 0. -1.
        -11    1    3    3    0    0  0.38457521750E+01  0.22507225719E+01 -0.25233625653E+01  0.51208320403E+01  0.51100000000E-03 0.  1.
        -12    1    3    3    0    0  0.14286528693E+02  0.79193239572E+01 -0.34023027659E+02  0.37741051988E+02  0.00000000000E+00 0.  1.
</event>
<event>
 7    1  0.1384886E-010  0.4778727E+02  0.7816164E-02  0.1312668E+00
        -11   -1    0    0    0    0  0.00000000000E+00  0.00000000000E+00  0.45593999997E+02  0.45594000000E+02  0.51100000000E-03 0.  1.
         11   -1    0    0    0    0 -0.00000000000E+00 -0.00000000000E+00 -0.45593999997E+02  0.45594000000E+02  0.51100000000E-03 0. -1.
    9900012    2    1    2    0    0  0.39525295658E+02 -0.12933621909E+02  0.12413532976E+02  0.47787269897E+02  0.19999994769E+02 0.  0.
         12    1    1    2    0    0 -0.39525295658E+02  0.12933621909E+02 -0.12413532976E+02  0.43400730103E+02  0.00000000000E+00 0. -1.
         11    1    3    3    0    0  0.19739242827E+02 -0.95049789733E-01  0.70218298370E+01  0.20951201311E+02  0.51100000000E-03 0.  1.
        -11    1    3    3    0    0  0.30973907322E+01  0.13108393836E+01  0.35325623206E+01  0.48776147908E+01  0.51100000000E-03 0. -1.
        -12    1    3    3    0    0  0.16688662098E+02 -0.14149411503E+02  0.18591408188E+01  0.21958453795E+02  0.00000000000E+00 0.  1.
</event>
<event>
 7    1  0.1384886E-010  0.4778726E+02  0.7816164E-02  0.1312668E+00
        -11   -1    0    0    0    0  0.00000000000E+00  0.00000000000E+00  0.45593999997E+02  0.45594000000E+02  0.51100000000E-03 0.  1.
         11   -1    0    0    0    0 -0.00000000000E+00 -0.00000000000E+00 -0.45593999997E+02  0.45594000000E+02  0.51100000000E-03 0. -1.
    9900012    2    1    2    0    0 -0.93304276783E+01  0.42382106027E+02  0.56935223461E+00  0.47787263210E+02  0.19999964281E+02 0.  0.
         12    1    1    2    0    0  0.93304276783E+01 -0.42382106027E+02 -0.56935223461E+00  0.43400736790E+02  0.00000000000E+00 0. -1.
         11    1    3    3    0    0  0.25759547437E+01  0.20854301478E+02 -0.22536416009E+01  0.21133299167E+02  0.51100000000E-03 0. -1.
        -11    1    3    3    0    0 -0.71831516647E+01  0.20143855346E+02  0.35494858281E+01  0.21678824367E+02  0.51100000000E-03 0.  1.
         12    1    3    3    0    0 -0.47232307572E+01  0.13839492033E+01 -0.72649199256E+00  0.49751396763E+01  0.00000000000E+00 0. -1.
</event>
<event>
 7    1  0.1384886E-010  0.4778729E+02  0.7816164E-02  0.1312668E+00
        -11   -1    0    0    0    0  0.00000000000E+00  0.00000000000E+00  0.45593999997E+02  0.45594000000E+02  0.51100000000E-03 0.  1.
         11   -1    0    0    0    0 -0.00000000000E+00 -0.00000000000E+00 -0.45593999997E+02  0.45594000000E+02  0.51100000000E-03 0. -1.
    9900012    2    1    2    0    0  0.24628638616E+02  0.18057469993E+02  0.30837954547E+02  0.47787291443E+02  0.20000093006E+02 0.  0.
         12    1    1    2    0    0 -0.24628638616E+02 -0.18057469993E+02 -0.30837954547E+02  0.43400708557E+02  0.00000000000E+00 0. -1.
         11    1    3    3    0    0 -0.83081710903E+00  0.83269157732E+01  0.79627470227E+01  0.11551325628E+02  0.51100000000E-03 0. -1.
        -11    1    3    3    0    0  0.10815443442E+02  0.72084157897E+01  0.13071809343E+02  0.18433862178E+02  0.51100000000E-03 0.  1.
         12    1    3    3    0    0  0.14644012283E+02  0.25221384302E+01  0.98033981804E+01  0.17802103637E+02  0.00000000000E+00 0. -1.
</event>
<event>
 7    1  0.1384886E-010  0.4778727E+02  0.7816164E-02  0.1312668E+00
        -11   -1    0    0    0    0  0.00000000000E+00  0.00000000000E+00  0.45593999997E+02  0.45594000000E+02  0.51100000000E-03 0.  1.
         11   -1    0    0    0    0 -0.00000000000E+00 -0.00000000000E+00 -0.45593999997E+02  0.45594000000E+02  0.51100000000E-03 0. -1.
    9900012    2    1    2    0    0  0.32195521386E+02  0.37701826927E+01  0.28859272979E+02  0.47787268304E+02  0.19999987506E+02 0.  0.
         12    1    1    2    0    0 -0.32195521386E+02 -0.37701826927E+01 -0.28859272979E+02  0.43400731696E+02  0.00000000000E+00 0. -1.
         11    1    3    3    0    0  0.81266297979E+01  0.58975911043E+01  0.83392437025E+01  0.13052458715E+02  0.51100000000E-03 0. -1.
        -11    1    3    3    0    0  0.21057847238E+02  0.24587463250E+01  0.11347374173E+02  0.24046647681E+02  0.51100000000E-03 0.  1.
        -12    1    3    3    0    0  0.30110443502E+01 -0.45861547366E+01  0.91726551034E+01  0.10688161909E+02  0.00000000000E+00 0.  1.
</event>
<event>
 7    1  0.1384886E-010  0.4778727E+02  0.7816164E-02  0.1312668E+00
        -11   -1    0    0    0    0  0.00000000000E+00  0.00000000000E+00  0.45593999997E+02  0.45594000000E+02  0.51100000000E-03 0.  1.
         11   -1    0    0    0    0 -0.00000000000E+00 -0.00000000000E+00 -0.45593999997E+02  0.45594000000E+02  0.51100000000E-03 0. -1.
    9900012    2    1    2    0    0  0.19820340853E+02  0.15596749663E+01  0.38579072755E+02  0.47787270143E+02  0.19999995888E+02 0.  0.
         12    1    1    2    0    0 -0.19820340853E+02 -0.15596749663E+01 -0.38579072755E+02  0.43400729857E+02  0.00000000000E+00 0. -1.
         11    1    3    3    0    0  0.10580569384E+02  0.11640297288E+01  0.69860546909E+01  0.12732178687E+02  0.51100000000E-03 0.  1.
        -11    1    3    3    0    0  0.72296640962E+01 -0.53220061161E+01  0.21227742278E+02  0.23047968122E+02  0.51100000000E-03 0. -1.
         12    1    3    3    0    0  0.20101073721E+01  0.57176513535E+01  0.10365275786E+02  0.12007123334E+02  0.00000000000E+00 0. -1.
</event>
<event>
 7    1  0.1384886E-010  0.4778727E+02  0.7816164E-02  0.1312668E+00
        -11   -1    0    0    0    0  0.00000000000E+00  0.00000000000E+00  0.45593999997E+02  0.45594000000E+02  0.51100000000E-03 0. -1.
         11   -1    0    0    0    0 -0.00000000000E+00 -0.00000000000E+00 -0.45593999997E+02  0.45594000000E+02  0.51100000000E-03 0.  1.
    9900012    2    1    2    0    0 -0.43332997689E+02  0.23183919747E+01 -0.70681015032E+00  0.47787271773E+02  0.20000003320E+02 0.  0.
         12    1    1    2    0    0  0.43332997689E+02 -0.23183919747E+01  0.70681015032E+00  0.43400728227E+02  0.00000000000E+00 0. -1.
         11    1    3    3    0    0 -0.86789219830E+01  0.26161236840E+01  0.14616888956E+01  0.91817386483E+01  0.51100000000E-03 0. -1.
        -11    1    3    3    0    0 -0.26138408500E+02  0.50118697723E+01  0.38685262712E+01  0.26894250934E+02  0.51100000000E-03 0.  1.
         12    1    3    3    0    0 -0.85156672062E+01 -0.53096014816E+01 -0.60370253171E+01  0.11711282190E+02  0.00000000000E+00 0. -1.
</event>
<event>
 7    1  0.1384886E-010  0.4778727E+02  0.7816164E-02  0.1312668E+00
        -11   -1    0    0    0    0  0.00000000000E+00  0.00000000000E+00  0.45593999997E+02  0.45594000000E+02  0.51100000000E-03 0.  1.
         11   -1    0    0    0    0 -0.00000000000E+00 -0.00000000000E+00 -0.45593999997E+02  0.45594000000E+02  0.51100000000E-03 0. -1.
    9900012    2    1    2    0    0  0.13123835983E+02  0.72006171443E+01  0.40737442275E+02  0.47787272342E+02  0.20000005915E+02 0.  0.
         12    1    1    2    0    0 -0.13123835983E+02 -0.72006171443E+01 -0.40737442275E+02  0.43400727658E+02  0.00000000000E+00 0. -1.
         11    1    3    3    0    0  0.20687066317E+01  0.26949039715E+01  0.82237493278E+00  0.34954764103E+01  0.51100000000E-03 0. -1.
        -11    1    3    3    0    0  0.92326393526E+01  0.18205388926E+01  0.39953033968E+02  0.41046326447E+02  0.51100000000E-03 0.  1.
        -12    1    3    3    0    0  0.18224899989E+01  0.26851742802E+01 -0.37966626029E-01  0.32454694846E+01  0.00000000000E+00 0.  1.
</event>
<event>
 7    1  0.1384886E-010  0.4778727E+02  0.7816164E-02  0.1312668E+00
        -11   -1    0    0    0    0  0.00000000000E+00  0.00000000000E+00  0.45593999997E+02  0.45594000000E+02  0.51100000000E-03 0. -1.
         11   -1    0    0    0    0 -0.00000000000E+00 -0.00000000000E+00 -0.45593999997E+02  0.45594000000E+02  0.51100000000E-03 0.  1.
    9900012    2    1    2    0    0 -0.34939136115E+02 -0.44840384841E+01 -0.25352978715E+02  0.47787270014E+02  0.19999995301E+02 0.  0.
         12    1    1    2    0    0  0.34939136115E+02  0.44840384841E+01  0.25352978715E+02  0.43400729986E+02  0.00000000000E+00 0. -1.
         11    1    3    3    0    0 -0.29283410744E+00  0.22989217836E+01  0.14814436883E+01  0.27505397370E+01  0.51100000000E-03 0. -1.
        -11    1    3    3    0    0 -0.15593327002E+02  0.63795869190E+00 -0.98428511838E+01  0.18451031353E+02  0.51100000000E-03 0.  1.
         12    1    3    3    0    0 -0.19052975005E+02 -0.74209189597E+01 -0.16991571220E+02  0.26585698924E+02  0.00000000000E+00 0. -1.
</event>
<event>
 7    1  0.1384886E-010  0.4778727E+02  0.7816164E-02  0.1312668E+00
        -11   -1    0    0    0    0  0.00000000000E+00  0.00000000000E+00  0.45593999997E+02  0.45594000000E+02  0.51100000000E-03 0.  1.
         11   -1    0    0    0    0 -0.00000000000E+00 -0.00000000000E+00 -0.45593999997E+02  0.45594000000E+02  0.51100000000E-03 0. -1.
    9900012    2    1    2    0    0  0.12058832449E+01 -0.32858622114E+01  0.43259359988E+02  0.47787271072E+02  0.20000000127E+02 0.  0.
         12    1    1    2    0    0 -0.12058832449E+01  0.32858622114E+01 -0.43259359988E+02  0.43400728928E+02  0.00000000000E+00 0. -1.
         11    1    3    3    0    0 -0.59575886872E+01  0.25102163483E+01  0.65718043278E+01  0.92186040953E+01  0.51100000000E-03 0. -1.
        -11    1    3    3    0    0  0.12598790377E+00 -0.18621611869E+01  0.19444095243E+02  0.19533467622E+02  0.51100000000E-03 0.  1.
         12    1    3    3    0    0  0.70374840284E+01 -0.39339173729E+01  0.17243460417E+02  0.19035199355E+02  0.00000000000E+00 0. -1.
</event>
<event>
 7    1  0.1384886E-010  0.4778727E+02  0.7816164E-02  0.1312668E+00
        -11   -1    0    0    0    0  0.00000000000E+00  0.00000000000E+00  0.45593999997E+02  0.45594000000E+02  0.51100000000E-03 0.  1.
         11   -1    0    0    0    0 -0.00000000000E+00 -0.00000000000E+00 -0.45593999997E+02  0.45594000000E+02  0.51100000000E-03 0. -1.
    9900012    2    1    2    0    0  0.29224879981E+02 -0.21057700992E+02  0.24209560567E+02  0.47787271852E+02  0.20000003680E+02 0.  0.
         12    1    1    2    0    0 -0.29224879981E+02  0.21057700992E+02 -0.24209560567E+02  0.43400728148E+02  0.00000000000E+00 0. -1.
         11    1    3    3    0    0  0.32854401615E+01 -0.32406279615E+01  0.97465841421E+01  0.10783862450E+02  0.51100000000E-03 0. -1.
        -11    1    3    3    0    0  0.23135129805E+02 -0.14664371240E+02  0.16846634071E+02  0.32157224612E+02  0.51100000000E-03 0.  1.
         12    1    3    3    0    0  0.28043100146E+01 -0.31527017899E+01 -0.23836576468E+01  0.48461847892E+01  0.00000000000E+00 0. -1.
</event>
<event>
 7    1  0.1384886E-010  0.4778727E+02  0.7816164E-02  0.1312668E+00
        -11   -1    0    0    0    0  0.00000000000E+00  0.00000000000E+00  0.45593999997E+02  0.45594000000E+02  0.51100000000E-03 0. -1.
         11   -1    0    0    0    0 -0.00000000000E+00 -0.00000000000E+00 -0.45593999997E+02  0.45594000000E+02  0.51100000000E-03 0.  1.
    9900012    2    1    2    0    0  0.36947359636E+02 -0.11624688124E+02 -0.19580154963E+02  0.47787271592E+02  0.20000002494E+02 0.  0.
         12    1    1    2    0    0 -0.36947359636E+02  0.11624688124E+02  0.19580154963E+02  0.43400728408E+02  0.00000000000E+00 0. -1.
         11    1    3    3    0    0  0.17422288088E+02 -0.12922824427E+02 -0.58108428661E+01  0.22456656218E+02  0.51100000000E-03 0. -1.
        -11    1    3    3    0    0  0.12609347170E+02 -0.14470920023E+01 -0.45494310537E+01  0.13482842226E+02  0.51100000000E-03 0.  1.
         12    1    3    3    0    0  0.69157243772E+01  0.27452283057E+01 -0.92198810429E+01  0.11847773148E+02  0.00000000000E+00 0. -1.
</event>
<event>
 7    1  0.1479523E-010  0.4778727E+02  0.7816164E-02  0.1312668E+00
        -11   -1    0    0    0    0  0.00000000000E+00  0.00000000000E+00  0.45593999997E+02  0.45594000000E+02  0.51100000000E-03 0.  1.
         11   -1    0    0    0    0 -0.00000000000E+00 -0.00000000000E+00 -0.45593999997E+02  0.45594000000E+02  0.51100000000E-03 0. -1.
    9900012    2    1    2    0    0 -0.17979095866E+02 -0.24826752442E+02  0.30724705617E+02  0.47787273506E+02  0.20000011222E+02 0.  0.
         12    1    1    2    0    0  0.17979095866E+02  0.24826752442E+02 -0.30724705617E+02  0.43400726494E+02  0.00000000000E+00 0. -1.
         11    1    3    3    0    0  0.17092846242E+00 -0.28602489143E+01 -0.39957518576E+00  0.28930781153E+01  0.51100000000E-03 0. -1.
        -11    1    3    3    0    0 -0.97952300377E+01 -0.49927032648E+01  0.20331082760E+02  0.23113341253E+02  0.51100000000E-03 0.  1.
        -12    1    3    3    0    0 -0.83547942908E+01 -0.16973800263E+02  0.10793198043E+02  0.21780854138E+02  0.00000000000E+00 0.  1.
</event>
<event>
 7    1  0.1384886E-010  0.4778727E+02  0.7816164E-02  0.1312668E+00
        -11   -1    0    0    0    0  0.00000000000E+00  0.00000000000E+00  0.45593999997E+02  0.45594000000E+02  0.51100000000E-03 0.  1.
         11   -1    0    0    0    0 -0.00000000000E+00 -0.00000000000E+00 -0.45593999997E+02  0.45594000000E+02  0.51100000000E-03 0. -1.
    9900012    2    1    2    0    0 -0.24519953292E+02 -0.40672520927E+01  0.35578824271E+02  0.47787269758E+02  0.19999994135E+02 0.  0.
         12    1    1    2    0    0  0.24519953292E+02  0.40672520927E+01 -0.35578824271E+02  0.43400730242E+02  0.00000000000E+00 0. -1.
         11    1    3    3    0    0 -0.87246950290E+01  0.62884481930E+00  0.18939884051E+02  0.20862285524E+02  0.51100000000E-03 0. -1.
        -11    1    3    3    0    0  0.21412319587E+01 -0.21770171123E+01  0.22624664553E+01  0.38003989963E+01  0.51100000000E-03 0.  1.
        -12    1    3    3    0    0 -0.17936490222E+02 -0.25190797997E+01  0.14376473765E+02  0.23124585238E+02  0.00000000000E+00 0.  1.
</event>
<event>
 7    1  0.1384886E-010  0.4778729E+02  0.7816164E-02  0.1312668E+00
        -11   -1    0    0    0    0  0.00000000000E+00  0.00000000000E+00  0.45593999997E+02  0.45594000000E+02  0.51100000000E-03 0.  1.
         11   -1    0    0    0    0 -0.00000000000E+00 -0.00000000000E+00 -0.45593999997E+02  0.45594000000E+02  0.51100000000E-03 0. -1.
    9900012    2    1    2    0    0  0.60988901463E+01 -0.17396273709E+01  0.42934821106E+02  0.47787290008E+02  0.20000086462E+02 0.  0.
         12    1    1    2    0    0 -0.60988901463E+01  0.17396273709E+01 -0.42934821106E+02  0.43400709992E+02  0.00000000000E+00 0. -1.
         11    1    3    3    0    0 -0.30105723843E+00  0.47680071695E+01  0.74565218638E+01  0.88557465182E+01  0.51100000000E-03 0. -1.
        -11    1    3    3    0    0  0.95614046078E+01 -0.51218992575E+01  0.32845718923E+02  0.34590396960E+02  0.51100000000E-03 0.  1.
         12    1    3    3    0    0 -0.31614572231E+01 -0.13857352829E+01  0.26325803197E+01  0.43411465291E+01  0.00000000000E+00 0. -1.
</event>
<event>
 7    1  0.1384886E-010  0.4778727E+02  0.7816164E-02  0.1312668E+00
        -11   -1    0    0    0    0  0.00000000000E+00  0.00000000000E+00  0.45593999997E+02  0.45594000000E+02  0.51100000000E-03 0. -1.
         11   -1    0    0    0    0 -0.00000000000E+00 -0.00000000000E+00 -0.45593999997E+02  0.45594000000E+02  0.51100000000E-03 0.  1.
    9900012    2    1    2    0    0 -0.21913526610E+02  0.37462242823E+02 -0.31493555111E-01  0.47787271000E+02  0.19999999799E+02 0.  0.
         12    1    1    2    0    0  0.21913526610E+02 -0.37462242823E+02  0.31493555111E-01  0.43400729000E+02  0.00000000000E+00 0. -1.
         11    1    3    3    0    0  0.98945628589E+00 -0.12743778206E+01 -0.12124011047E+01  0.20181623501E+01  0.51100000000E-03 0. -1.
        -11    1    3    3    0    0 -0.98663183973E+01  0.92952883334E+01  0.35820622184E+00  0.13560049258E+02  0.51100000000E-03 0.  1.
         12    1    3    3    0    0 -0.13036664499E+02  0.29441332311E+02  0.82270132778E+00  0.32209059392E+02  0.00000000000E+00 0. -1.
</event>
<event>
 7    1  0.1384886E-010  0.4778727E+02  0.7816164E-02  0.1312668E+00
        -11   -1    0    0    0    0  0.00000000000E+00  0.00000000000E+00  0.45593999997E+02  0.45594000000E+02  0.51100000000E-03 0.  1.
         11   -1    0    0    0    0 -0.00000000000E+00 -0.00000000000E+00 -0.45593999997E+02  0.45594000000E+02  0.51100000000E-03 0. -1.
    9900012    2    1    2    0    0  0.20071358786E+02  0.14400573807E+02  0.35684552090E+02  0.47787271580E+02  0.20000002442E+02 0.  0.
         12    1    1    2    0    0 -0.20071358786E+02 -0.14400573807E+02 -0.35684552090E+02  0.43400728420E+02  0.00000000000E+00 0. -1.
         11    1    3    3    0    0  0.41183311867E+01 -0.15047057694E+01  0.13436154379E+02  0.14133472183E+02  0.51100000000E-03 0. -1.
        -11    1    3    3    0    0  0.68928298190E+01 -0.17216423061E-01  0.69192978389E+01  0.97666822495E+01  0.51100000000E-03 0.  1.
        -12    1    3    3    0    0  0.90601977808E+01  0.15922496000E+02  0.15329099873E+02  0.23887117147E+02  0.00000000000E+00 0.  1.
</event>
<event>
 7    1  0.1384886E-010  0.4778727E+02  0.7816164E-02  0.1312668E+00
        -11   -1    0    0    0    0  0.00000000000E+00  0.00000000000E+00  0.45593999997E+02  0.45594000000E+02  0.51100000000E-03 0. -1.
         11   -1    0    0    0    0 -0.00000000000E+00 -0.00000000000E+00 -0.45593999997E+02  0.45594000000E+02  0.51100000000E-03 0.  1.
    9900012    2    1    2    0    0 -0.32520676829E+02 -0.21580364033E+02 -0.18982018059E+02  0.47787267946E+02  0.19999985874E+02 0.  0.
         12    1    1    2    0    0  0.32520676829E+02  0.21580364033E+02  0.18982018059E+02  0.43400732054E+02  0.00000000000E+00 0. -1.
         11    1    3    3    0    0 -0.13056751525E+02 -0.14897642854E+01 -0.12345703887E+02  0.18030933496E+02  0.51100000000E-03 0. -1.
        -11    1    3    3    0    0 -0.12978971517E+01 -0.56594941963E+01 -0.13332840802E+01  0.59575211518E+01  0.51100000000E-03 0.  1.
        -12    1    3    3    0    0 -0.18166028152E+02 -0.14431105551E+02 -0.53030300921E+01  0.23798813299E+02  0.00000000000E+00 0.  1.
</event>
<event>
 7    1  0.1384886E-010  0.4778727E+02  0.7816164E-02  0.1312668E+00
        -11   -1    0    0    0    0  0.00000000000E+00  0.00000000000E+00  0.45593999997E+02  0.45594000000E+02  0.51100000000E-03 0.  1.
         11   -1    0    0    0    0 -0.00000000000E+00 -0.00000000000E+00 -0.45593999997E+02  0.45594000000E+02  0.51100000000E-03 0. -1.
    9900012    2    1    2    0    0  0.40389139342E+02  0.56561098181E+01 -0.14844159961E+02  0.47787271434E+02  0.20000001778E+02 0.  0.
         12    1    1    2    0    0 -0.40389139342E+02 -0.56561098181E+01  0.14844159961E+02  0.43400728566E+02  0.00000000000E+00 0. -1.
         11    1    3    3    0    0  0.12161070844E+02  0.10914684501E+01 -0.88408090822E+01  0.15074576377E+02  0.51100000000E-03 0. -1.
        -11    1    3    3    0    0  0.25752922908E+02  0.65095209749E+01 -0.73198203382E+00  0.26572969341E+02  0.51100000000E-03 0.  1.
        -12    1    3    3    0    0  0.24751455902E+01 -0.19448796069E+01 -0.52713688448E+01  0.61397257167E+01  0.00000000000E+00 0.  1.
</event>
<event>
 7    1  0.1384886E-010  0.4778726E+02  0.7816164E-02  0.1312668E+00
        -11   -1    0    0    0    0  0.00000000000E+00  0.00000000000E+00  0.45593999997E+02  0.45594000000E+02  0.51100000000E-03 0. -1.
         11   -1    0    0    0    0 -0.00000000000E+00 -0.00000000000E+00 -0.45593999997E+02  0.45594000000E+02  0.51100000000E-03 0.  1.
    9900012    2    1    2    0    0  0.21551268591E+02 -0.36560641444E+02 -0.90821961141E+01  0.47787263060E+02  0.19999963596E+02 0.  0.
         12    1    1    2    0    0 -0.21551268591E+02  0.36560641444E+02  0.90821961141E+01  0.43400736940E+02  0.00000000000E+00 0. -1.
         11    1    3    3    0    0  0.12796496921E+02 -0.80533028399E+01  0.15253785997E+01  0.15196473282E+02  0.51100000000E-03 0. -1.
        -11    1    3    3    0    0  0.73851657892E+01 -0.21884111359E+02 -0.46121448460E+01  0.23552640703E+02  0.51100000000E-03 0.  1.
        -12    1    3    3    0    0  0.13696058806E+01 -0.66232272448E+01 -0.59954298678E+01  0.90381490751E+01  0.00000000000E+00 0.  1.
</event>
<event>
 7    1  0.1384886E-010  0.4778726E+02  0.7816164E-02  0.1312668E+00
        -11   -1    0    0    0    0  0.00000000000E+00  0.00000000000E+00  0.45593999997E+02  0.45594000000E+02  0.51100000000E-03 0.  1.
         11   -1    0    0    0    0 -0.00000000000E+00 -0.00000000000E+00 -0.45593999997E+02  0.45594000000E+02  0.51100000000E-03 0. -1.
    9900012    2    1    2    0    0  0.20314765412E+02 -0.85590573812E-01  0.38352669951E+02  0.47787259086E+02  0.19999945477E+02 0.  0.
         12    1    1    2    0    0 -0.20314765412E+02  0.85590573812E-01 -0.38352669951E+02  0.43400740914E+02  0.00000000000E+00 0. -1.
         11    1    3    3    0    0  0.15004958905E+02 -0.51541952652E+01  0.20390955241E+02  0.25836129286E+02  0.51100000000E-03 0. -1.
        -11    1    3    3    0    0  0.19908151185E+01  0.79200335220E-02  0.15145886968E+02  0.15276167709E+02  0.51100000000E-03 0.  1.
         12    1    3    3    0    0  0.33189913883E+01  0.50606846579E+01  0.28158277420E+01  0.66749620908E+01  0.00000000000E+00 0. -1.
</event>
<event>
 7    1  0.1384886E-010  0.4778727E+02  0.7816164E-02  0.1312668E+00
        -11   -1    0    0    0    0  0.00000000000E+00  0.00000000000E+00  0.45593999997E+02  0.45594000000E+02  0.51100000000E-03 0.  1.
         11   -1    0    0    0    0 -0.00000000000E+00 -0.00000000000E+00 -0.45593999997E+02  0.45594000000E+02  0.51100000000E-03 0. -1.
    9900012    2    1    2    0    0 -0.41613107569E+02  0.11236787910E+02 -0.50702528886E+01  0.47787267421E+02  0.19999983477E+02 0.  0.
         12    1    1    2    0    0  0.41613107569E+02 -0.11236787910E+02  0.50702528886E+01  0.43400732579E+02  0.00000000000E+00 0. -1.
         11    1    3    3    0    0 -0.10856218586E+02  0.58863498466E+01  0.23016372344E+01  0.12562011413E+02  0.51100000000E-03 0. -1.
        -11    1    3    3    0    0 -0.18477000687E+02 -0.39694629029E+01 -0.55813214394E+01  0.19705515457E+02  0.51100000000E-03 0.  1.
         12    1    3    3    0    0 -0.12279888295E+02  0.93199009668E+01 -0.17905686836E+01  0.15519740551E+02  0.00000000000E+00 0. -1.
</event>
<event>
 7    1  0.1384886E-010  0.4778727E+02  0.7816164E-02  0.1312668E+00
        -11   -1    0    0    0    0  0.00000000000E+00  0.00000000000E+00  0.45593999997E+02  0.45594000000E+02  0.51100000000E-03 0. -1.
         11   -1    0    0    0    0 -0.00000000000E+00 -0.00000000000E+00 -0.45593999997E+02  0.45594000000E+02  0.51100000000E-03 0.  1.
    9900012    2    1    2    0    0 -0.86027267471E+01 -0.42119806235E+02 -0.59613725160E+01  0.47787274810E+02  0.20000017170E+02 0.  0.
         12    1    1    2    0    0  0.86027267471E+01  0.42119806235E+02  0.59613725160E+01  0.43400725190E+02  0.00000000000E+00 0. -1.
         11    1    3    3    0    0 -0.22709194849E+01 -0.19782629782E+02 -0.43629506535E+01  0.20384917343E+02  0.51100000000E-03 0. -1.
        -11    1    3    3    0    0  0.19039029382E+01 -0.17849093484E+02 -0.16179260991E+01  0.18023114873E+02  0.51100000000E-03 0.  1.
         12    1    3    3    0    0 -0.82357102004E+01 -0.44880829690E+01  0.19504236572E-01  0.93792425950E+01  0.00000000000E+00 0. -1.
</event>
<event>
 7    1  0.1384886E-010  0.4778726E+02  0.7816164E-02  0.1312668E+00
        -11   -1    0    0    0    0  0.00000000000E+00  0.00000000000E+00  0.45593999997E+02  0.45594000000E+02  0.51100000000E-03 0.  1.
         11   -1    0    0    0    0 -0.00000000000E+00 -0.00000000000E+00 -0.45593999997E+02  0.45594000000E+02  0.51100000000E-03 0. -1.
    9900012    2    1    2    0    0 -0.84923511365E+01  0.37203343847E+02  0.20674034300E+02  0.47787256740E+02  0.19999934782E+02 0.  0.
         12    1    1    2    0    0  0.84923511365E+01 -0.37203343847E+02 -0.20674034300E+02  0.43400743260E+02  0.00000000000E+00 0. -1.
         11    1    3    3    0    0 -0.50970690724E+01  0.50232789214E+01  0.10515384159E+01  0.72331996759E+01  0.51100000000E-03 0. -1.
        -11    1    3    3    0    0 -0.85517404703E+01  0.12529911389E+02  0.80465290290E+01  0.17171999714E+02  0.51100000000E-03 0.  1.
         12    1    3    3    0    0  0.51564584061E+01  0.19650153537E+02  0.11575966856E+02  0.23382057351E+02  0.00000000000E+00 0. -1.
</event>
<event>
 7    1  0.1384886E-010  0.4778727E+02  0.7816164E-02  0.1312668E+00
        -11   -1    0    0    0    0  0.00000000000E+00  0.00000000000E+00  0.45593999997E+02  0.45594000000E+02  0.51100000000E-03 0. -1.
         11   -1    0    0    0    0 -0.00000000000E+00 -0.00000000000E+00 -0.45593999997E+02  0.45594000000E+02  0.51100000000E-03 0.  1.
    9900012    2    1    2    0    0  0.23129655236E+02 -0.36378478678E+02  0.50248368299E+01  0.47787266741E+02  0.19999980377E+02 0.  0.
         12    1    1    2    0    0 -0.23129655236E+02  0.36378478678E+02 -0.50248368299E+01  0.43400733259E+02  0.00000000000E+00 0. -1.
         11    1    3    3    0    0  0.83152854735E+01 -0.23414771100E+01  0.37945214427E+01  0.94352997198E+01  0.51100000000E-03 0. -1.
        -11    1    3    3    0    0  0.10603234527E+01 -0.10910386639E+02  0.30642746733E+01  0.11382029782E+02  0.51100000000E-03 0.  1.
        -12    1    3    3    0    0  0.13754046310E+02 -0.23126614929E+02 -0.18339592860E+01  0.26969937238E+02  0.00000000000E+00 0.  1.
</event>
<event>
 7    1  0.1384886E-010  0.4778727E+02  0.7816164E-02  0.1312668E+00
        -11   -1    0    0    0    0  0.00000000000E+00  0.00000000000E+00  0.45593999997E+02  0.45594000000E+02  0.51100000000E-03 0.  1.
         11   -1    0    0    0    0 -0.00000000000E+00 -0.00000000000E+00 -0.45593999997E+02  0.45594000000E+02  0.51100000000E-03 0. -1.
    9900012    2    1    2    0    0  0.28367056594E+01 -0.18337624496E+02  0.39234011944E+02  0.47787273458E+02  0.20000011002E+02 0.  0.
         12    1    1    2    0    0 -0.28367056594E+01  0.18337624496E+02 -0.39234011944E+02  0.43400726542E+02  0.00000000000E+00 0. -1.
         11    1    3    3    0    0  0.38227068211E+00 -0.10779695920E+02  0.11784981530E+02  0.15976037210E+02  0.51100000000E-03 0. -1.
        -11    1    3    3    0    0  0.54231030337E+01 -0.79630095243E+01  0.27139848424E+02  0.28799148250E+02  0.51100000000E-03 0.  1.
        -12    1    3    3    0    0 -0.29686680563E+01  0.40508094808E+00  0.30918199054E+00  0.30120879978E+01  0.00000000000E+00 0.  1.
</event>
<event>
 7    1  0.1384886E-010  0.4778727E+02  0.7816164E-02  0.1312668E+00
        -11   -1    0    0    0    0  0.00000000000E+00  0.00000000000E+00  0.45593999997E+02  0.45594000000E+02  0.51100000000E-03 0. -1.
         11   -1    0    0    0    0 -0.00000000000E+00 -0.00000000000E+00 -0.45593999997E+02  0.45594000000E+02  0.51100000000E-03 0.  1.
    9900012    2    1    2    0    0 -0.24117910995E+02  0.34483877411E+02  0.10621292838E+02  0.47787270817E+02  0.19999998963E+02 0.  0.
         12    1    1    2    0    0  0.24117910995E+02 -0.34483877411E+02 -0.10621292838E+02  0.43400729183E+02  0.00000000000E+00 0. -1.
         11    1    3    3    0    0  0.20038368846E+01  0.47022596533E+01  0.18102907835E+01  0.54225234983E+01  0.51100000000E-03 0. -1.
        -11    1    3    3    0    0 -0.15247703563E+02  0.14516432660E+02  0.10538405387E+02  0.23543093881E+02  0.51100000000E-03 0.  1.
         12    1    3    3    0    0 -0.10874044317E+02  0.15265185098E+02 -0.17274033330E+01  0.18821653438E+02  0.00000000000E+00 0. -1.
</event>
<event>
 7    1  0.1384886E-010  0.4778729E+02  0.7816164E-02  0.1312668E+00
        -11   -1    0    0    0    0  0.00000000000E+00  0.00000000000E+00  0.45593999997E+02  0.45594000000E+02  0.51100000000E-03 0. -1.
         11   -1    0    0    0    0 -0.00000000000E+00 -0.00000000000E+00 -0.45593999997E+02  0.45594000000E+02  0.51100000000E-03 0.  1.
    9900012    2    1    2    0    0  0.16700625064E+01  0.38834638380E+02  0.19305533938E+02  0.47787287016E+02  0.20000072823E+02 0.  0.
         12    1    1    2    0    0 -0.16700625064E+01 -0.38834638380E+02 -0.19305533938E+02  0.43400712984E+02  0.00000000000E+00 0. -1.
         11    1    3    3    0    0  0.72258220567E+01  0.10591631989E+02  0.12286526382E+01  0.12880402173E+02  0.51100000000E-03 0. -1.
        -11    1    3    3    0    0 -0.37194200324E+01  0.23628532476E+02  0.11168109294E+02  0.26398263159E+02  0.51100000000E-03 0.  1.
        -12    1    3    3    0    0 -0.18363395178E+01  0.46144739145E+01  0.69087720057E+01  0.85086216839E+01  0.00000000000E+00 0.  1.
</event>
<event>
 7    1  0.1384886E-010  0.4778727E+02  0.7816164E-02  0.1312668E+00
        -11   -1    0    0    0    0  0.00000000000E+00  0.00000000000E+00  0.45593999997E+02  0.45594000000E+02  0.51100000000E-03 0. -1.
         11   -1    0    0    0    0 -0.00000000000E+00 -0.00000000000E+00 -0.45593999997E+02  0.45594000000E+02  0.51100000000E-03 0.  1.
    9900012    2    1    2    0    0 -0.14081612211E+02  0.36196243787E+02 -0.19369138186E+02  0.47787269812E+02  0.19999994381E+02 0.  0.
         12    1    1    2    0    0  0.14081612211E+02 -0.36196243787E+02  0.19369138186E+02  0.43400730188E+02  0.00000000000E+00 0. -1.
         11    1    3    3    0    0 -0.46457109354E+01  0.12515740298E+01 -0.46764028992E+01  0.67095314281E+01  0.51100000000E-03 0. -1.
        -11    1    3    3    0    0 -0.28040352471E+00  0.18772535892E+02 -0.12044816361E+02  0.22306150080E+02  0.51100000000E-03 0.  1.
         12    1    3    3    0    0 -0.91554977509E+01  0.16172133865E+02 -0.26479189265E+01  0.18771588304E+02  0.00000000000E+00 0. -1.
</event>
<event>
 7    1  0.1384886E-010  0.4778727E+02  0.7816164E-02  0.1312668E+00
        -11   -1    0    0    0    0  0.00000000000E+00  0.00000000000E+00  0.45593999997E+02  0.45594000000E+02  0.51100000000E-03 0.  1.
         11   -1    0    0    0    0 -0.00000000000E+00 -0.00000000000E+00 -0.45593999997E+02  0.45594000000E+02  0.51100000000E-03 0. -1.
    9900012    2    1    2    0    0 -0.42068592681E+02 -0.38118100193E+01  0.99662911503E+01  0.47787270224E+02  0.19999996261E+02 0.  0.
         12    1    1    2    0    0  0.42068592681E+02  0.38118100193E+01 -0.99662911503E+01  0.43400729776E+02  0.00000000000E+00 0. -1.
         11    1    3    3    0    0  0.30537677703E+00 -0.33805801233E+01  0.41286328408E+00  0.34193615338E+01  0.51100000000E-03 0. -1.
        -11    1    3    3    0    0 -0.20457885656E+02 -0.45684228507E+01  0.34409794481E+01  0.21242314203E+02  0.51100000000E-03 0.  1.
        -12    1    3    3    0    0 -0.21916083801E+02  0.41371929547E+01  0.61124484182E+01  0.23125594488E+02  0.00000000000E+00 0.  1.
</event>
<event>
 7    1  0.1384886E-010  0.4778727E+02  0.7816164E-02  0.1312668E+00
        -11   -1    0    0    0    0  0.00000000000E+00  0.00000000000E+00  0.45593999997E+02  0.45594000000E+02  0.51100000000E-03 0.  1.
         11   -1    0    0    0    0 -0.00000000000E+00 -0.00000000000E+00 -0.45593999997E+02  0.45594000000E+02  0.51100000000E-03 0. -1.
    9900012    2    1    2    0    0  0.24950132858E+02 -0.11656088039E+02  0.33544740775E+02  0.47787272452E+02  0.20000006419E+02 0.  0.
         12    1    1    2    0    0 -0.24950132858E+02  0.11656088039E+02 -0.33544740775E+02  0.43400727548E+02  0.00000000000E+00 0. -1.
         11    1    3    3    0    0  0.67649735298E+01 -0.47909023369E+01  0.19569035350E+02  0.21252405908E+02  0.51100000000E-03 0. -1.
        -11    1    3    3    0    0  0.66937959401E+01 -0.85553825939E+01  0.56518939110E+01  0.12245218677E+02  0.51100000000E-03 0.  1.
        -12    1    3    3    0    0  0.11491363388E+02  0.16901968919E+01  0.83238115138E+01  0.14289647867E+02  0.00000000000E+00 0.  1.
</event>
<event>
 7    1  0.1384886E-010  0.4778730E+02  0.7816164E-02  0.1312668E+00
        -11   -1    0    0    0    0  0.00000000000E+00  0.00000000000E+00  0.45593999997E+02  0.45594000000E+02  0.51100000000E-03 0. -1.
         11   -1    0    0    0    0 -0.00000000000E+00 -0.00000000000E+00 -0.45593999997E+02  0.45594000000E+02  0.51100000000E-03 0.  1.
    9900012    2    1    2    0    0 -0.14301937723E+02 -0.34503994778E+02 -0.22103152680E+02  0.47787303730E+02  0.20000149026E+02 0.  0.
         12    1    1    2    0    0  0.14301937723E+02  0.34503994778E+02  0.22103152680E+02  0.43400696270E+02  0.00000000000E+00 0. -1.
         11    1    3    3    0    0  0.28127213691E+00 -0.48363678027E+01 -0.80196729807E+01  0.93693501651E+01  0.51100000000E-03 0. -1.
        -11    1    3    3    0    0 -0.49012067354E+01 -0.23856831827E+02 -0.82954201197E+01  0.25729054540E+02  0.51100000000E-03 0.  1.
        -12    1    3    3    0    0 -0.96820031249E+01 -0.58107951483E+01 -0.57880595798E+01  0.12688899025E+02  0.00000000000E+00 0.  1.
</event>
<event>
 7    1  0.1384886E-010  0.4778728E+02  0.7816164E-02  0.1312668E+00
        -11   -1    0    0    0    0  0.00000000000E+00  0.00000000000E+00  0.45593999997E+02  0.45594000000E+02  0.51100000000E-03 0. -1.
         11   -1    0    0    0    0 -0.00000000000E+00 -0.00000000000E+00 -0.45593999997E+02  0.45594000000E+02  0.51100000000E-03 0.  1.
    9900012    2    1    2    0    0 -0.24737596903E+02 -0.91890407420E+01 -0.34456284675E+02  0.47787277381E+02  0.20000028890E+02 0.  0.
         12    1    1    2    0    0  0.24737596903E+02  0.91890407420E+01  0.34456284675E+02  0.43400722619E+02  0.00000000000E+00 0. -1.
         11    1    3    3    0    0 -0.13750943424E+02 -0.20390513019E+01 -0.10859589862E+02  0.17640205993E+02  0.51100000000E-03 0.  1.
        -11    1    3    3    0    0 -0.16118972410E+01 -0.60087031902E+01 -0.19332616263E+01  0.65146164523E+01  0.51100000000E-03 0. -1.
        -12    1    3    3    0    0 -0.93747562380E+01 -0.11412862499E+01 -0.21663433187E+02  0.23632454935E+02  0.00000000000E+00 0.  1.
</event>
<event>
 7    1  0.1384886E-010  0.4778726E+02  0.7816164E-02  0.1312668E+00
        -11   -1    0    0    0    0  0.00000000000E+00  0.00000000000E+00  0.45593999997E+02  0.45594000000E+02  0.51100000000E-03 0. -1.
         11   -1    0    0    0    0 -0.00000000000E+00 -0.00000000000E+00 -0.45593999997E+02  0.45594000000E+02  0.51100000000E-03 0.  1.
    9900012    2    1    2    0    0  0.40300700026E+02 -0.79587722247E+01 -0.14004846124E+02  0.47787260457E+02  0.19999951729E+02 0.  0.
         12    1    1    2    0    0 -0.40300700026E+02  0.79587722247E+01  0.14004846124E+02  0.43400739543E+02  0.00000000000E+00 0. -1.
         11    1    3    3    0    0  0.21358790300E+02 -0.12720642780E+02 -0.34315666589E+01  0.25095583791E+02  0.51100000000E-03 0. -1.
        -11    1    3    3    0    0  0.13940677540E+02  0.19192240326E+01 -0.58156032092E+01  0.15226527908E+02  0.51100000000E-03 0.  1.
         12    1    3    3    0    0  0.50012321851E+01  0.28426465232E+01 -0.47576762562E+01  0.74651487583E+01  0.00000000000E+00 0. -1.
</event>
<event>
 7    1  0.1384886E-010  0.4778726E+02  0.7816164E-02  0.1312668E+00
        -11   -1    0    0    0    0  0.00000000000E+00  0.00000000000E+00  0.45593999997E+02  0.45594000000E+02  0.51100000000E-03 0.  1.
         11   -1    0    0    0    0 -0.00000000000E+00 -0.00000000000E+00 -0.45593999997E+02  0.45594000000E+02  0.51100000000E-03 0. -1.
    9900012    2    1    2    0    0 -0.39388850185E+02 -0.16431661723E+02  0.78831183409E+01  0.47787255990E+02  0.19999931359E+02 0.  0.
         12    1    1    2    0    0  0.39388850185E+02  0.16431661723E+02 -0.78831183409E+01  0.43400744010E+02  0.00000000000E+00 0. -1.
         11    1    3    3    0    0 -0.91397267367E+01 -0.19016661116E+01  0.71222676570E+01  0.11742130797E+02  0.51100000000E-03 0. -1.
        -11    1    3    3    0    0 -0.20533042861E+02 -0.15555236569E+02  0.32470867986E+01  0.25963720974E+02  0.51100000000E-03 0.  1.
         12    1    3    3    0    0 -0.97160805871E+01  0.10252409580E+01 -0.24862361148E+01  0.10081404218E+02  0.00000000000E+00 0. -1.
</event>
<event>
 7    1  0.1384886E-010  0.4778727E+02  0.7816164E-02  0.1312668E+00
        -11   -1    0    0    0    0  0.00000000000E+00  0.00000000000E+00  0.45593999997E+02  0.45594000000E+02  0.51100000000E-03 0.  1.
         11   -1    0    0    0    0 -0.00000000000E+00 -0.00000000000E+00 -0.45593999997E+02  0.45594000000E+02  0.51100000000E-03 0. -1.
    9900012    2    1    2    0    0 -0.42139418593E+01 -0.88655108301E+00  0.43186574951E+02  0.47787268039E+02  0.19999986295E+02 0.  0.
         12    1    1    2    0    0  0.42139418593E+01  0.88655108301E+00 -0.43186574951E+02  0.43400731961E+02  0.00000000000E+00 0. -1.
         11    1    3    3    0    0  0.69505930329E+01 -0.37400050271E+01  0.14089239842E+02  0.16149460074E+02  0.51100000000E-03 0. -1.
        -11    1    3    3    0    0 -0.53040101787E+01 -0.61516052454E+00  0.16132954443E+02  0.16993621326E+02  0.51100000000E-03 0.  1.
         12    1    3    3    0    0 -0.58605247135E+01  0.34686144686E+01  0.12964380666E+02  0.14644186638E+02  0.00000000000E+00 0. -1.
</event>
<event>
 7    1  0.1384886E-010  0.4778727E+02  0.7816164E-02  0.1312668E+00
        -11   -1    0    0    0    0  0.00000000000E+00  0.00000000000E+00  0.45593999997E+02  0.45594000000E+02  0.51100000000E-03 0.  1.
         11   -1    0    0    0    0 -0.00000000000E+00 -0.00000000000E+00 -0.45593999997E+02  0.45594000000E+02  0.51100000000E-03 0. -1.
    9900012    2    1    2    0    0  0.32789004039E+01  0.40932158861E+02  0.14051004969E+02  0.47787267776E+02  0.19999985100E+02 0.  0.
         12    1    1    2    0    0 -0.32789004039E+01 -0.40932158861E+02 -0.14051004969E+02  0.43400732224E+02  0.00000000000E+00 0. -1.
         11    1    3    3    0    0  0.40328391744E+01  0.10918862337E+01  0.49627039087E+00  0.42074091691E+01  0.51100000000E-03 0.  1.
        -11    1    3    3    0    0 -0.42336684161E+01  0.11259862002E+02  0.70226816941E+00  0.12049963543E+02  0.51100000000E-03 0. -1.
        -12    1    3    3    0    0  0.34797296456E+01  0.28580410626E+02  0.12852466409E+02  0.31529895064E+02  0.00000000000E+00 0.  1.
</event>
<event>
 7    1  0.1384886E-010  0.4778726E+02  0.7816164E-02  0.1312668E+00
        -11   -1    0    0    0    0  0.00000000000E+00  0.00000000000E+00  0.45593999997E+02  0.45594000000E+02  0.51100000000E-03 0. -1.
         11   -1    0    0    0    0 -0.00000000000E+00 -0.00000000000E+00 -0.45593999997E+02  0.45594000000E+02  0.51100000000E-03 0.  1.
    9900012    2    1    2    0    0 -0.28622336072E+02 -0.31826371292E+02  0.71741607411E+01  0.47787255604E+02  0.19999929600E+02 0.  0.
         12    1    1    2    0    0  0.28622336072E+02  0.31826371292E+02 -0.71741607411E+01  0.43400744396E+02  0.00000000000E+00 0. -1.
         11    1    3    3    0    0 -0.12022136765E+02 -0.13722055708E+02 -0.11896362794E+01  0.18282281586E+02  0.51100000000E-03 0. -1.
        -11    1    3    3    0    0 -0.12755188337E+02 -0.56348955970E+01  0.87287826716E+01  0.16451094951E+02  0.51100000000E-03 0.  1.
         12    1    3    3    0    0 -0.38450109695E+01 -0.12469419986E+02 -0.36498565120E+00  0.13053879066E+02  0.00000000000E+00 0. -1.
</event>
<event>
 7    1  0.1384886E-010  0.4778730E+02  0.7816164E-02  0.1312668E+00
        -11   -1    0    0    0    0  0.00000000000E+00  0.00000000000E+00  0.45593999997E+02  0.45594000000E+02  0.51100000000E-03 0.  1.
         11   -1    0    0    0    0 -0.00000000000E+00 -0.00000000000E+00 -0.45593999997E+02  0.45594000000E+02  0.51100000000E-03 0. -1.
    9900012    2    1    2    0    0  0.64631664932E+01 -0.22867778478E+02  0.36316845858E+02  0.47787296011E+02  0.20000113833E+02 0.  0.
         12    1    1    2    0    0 -0.64631664932E+01  0.22867778478E+02 -0.36316845858E+02  0.43400703989E+02  0.00000000000E+00 0. -1.
         11    1    3    3    0    0 -0.69484669905E+00 -0.45270778605E+00 -0.68166394549E+00  0.10735093248E+01  0.51100000000E-03 0. -1.
        -11    1    3    3    0    0 -0.17695627523E+01  0.18624248145E+01  0.24077265051E+01  0.35209552267E+01  0.51100000000E-03 0.  1.
        -12    1    3    3    0    0  0.89275759445E+01 -0.24277495506E+02  0.34590783299E+02  0.43192831460E+02  0.00000000000E+00 0.  1.
</event>
<event>
 7    1  0.1384886E-010  0.4778728E+02  0.7816164E-02  0.1312668E+00
        -11   -1    0    0    0    0  0.00000000000E+00  0.00000000000E+00  0.45593999997E+02  0.45594000000E+02  0.51100000000E-03 0.  1.
         11   -1    0    0    0    0 -0.00000000000E+00 -0.00000000000E+00 -0.45593999997E+02  0.45594000000E+02  0.51100000000E-03 0. -1.
    9900012    2    1    2    0    0 -0.25425402541E+02 -0.11131954537E+02  0.33365417608E+02  0.47787278827E+02  0.20000035485E+02 0.  0.
         12    1    1    2    0    0  0.25425402541E+02  0.11131954537E+02 -0.33365417608E+02  0.43400721173E+02  0.00000000000E+00 0. -1.
         11    1    3    3    0    0 -0.28460979032E+01  0.19863452657E+01 -0.28179234841E+00  0.34821326767E+01  0.51100000000E-03 0. -1.
        -11    1    3    3    0    0 -0.37130160677E+00 -0.23119457353E+01 -0.26081016411E+00  0.23560518180E+01  0.51100000000E-03 0.  1.
        -12    1    3    3    0    0 -0.22208003031E+02 -0.10806354067E+02  0.33908020120E+02  0.41949094333E+02  0.00000000000E+00 0.  1.
</event>
<event>
 7    1  0.1384886E-010  0.4778727E+02  0.7816164E-02  0.1312668E+00
        -11   -1    0    0    0    0  0.00000000000E+00  0.00000000000E+00  0.45593999997E+02  0.45594000000E+02  0.51100000000E-03 0. -1.
         11   -1    0    0    0    0 -0.00000000000E+00 -0.00000000000E+00 -0.45593999997E+02  0.45594000000E+02  0.51100000000E-03 0.  1.
    9900012    2    1    2    0    0  0.40667977748E+02 -0.12488025454E+02  0.85900202021E+01  0.47787266816E+02  0.19999980721E+02 0.  0.
         12    1    1    2    0    0 -0.40667977748E+02  0.12488025454E+02 -0.85900202021E+01  0.43400733184E+02  0.00000000000E+00 0. -1.
         11    1    3    3    0    0 -0.18062292714E+01 -0.32038981641E-01  0.87993218770E+00  0.20094207108E+01  0.51100000000E-03 0. -1.
        -11    1    3    3    0    0  0.16172222001E+02 -0.40199117029E+01 -0.13224274462E+01  0.16716736200E+02  0.51100000000E-03 0.  1.
        -12    1    3    3    0    0  0.26301985018E+02 -0.84360747694E+01  0.90325154606E+01  0.29061109906E+02  0.00000000000E+00 0.  1.
</event>
<event>
 7    1  0.1384886E-010  0.4778727E+02  0.7816164E-02  0.1312668E+00
        -11   -1    0    0    0    0  0.00000000000E+00  0.00000000000E+00  0.45593999997E+02  0.45594000000E+02  0.51100000000E-03 0. -1.
         11   -1    0    0    0    0 -0.00000000000E+00 -0.00000000000E+00 -0.45593999997E+02  0.45594000000E+02  0.51100000000E-03 0.  1.
    9900012    2    1    2    0    0 -0.73133669239E+01 -0.39826872464E+02 -0.15619160516E+02  0.47787270960E+02  0.19999999613E+02 0.  0.
         12    1    1    2    0    0  0.73133669239E+01  0.39826872464E+02  0.15619160516E+02  0.43400729040E+02  0.00000000000E+00 0. -1.
         11    1    3    3    0    0 -0.37220908629E+01 -0.16867793975E+02 -0.47088562298E+01  0.17903903519E+02  0.51100000000E-03 0. -1.
        -11    1    3    3    0    0 -0.25701498000E+01 -0.67781300178E+00  0.26718191731E+01  0.37687820864E+01  0.51100000000E-03 0.  1.
        -12    1    3    3    0    0 -0.10211262610E+01 -0.22281265487E+02 -0.13582123459E+02  0.26114585354E+02  0.00000000000E+00 0.  1.
</event>
<event>
 7    1  0.1384886E-010  0.4778727E+02  0.7816164E-02  0.1312668E+00
        -11   -1    0    0    0    0  0.00000000000E+00  0.00000000000E+00  0.45593999997E+02  0.45594000000E+02  0.51100000000E-03 0.  1.
         11   -1    0    0    0    0 -0.00000000000E+00 -0.00000000000E+00 -0.45593999997E+02  0.45594000000E+02  0.51100000000E-03 0. -1.
    9900012    2    1    2    0    0  0.31589870683E+02 -0.41027486728E+01  0.29476612227E+02  0.47787272531E+02  0.20000006780E+02 0.  0.
         12    1    1    2    0    0 -0.31589870683E+02  0.41027486728E+01 -0.29476612227E+02  0.43400727469E+02  0.00000000000E+00 0. -1.
         11    1    3    3    0    0  0.15653825231E+02  0.53649442625E+01  0.69130233233E+01  0.17933621024E+02  0.51100000000E-03 0. -1.
        -11    1    3    3    0    0  0.10538264567E+00 -0.10995299747E+01  0.75222319332E-01  0.11071270594E+01  0.51100000000E-03 0.  1.
         12    1    3    3    0    0  0.15830662807E+02 -0.83681629606E+01  0.22488366584E+02  0.28746524448E+02  0.00000000000E+00 0. -1.
</event>
<event>
 7    1  0.1384886E-010  0.4778727E+02  0.7816164E-02  0.1312668E+00
        -11   -1    0    0    0    0  0.00000000000E+00  0.00000000000E+00  0.45593999997E+02  0.45594000000E+02  0.51100000000E-03 0.  1.
         11   -1    0    0    0    0 -0.00000000000E+00 -0.00000000000E+00 -0.45593999997E+02  0.45594000000E+02  0.51100000000E-03 0. -1.
    9900012    2    1    2    0    0 -0.31059106082E+02 -0.30172143449E+02 -0.29320355853E+01  0.47787272545E+02  0.20000006842E+02 0.  0.
         12    1    1    2    0    0  0.31059106082E+02  0.30172143449E+02  0.29320355853E+01  0.43400727455E+02  0.00000000000E+00 0. -1.
         11    1    3    3    0    0 -0.10700370093E+01  0.99494934553E+00 -0.97369434451E+00  0.17558429141E+01  0.51100000000E-03 0. -1.
        -11    1    3    3    0    0 -0.16777234292E+02 -0.27516157560E+02 -0.34107138967E+00  0.32229347609E+02  0.51100000000E-03 0.  1.
         12    1    3    3    0    0 -0.13211834781E+02 -0.36509352349E+01 -0.16172698511E+01  0.13802082022E+02  0.00000000000E+00 0. -1.
</event>
<event>
 7    1  0.1384886E-010  0.4778727E+02  0.7816164E-02  0.1312668E+00
        -11   -1    0    0    0    0  0.00000000000E+00  0.00000000000E+00  0.45593999997E+02  0.45594000000E+02  0.51100000000E-03 0.  1.
         11   -1    0    0    0    0 -0.00000000000E+00 -0.00000000000E+00 -0.45593999997E+02  0.45594000000E+02  0.51100000000E-03 0. -1.
    9900012    2    1    2    0    0 -0.20568884554E+02 -0.94159155273E+01  0.37038964597E+02  0.47787269874E+02  0.19999994664E+02 0.  0.
         12    1    1    2    0    0  0.20568884554E+02  0.94159155273E+01 -0.37038964597E+02  0.43400730126E+02  0.00000000000E+00 0. -1.
         11    1    3    3    0    0 -0.16147705283E+02 -0.73587499226E+01  0.13861835327E+02  0.22517772208E+02  0.51100000000E-03 0. -1.
        -11    1    3    3    0    0 -0.69295938802E+01 -0.20380744618E+00  0.15296514453E+02  0.16794170521E+02  0.51100000000E-03 0.  1.
        -12    1    3    3    0    0  0.25084146088E+01 -0.18533581585E+01  0.78806148172E+01  0.84753271448E+01  0.00000000000E+00 0.  1.
</event>
<event>
 7    1  0.1384886E-010  0.4778727E+02  0.7816164E-02  0.1312668E+00
        -11   -1    0    0    0    0  0.00000000000E+00  0.00000000000E+00  0.45593999997E+02  0.45594000000E+02  0.51100000000E-03 0.  1.
         11   -1    0    0    0    0 -0.00000000000E+00 -0.00000000000E+00 -0.45593999997E+02  0.45594000000E+02  0.51100000000E-03 0. -1.
    9900012    2    1    2    0    0 -0.27507809508E+01 -0.32501565091E+01  0.43191355551E+02  0.47787268353E+02  0.19999987727E+02 0.  0.
         12    1    1    2    0    0  0.27507809508E+01  0.32501565091E+01 -0.43191355551E+02  0.43400731647E+02  0.00000000000E+00 0. -1.
         11    1    3    3    0    0 -0.99396584813E+01  0.15811736470E+01  0.18951352682E+02  0.21458114772E+02  0.51100000000E-03 0. -1.
        -11    1    3    3    0    0  0.14998190577E+01 -0.43062152243E+01  0.10341410186E+02  0.11302110939E+02  0.51100000000E-03 0.  1.
        -12    1    3    3    0    0  0.56890584729E+01 -0.52511493183E+00  0.13898592683E+02  0.15027042642E+02  0.00000000000E+00 0.  1.
</event>
<event>
 7    1  0.1384886E-010  0.4778727E+02  0.7816164E-02  0.1312668E+00
        -11   -1    0    0    0    0  0.00000000000E+00  0.00000000000E+00  0.45593999997E+02  0.45594000000E+02  0.51100000000E-03 0.  1.
         11   -1    0    0    0    0 -0.00000000000E+00 -0.00000000000E+00 -0.45593999997E+02  0.45594000000E+02  0.51100000000E-03 0. -1.
    9900012    2    1    2    0    0  0.30037538463E+02  0.16376524118E+02  0.26705407868E+02  0.47787273410E+02  0.20000010786E+02 0.  0.
         12    1    1    2    0    0 -0.30037538463E+02 -0.16376524118E+02 -0.26705407868E+02  0.43400726590E+02  0.00000000000E+00 0. -1.
         11    1    3    3    0    0  0.15450113168E+02  0.14532507787E+02  0.13941044699E+02  0.25382129679E+02  0.51100000000E-03 0.  1.
        -11    1    3    3    0    0  0.14927536197E+02  0.17676959753E+01  0.69161934935E+01  0.16546595380E+02  0.51100000000E-03 0. -1.
         12    1    3    3    0    0 -0.34011090136E+00  0.76320355023E-01  0.58481696760E+01  0.58585483510E+01  0.00000000000E+00 0. -1.
</event>
<event>
 7    1  0.1384886E-010  0.4778727E+02  0.7816164E-02  0.1312668E+00
        -11   -1    0    0    0    0  0.00000000000E+00  0.00000000000E+00  0.45593999997E+02  0.45594000000E+02  0.51100000000E-03 0. -1.
         11   -1    0    0    0    0 -0.00000000000E+00 -0.00000000000E+00 -0.45593999997E+02  0.45594000000E+02  0.51100000000E-03 0.  1.
    9900012    2    1    2    0    0 -0.34318408586E+02 -0.22995341094E+02  0.13307308825E+02  0.47787270190E+02  0.19999996103E+02 0.  0.
         12    1    1    2    0    0  0.34318408586E+02  0.22995341094E+02 -0.13307308825E+02  0.43400729810E+02  0.00000000000E+00 0. -1.
         11    1    3    3    0    0 -0.27842610688E+01 -0.55825326895E+01  0.48324805944E+01  0.78911120816E+01  0.51100000000E-03 0. -1.
        -11    1    3    3    0    0 -0.13844213907E+02  0.42306057110E+00  0.24971079854E+01  0.14073975540E+02  0.51100000000E-03 0.  1.
        -12    1    3    3    0    0 -0.17689933610E+02 -0.17835868976E+02  0.59777202450E+01  0.25822182568E+02  0.00000000000E+00 0.  1.
</event>
<event>
 7    1  0.1384886E-010  0.4778727E+02  0.7816164E-02  0.1312668E+00
        -11   -1    0    0    0    0  0.00000000000E+00  0.00000000000E+00  0.45593999997E+02  0.45594000000E+02  0.51100000000E-03 0.  1.
         11   -1    0    0    0    0 -0.00000000000E+00 -0.00000000000E+00 -0.45593999997E+02  0.45594000000E+02  0.51100000000E-03 0. -1.
    9900012    2    1    2    0    0  0.32465504868E+02  0.63962843956E+01  0.28083842840E+02  0.47787266261E+02  0.19999978191E+02 0.  0.
         12    1    1    2    0    0 -0.32465504868E+02 -0.63962843956E+01 -0.28083842840E+02  0.43400733739E+02  0.00000000000E+00 0. -1.
         11    1    3    3    0    0 -0.22054514497E+00 -0.27760641153E+01  0.66535517392E+01  0.72128304528E+01  0.51100000000E-03 0. -1.
        -11    1    3    3    0    0  0.17064285594E+02  0.72757451015E+01  0.96028247726E+01  0.20888766203E+02  0.51100000000E-03 0.  1.
        -12    1    3    3    0    0  0.15621764419E+02  0.18966034094E+01  0.11827466328E+02  0.19685669605E+02  0.00000000000E+00 0.  1.
</event>
<event>
 7    1  0.1384886E-010  0.4778727E+02  0.7816164E-02  0.1312668E+00
        -11   -1    0    0    0    0  0.00000000000E+00  0.00000000000E+00  0.45593999997E+02  0.45594000000E+02  0.51100000000E-03 0.  1.
         11   -1    0    0    0    0 -0.00000000000E+00 -0.00000000000E+00 -0.45593999997E+02  0.45594000000E+02  0.51100000000E-03 0. -1.
    9900012    2    1    2    0    0  0.31649597896E+02 -0.28586170133E+02  0.80471713798E+01  0.47787272621E+02  0.20000007187E+02 0.  0.
         12    1    1    2    0    0 -0.31649597896E+02  0.28586170133E+02 -0.80471713798E+01  0.43400727379E+02  0.00000000000E+00 0. -1.
         11    1    3    3    0    0 -0.20413470678E+01 -0.19176255913E+00 -0.13120384835E+01  0.24341971929E+01  0.51100000000E-03 0. -1.
        -11    1    3    3    0    0  0.14423177158E+02 -0.12024778833E+02  0.13265435201E+01  0.18825064761E+02  0.51100000000E-03 0.  1.
         12    1    3    3    0    0  0.19267767806E+02 -0.16369628741E+02  0.80326663433E+01  0.26528010666E+02  0.00000000000E+00 0. -1.
</event>
<event>
 7    1  0.1384886E-010  0.4778727E+02  0.7816164E-02  0.1312668E+00
        -11   -1    0    0    0    0  0.00000000000E+00  0.00000000000E+00  0.45593999997E+02  0.45594000000E+02  0.51100000000E-03 0.  1.
         11   -1    0    0    0    0 -0.00000000000E+00 -0.00000000000E+00 -0.45593999997E+02  0.45594000000E+02  0.51100000000E-03 0. -1.
    9900012    2    1    2    0    0 -0.24760225975E+01  0.27387053878E+02  0.33577403531E+02  0.47787269178E+02  0.19999991489E+02 0.  0.
         12    1    1    2    0    0  0.24760225975E+01 -0.27387053878E+02 -0.33577403531E+02  0.43400730822E+02  0.00000000000E+00 0. -1.
         11    1    3    3    0    0  0.10769775734E+01  0.15187157504E+02  0.56821856497E+01  0.16251057435E+02  0.51100000000E-03 0. -1.
        -11    1    3    3    0    0  0.20999427741E+01  0.35655397559E+01  0.10822937182E+02  0.11587010093E+02  0.51100000000E-03 0.  1.
         12    1    3    3    0    0 -0.56529429450E+01  0.86343566180E+01  0.17072280700E+02  0.19949201649E+02  0.00000000000E+00 0. -1.
</event>
<event>
 7    1  0.1384886E-010  0.4778727E+02  0.7816164E-02  0.1312668E+00
        -11   -1    0    0    0    0  0.00000000000E+00  0.00000000000E+00  0.45593999997E+02  0.45594000000E+02  0.51100000000E-03 0.  1.
         11   -1    0    0    0    0 -0.00000000000E+00 -0.00000000000E+00 -0.45593999997E+02  0.45594000000E+02  0.51100000000E-03 0. -1.
    9900012    2    1    2    0    0  0.19466688186E+02 -0.15791348887E+02  0.35430277234E+02  0.47787271971E+02  0.20000004223E+02 0.  0.
         12    1    1    2    0    0 -0.19466688186E+02  0.15791348887E+02 -0.35430277234E+02  0.43400728029E+02  0.00000000000E+00 0. -1.
         11    1    3    3    0    0  0.14961937430E+02 -0.69614724490E+01  0.17664806566E+02  0.24173685312E+02  0.51100000000E-03 0. -1.
        -11    1    3    3    0    0  0.10615493992E+01  0.21342434894E+01  0.85703033474E+01  0.88956158936E+01  0.51100000000E-03 0.  1.
         12    1    3    3    0    0  0.34432013566E+01 -0.10964119928E+02  0.91951673208E+01  0.14717970765E+02  0.00000000000E+00 0. -1.
</event>
<event>
 7    1  0.1384886E-010  0.4778727E+02  0.7816164E-02  0.1312668E+00
        -11   -1    0    0    0    0  0.00000000000E+00  0.00000000000E+00  0.45593999997E+02  0.45594000000E+02  0.51100000000E-03 0.  1.
         11   -1    0    0    0    0 -0.00000000000E+00 -0.00000000000E+00 -0.45593999997E+02  0.45594000000E+02  0.51100000000E-03 0. -1.
    9900012    2    1    2    0    0 -0.14589417038E+02 -0.38658751974E+02  0.13276785287E+02  0.47787271651E+02  0.20000002763E+02 0.  0.
         12    1    1    2    0    0  0.14589417038E+02  0.38658751974E+02 -0.13276785287E+02  0.43400728349E+02  0.00000000000E+00 0. -1.
         11    1    3    3    0    0  0.14532693544E+01 -0.34685583688E+01 -0.29448881700E+01  0.47765317511E+01  0.51100000000E-03 0. -1.
        -11    1    3    3    0    0 -0.57692984176E+01 -0.19496967509E+02  0.42894540356E+01  0.20780181964E+02  0.51100000000E-03 0.  1.
         12    1    3    3    0    0 -0.10273387975E+02 -0.15693226096E+02  0.11932219422E+02  0.22230557935E+02  0.00000000000E+00 0. -1.
</event>
<event>
 7    1  0.1384886E-010  0.4778727E+02  0.7816164E-02  0.1312668E+00
        -11   -1    0    0    0    0  0.00000000000E+00  0.00000000000E+00  0.45593999997E+02  0.45594000000E+02  0.51100000000E-03 0.  1.
         11   -1    0    0    0    0 -0.00000000000E+00 -0.00000000000E+00 -0.45593999997E+02  0.45594000000E+02  0.51100000000E-03 0. -1.
    9900012    2    1    2    0    0 -0.36162499639E+02  0.96615748624E+00  0.23978391903E+02  0.47787272832E+02  0.20000008151E+02 0.  0.
         12    1    1    2    0    0  0.36162499639E+02 -0.96615748624E+00 -0.23978391903E+02  0.43400727168E+02  0.00000000000E+00 0. -1.
         11    1    3    3    0    0 -0.45711384582E+01 -0.20157536250E+01  0.93883711231E+01  0.10634852236E+02  0.51100000000E-03 0. -1.
        -11    1    3    3    0    0 -0.67348123977E+01  0.60760074527E+01  0.30116297083E+01  0.95574828464E+01  0.51100000000E-03 0.  1.
        -12    1    3    3    0    0 -0.24856548783E+02 -0.30940963415E+01  0.11578391072E+02  0.27594937750E+02  0.00000000000E+00 0.  1.
</event>
<event>
 7    1  0.1384886E-010  0.4778727E+02  0.7816164E-02  0.1312668E+00
        -11   -1    0    0    0    0  0.00000000000E+00  0.00000000000E+00  0.45593999997E+02  0.45594000000E+02  0.51100000000E-03 0.  1.
         11   -1    0    0    0    0 -0.00000000000E+00 -0.00000000000E+00 -0.45593999997E+02  0.45594000000E+02  0.51100000000E-03 0. -1.
    9900012    2    1    2    0    0 -0.11176817276E+02  0.38932525921E+02 -0.15587186259E+02  0.47787271959E+02  0.20000004168E+02 0.  0.
         12    1    1    2    0    0  0.11176817276E+02 -0.38932525921E+02  0.15587186259E+02  0.43400728041E+02  0.00000000000E+00 0. -1.
         11    1    3    3    0    0 -0.31264051323E+01  0.21785181535E+02 -0.10868474369E+02  0.24545718138E+02  0.51100000000E-03 0. -1.
        -11    1    3    3    0    0 -0.66485116962E+01  0.13463297055E+02  0.23011333994E+01  0.15190730415E+02  0.51100000000E-03 0.  1.
         12    1    3    3    0    0 -0.14019004473E+01  0.36840473316E+01 -0.70198452900E+01  0.80508234052E+01  0.00000000000E+00 0. -1.
</event>
<event>
 7    1  0.1384886E-010  0.4778727E+02  0.7816164E-02  0.1312668E+00
        -11   -1    0    0    0    0  0.00000000000E+00  0.00000000000E+00  0.45593999997E+02  0.45594000000E+02  0.51100000000E-03 0. -1.
         11   -1    0    0    0    0 -0.00000000000E+00 -0.00000000000E+00 -0.45593999997E+02  0.45594000000E+02  0.51100000000E-03 0.  1.
    9900012    2    1    2    0    0  0.40509703503E+02  0.15553770583E+02  0.81691342555E+00  0.47787271840E+02  0.20000003628E+02 0.  0.
         12    1    1    2    0    0 -0.40509703503E+02 -0.15553770583E+02 -0.81691342555E+00  0.43400728160E+02  0.00000000000E+00 0. -1.
         11    1    3    3    0    0  0.39312787794E+02  0.83178638195E+01  0.17570873059E+01  0.40221505426E+02  0.51100000000E-03 0. -1.
        -11    1    3    3    0    0  0.12681444322E+01  0.31628509193E+01 -0.11620458593E+00  0.34095923518E+01  0.51100000000E-03 0.  1.
         12    1    3    3    0    0 -0.71228722786E-01  0.40730558443E+01 -0.82396929446E+00  0.41561740628E+01  0.00000000000E+00 0. -1.
</event>
<event>
 7    1  0.1384886E-010  0.4778724E+02  0.7816164E-02  0.1312668E+00
        -11   -1    0    0    0    0  0.00000000000E+00  0.00000000000E+00  0.45593999997E+02  0.45594000000E+02  0.51100000000E-03 0. -1.
         11   -1    0    0    0    0 -0.00000000000E+00 -0.00000000000E+00 -0.45593999997E+02  0.45594000000E+02  0.51100000000E-03 0.  1.
    9900012    2    1    2    0    0  0.19872241688E+02  0.51505606398E+01 -0.38238616435E+02  0.47787239045E+02  0.19999854102E+02 0.  0.
         12    1    1    2    0    0 -0.19872241688E+02 -0.51505606398E+01  0.38238616435E+02  0.43400760955E+02  0.00000000000E+00 0. -1.
         11    1    3    3    0    0 -0.69129138941E+00 -0.14507174719E+01 -0.30460427192E+01  0.34439572408E+01  0.51100000000E-03 0. -1.
        -11    1    3    3    0    0  0.17369276728E+02  0.11712299677E+02 -0.27125281478E+02  0.34273176586E+02  0.51100000000E-03 0.  1.
        -12    1    3    3    0    0  0.31942563492E+01 -0.51110215651E+01 -0.80672922379E+01  0.10070105219E+02  0.00000000000E+00 0.  1.
</event>
<event>
 7    1  0.1384886E-010  0.4778727E+02  0.7816164E-02  0.1312668E+00
        -11   -1    0    0    0    0  0.00000000000E+00  0.00000000000E+00  0.45593999997E+02  0.45594000000E+02  0.51100000000E-03 0.  1.
         11   -1    0    0    0    0 -0.00000000000E+00 -0.00000000000E+00 -0.45593999997E+02  0.45594000000E+02  0.51100000000E-03 0. -1.
    9900012    2    1    2    0    0  0.25423569985E+02  0.17715138228E+02  0.30388137547E+02  0.47787274928E+02  0.20000017708E+02 0.  0.
         12    1    1    2    0    0 -0.25423569985E+02 -0.17715138228E+02 -0.30388137547E+02  0.43400725072E+02  0.00000000000E+00 0. -1.
         11    1    3    3    0    0  0.14012852057E+02  0.16944978083E+02  0.23667627456E+02  0.32305555167E+02  0.51100000000E-03 0. -1.
        -11    1    3    3    0    0  0.10599723870E+02  0.19965488271E+01  0.80818267530E+01  0.13477992331E+02  0.51100000000E-03 0.  1.
         12    1    3    3    0    0  0.81099405787E+00 -0.12263886817E+01 -0.13613166624E+01  0.20037274305E+01  0.00000000000E+00 0. -1.
</event>
<event>
 7    1  0.1384886E-010  0.4778727E+02  0.7816164E-02  0.1312668E+00
        -11   -1    0    0    0    0  0.00000000000E+00  0.00000000000E+00  0.45593999997E+02  0.45594000000E+02  0.51100000000E-03 0. -1.
         11   -1    0    0    0    0 -0.00000000000E+00 -0.00000000000E+00 -0.45593999997E+02  0.45594000000E+02  0.51100000000E-03 0.  1.
    9900012    2    1    2    0    0  0.17116199697E+02 -0.38652587370E+02 -0.98303783406E+01  0.47787272578E+02  0.20000006992E+02 0.  0.
         12    1    1    2    0    0 -0.17116199697E+02  0.38652587370E+02  0.98303783406E+01  0.43400727422E+02  0.00000000000E+00 0. -1.
         11    1    3    3    0    0  0.53385623859E+01 -0.28959943433E+01 -0.20884326923E+01  0.64225059717E+01  0.51100000000E-03 0. -1.
        -11    1    3    3    0    0  0.14929737726E+02 -0.24434276837E+02 -0.34004673617E+01  0.28835639955E+02  0.51100000000E-03 0.  1.
        -12    1    3    3    0    0 -0.31521004145E+01 -0.11322316190E+02 -0.43414782866E+01  0.12529126651E+02  0.00000000000E+00 0.  1.
</event>
<event>
 7    1  0.1384886E-010  0.4778725E+02  0.7816164E-02  0.1312668E+00
        -11   -1    0    0    0    0  0.00000000000E+00  0.00000000000E+00  0.45593999997E+02  0.45594000000E+02  0.51100000000E-03 0.  1.
         11   -1    0    0    0    0 -0.00000000000E+00 -0.00000000000E+00 -0.45593999997E+02  0.45594000000E+02  0.51100000000E-03 0. -1.
    9900012    2    1    2    0    0 -0.39804135203E+02  0.37149983529E+01  0.16895398859E+02  0.47787252373E+02  0.19999914868E+02 0.  0.
         12    1    1    2    0    0  0.39804135203E+02 -0.37149983529E+01 -0.16895398859E+02  0.43400747627E+02  0.00000000000E+00 0. -1.
         11    1    3    3    0    0 -0.34130695481E+01  0.70491224515E-01 -0.13027564477E+01  0.36539276643E+01  0.51100000000E-03 0. -1.
        -11    1    3    3    0    0 -0.25822346018E+02  0.75598862052E+01  0.18836692871E+02  0.32844579947E+02  0.51100000000E-03 0.  1.
        -12    1    3    3    0    0 -0.10568719637E+02 -0.39153790768E+01 -0.63853756428E+00  0.11288744762E+02  0.00000000000E+00 0.  1.
</event>
<event>
 7    1  0.1384886E-010  0.4778727E+02  0.7816164E-02  0.1312668E+00
        -11   -1    0    0    0    0  0.00000000000E+00  0.00000000000E+00  0.45593999997E+02  0.45594000000E+02  0.51100000000E-03 0.  1.
         11   -1    0    0    0    0 -0.00000000000E+00 -0.00000000000E+00 -0.45593999997E+02  0.45594000000E+02  0.51100000000E-03 0. -1.
    9900012    2    1    2    0    0  0.19072462924E+02 -0.14474202898E+02  0.36198921326E+02  0.47787270782E+02  0.19999998804E+02 0.  0.
         12    1    1    2    0    0 -0.19072462924E+02  0.14474202898E+02 -0.36198921326E+02  0.43400729218E+02  0.00000000000E+00 0. -1.
         11    1    3    3    0    0  0.85470864192E+01  0.18356466895E+01  0.14560331536E+02  0.16983095705E+02  0.51100000000E-03 0. -1.
        -11    1    3    3    0    0 -0.14789890909E+01 -0.55452462067E+01  0.46965908615E+01  0.74158701583E+01  0.51100000000E-03 0.  1.
        -12    1    3    3    0    0  0.12004365595E+02 -0.10764603380E+02  0.16941998928E+02  0.23388304919E+02  0.00000000000E+00 0.  1.
</event>
<event>
 7    1  0.1384886E-010  0.4778724E+02  0.7816164E-02  0.1312668E+00
        -11   -1    0    0    0    0  0.00000000000E+00  0.00000000000E+00  0.45593999997E+02  0.45594000000E+02  0.51100000000E-03 0. -1.
         11   -1    0    0    0    0 -0.00000000000E+00 -0.00000000000E+00 -0.45593999997E+02  0.45594000000E+02  0.51100000000E-03 0.  1.
    9900012    2    1    2    0    0  0.35671469155E+02  0.17901704538E+02 -0.17049968635E+02  0.47787237708E+02  0.19999848006E+02 0.  0.
         12    1    1    2    0    0 -0.35671469155E+02 -0.17901704538E+02  0.17049968635E+02  0.43400762292E+02  0.00000000000E+00 0. -1.
         11    1    3    3    0    0  0.11821672799E+01  0.45879305166E+01 -0.72750350893E+00  0.47933169643E+01  0.51100000000E-03 0. -1.
        -11    1    3    3    0    0  0.12762557309E+02 -0.22475700394E+01 -0.39763833608E+01  0.13555296568E+02  0.51100000000E-03 0.  1.
        -12    1    3    3    0    0  0.21726744567E+02  0.15561344060E+02 -0.12346081765E+02  0.29438624176E+02  0.00000000000E+00 0.  1.
</event>
<event>
 7    1  0.1384886E-010  0.4778727E+02  0.7816164E-02  0.1312668E+00
        -11   -1    0    0    0    0  0.00000000000E+00  0.00000000000E+00  0.45593999997E+02  0.45594000000E+02  0.51100000000E-03 0. -1.
         11   -1    0    0    0    0 -0.00000000000E+00 -0.00000000000E+00 -0.45593999997E+02  0.45594000000E+02  0.51100000000E-03 0.  1.
    9900012    2    1    2    0    0  0.19589074942E+02  0.15073581941E+02 -0.35674623345E+02  0.47787268665E+02  0.19999989152E+02 0.  0.
         12    1    1    2    0    0 -0.19589074942E+02 -0.15073581941E+02  0.35674623345E+02  0.43400731335E+02  0.00000000000E+00 0. -1.
         11    1    3    3    0    0  0.35683952256E+01  0.45202410453E+01 -0.59703825329E+01  0.82952692207E+01  0.51100000000E-03 0. -1.
        -11    1    3    3    0    0  0.81890544790E+01  0.14855989885E+02 -0.21252344880E+02  0.27192337375E+02  0.51100000000E-03 0.  1.
         12    1    3    3    0    0  0.78316252378E+01 -0.43026489899E+01 -0.84518959313E+01  0.12299662070E+02  0.00000000000E+00 0. -1.
</event>
<event>
 7    1  0.1384886E-010  0.4778727E+02  0.7816164E-02  0.1312668E+00
        -11   -1    0    0    0    0  0.00000000000E+00  0.00000000000E+00  0.45593999997E+02  0.45594000000E+02  0.51100000000E-03 0. -1.
         11   -1    0    0    0    0 -0.00000000000E+00 -0.00000000000E+00 -0.45593999997E+02  0.45594000000E+02  0.51100000000E-03 0.  1.
    9900012    2    1    2    0    0 -0.16314571895E+02 -0.17474480048E+02 -0.36222927520E+02  0.47787272043E+02  0.20000004552E+02 0.  0.
         12    1    1    2    0    0  0.16314571895E+02  0.17474480048E+02  0.36222927520E+02  0.43400727957E+02  0.00000000000E+00 0. -1.
         11    1    3    3    0    0 -0.55878955703E+01 -0.99566281294E+01 -0.50729999579E+01  0.12493772427E+02  0.51100000000E-03 0. -1.
        -11    1    3    3    0    0 -0.65189056185E+01  0.32814198218E+00 -0.70793579257E+01  0.96291804701E+01  0.51100000000E-03 0.  1.
         12    1    3    3    0    0 -0.42077707062E+01 -0.78459939004E+01 -0.24070569637E+02  0.25664319146E+02  0.00000000000E+00 0. -1.
</event>
<event>
 7    1  0.1384886E-010  0.4778727E+02  0.7816164E-02  0.1312668E+00
        -11   -1    0    0    0    0  0.00000000000E+00  0.00000000000E+00  0.45593999997E+02  0.45594000000E+02  0.51100000000E-03 0.  1.
         11   -1    0    0    0    0 -0.00000000000E+00 -0.00000000000E+00 -0.45593999997E+02  0.45594000000E+02  0.51100000000E-03 0. -1.
    9900012    2    1    2    0    0  0.42732853033E+02  0.11603822421E+01  0.74953547429E+01  0.47787267771E+02  0.19999985077E+02 0.  0.
         12    1    1    2    0    0 -0.42732853033E+02 -0.11603822421E+01 -0.74953547429E+01  0.43400732229E+02  0.00000000000E+00 0. -1.
         11    1    3    3    0    0  0.26576782191E+02 -0.88077253392E+00  0.13884170530E+02  0.29997854981E+02  0.51100000000E-03 0. -1.
        -11    1    3    3    0    0  0.55665661777E+01  0.12182315077E+01 -0.70197815268E+00  0.57413866448E+01  0.51100000000E-03 0.  1.
         12    1    3    3    0    0  0.10589504664E+02  0.82292326833E+00 -0.56868376342E+01  0.12048026146E+02  0.00000000000E+00 0. -1.
</event>
<event>
 7    1  0.1384886E-010  0.4778727E+02  0.7816164E-02  0.1312668E+00
        -11   -1    0    0    0    0  0.00000000000E+00  0.00000000000E+00  0.45593999997E+02  0.45594000000E+02  0.51100000000E-03 0.  1.
         11   -1    0    0    0    0 -0.00000000000E+00 -0.00000000000E+00 -0.45593999997E+02  0.45594000000E+02  0.51100000000E-03 0. -1.
    9900012    2    1    2    0    0  0.37190945893E+02 -0.21300354044E+02  0.68375484731E+01  0.47787267196E+02  0.19999982455E+02 0.  0.
         12    1    1    2    0    0 -0.37190945893E+02  0.21300354044E+02 -0.68375484731E+01  0.43400732804E+02  0.00000000000E+00 0. -1.
         11    1    3    3    0    0  0.11464535154E+02  0.12137642753E+01  0.20629859757E+01  0.11711733493E+02  0.51100000000E-03 0. -1.
        -11    1    3    3    0    0  0.21635666527E+02 -0.13301265946E+02  0.54397748608E+01  0.25973388162E+02  0.51100000000E-03 0.  1.
         12    1    3    3    0    0  0.40907442121E+01 -0.92128523726E+01 -0.66521236329E+00  0.10102145541E+02  0.00000000000E+00 0. -1.
</event>
<event>
 7    1  0.1384886E-010  0.4778727E+02  0.7816164E-02  0.1312668E+00
        -11   -1    0    0    0    0  0.00000000000E+00  0.00000000000E+00  0.45593999997E+02  0.45594000000E+02  0.51100000000E-03 0.  1.
         11   -1    0    0    0    0 -0.00000000000E+00 -0.00000000000E+00 -0.45593999997E+02  0.45594000000E+02  0.51100000000E-03 0. -1.
    9900012    2    1    2    0    0  0.43385591190E+01 -0.14012383775E+02  0.40846702645E+02  0.47787272918E+02  0.20000008540E+02 0.  0.
         12    1    1    2    0    0 -0.43385591190E+01  0.14012383775E+02 -0.40846702645E+02  0.43400727082E+02  0.00000000000E+00 0. -1.
         11    1    3    3    0    0 -0.97405184801E+00 -0.13618150659E+02  0.17859900116E+02  0.22480632482E+02  0.51100000000E-03 0. -1.
        -11    1    3    3    0    0  0.31350437012E-02  0.33914681906E+01  0.40720963291E+01  0.52994372429E+01  0.51100000000E-03 0.  1.
        -12    1    3    3    0    0  0.53094759233E+01 -0.37857013075E+01  0.18914706200E+02  0.20007203193E+02  0.00000000000E+00 0.  1.
</event>
<event>
 7    1  0.1384886E-010  0.4778728E+02  0.7816164E-02  0.1312668E+00
        -11   -1    0    0    0    0  0.00000000000E+00  0.00000000000E+00  0.45593999997E+02  0.45594000000E+02  0.51100000000E-03 0. -1.
         11   -1    0    0    0    0 -0.00000000000E+00 -0.00000000000E+00 -0.45593999997E+02  0.45594000000E+02  0.51100000000E-03 0.  1.
    9900012    2    1    2    0    0  0.32156326406E+02 -0.10517143455E+02 -0.27184245628E+02  0.47787275988E+02  0.20000022541E+02 0.  0.
         12    1    1    2    0    0 -0.32156326406E+02  0.10517143455E+02  0.27184245628E+02  0.43400724012E+02  0.00000000000E+00 0. -1.
         11    1    3    3    0    0  0.25697599717E+02 -0.97805793257E+00 -0.17767893136E+02  0.31257339223E+02  0.51100000000E-03 0. -1.
        -11    1    3    3    0    0  0.24134167183E+01 -0.29325464758E+01 -0.77142291575E+01  0.85984731693E+01  0.51100000000E-03 0.  1.
         12    1    3    3    0    0  0.40453099708E+01 -0.66065390463E+01 -0.17021233345E+01  0.79314635961E+01  0.00000000000E+00 0. -1.
</event>
<event>
 7    1  0.1384886E-010  0.4778727E+02  0.7816164E-02  0.1312668E+00
        -11   -1    0    0    0    0  0.00000000000E+00  0.00000000000E+00  0.45593999997E+02  0.45594000000E+02  0.51100000000E-03 0. -1.
         11   -1    0    0    0    0 -0.00000000000E+00 -0.00000000000E+00 -0.45593999997E+02  0.45594000000E+02  0.51100000000E-03 0.  1.
    9900012    2    1    2    0    0  0.11732381159E+02  0.20373477838E+02 -0.36481446953E+02  0.47787270298E+02  0.19999996598E+02 0.  0.
         12    1    1    2    0    0 -0.11732381159E+02 -0.20373477838E+02  0.36481446953E+02  0.43400729702E+02  0.00000000000E+00 0. -1.
         11    1    3    3    0    0  0.28635050149E+01  0.13714714121E+02 -0.12308616332E+02  0.18649264883E+02  0.51100000000E-03 0. -1.
        -11    1    3    3    0    0  0.10715229035E+02  0.75896534306E+01 -0.23575665785E+02  0.26985755315E+02  0.51100000000E-03 0.  1.
        -12    1    3    3    0    0 -0.18463528908E+01 -0.93088971357E+00 -0.59716483614E+00  0.21522501011E+01  0.00000000000E+00 0.  1.
</event>
<event>
 7    1  0.1384886E-010  0.4778727E+02  0.7816164E-02  0.1312668E+00
        -11   -1    0    0    0    0  0.00000000000E+00  0.00000000000E+00  0.45593999997E+02  0.45594000000E+02  0.51100000000E-03 0.  1.
         11   -1    0    0    0    0 -0.00000000000E+00 -0.00000000000E+00 -0.45593999997E+02  0.45594000000E+02  0.51100000000E-03 0. -1.
    9900012    2    1    2    0    0  0.37672452710E+02 -0.21491818848E+02  0.15847853769E+01  0.47787268264E+02  0.19999987321E+02 0.  0.
         12    1    1    2    0    0 -0.37672452710E+02  0.21491818848E+02 -0.15847853769E+01  0.43400731736E+02  0.00000000000E+00 0. -1.
         11    1    3    3    0    0  0.10960488292E+02 -0.70642897600E+01 -0.19219319235E+01  0.13180679649E+02  0.51100000000E-03 0. -1.
        -11    1    3    3    0    0  0.97467406225E+01 -0.97628081287E+01  0.86407397237E+01  0.16278014577E+02  0.51100000000E-03 0.  1.
         12    1    3    3    0    0  0.16965223795E+02 -0.46647209595E+01 -0.51340224233E+01  0.18328574038E+02  0.00000000000E+00 0. -1.
</event>
<event>
 7    1  0.1384886E-010  0.4778727E+02  0.7816164E-02  0.1312668E+00
        -11   -1    0    0    0    0  0.00000000000E+00  0.00000000000E+00  0.45593999997E+02  0.45594000000E+02  0.51100000000E-03 0.  1.
         11   -1    0    0    0    0 -0.00000000000E+00 -0.00000000000E+00 -0.45593999997E+02  0.45594000000E+02  0.51100000000E-03 0. -1.
    9900012    2    1    2    0    0 -0.43296926600E+02  0.21301474139E+01  0.21123401339E+01  0.47787270031E+02  0.19999995380E+02 0.  0.
         12    1    1    2    0    0  0.43296926600E+02 -0.21301474139E+01 -0.21123401339E+01  0.43400729969E+02  0.00000000000E+00 0. -1.
         11    1    3    3    0    0  0.52064010239E+00  0.77301672233E+00 -0.10088013361E+00  0.93744228180E+00  0.51100000000E-03 0. -1.
        -11    1    3    3    0    0  0.11104138043E+01  0.48152920400E+00 -0.12999865085E+01  0.17761909735E+01  0.51100000000E-03 0.  1.
        -12    1    3    3    0    0 -0.44927980506E+02  0.87560148758E+00  0.35132067760E+01  0.45073636776E+02  0.00000000000E+00 0.  1.
</event>
<event>
 7    1  0.1384886E-010  0.4778727E+02  0.7816164E-02  0.1312668E+00
        -11   -1    0    0    0    0  0.00000000000E+00  0.00000000000E+00  0.45593999997E+02  0.45594000000E+02  0.51100000000E-03 0.  1.
         11   -1    0    0    0    0 -0.00000000000E+00 -0.00000000000E+00 -0.45593999997E+02  0.45594000000E+02  0.51100000000E-03 0. -1.
    9900012    2    1    2    0    0 -0.20091487009E+01 -0.13341222562E+02  0.41250431780E+02  0.47787273969E+02  0.20000013336E+02 0.  0.
         12    1    1    2    0    0  0.20091487009E+01  0.13341222562E+02 -0.41250431780E+02  0.43400726031E+02  0.00000000000E+00 0. -1.
         11    1    3    3    0    0 -0.17550490703E+01 -0.79538832144E+01  0.46983092555E+01  0.94031146728E+01  0.51100000000E-03 0. -1.
        -11    1    3    3    0    0 -0.44014142021E+01 -0.57876403226E+01  0.27018998883E+02  0.27980270342E+02  0.51100000000E-03 0.  1.
         12    1    3    3    0    0  0.41473145715E+01  0.40030097459E+00  0.95331236410E+01  0.10403888955E+02  0.00000000000E+00 0. -1.
</event>
<event>
 7    1  0.1384886E-010  0.4778727E+02  0.7816164E-02  0.1312668E+00
        -11   -1    0    0    0    0  0.00000000000E+00  0.00000000000E+00  0.45593999997E+02  0.45594000000E+02  0.51100000000E-03 0.  1.
         11   -1    0    0    0    0 -0.00000000000E+00 -0.00000000000E+00 -0.45593999997E+02  0.45594000000E+02  0.51100000000E-03 0. -1.
    9900012    2    1    2    0    0  0.31300473811E+02 -0.18727441166E+02  0.23519917029E+02  0.47787271774E+02  0.20000003329E+02 0.  0.
         12    1    1    2    0    0 -0.31300473811E+02  0.18727441166E+02 -0.23519917029E+02  0.43400728226E+02  0.00000000000E+00 0. -1.
         11    1    3    3    0    0  0.11844162705E+02 -0.11974959764E+02  0.39317817948E+01  0.17295743981E+02  0.51100000000E-03 0. -1.
        -11    1    3    3    0    0  0.14277665709E+02 -0.91001373456E-01  0.87112114258E+01  0.16725585912E+02  0.51100000000E-03 0.  1.
         12    1    3    3    0    0  0.51786453975E+01 -0.66614800290E+01  0.10876923808E+02  0.13765941881E+02  0.00000000000E+00 0. -1.
</event>
<event>
 7    1  0.1384886E-010  0.4778727E+02  0.7816164E-02  0.1312668E+00
        -11   -1    0    0    0    0  0.00000000000E+00  0.00000000000E+00  0.45593999997E+02  0.45594000000E+02  0.51100000000E-03 0.  1.
         11   -1    0    0    0    0 -0.00000000000E+00 -0.00000000000E+00 -0.45593999997E+02  0.45594000000E+02  0.51100000000E-03 0. -1.
    9900012    2    1    2    0    0  0.16697519410E+01  0.41487466517E+02  0.12634290059E+02  0.47787271494E+02  0.20000002050E+02 0.  0.
         12    1    1    2    0    0 -0.16697519410E+01 -0.41487466517E+02 -0.12634290059E+02  0.43400728506E+02  0.00000000000E+00 0. -1.
         11    1    3    3    0    0  0.31419982487E+01  0.20457164471E+02  0.10040482583E+02  0.23003891452E+02  0.51100000000E-03 0.  1.
        -11    1    3    3    0    0  0.11846134869E+01  0.19094425175E+02 -0.18892716925E+01  0.19224196463E+02  0.51100000000E-03 0. -1.
         12    1    3    3    0    0 -0.26568597946E+01  0.19358768715E+01  0.44830791683E+01  0.55591835785E+01  0.00000000000E+00 0. -1.
</event>
<event>
 7    1  0.1384886E-010  0.4778726E+02  0.7816164E-02  0.1312668E+00
        -11   -1    0    0    0    0  0.00000000000E+00  0.00000000000E+00  0.45593999997E+02  0.45594000000E+02  0.51100000000E-03 0.  1.
         11   -1    0    0    0    0 -0.00000000000E+00 -0.00000000000E+00 -0.45593999997E+02  0.45594000000E+02  0.51100000000E-03 0. -1.
    9900012    2    1    2    0    0  0.17287302857E+02  0.30869626708E+02 -0.25136419425E+02  0.47787259515E+02  0.19999947431E+02 0.  0.
         12    1    1    2    0    0 -0.17287302857E+02 -0.30869626708E+02  0.25136419425E+02  0.43400740485E+02  0.00000000000E+00 0. -1.
         11    1    3    3    0    0  0.37212189928E+01 -0.54939661084E+00 -0.61822558183E+00  0.38120218467E+01  0.51100000000E-03 0. -1.
        -11    1    3    3    0    0  0.44511659881E+01  0.16410665820E+02 -0.50057512005E+01  0.17725134038E+02  0.51100000000E-03 0.  1.
         12    1    3    3    0    0  0.91149178763E+01  0.15008357498E+02 -0.19512442643E+02  0.26250103630E+02  0.00000000000E+00 0. -1.
</event>
<event>
 7    1  0.1384886E-010  0.4778727E+02  0.7816164E-02  0.1312668E+00
        -11   -1    0    0    0    0  0.00000000000E+00  0.00000000000E+00  0.45593999997E+02  0.45594000000E+02  0.51100000000E-03 0.  1.
         11   -1    0    0    0    0 -0.00000000000E+00 -0.00000000000E+00 -0.45593999997E+02  0.45594000000E+02  0.51100000000E-03 0. -1.
    9900012    2    1    2    0    0 -0.34868483547E+02 -0.14253198182E+02  0.21555940646E+02  0.47787269817E+02  0.19999994405E+02 0.  0.
         12    1    1    2    0    0  0.34868483547E+02  0.14253198182E+02 -0.21555940646E+02  0.43400730183E+02  0.00000000000E+00 0. -1.
         11    1    3    3    0    0 -0.12320111595E+02  0.22221067598E+01  0.77070100047E+01  0.14701051378E+02  0.51100000000E-03 0. -1.
        -11    1    3    3    0    0 -0.17516946203E+02 -0.93710342962E+01  0.14126015173E+02  0.24376299822E+02  0.51100000000E-03 0.  1.
         12    1    3    3    0    0 -0.50314257489E+01 -0.71042706455E+01 -0.27708453244E+00  0.87099186167E+01  0.00000000000E+00 0. -1.
</event>
<event>
 7    1  0.1384886E-010  0.4778726E+02  0.7816164E-02  0.1312668E+00
        -11   -1    0    0    0    0  0.00000000000E+00  0.00000000000E+00  0.45593999997E+02  0.45594000000E+02  0.51100000000E-03 0.  1.
         11   -1    0    0    0    0 -0.00000000000E+00 -0.00000000000E+00 -0.45593999997E+02  0.45594000000E+02  0.51100000000E-03 0. -1.
    9900012    2    1    2    0    0  0.57513507824E+01  0.23076239536E+02  0.36304725678E+02  0.47787262985E+02  0.19999963252E+02 0.  0.
         12    1    1    2    0    0 -0.57513507824E+01 -0.23076239536E+02 -0.36304725678E+02  0.43400737015E+02  0.00000000000E+00 0. -1.
         11    1    3    3    0    0  0.28810158439E+01  0.30428951518E+01  0.13661064383E+02  0.14289301716E+02  0.51100000000E-03 0. -1.
        -11    1    3    3    0    0  0.79354420731E+01  0.12141539977E+02  0.94510997330E+01  0.17312178382E+02  0.51100000000E-03 0.  1.
         12    1    3    3    0    0 -0.50651071347E+01  0.78918044075E+01  0.13192561562E+02  0.16185782887E+02  0.00000000000E+00 0. -1.
</event>
<event>
 7    1  0.1384886E-010  0.4778726E+02  0.7816164E-02  0.1312668E+00
        -11   -1    0    0    0    0  0.00000000000E+00  0.00000000000E+00  0.45593999997E+02  0.45594000000E+02  0.51100000000E-03 0.  1.
         11   -1    0    0    0    0 -0.00000000000E+00 -0.00000000000E+00 -0.45593999997E+02  0.45594000000E+02  0.51100000000E-03 0. -1.
    9900012    2    1    2    0    0  0.21419853932E+02  0.12695218870E+02  0.35547785847E+02  0.47787264946E+02  0.19999972193E+02 0.  0.
         12    1    1    2    0    0 -0.21419853932E+02 -0.12695218870E+02 -0.35547785847E+02  0.43400735054E+02  0.00000000000E+00 0. -1.
         11    1    3    3    0    0  0.47324546425E+01  0.28057140865E+00  0.15274871542E+00  0.47432246088E+01  0.51100000000E-03 0.  1.
        -11    1    3    3    0    0  0.40425931650E+00  0.74379368243E+01  0.11560741231E+02  0.13752711292E+02  0.51100000000E-03 0. -1.
        -12    1    3    3    0    0  0.16283139973E+02  0.49767106370E+01  0.23834295900E+02  0.29291329045E+02  0.00000000000E+00 0.  1.
</event>
<event>
 7    1  0.1384886E-010  0.4778727E+02  0.7816164E-02  0.1312668E+00
        -11   -1    0    0    0    0  0.00000000000E+00  0.00000000000E+00  0.45593999997E+02  0.45594000000E+02  0.51100000000E-03 0.  1.
         11   -1    0    0    0    0 -0.00000000000E+00 -0.00000000000E+00 -0.45593999997E+02  0.45594000000E+02  0.51100000000E-03 0. -1.
    9900012    2    1    2    0    0 -0.19073486697E+02  0.62094535674E+01  0.38487246941E+02  0.47787269758E+02  0.19999994136E+02 0.  0.
         12    1    1    2    0    0  0.19073486697E+02 -0.62094535674E+01 -0.38487246941E+02  0.43400730242E+02  0.00000000000E+00 0. -1.
         11    1    3    3    0    0 -0.66431228373E+01  0.10718314719E+01  0.26814411821E+01  0.72436200073E+01  0.51100000000E-03 0. -1.
        -11    1    3    3    0    0 -0.13975904275E+01  0.54855065793E+01  0.41513469480E+01  0.70198093406E+01  0.51100000000E-03 0.  1.
         12    1    3    3    0    0 -0.11032773432E+02 -0.34788448381E+00  0.31654458811E+02  0.33523840410E+02  0.00000000000E+00 0. -1.
</event>
<event>
 7    1  0.1384886E-010  0.4778727E+02  0.7816164E-02  0.1312668E+00
        -11   -1    0    0    0    0  0.00000000000E+00  0.00000000000E+00  0.45593999997E+02  0.45594000000E+02  0.51100000000E-03 0.  1.
         11   -1    0    0    0    0 -0.00000000000E+00 -0.00000000000E+00 -0.45593999997E+02  0.45594000000E+02  0.51100000000E-03 0. -1.
    9900012    2    1    2    0    0 -0.23467925964E+00 -0.24558377935E+01  0.43330558858E+02  0.47787267926E+02  0.19999985782E+02 0.  0.
         12    1    1    2    0    0  0.23467925964E+00  0.24558377935E+01 -0.43330558858E+02  0.43400732074E+02  0.00000000000E+00 0. -1.
         11    1    3    3    0    0  0.13832922676E+01 -0.78484719899E+01  0.65626453853E+01  0.10323774735E+02  0.51100000000E-03 0. -1.
        -11    1    3    3    0    0 -0.24021450709E+01  0.86141259526E+00  0.14947701950E+02  0.15163974626E+02  0.51100000000E-03 0.  1.
        -12    1    3    3    0    0  0.78417354368E+00  0.45312216012E+01  0.21820211523E+02  0.22299518565E+02  0.00000000000E+00 0.  1.
</event>
<event>
 7    1  0.1384886E-010  0.4778727E+02  0.7816164E-02  0.1312668E+00
        -11   -1    0    0    0    0  0.00000000000E+00  0.00000000000E+00  0.45593999997E+02  0.45594000000E+02  0.51100000000E-03 0. -1.
         11   -1    0    0    0    0 -0.00000000000E+00 -0.00000000000E+00 -0.45593999997E+02  0.45594000000E+02  0.51100000000E-03 0.  1.
    9900012    2    1    2    0    0  0.12730429385E+02  0.34820324416E+01 -0.41345313318E+02  0.47787270563E+02  0.19999997806E+02 0.  0.
         12    1    1    2    0    0 -0.12730429385E+02 -0.34820324416E+01  0.41345313318E+02  0.43400729437E+02  0.00000000000E+00 0. -1.
         11    1    3    3    0    0  0.22690832352E+01 -0.39264972944E+01 -0.87567932363E+01  0.98614171281E+01  0.51100000000E-03 0. -1.
        -11    1    3    3    0    0  0.72712734222E+01 -0.30568827885E+01 -0.92937710311E+01  0.12189755117E+02  0.51100000000E-03 0.  1.
        -12    1    3    3    0    0  0.31900727276E+01  0.10465412524E+02 -0.23294749051E+02  0.25736098319E+02  0.00000000000E+00 0.  1.
</event>
<event>
 7    1  0.1384886E-010  0.4778727E+02  0.7816164E-02  0.1312668E+00
        -11   -1    0    0    0    0  0.00000000000E+00  0.00000000000E+00  0.45593999997E+02  0.45594000000E+02  0.51100000000E-03 0.  1.
         11   -1    0    0    0    0 -0.00000000000E+00 -0.00000000000E+00 -0.45593999997E+02  0.45594000000E+02  0.51100000000E-03 0. -1.
    9900012    2    1    2    0    0 -0.33990285736E+02  0.22546252614E+02  0.14830726001E+02  0.47787268842E+02  0.19999989958E+02 0.  0.
         12    1    1    2    0    0  0.33990285736E+02 -0.22546252614E+02 -0.14830726001E+02  0.43400731158E+02  0.00000000000E+00 0. -1.
         11    1    3    3    0    0 -0.10745055076E+01 -0.18976620136E+01  0.45848347577E+00  0.22284278230E+01  0.51100000000E-03 0. -1.
        -11    1    3    3    0    0 -0.30077481777E+02  0.20139718257E+02  0.74979878571E+01  0.36965970617E+02  0.51100000000E-03 0.  1.
        -12    1    3    3    0    0 -0.28382984513E+01  0.43041963708E+01  0.68742546682E+01  0.85928704017E+01  0.00000000000E+00 0.  1.
</event>
<event>
 7    1  0.1384886E-010  0.4778727E+02  0.7816164E-02  0.1312668E+00
        -11   -1    0    0    0    0  0.00000000000E+00  0.00000000000E+00  0.45593999997E+02  0.45594000000E+02  0.51100000000E-03 0.  1.
         11   -1    0    0    0    0 -0.00000000000E+00 -0.00000000000E+00 -0.45593999997E+02  0.45594000000E+02  0.51100000000E-03 0. -1.
    9900012    2    1    2    0    0  0.21305957625E+02 -0.19696849599E+02  0.32275591221E+02  0.47787268404E+02  0.19999987960E+02 0.  0.
         12    1    1    2    0    0 -0.21305957625E+02  0.19696849599E+02 -0.32275591221E+02  0.43400731596E+02  0.00000000000E+00 0. -1.
         11    1    3    3    0    0  0.80639721292E+01 -0.11003503717E+02  0.22488588061E+01  0.13826138533E+02  0.51100000000E-03 0. -1.
        -11    1    3    3    0    0  0.40274701941E+01 -0.27386209582E+01  0.10133457183E+02  0.11243109697E+02  0.51100000000E-03 0.  1.
         12    1    3    3    0    0  0.92145153015E+01 -0.59547249244E+01  0.19893275232E+02  0.22718020174E+02  0.00000000000E+00 0. -1.
</event>
<event>
 7    1  0.1384886E-010  0.4778727E+02  0.7816164E-02  0.1312668E+00
        -11   -1    0    0    0    0  0.00000000000E+00  0.00000000000E+00  0.45593999997E+02  0.45594000000E+02  0.51100000000E-03 0.  1.
         11   -1    0    0    0    0 -0.00000000000E+00 -0.00000000000E+00 -0.45593999997E+02  0.45594000000E+02  0.51100000000E-03 0. -1.
    9900012    2    1    2    0    0  0.98378673314E+01  0.12615446078E+02  0.40344643683E+02  0.47787269738E+02  0.19999994044E+02 0.  0.
         12    1    1    2    0    0 -0.98378673314E+01 -0.12615446078E+02 -0.40344643683E+02  0.43400730262E+02  0.00000000000E+00 0. -1.
         11    1    3    3    0    0  0.52106774592E+01  0.30870699254E+00  0.24032420305E+01  0.57464799756E+01  0.51100000000E-03 0. -1.
        -11    1    3    3    0    0  0.18862623348E+01  0.11861801997E+02  0.16436108401E+02  0.20356964210E+02  0.51100000000E-03 0.  1.
         12    1    3    3    0    0  0.27409275373E+01  0.44493708880E+00  0.21505293251E+02  0.21683825553E+02  0.00000000000E+00 0. -1.
</event>
<event>
 7    1  0.1384886E-010  0.4778727E+02  0.7816164E-02  0.1312668E+00
        -11   -1    0    0    0    0  0.00000000000E+00  0.00000000000E+00  0.45593999997E+02  0.45594000000E+02  0.51100000000E-03 0. -1.
         11   -1    0    0    0    0 -0.00000000000E+00 -0.00000000000E+00 -0.45593999997E+02  0.45594000000E+02  0.51100000000E-03 0.  1.
    9900012    2    1    2    0    0  0.33249461767E+02  0.13050068488E+02 -0.24653436748E+02  0.47787274904E+02  0.20000017598E+02 0.  0.
         12    1    1    2    0    0 -0.33249461767E+02 -0.13050068488E+02  0.24653436748E+02  0.43400725096E+02  0.00000000000E+00 0. -1.
         11    1    3    3    0    0  0.16192165554E+02  0.13454385453E+01 -0.10467612842E+01  0.16281650397E+02  0.51100000000E-03 0. -1.
        -11    1    3    3    0    0  0.69631642690E+01  0.31963104849E+01 -0.85073346672E+01  0.11448877707E+02  0.51100000000E-03 0.  1.
         12    1    3    3    0    0  0.10094131944E+02  0.85083194576E+01 -0.15099340797E+02  0.20056746800E+02  0.00000000000E+00 0. -1.
</event>
<event>
 7    1  0.1384886E-010  0.4778727E+02  0.7816164E-02  0.1312668E+00
        -11   -1    0    0    0    0  0.00000000000E+00  0.00000000000E+00  0.45593999997E+02  0.45594000000E+02  0.51100000000E-03 0.  1.
         11   -1    0    0    0    0 -0.00000000000E+00 -0.00000000000E+00 -0.45593999997E+02  0.45594000000E+02  0.51100000000E-03 0. -1.
    9900012    2    1    2    0    0  0.85749135152E+01  0.32434972706E+02  0.27533012208E+02  0.47787270081E+02  0.19999995606E+02 0.  0.
         12    1    1    2    0    0 -0.85749135152E+01 -0.32434972706E+02 -0.27533012208E+02  0.43400729919E+02  0.00000000000E+00 0. -1.
         11    1    3    3    0    0  0.14923748666E+01  0.13475005847E+02  0.93067494718E+01  0.16444407904E+02  0.51100000000E-03 0. -1.
        -11    1    3    3    0    0 -0.19840673084E+01  0.16028990140E+01  0.96205422163E+01  0.99529212360E+01  0.51100000000E-03 0.  1.
         12    1    3    3    0    0  0.90666059570E+01  0.17357067846E+02  0.86057205204E+01  0.21389940941E+02  0.00000000000E+00 0. -1.
</event>
<event>
 7    1  0.1384886E-010  0.4778727E+02  0.7816164E-02  0.1312668E+00
        -11   -1    0    0    0    0  0.00000000000E+00  0.00000000000E+00  0.45593999997E+02  0.45594000000E+02  0.51100000000E-03 0.  1.
         11   -1    0    0    0    0 -0.00000000000E+00 -0.00000000000E+00 -0.45593999997E+02  0.45594000000E+02  0.51100000000E-03 0. -1.
    9900012    2    1    2    0    0 -0.35669972812E+02  0.99306352379E+01  0.22641969169E+02  0.47787271383E+02  0.20000001544E+02 0.  0.
         12    1    1    2    0    0  0.35669972812E+02 -0.99306352379E+01 -0.22641969169E+02  0.43400728617E+02  0.00000000000E+00 0. -1.
         11    1    3    3    0    0 -0.13758619581E+01 -0.29631524770E+01 -0.10942384128E+01  0.34453775838E+01  0.51100000000E-03 0. -1.
        -11    1    3    3    0    0 -0.10817758375E+02  0.66900349003E+01  0.49806136581E+01  0.13659684326E+02  0.51100000000E-03 0.  1.
        -12    1    3    3    0    0 -0.23476352479E+02  0.62037528145E+01  0.18755593924E+02  0.30682209473E+02  0.00000000000E+00 0.  1.
</event>
<event>
 7    1  0.1384886E-010  0.4778727E+02  0.7816164E-02  0.1312668E+00
        -11   -1    0    0    0    0  0.00000000000E+00  0.00000000000E+00  0.45593999997E+02  0.45594000000E+02  0.51100000000E-03 0. -1.
         11   -1    0    0    0    0 -0.00000000000E+00 -0.00000000000E+00 -0.45593999997E+02  0.45594000000E+02  0.51100000000E-03 0.  1.
    9900012    2    1    2    0    0  0.26486097715E+02 -0.25966622507E+02 -0.22535412304E+02  0.47787266547E+02  0.19999979493E+02 0.  0.
         12    1    1    2    0    0 -0.26486097715E+02  0.25966622507E+02  0.22535412304E+02  0.43400733453E+02  0.00000000000E+00 0. -1.
         11    1    3    3    0    0  0.16990913042E+02 -0.13422984397E+02 -0.15326098440E+02  0.26528417401E+02  0.51100000000E-03 0. -1.
        -11    1    3    3    0    0  0.70514469638E+01 -0.48111236409E+01 -0.95590407917E+01  0.12815813517E+02  0.51100000000E-03 0.  1.
         12    1    3    3    0    0  0.24437377091E+01 -0.77325144687E+01  0.23497269283E+01  0.84430356293E+01  0.00000000000E+00 0. -1.
</event>
<event>
 7    1  0.1384886E-010  0.4778727E+02  0.7816164E-02  0.1312668E+00
        -11   -1    0    0    0    0  0.00000000000E+00  0.00000000000E+00  0.45593999997E+02  0.45594000000E+02  0.51100000000E-03 0. -1.
         11   -1    0    0    0    0 -0.00000000000E+00 -0.00000000000E+00 -0.45593999997E+02  0.45594000000E+02  0.51100000000E-03 0.  1.
    9900012    2    1    2    0    0  0.19754236322E+02  0.37593321952E+02  0.89518445785E+01  0.47787271557E+02  0.20000002336E+02 0.  0.
         12    1    1    2    0    0 -0.19754236322E+02 -0.37593321952E+02 -0.89518445785E+01  0.43400728443E+02  0.00000000000E+00 0. -1.
         11    1    3    3    0    0  0.64842244519E+01  0.53786877025E+01  0.93551491999E+01  0.12589450542E+02  0.51100000000E-03 0. -1.
        -11    1    3    3    0    0  0.24683865534E+01  0.12205549348E+02  0.12287681417E+00  0.12453251224E+02  0.51100000000E-03 0.  1.
         12    1    3    3    0    0  0.10801625317E+02  0.20009084901E+02 -0.52618143549E+00  0.22744569791E+02  0.00000000000E+00 0. -1.
</event>
<event>
 7    1  0.1384886E-010  0.4778727E+02  0.7816164E-02  0.1312668E+00
        -11   -1    0    0    0    0  0.00000000000E+00  0.00000000000E+00  0.45593999997E+02  0.45594000000E+02  0.51100000000E-03 0.  1.
         11   -1    0    0    0    0 -0.00000000000E+00 -0.00000000000E+00 -0.45593999997E+02  0.45594000000E+02  0.51100000000E-03 0. -1.
    9900012    2    1    2    0    0  0.14588414668E+02  0.40862156032E+02  0.10419629472E+01  0.47787270456E+02  0.19999997319E+02 0.  0.
         12    1    1    2    0    0 -0.14588414668E+02 -0.40862156032E+02 -0.10419629472E+01  0.43400729544E+02  0.00000000000E+00 0. -1.
         11    1    3    3    0    0  0.78305368561E+01  0.21094162892E+02 -0.29180303226E+01  0.22689114500E+02  0.51100000000E-03 0. -1.
        -11    1    3    3    0    0  0.52235672664E+01  0.21696951350E+02  0.34669433901E+01  0.22584575480E+02  0.51100000000E-03 0.  1.
        -12    1    3    3    0    0  0.15343105456E+01 -0.19289582102E+01  0.49304987979E+00  0.25135804764E+01  0.00000000000E+00 0.  1.
</event>
<event>
 7    1  0.1384886E-010  0.4778727E+02  0.7816164E-02  0.1312668E+00
        -11   -1    0    0    0    0  0.00000000000E+00  0.00000000000E+00  0.45593999997E+02  0.45594000000E+02  0.51100000000E-03 0.  1.
         11   -1    0    0    0    0 -0.00000000000E+00 -0.00000000000E+00 -0.45593999997E+02  0.45594000000E+02  0.51100000000E-03 0. -1.
    9900012    2    1    2    0    0 -0.57111584687E+01 -0.42636089639E+02 -0.57593309855E+01  0.47787270005E+02  0.19999995260E+02 0.  0.
         12    1    1    2    0    0  0.57111584687E+01  0.42636089639E+02  0.57593309855E+01  0.43400729995E+02  0.00000000000E+00 0. -1.
         11    1    3    3    0    0 -0.29561173014E+01 -0.15186993759E+02 -0.80143285999E+01  0.17424490584E+02  0.51100000000E-03 0. -1.
        -11    1    3    3    0    0 -0.72778959774E+01 -0.21958265729E+02  0.23176223141E+01  0.23248754313E+02  0.51100000000E-03 0.  1.
        -12    1    3    3    0    0  0.45228548101E+01 -0.54908301504E+01 -0.62624699738E-01  0.71140251073E+01  0.00000000000E+00 0.  1.
</event>
<event>
 7    1  0.1384886E-010  0.4778727E+02  0.7816164E-02  0.1312668E+00
        -11   -1    0    0    0    0  0.00000000000E+00  0.00000000000E+00  0.45593999997E+02  0.45594000000E+02  0.51100000000E-03 0.  1.
         11   -1    0    0    0    0 -0.00000000000E+00 -0.00000000000E+00 -0.45593999997E+02  0.45594000000E+02  0.51100000000E-03 0. -1.
    9900012    2    1    2    0    0 -0.34132089703E+02  0.13516010342E+02  0.23150402454E+02  0.47787271701E+02  0.20000002994E+02 0.  0.
         12    1    1    2    0    0  0.34132089703E+02 -0.13516010342E+02 -0.23150402454E+02  0.43400728299E+02  0.00000000000E+00 0. -1.
         11    1    3    3    0    0 -0.12881528831E+02  0.51315221296E+00  0.13657666637E+02  0.18781080066E+02  0.51100000000E-03 0. -1.
        -11    1    3    3    0    0 -0.65209255073E+01  0.47256900834E+00 -0.15745025997E+01  0.67249423519E+01  0.51100000000E-03 0.  1.
        -12    1    3    3    0    0 -0.14729635365E+02  0.12530289121E+02  0.11067238417E+02  0.22281249283E+02  0.00000000000E+00 0.  1.
</event>
<event>
 7    1  0.1384886E-010  0.4778727E+02  0.7816164E-02  0.1312668E+00
        -11   -1    0    0    0    0  0.00000000000E+00  0.00000000000E+00  0.45593999997E+02  0.45594000000E+02  0.51100000000E-03 0.  1.
         11   -1    0    0    0    0 -0.00000000000E+00 -0.00000000000E+00 -0.45593999997E+02  0.45594000000E+02  0.51100000000E-03 0. -1.
    9900012    2    1    2    0    0 -0.83971313409E+00  0.82231731541E+01  0.42606311521E+02  0.47787268712E+02  0.19999989367E+02 0.  0.
         12    1    1    2    0    0  0.83971313409E+00 -0.82231731541E+01 -0.42606311521E+02  0.43400731288E+02  0.00000000000E+00 0. -1.
         11    1    3    3    0    0 -0.79187428368E+01  0.26026666030E+01  0.92536891440E+01  0.12454361670E+02  0.51100000000E-03 0. -1.
        -11    1    3    3    0    0  0.81874488727E+00 -0.11746750483E+01  0.11663834027E+01  0.18467959180E+01  0.51100000000E-03 0.  1.
        -12    1    3    3    0    0  0.62602848154E+01  0.67951815993E+01  0.32186238974E+02  0.33486111125E+02  0.00000000000E+00 0.  1.
</event>
<event>
 7    1  0.1384886E-010  0.4778728E+02  0.7816164E-02  0.1312668E+00
        -11   -1    0    0    0    0  0.00000000000E+00  0.00000000000E+00  0.45593999997E+02  0.45594000000E+02  0.51100000000E-03 0. -1.
         11   -1    0    0    0    0 -0.00000000000E+00 -0.00000000000E+00 -0.45593999997E+02  0.45594000000E+02  0.51100000000E-03 0.  1.
    9900012    2    1    2    0    0 -0.33998519788E+02  0.17702755081E+02 -0.20355234466E+02  0.47787280473E+02  0.20000042990E+02 0.  0.
         12    1    1    2    0    0  0.33998519788E+02 -0.17702755081E+02  0.20355234466E+02  0.43400719527E+02  0.00000000000E+00 0. -1.
         11    1    3    3    0    0 -0.54842665537E+00  0.58631621520E+01 -0.21625526214E+01  0.62732827386E+01  0.51100000000E-03 0.  1.
        -11    1    3    3    0    0 -0.21440355345E+02  0.10785628907E+02 -0.68445705215E+01  0.24957299015E+02  0.51100000000E-03 0. -1.
        -12    1    3    3    0    0 -0.12009737788E+02  0.10539640226E+01 -0.11348111323E+02  0.16556698720E+02  0.00000000000E+00 0.  1.
</event>
<event>
 7    1  0.1812461E-010  0.4778727E+02  0.7816164E-02  0.1312668E+00
        -11   -1    0    0    0    0  0.00000000000E+00  0.00000000000E+00  0.45593999997E+02  0.45594000000E+02  0.51100000000E-03 0. -1.
         11   -1    0    0    0    0 -0.00000000000E+00 -0.00000000000E+00 -0.45593999997E+02  0.45594000000E+02  0.51100000000E-03 0.  1.
    9900012    2    1    2    0    0  0.43220136584E+02  0.13995689755E+01 -0.36992396217E+01  0.47787269898E+02  0.19999994771E+02 0.  0.
         12    1    1    2    0    0 -0.43220136584E+02 -0.13995689755E+01  0.36992396217E+01  0.43400730102E+02  0.00000000000E+00 0. -1.
         11    1    3    3    0    0  0.22741598725E+01  0.11335680790E+01 -0.44613925908E+01  0.51342773421E+01  0.51100000000E-03 0. -1.
        -11    1    3    3    0    0  0.13567488858E+02 -0.31281220596E+01  0.48913552889E+01  0.14757616961E+02  0.51100000000E-03 0.  1.
        -12    1    3    3    0    0  0.27378487853E+02  0.33941229561E+01 -0.41292023199E+01  0.27895375595E+02  0.00000000000E+00 0.  1.
</event>
<event>
 7    1  0.1384886E-010  0.4778727E+02  0.7816164E-02  0.1312668E+00
        -11   -1    0    0    0    0  0.00000000000E+00  0.00000000000E+00  0.45593999997E+02  0.45594000000E+02  0.51100000000E-03 0.  1.
         11   -1    0    0    0    0 -0.00000000000E+00 -0.00000000000E+00 -0.45593999997E+02  0.45594000000E+02  0.51100000000E-03 0. -1.
    9900012    2    1    2    0    0 -0.39902641537E+00 -0.24584310859E+02  0.35764168868E+02  0.47787270314E+02  0.19999996670E+02 0.  0.
         12    1    1    2    0    0  0.39902641537E+00  0.24584310859E+02 -0.35764168868E+02  0.43400729686E+02  0.00000000000E+00 0. -1.
         11    1    3    3    0    0 -0.16929112087E+01  0.16420663975E+01  0.91474204158E+01  0.94465671511E+01  0.51100000000E-03 0. -1.
        -11    1    3    3    0    0  0.42948237560E-01 -0.77991973001E+01  0.29929204560E+01  0.83538551695E+01  0.51100000000E-03 0.  1.
        -12    1    3    3    0    0  0.12509365558E+01 -0.18427179956E+02  0.23623827996E+02  0.29986847993E+02  0.00000000000E+00 0.  1.
</event>
<event>
 7    1  0.1384886E-010  0.4778727E+02  0.7816164E-02  0.1312668E+00
        -11   -1    0    0    0    0  0.00000000000E+00  0.00000000000E+00  0.45593999997E+02  0.45594000000E+02  0.51100000000E-03 0.  1.
         11   -1    0    0    0    0 -0.00000000000E+00 -0.00000000000E+00 -0.45593999997E+02  0.45594000000E+02  0.51100000000E-03 0. -1.
    9900012    2    1    2    0    0  0.72246253653E+01  0.25216974819E+02  0.34576467944E+02  0.47787272285E+02  0.20000005656E+02 0.  0.
         12    1    1    2    0    0 -0.72246253653E+01 -0.25216974819E+02 -0.34576467944E+02  0.43400727715E+02  0.00000000000E+00 0. -1.
         11    1    3    3    0    0 -0.42043099983E+01  0.60952743847E+01  0.34707686868E+01  0.81777030959E+01  0.51100000000E-03 0. -1.
        -11    1    3    3    0    0  0.58860747341E+01  0.33018918147E+01  0.43266934515E+01  0.80167725312E+01  0.51100000000E-03 0.  1.
        -12    1    3    3    0    0  0.55428606294E+01  0.15819808620E+02  0.26779005806E+02  0.31592796658E+02  0.00000000000E+00 0.  1.
</event>
<event>
 7    1  0.1384886E-010  0.4778727E+02  0.7816164E-02  0.1312668E+00
        -11   -1    0    0    0    0  0.00000000000E+00  0.00000000000E+00  0.45593999997E+02  0.45594000000E+02  0.51100000000E-03 0.  1.
         11   -1    0    0    0    0 -0.00000000000E+00 -0.00000000000E+00 -0.45593999997E+02  0.45594000000E+02  0.51100000000E-03 0. -1.
    9900012    2    1    2    0    0 -0.11834918820E+02  0.23792915015E+02  0.34314069517E+02  0.47787268725E+02  0.19999989424E+02 0.  0.
         12    1    1    2    0    0  0.11834918820E+02 -0.23792915015E+02 -0.34314069517E+02  0.43400731275E+02  0.00000000000E+00 0. -1.
         11    1    3    3    0    0 -0.86273366866E+01  0.17317815232E+02  0.13680827313E+02  0.23696048172E+02  0.51100000000E-03 0. -1.
        -11    1    3    3    0    0 -0.11387224997E+01  0.81812783839E+01  0.19504901891E+02  0.21181860234E+02  0.51100000000E-03 0.  1.
         12    1    3    3    0    0 -0.20688596341E+01 -0.17061786012E+01  0.11283403129E+01  0.29093603191E+01  0.00000000000E+00 0. -1.
</event>
<event>
 7    1  0.1384886E-010  0.4778728E+02  0.7816164E-02  0.1312668E+00
        -11   -1    0    0    0    0  0.00000000000E+00  0.00000000000E+00  0.45593999997E+02  0.45594000000E+02  0.51100000000E-03 0.  1.
         11   -1    0    0    0    0 -0.00000000000E+00 -0.00000000000E+00 -0.45593999997E+02  0.45594000000E+02  0.51100000000E-03 0. -1.
    9900012    2    1    2    0    0  0.28577283347E+02 -0.24120992415E+02  0.22025879986E+02  0.47787276645E+02  0.20000025536E+02 0.  0.
         12    1    1    2    0    0 -0.28577283347E+02  0.24120992415E+02 -0.22025879986E+02  0.43400723355E+02  0.00000000000E+00 0. -1.
         11    1    3    3    0    0  0.14308601324E+02 -0.11301044195E+02  0.49361236700E+01  0.18889547080E+02  0.51100000000E-03 0. -1.
        -11    1    3    3    0    0  0.11872747114E+02 -0.19200253105E+01  0.10297768877E+02  0.15833277151E+02  0.51100000000E-03 0.  1.
         12    1    3    3    0    0  0.23959349095E+01 -0.10899922910E+02  0.67919874388E+01  0.13064452415E+02  0.00000000000E+00 0. -1.
</event>
<event>
 7    1  0.1384886E-010  0.4778727E+02  0.7816164E-02  0.1312668E+00
        -11   -1    0    0    0    0  0.00000000000E+00  0.00000000000E+00  0.45593999997E+02  0.45594000000E+02  0.51100000000E-03 0. -1.
         11   -1    0    0    0    0 -0.00000000000E+00 -0.00000000000E+00 -0.45593999997E+02  0.45594000000E+02  0.51100000000E-03 0.  1.
    9900012    2    1    2    0    0 -0.11006939376E+01 -0.16269686118E+01 -0.43356256649E+02  0.47787267925E+02  0.19999985779E+02 0.  0.
         12    1    1    2    0    0  0.11006939376E+01  0.16269686118E+01  0.43356256649E+02  0.43400732075E+02  0.00000000000E+00 0. -1.
         11    1    3    3    0    0 -0.22211622628E+01 -0.48483160800E+01 -0.11637807074E+02  0.12801495396E+02  0.51100000000E-03 0. -1.
        -11    1    3    3    0    0 -0.66096469829E+00  0.29791061798E+01 -0.32764148791E+02  0.32905947703E+02  0.51100000000E-03 0.  1.
         12    1    3    3    0    0  0.17814330235E+01  0.24224128838E+00  0.10456992164E+01  0.20798248268E+01  0.00000000000E+00 0. -1.
</event>
<event>
 7    1  0.1384886E-010  0.4778728E+02  0.7816164E-02  0.1312668E+00
        -11   -1    0    0    0    0  0.00000000000E+00  0.00000000000E+00  0.45593999997E+02  0.45594000000E+02  0.51100000000E-03 0. -1.
         11   -1    0    0    0    0 -0.00000000000E+00 -0.00000000000E+00 -0.45593999997E+02  0.45594000000E+02  0.51100000000E-03 0.  1.
    9900012    2    1    2    0    0 -0.18649737841E+02 -0.30478806908E+02 -0.24634374285E+02  0.47787276637E+02  0.20000025497E+02 0.  0.
         12    1    1    2    0    0  0.18649737841E+02  0.30478806908E+02  0.24634374285E+02  0.43400723363E+02  0.00000000000E+00 0. -1.
         11    1    3    3    0    0  0.17580978853E+01 -0.78477454864E+01 -0.56002592195E+01  0.98000469887E+01  0.51100000000E-03 0. -1.
        -11    1    3    3    0    0  0.14896946919E+01 -0.27709388491E+01 -0.77274244554E+00  0.32395097668E+01  0.51100000000E-03 0.  1.
        -12    1    3    3    0    0 -0.21897530418E+02 -0.19860122572E+02 -0.18261372620E+02  0.34747719881E+02  0.00000000000E+00 0.  1.
</event>
<event>
 7    1  0.1384886E-010  0.4778727E+02  0.7816164E-02  0.1312668E+00
        -11   -1    0    0    0    0  0.00000000000E+00  0.00000000000E+00  0.45593999997E+02  0.45594000000E+02  0.51100000000E-03 0. -1.
         11   -1    0    0    0    0 -0.00000000000E+00 -0.00000000000E+00 -0.45593999997E+02  0.45594000000E+02  0.51100000000E-03 0.  1.
    9900012    2    1    2    0    0 -0.27835385648E+01  0.22614573777E+02 -0.36938543526E+02  0.47787273833E+02  0.20000012712E+02 0.  0.
         12    1    1    2    0    0  0.27835385648E+01 -0.22614573777E+02  0.36938543526E+02  0.43400726167E+02  0.00000000000E+00 0. -1.
         11    1    3    3    0    0 -0.38159928111E+01  0.10898229143E+02 -0.79605460997E+01  0.14025102283E+02  0.51100000000E-03 0. -1.
        -11    1    3    3    0    0  0.65909431001E+01  0.61877903708E+01 -0.11675238649E+02  0.14766193768E+02  0.51100000000E-03 0.  1.
         12    1    3    3    0    0 -0.55584888538E+01  0.55285542631E+01 -0.17302758777E+02  0.18995977781E+02  0.00000000000E+00 0. -1.
</event>
<event>
 7    1  0.1384886E-010  0.4778727E+02  0.7816164E-02  0.1312668E+00
        -11   -1    0    0    0    0  0.00000000000E+00  0.00000000000E+00  0.45593999997E+02  0.45594000000E+02  0.51100000000E-03 0.  1.
         11   -1    0    0    0    0 -0.00000000000E+00 -0.00000000000E+00 -0.45593999997E+02  0.45594000000E+02  0.51100000000E-03 0. -1.
    9900012    2    1    2    0    0  0.12542425985E+02 -0.26393921983E+02  0.32088495159E+02  0.47787273177E+02  0.20000009722E+02 0.  0.
         12    1    1    2    0    0 -0.12542425985E+02  0.26393921983E+02 -0.32088495159E+02  0.43400726823E+02  0.00000000000E+00 0. -1.
         11    1    3    3    0    0 -0.20835252891E+01 -0.65952401777E+01  0.15239785905E+01  0.70824276656E+01  0.51100000000E-03 0. -1.
        -11    1    3    3    0    0  0.36554564300E+01 -0.83964375911E+01  0.19046791697E+02  0.21133925337E+02  0.51100000000E-03 0.  1.
        -12    1    3    3    0    0  0.10970494845E+02 -0.11402244214E+02  0.11517724871E+02  0.19570920174E+02  0.00000000000E+00 0.  1.
</event>
<event>
 7    1  0.1384886E-010  0.4778727E+02  0.7816164E-02  0.1312668E+00
        -11   -1    0    0    0    0  0.00000000000E+00  0.00000000000E+00  0.45593999997E+02  0.45594000000E+02  0.51100000000E-03 0.  1.
         11   -1    0    0    0    0 -0.00000000000E+00 -0.00000000000E+00 -0.45593999997E+02  0.45594000000E+02  0.51100000000E-03 0. -1.
    9900012    2    1    2    0    0  0.17995177883E+02 -0.14733280478E+02  0.36643242357E+02  0.47787271998E+02  0.20000004347E+02 0.  0.
         12    1    1    2    0    0 -0.17995177883E+02  0.14733280478E+02 -0.36643242357E+02  0.43400728002E+02  0.00000000000E+00 0. -1.
         11    1    3    3    0    0  0.53008289112E+01 -0.17924411304E+01  0.16334642943E+02  0.17266504935E+02  0.51100000000E-03 0. -1.
        -11    1    3    3    0    0  0.15707903882E+02 -0.11172656749E+02  0.16809102197E+02  0.25575621598E+02  0.51100000000E-03 0.  1.
         12    1    3    3    0    0 -0.30135549095E+01 -0.17681825987E+01  0.34994972170E+01  0.49451454647E+01  0.00000000000E+00 0. -1.
</event>
<event>
 7    1  0.1384886E-010  0.4778727E+02  0.7816164E-02  0.1312668E+00
        -11   -1    0    0    0    0  0.00000000000E+00  0.00000000000E+00  0.45593999997E+02  0.45594000000E+02  0.51100000000E-03 0.  1.
         11   -1    0    0    0    0 -0.00000000000E+00 -0.00000000000E+00 -0.45593999997E+02  0.45594000000E+02  0.51100000000E-03 0. -1.
    9900012    2    1    2    0    0 -0.18481395073E+02  0.34759508417E+02  0.18271233279E+02  0.47787270112E+02  0.19999995750E+02 0.  0.
         12    1    1    2    0    0  0.18481395073E+02 -0.34759508417E+02 -0.18271233279E+02  0.43400729888E+02  0.00000000000E+00 0. -1.
         11    1    3    3    0    0 -0.27368949059E+01  0.19339393597E+02  0.79388050962E+01  0.21083817610E+02  0.51100000000E-03 0.  1.
        -11    1    3    3    0    0 -0.11260559549E+02  0.13393902275E+02  0.28217963413E+01  0.17724541020E+02  0.51100000000E-03 0. -1.
         12    1    3    3    0    0 -0.44839406180E+01  0.20262125456E+01  0.75106318412E+01  0.89789114819E+01  0.00000000000E+00 0. -1.
</event>
<event>
 7    1  0.1384886E-010  0.4778727E+02  0.7816164E-02  0.1312668E+00
        -11   -1    0    0    0    0  0.00000000000E+00  0.00000000000E+00  0.45593999997E+02  0.45594000000E+02  0.51100000000E-03 0. -1.
         11   -1    0    0    0    0 -0.00000000000E+00 -0.00000000000E+00 -0.45593999997E+02  0.45594000000E+02  0.51100000000E-03 0.  1.
    9900012    2    1    2    0    0  0.65652296772E+01 -0.13591201057E+02 -0.40691525576E+02  0.47787271428E+02  0.20000001750E+02 0.  0.
         12    1    1    2    0    0 -0.65652296772E+01  0.13591201057E+02  0.40691525576E+02  0.43400728572E+02  0.00000000000E+00 0. -1.
         11    1    3    3    0    0  0.38886432851E+01 -0.17695478404E+02 -0.28898585226E+02  0.34108352803E+02  0.51100000000E-03 0. -1.
        -11    1    3    3    0    0  0.34409917063E+01  0.81319587678E+00 -0.55571182853E+01  0.65865981625E+01  0.51100000000E-03 0.  1.
         12    1    3    3    0    0 -0.76440531428E+00  0.32910814711E+01 -0.62358220641E+01  0.70923204629E+01  0.00000000000E+00 0. -1.
</event>
<event>
 7    1  0.1384886E-010  0.4778727E+02  0.7816164E-02  0.1312668E+00
        -11   -1    0    0    0    0  0.00000000000E+00  0.00000000000E+00  0.45593999997E+02  0.45594000000E+02  0.51100000000E-03 0. -1.
         11   -1    0    0    0    0 -0.00000000000E+00 -0.00000000000E+00 -0.45593999997E+02  0.45594000000E+02  0.51100000000E-03 0.  1.
    9900012    2    1    2    0    0  0.41859424889E+01 -0.34520318822E+02  0.25970153250E+02  0.47787269754E+02  0.19999994115E+02 0.  0.
         12    1    1    2    0    0 -0.41859424889E+01  0.34520318822E+02 -0.25970153250E+02  0.43400730246E+02  0.00000000000E+00 0. -1.
         11    1    3    3    0    0  0.11076259236E+01 -0.14114559229E+02  0.84140335930E+01  0.16469474156E+02  0.51100000000E-03 0.  1.
        -11    1    3    3    0    0 -0.66770663431E+00  0.22469399738E-01 -0.24144308771E+01  0.25051574291E+01  0.51100000000E-03 0. -1.
         12    1    3    3    0    0  0.37460231996E+01 -0.20428228993E+02  0.19970550534E+02  0.28812638168E+02  0.00000000000E+00 0. -1.
</event>
<event>
 7    1  0.1384886E-010  0.4778728E+02  0.7816164E-02  0.1312668E+00
        -11   -1    0    0    0    0  0.00000000000E+00  0.00000000000E+00  0.45593999997E+02  0.45594000000E+02  0.51100000000E-03 0.  1.
         11   -1    0    0    0    0 -0.00000000000E+00 -0.00000000000E+00 -0.45593999997E+02  0.45594000000E+02  0.51100000000E-03 0. -1.
    9900012    2    1    2    0    0 -0.31472084292E+02  0.80443860594E+00  0.29874456558E+02  0.47787281506E+02  0.20000047697E+02 0.  0.
         12    1    1    2    0    0  0.31472084292E+02 -0.80443860594E+00 -0.29874456558E+02  0.43400718494E+02  0.00000000000E+00 0. -1.
         11    1    3    3    0    0 -0.84077666688E+01  0.41239224443E+01  0.74828289281E+00  0.93945305488E+01  0.51100000000E-03 0. -1.
        -11    1    3    3    0    0 -0.53141900531E+01 -0.45766347092E+01  0.10553484847E+02  0.12671315790E+02  0.51100000000E-03 0.  1.
        -12    1    3    3    0    0 -0.17750127570E+02  0.12571508708E+01  0.18572688819E+02  0.25721435167E+02  0.00000000000E+00 0.  1.
</event>
<event>
 7    1  0.1384886E-010  0.4778727E+02  0.7816164E-02  0.1312668E+00
        -11   -1    0    0    0    0  0.00000000000E+00  0.00000000000E+00  0.45593999997E+02  0.45594000000E+02  0.51100000000E-03 0.  1.
         11   -1    0    0    0    0 -0.00000000000E+00 -0.00000000000E+00 -0.45593999997E+02  0.45594000000E+02  0.51100000000E-03 0. -1.
    9900012    2    1    2    0    0  0.59433726180E+00 -0.40243528991E+02  0.16239730830E+02  0.47787265907E+02  0.19999976576E+02 0.  0.
         12    1    1    2    0    0 -0.59433726180E+00  0.40243528991E+02 -0.16239730830E+02  0.43400734093E+02  0.00000000000E+00 0. -1.
         11    1    3    3    0    0  0.12166499250E+01 -0.71985338366E+01 -0.22373101614E+01  0.76357503532E+01  0.51100000000E-03 0. -1.
        -11    1    3    3    0    0  0.57144154015E+01 -0.19565739321E+02  0.13496403657E+02  0.24446382360E+02  0.51100000000E-03 0.  1.
         12    1    3    3    0    0 -0.63367280647E+01 -0.13479255833E+02  0.49806373343E+01  0.15705133194E+02  0.00000000000E+00 0. -1.
</event>
<event>
 7    1  0.1384886E-010  0.4778727E+02  0.7816164E-02  0.1312668E+00
        -11   -1    0    0    0    0  0.00000000000E+00  0.00000000000E+00  0.45593999997E+02  0.45594000000E+02  0.51100000000E-03 0. -1.
         11   -1    0    0    0    0 -0.00000000000E+00 -0.00000000000E+00 -0.45593999997E+02  0.45594000000E+02  0.51100000000E-03 0.  1.
    9900012    2    1    2    0    0 -0.42306631971E+02  0.94177981767E+01 -0.22532912724E+01  0.47787270135E+02  0.19999995855E+02 0.  0.
         12    1    1    2    0    0  0.42306631971E+02 -0.94177981767E+01  0.22532912724E+01  0.43400729865E+02  0.00000000000E+00 0. -1.
         11    1    3    3    0    0 -0.88586552859E+01  0.56107963140E+01 -0.54569868131E+01  0.11820977713E+02  0.51100000000E-03 0. -1.
        -11    1    3    3    0    0 -0.19772378828E+02  0.76963573660E+01  0.44999596569E+01  0.21689410282E+02  0.51100000000E-03 0.  1.
         12    1    3    3    0    0 -0.13675597857E+02 -0.38893555033E+01 -0.12962641163E+01  0.14276882140E+02  0.00000000000E+00 0. -1.
</event>
<event>
 7    1  0.1384886E-010  0.4778723E+02  0.7816164E-02  0.1312668E+00
        -11   -1    0    0    0    0  0.00000000000E+00  0.00000000000E+00  0.45593999997E+02  0.45594000000E+02  0.51100000000E-03 0. -1.
         11   -1    0    0    0    0 -0.00000000000E+00 -0.00000000000E+00 -0.45593999997E+02  0.45594000000E+02  0.51100000000E-03 0.  1.
    9900012    2    1    2    0    0 -0.23241946939E+02  0.26038524456E+02 -0.25796002537E+02  0.47787232722E+02  0.19999825273E+02 0.  0.
         12    1    1    2    0    0  0.23241946939E+02 -0.26038524456E+02  0.25796002537E+02  0.43400767278E+02  0.00000000000E+00 0. -1.
         11    1    3    3    0    0 -0.20823637457E+01 -0.89895429686E+00  0.18765857926E+01  0.29437955254E+01  0.51100000000E-03 0. -1.
        -11    1    3    3    0    0 -0.14508270485E+02  0.11622323863E+02 -0.14492757542E+02  0.23571345865E+02  0.51100000000E-03 0.  1.
        -12    1    3    3    0    0 -0.66513127088E+01  0.15315154890E+02 -0.13179830788E+02  0.21272091332E+02  0.00000000000E+00 0.  1.
</event>
<event>
 7    1  0.1384886E-010  0.4778727E+02  0.7816164E-02  0.1312668E+00
        -11   -1    0    0    0    0  0.00000000000E+00  0.00000000000E+00  0.45593999997E+02  0.45594000000E+02  0.51100000000E-03 0.  1.
         11   -1    0    0    0    0 -0.00000000000E+00 -0.00000000000E+00 -0.45593999997E+02  0.45594000000E+02  0.51100000000E-03 0. -1.
    9900012    2    1    2    0    0 -0.26992345644E+02 -0.27788237617E+02  0.19566572853E+02  0.47787266752E+02  0.19999980430E+02 0.  0.
         12    1    1    2    0    0  0.26992345644E+02  0.27788237617E+02 -0.19566572853E+02  0.43400733248E+02  0.00000000000E+00 0. -1.
         11    1    3    3    0    0 -0.22350338243E+00 -0.66169326886E+01 -0.14102988262E+01  0.67692462658E+01  0.51100000000E-03 0. -1.
        -11    1    3    3    0    0 -0.12099425466E+02 -0.43388208369E+01  0.64584522214E+01  0.14385168342E+02  0.51100000000E-03 0.  1.
        -12    1    3    3    0    0 -0.14669416796E+02 -0.16832484092E+02  0.14518419457E+02  0.26632852145E+02  0.00000000000E+00 0.  1.
</event>
<event>
 7    1  0.1384886E-010  0.4778727E+02  0.7816164E-02  0.1312668E+00
        -11   -1    0    0    0    0  0.00000000000E+00  0.00000000000E+00  0.45593999997E+02  0.45594000000E+02  0.51100000000E-03 0.  1.
         11   -1    0    0    0    0 -0.00000000000E+00 -0.00000000000E+00 -0.45593999997E+02  0.45594000000E+02  0.51100000000E-03 0. -1.
    9900012    2    1    2    0    0  0.11351100092E+02 -0.14249355595E+02  0.39392028475E+02  0.47787268260E+02  0.19999987304E+02 0.  0.
         12    1    1    2    0    0 -0.11351100092E+02  0.14249355595E+02 -0.39392028475E+02  0.43400731740E+02  0.00000000000E+00 0. -1.
         11    1    3    3    0    0  0.14174653704E+00 -0.21066417684E+01  0.16885078714E+02  0.17016577655E+02  0.51100000000E-03 0. -1.
        -11    1    3    3    0    0  0.26090303327E+01 -0.12048494395E+02  0.14333606720E+02  0.18905701212E+02  0.51100000000E-03 0.  1.
         12    1    3    3    0    0  0.86003232225E+01 -0.94219431648E-01  0.81733430407E+01  0.11864989393E+02  0.00000000000E+00 0. -1.
</event>
<event>
 7    1  0.1384886E-010  0.4778727E+02  0.7816164E-02  0.1312668E+00
        -11   -1    0    0    0    0  0.00000000000E+00  0.00000000000E+00  0.45593999997E+02  0.45594000000E+02  0.51100000000E-03 0. -1.
         11   -1    0    0    0    0 -0.00000000000E+00 -0.00000000000E+00 -0.45593999997E+02  0.45594000000E+02  0.51100000000E-03 0.  1.
    9900012    2    1    2    0    0 -0.51586867879E+01 -0.33725245404E+02 -0.26825715240E+02  0.47787271607E+02  0.20000002563E+02 0.  0.
         12    1    1    2    0    0  0.51586867879E+01  0.33725245404E+02  0.26825715240E+02  0.43400728393E+02  0.00000000000E+00 0. -1.
         11    1    3    3    0    0  0.21387365657E+01 -0.28942220384E+01 -0.97514508653E+01  0.10394301782E+02  0.51100000000E-03 0. -1.
        -11    1    3    3    0    0 -0.12791585377E+01 -0.19346697559E+02 -0.14407443202E+02  0.24155855872E+02  0.51100000000E-03 0.  1.
        -12    1    3    3    0    0 -0.60182648159E+01 -0.11484325807E+02 -0.26668211727E+01  0.13237113953E+02  0.00000000000E+00 0.  1.
</event>
<event>
 7    1  0.1384886E-010  0.4778727E+02  0.7816164E-02  0.1312668E+00
        -11   -1    0    0    0    0  0.00000000000E+00  0.00000000000E+00  0.45593999997E+02  0.45594000000E+02  0.51100000000E-03 0. -1.
         11   -1    0    0    0    0 -0.00000000000E+00 -0.00000000000E+00 -0.45593999997E+02  0.45594000000E+02  0.51100000000E-03 0.  1.
    9900012    2    1    2    0    0  0.31669727999E+02 -0.73565551575E+01 -0.28749486389E+02  0.47787267944E+02  0.19999985865E+02 0.  0.
         12    1    1    2    0    0 -0.31669727999E+02  0.73565551575E+01  0.28749486389E+02  0.43400732056E+02  0.00000000000E+00 0. -1.
         11    1    3    3    0    0  0.75060302734E+01  0.30956252802E+01 -0.10095938277E+02  0.12955746072E+02  0.51100000000E-03 0. -1.
        -11    1    3    3    0    0  0.19773807730E+01 -0.39113723202E+01  0.98104651682E+00  0.44912493449E+01  0.51100000000E-03 0.  1.
        -12    1    3    3    0    0  0.22186316953E+02 -0.65408081175E+01 -0.19634594630E+02  0.30340272527E+02  0.00000000000E+00 0.  1.
</event>
<event>
 7    1  0.1384886E-010  0.4778727E+02  0.7816164E-02  0.1312668E+00
        -11   -1    0    0    0    0  0.00000000000E+00  0.00000000000E+00  0.45593999997E+02  0.45594000000E+02  0.51100000000E-03 0.  1.
         11   -1    0    0    0    0 -0.00000000000E+00 -0.00000000000E+00 -0.45593999997E+02  0.45594000000E+02  0.51100000000E-03 0. -1.
    9900012    2    1    2    0    0  0.31320505739E+02  0.18135875423E+02  0.23952852835E+02  0.47787271710E+02  0.20000003035E+02 0.  0.
         12    1    1    2    0    0 -0.31320505739E+02 -0.18135875423E+02 -0.23952852835E+02  0.43400728290E+02  0.00000000000E+00 0. -1.
         11    1    3    3    0    0  0.82148717155E+00  0.30259031186E+01  0.32527060301E+01  0.45178565311E+01  0.51100000000E-03 0. -1.
        -11    1    3    3    0    0  0.81283619386E+01  0.13210181791E+02  0.93722507333E+01  0.18122313727E+02  0.51100000000E-03 0.  1.
         12    1    3    3    0    0  0.22370656629E+02  0.18997905138E+01  0.11327896072E+02  0.25147101452E+02  0.00000000000E+00 0. -1.
</event>
<event>
 7    1  0.1384886E-010  0.4778727E+02  0.7816164E-02  0.1312668E+00
        -11   -1    0    0    0    0  0.00000000000E+00  0.00000000000E+00  0.45593999997E+02  0.45594000000E+02  0.51100000000E-03 0.  1.
         11   -1    0    0    0    0 -0.00000000000E+00 -0.00000000000E+00 -0.45593999997E+02  0.45594000000E+02  0.51100000000E-03 0. -1.
    9900012    2    1    2    0    0  0.25860019204E+02 -0.11144552548E+02  0.33025470564E+02  0.47787270160E+02  0.19999995966E+02 0.  0.
         12    1    1    2    0    0 -0.25860019204E+02  0.11144552548E+02 -0.33025470564E+02  0.43400729840E+02  0.00000000000E+00 0. -1.
         11    1    3    3    0    0  0.28725984310E+01 -0.53930664566E+01  0.57003792486E+01  0.83565131120E+01  0.51100000000E-03 0. -1.
        -11    1    3    3    0    0  0.24237114363E+02 -0.20890151143E+01  0.25155311969E+02  0.34994162618E+02  0.51100000000E-03 0.  1.
        -12    1    3    3    0    0 -0.12496935902E+01 -0.36624709769E+01  0.21697793463E+01  0.44365944301E+01  0.00000000000E+00 0.  1.
</event>
<event>
 7    1  0.1384886E-010  0.4778728E+02  0.7816164E-02  0.1312668E+00
        -11   -1    0    0    0    0  0.00000000000E+00  0.00000000000E+00  0.45593999997E+02  0.45594000000E+02  0.51100000000E-03 0. -1.
         11   -1    0    0    0    0 -0.00000000000E+00 -0.00000000000E+00 -0.45593999997E+02  0.45594000000E+02  0.51100000000E-03 0.  1.
    9900012    2    1    2    0    0  0.25621416809E+02 -0.32830077587E+02 -0.12220946532E+02  0.47787279639E+02  0.20000039188E+02 0.  0.
         12    1    1    2    0    0 -0.25621416809E+02  0.32830077587E+02  0.12220946532E+02  0.43400720361E+02  0.00000000000E+00 0. -1.
         11    1    3    3    0    0  0.10822846061E+01 -0.30443078956E+01 -0.34862579120E+01  0.47532246972E+01  0.51100000000E-03 0. -1.
        -11    1    3    3    0    0  0.12152302362E+02 -0.48851206788E+01 -0.77216677121E+01  0.15204177362E+02  0.51100000000E-03 0.  1.
         12    1    3    3    0    0  0.12386829841E+02 -0.24900649013E+02 -0.10130209079E+01  0.27829877580E+02  0.00000000000E+00 0. -1.
</event>
<event>
 7    1  0.1384886E-010  0.4778727E+02  0.7816164E-02  0.1312668E+00
        -11   -1    0    0    0    0  0.00000000000E+00  0.00000000000E+00  0.45593999997E+02  0.45594000000E+02  0.51100000000E-03 0. -1.
         11   -1    0    0    0    0 -0.00000000000E+00 -0.00000000000E+00 -0.45593999997E+02  0.45594000000E+02  0.51100000000E-03 0.  1.
    9900012    2    1    2    0    0  0.38217979298E+02  0.20404882369E+02  0.25787659255E+01  0.47787271897E+02  0.20000003889E+02 0.  0.
         12    1    1    2    0    0 -0.38217979298E+02 -0.20404882369E+02 -0.25787659255E+01  0.43400728103E+02  0.00000000000E+00 0. -1.
         11    1    3    3    0    0  0.37136322115E+02  0.17204603737E+02  0.64684257275E+01  0.41436039164E+02  0.51100000000E-03 0. -1.
        -11    1    3    3    0    0  0.21794364351E+01  0.32562782650E+01 -0.29409543793E+01  0.48992350664E+01  0.51100000000E-03 0.  1.
        -12    1    3    3    0    0 -0.10977792520E+01 -0.55999632484E-01 -0.94870542268E+00  0.14519976666E+01  0.00000000000E+00 0.  1.
</event>
<event>
 7    1  0.1384886E-010  0.4778730E+02  0.7816164E-02  0.1312668E+00
        -11   -1    0    0    0    0  0.00000000000E+00  0.00000000000E+00  0.45593999997E+02  0.45594000000E+02  0.51100000000E-03 0. -1.
         11   -1    0    0    0    0 -0.00000000000E+00 -0.00000000000E+00 -0.45593999997E+02  0.45594000000E+02  0.51100000000E-03 0.  1.
    9900012    2    1    2    0    0 -0.37185003618E+02 -0.20110875060E+02  0.98208343965E+01  0.47787302102E+02  0.20000141605E+02 0.  0.
         12    1    1    2    0    0  0.37185003618E+02  0.20110875060E+02 -0.98208343965E+01  0.43400697898E+02  0.00000000000E+00 0. -1.
         11    1    3    3    0    0  0.14805755667E+01  0.15138619038E+01  0.92152595600E+00  0.23093488738E+01  0.51100000000E-03 0. -1.
        -11    1    3    3    0    0 -0.25818214540E+02 -0.11866672547E+02  0.67181855483E+01  0.29198152967E+02  0.51100000000E-03 0.  1.
        -12    1    3    3    0    0 -0.12847364646E+02 -0.97580644161E+01  0.21811228922E+01  0.16279800261E+02  0.00000000000E+00 0.  1.
</event>
<event>
 7    1  0.1384886E-010  0.4778727E+02  0.7816164E-02  0.1312668E+00
        -11   -1    0    0    0    0  0.00000000000E+00  0.00000000000E+00  0.45593999997E+02  0.45594000000E+02  0.51100000000E-03 0.  1.
         11   -1    0    0    0    0 -0.00000000000E+00 -0.00000000000E+00 -0.45593999997E+02  0.45594000000E+02  0.51100000000E-03 0. -1.
    9900012    2    1    2    0    0  0.30041775253E+01  0.65055907068E+01  0.42805086490E+02  0.47787271637E+02  0.20000002701E+02 0.  0.
         12    1    1    2    0    0 -0.30041775253E+01 -0.65055907068E+01 -0.42805086490E+02  0.43400728363E+02  0.00000000000E+00 0. -1.
         11    1    3    3    0    0  0.20932273804E+01 -0.41321043804E+01  0.57253553880E+01  0.73644811125E+01  0.51100000000E-03 0. -1.
        -11    1    3    3    0    0  0.63651828098E+01  0.58046450553E+01  0.23171678508E+02  0.24721167884E+02  0.51100000000E-03 0.  1.
        -12    1    3    3    0    0 -0.54542326649E+01  0.48330500319E+01  0.13908052594E+02  0.15701622640E+02  0.00000000000E+00 0.  1.
</event>
<event>
 7    1  0.1384886E-010  0.4778727E+02  0.7816164E-02  0.1312668E+00
        -11   -1    0    0    0    0  0.00000000000E+00  0.00000000000E+00  0.45593999997E+02  0.45594000000E+02  0.51100000000E-03 0.  1.
         11   -1    0    0    0    0 -0.00000000000E+00 -0.00000000000E+00 -0.45593999997E+02  0.45594000000E+02  0.51100000000E-03 0. -1.
    9900012    2    1    2    0    0 -0.19840946002E+02  0.26771324355E+02  0.27807484765E+02  0.47787272414E+02  0.20000006247E+02 0.  0.
         12    1    1    2    0    0  0.19840946002E+02 -0.26771324355E+02 -0.27807484765E+02  0.43400727586E+02  0.00000000000E+00 0. -1.
         11    1    3    3    0    0 -0.38148299839E+01 -0.71377083405E+00  0.99475014219E+00  0.40064853321E+01  0.51100000000E-03 0. -1.
        -11    1    3    3    0    0 -0.88444266798E+01  0.93704184142E+01  0.34126340814E+01  0.13329467213E+02  0.51100000000E-03 0.  1.
        -12    1    3    3    0    0 -0.71816893378E+01  0.18114676775E+02  0.23400100542E+02  0.30451319869E+02  0.00000000000E+00 0.  1.
</event>
<event>
 7    1  0.1384886E-010  0.4778727E+02  0.7816164E-02  0.1312668E+00
        -11   -1    0    0    0    0  0.00000000000E+00  0.00000000000E+00  0.45593999997E+02  0.45594000000E+02  0.51100000000E-03 0. -1.
         11   -1    0    0    0    0 -0.00000000000E+00 -0.00000000000E+00 -0.45593999997E+02  0.45594000000E+02  0.51100000000E-03 0.  1.
    9900012    2    1    2    0    0  0.25317996550E+01 -0.32960536870E+02 -0.28121450325E+02  0.47787274561E+02  0.20000016033E+02 0.  0.
         12    1    1    2    0    0 -0.25317996550E+01  0.32960536870E+02  0.28121450325E+02  0.43400725439E+02  0.00000000000E+00 0. -1.
         11    1    3    3    0    0  0.33877884185E+01 -0.88085772932E+01 -0.81510110065E+00  0.94727258149E+01  0.51100000000E-03 0. -1.
        -11    1    3    3    0    0  0.44920715384E+01 -0.18725791178E+02 -0.19407187385E+02  0.27339950336E+02  0.51100000000E-03 0.  1.
        -12    1    3    3    0    0 -0.53480603020E+01 -0.54261683989E+01 -0.78991618393E+01  0.10974598410E+02  0.00000000000E+00 0.  1.
</event>
<event>
 7    1  0.1384886E-010  0.4778727E+02  0.7816164E-02  0.1312668E+00
        -11   -1    0    0    0    0  0.00000000000E+00  0.00000000000E+00  0.45593999997E+02  0.45594000000E+02  0.51100000000E-03 0.  1.
         11   -1    0    0    0    0 -0.00000000000E+00 -0.00000000000E+00 -0.45593999997E+02  0.45594000000E+02  0.51100000000E-03 0. -1.
    9900012    2    1    2    0    0 -0.15187962270E+02  0.32101576046E+01  0.40529547702E+02  0.47787267901E+02  0.19999985670E+02 0.  0.
         12    1    1    2    0    0  0.15187962270E+02 -0.32101576046E+01 -0.40529547702E+02  0.43400732099E+02  0.00000000000E+00 0. -1.
         11    1    3    3    0    0  0.15764114304E+01  0.53570655075E+00  0.11773932150E+02  0.11891069466E+02  0.51100000000E-03 0. -1.
        -11    1    3    3    0    0 -0.14032583140E+02  0.20639044411E+01  0.29723687606E+02  0.32934339166E+02  0.51100000000E-03 0.  1.
        -12    1    3    3    0    0 -0.27317905603E+01  0.61054661274E+00 -0.96807205411E+00  0.29618592698E+01  0.00000000000E+00 0.  1.
</event>
<event>
 7    1  0.1703892E-010  0.4778727E+02  0.7816164E-02  0.1312668E+00
        -11   -1    0    0    0    0  0.00000000000E+00  0.00000000000E+00  0.45593999997E+02  0.45594000000E+02  0.51100000000E-03 0. -1.
         11   -1    0    0    0    0 -0.00000000000E+00 -0.00000000000E+00 -0.45593999997E+02  0.45594000000E+02  0.51100000000E-03 0.  1.
    9900012    2    1    2    0    0  0.33818796887E+01 -0.26314972992E+02 -0.34346881406E+02  0.47787272170E+02  0.20000005134E+02 0.  0.
         12    1    1    2    0    0 -0.33818796887E+01  0.26314972992E+02  0.34346881406E+02  0.43400727830E+02  0.00000000000E+00 0. -1.
         11    1    3    3    0    0  0.62627788851E+00 -0.51061472348E-01  0.97069657593E+00  0.11563232123E+01  0.51100000000E-03 0. -1.
        -11    1    3    3    0    0  0.57244924878E+01 -0.25220558280E+02 -0.25492055376E+02  0.36313788865E+02  0.51100000000E-03 0.  1.
        -12    1    3    3    0    0 -0.29688906876E+01 -0.10433532396E+01 -0.98255226062E+01  0.10317160093E+02  0.00000000000E+00 0.  1.
</event>
<event>
 7    1  0.1384886E-010  0.4778728E+02  0.7816164E-02  0.1312668E+00
        -11   -1    0    0    0    0  0.00000000000E+00  0.00000000000E+00  0.45593999997E+02  0.45594000000E+02  0.51100000000E-03 0.  1.
         11   -1    0    0    0    0 -0.00000000000E+00 -0.00000000000E+00 -0.45593999997E+02  0.45594000000E+02  0.51100000000E-03 0. -1.
    9900012    2    1    2    0    0 -0.16818765278E+02 -0.33645025991E+02  0.21650948612E+02  0.47787283241E+02  0.20000055608E+02 0.  0.
         12    1    1    2    0    0  0.16818765278E+02  0.33645025991E+02 -0.21650948612E+02  0.43400716759E+02  0.00000000000E+00 0. -1.
         11    1    3    3    0    0  0.25402569134E+01 -0.55344853405E+01  0.24060729018E+01  0.65477187050E+01  0.51100000000E-03 0. -1.
        -11    1    3    3    0    0 -0.96983498708E+01 -0.66905742414E+01  0.16778629787E+01  0.11901134330E+02  0.51100000000E-03 0.  1.
        -12    1    3    3    0    0 -0.96606723206E+01 -0.21419966409E+02  0.17567012731E+02  0.29338430206E+02  0.00000000000E+00 0.  1.
</event>
<event>
 7    1  0.1384886E-010  0.4778727E+02  0.7816164E-02  0.1312668E+00
        -11   -1    0    0    0    0  0.00000000000E+00  0.00000000000E+00  0.45593999997E+02  0.45594000000E+02  0.51100000000E-03 0. -1.
         11   -1    0    0    0    0 -0.00000000000E+00 -0.00000000000E+00 -0.45593999997E+02  0.45594000000E+02  0.51100000000E-03 0.  1.
    9900012    2    1    2    0    0  0.20651353902E+02 -0.11150566730E+02 -0.36507663800E+02  0.47787273364E+02  0.20000010577E+02 0.  0.
         12    1    1    2    0    0 -0.20651353902E+02  0.11150566730E+02  0.36507663800E+02  0.43400726636E+02  0.00000000000E+00 0. -1.
         11    1    3    3    0    0  0.72595619407E+01  0.69749165704E+00 -0.11057170511E+01  0.73763368036E+01  0.51100000000E-03 0. -1.
        -11    1    3    3    0    0  0.77324561006E+01 -0.74632756131E+01 -0.12858790457E+02  0.16758277134E+02  0.51100000000E-03 0.  1.
        -12    1    3    3    0    0  0.56593358607E+01 -0.43847827741E+01 -0.22543156291E+02  0.23652659426E+02  0.00000000000E+00 0.  1.
</event>
<event>
 7    1  0.1384886E-010  0.4778727E+02  0.7816164E-02  0.1312668E+00
        -11   -1    0    0    0    0  0.00000000000E+00  0.00000000000E+00  0.45593999997E+02  0.45594000000E+02  0.51100000000E-03 0.  1.
         11   -1    0    0    0    0 -0.00000000000E+00 -0.00000000000E+00 -0.45593999997E+02  0.45594000000E+02  0.51100000000E-03 0. -1.
    9900012    2    1    2    0    0  0.40072777391E+02 -0.14971984569E+02  0.73236237938E+01  0.47787271029E+02  0.19999999928E+02 0.  0.
         12    1    1    2    0    0 -0.40072777391E+02  0.14971984569E+02 -0.73236237938E+01  0.43400728971E+02  0.00000000000E+00 0. -1.
         11    1    3    3    0    0  0.97976949788E+01 -0.50081758053E+01  0.24788093221E+00  0.11006275347E+02  0.51100000000E-03 0. -1.
        -11    1    3    3    0    0  0.28727928938E+02 -0.79646189938E+01  0.11280840437E+02  0.31874541848E+02  0.51100000000E-03 0.  1.
         12    1    3    3    0    0  0.15471534741E+01 -0.19991897701E+01 -0.42050975750E+01  0.49064538340E+01  0.00000000000E+00 0. -1.
</event>
<event>
 7    1  0.1384886E-010  0.4778727E+02  0.7816164E-02  0.1312668E+00
        -11   -1    0    0    0    0  0.00000000000E+00  0.00000000000E+00  0.45593999997E+02  0.45594000000E+02  0.51100000000E-03 0.  1.
         11   -1    0    0    0    0 -0.00000000000E+00 -0.00000000000E+00 -0.45593999997E+02  0.45594000000E+02  0.51100000000E-03 0. -1.
    9900012    2    1    2    0    0  0.12067971357E+02  0.25534089981E+02  0.32954483523E+02  0.47787266503E+02  0.19999979292E+02 0.  0.
         12    1    1    2    0    0 -0.12067971357E+02 -0.25534089981E+02 -0.32954483523E+02  0.43400733497E+02  0.00000000000E+00 0. -1.
         11    1    3    3    0    0  0.54687555247E+01  0.59436934167E+01  0.14667901675E+02  0.16744614604E+02  0.51100000000E-03 0. -1.
        -11    1    3    3    0    0  0.34650937883E+01  0.16263874927E+02  0.20133842213E+02  0.26113063878E+02  0.51100000000E-03 0.  1.
         12    1    3    3    0    0  0.31341220442E+01  0.33265216377E+01 -0.18472603651E+01  0.49295880203E+01  0.00000000000E+00 0. -1.
</event>
<event>
 7    1  0.1384886E-010  0.4778727E+02  0.7816164E-02  0.1312668E+00
        -11   -1    0    0    0    0  0.00000000000E+00  0.00000000000E+00  0.45593999997E+02  0.45594000000E+02  0.51100000000E-03 0.  1.
         11   -1    0    0    0    0 -0.00000000000E+00 -0.00000000000E+00 -0.45593999997E+02  0.45594000000E+02  0.51100000000E-03 0. -1.
    9900012    2    1    2    0    0  0.11553927203E+02 -0.28138317081E+02  0.30957473369E+02  0.47787270981E+02  0.19999999711E+02 0.  0.
         12    1    1    2    0    0 -0.11553927203E+02  0.28138317081E+02 -0.30957473369E+02  0.43400729019E+02  0.00000000000E+00 0. -1.
         11    1    3    3    0    0 -0.13977500973E+01 -0.86679508459E-02 -0.41391446970E+00  0.14577743025E+01  0.51100000000E-03 0. -1.
        -11    1    3    3    0    0  0.11730748188E+02 -0.29655394098E+02  0.30690552771E+02  0.44260172636E+02  0.51100000000E-03 0.  1.
        -12    1    3    3    0    0  0.12209291115E+01  0.15257449677E+01  0.68083506835E+00  0.20693240423E+01  0.00000000000E+00 0.  1.
</event>
<event>
 7    1  0.1384886E-010  0.4778727E+02  0.7816164E-02  0.1312668E+00
        -11   -1    0    0    0    0  0.00000000000E+00  0.00000000000E+00  0.45593999997E+02  0.45594000000E+02  0.51100000000E-03 0. -1.
         11   -1    0    0    0    0 -0.00000000000E+00 -0.00000000000E+00 -0.45593999997E+02  0.45594000000E+02  0.51100000000E-03 0.  1.
    9900012    2    1    2    0    0  0.25723570312E+02 -0.13444769422E+02 -0.32267004531E+02  0.47787268718E+02  0.19999989393E+02 0.  0.
         12    1    1    2    0    0 -0.25723570312E+02  0.13444769422E+02  0.32267004531E+02  0.43400731282E+02  0.00000000000E+00 0. -1.
         11    1    3    3    0    0  0.22602410018E+01 -0.59022605195E+01 -0.41424090279E+01  0.75567798328E+01  0.51100000000E-03 0. -1.
        -11    1    3    3    0    0  0.19631147338E+01 -0.48321869230E+01 -0.12411408219E+02  0.13462797041E+02  0.51100000000E-03 0.  1.
        -12    1    3    3    0    0  0.21500214576E+02 -0.27103219799E+01 -0.15713187284E+02  0.26767691844E+02  0.00000000000E+00 0.  1.
</event>
<event>
 7    1  0.1384886E-010  0.4778727E+02  0.7816164E-02  0.1312668E+00
        -11   -1    0    0    0    0  0.00000000000E+00  0.00000000000E+00  0.45593999997E+02  0.45594000000E+02  0.51100000000E-03 0.  1.
         11   -1    0    0    0    0 -0.00000000000E+00 -0.00000000000E+00 -0.45593999997E+02  0.45594000000E+02  0.51100000000E-03 0. -1.
    9900012    2    1    2    0    0  0.12827320649E+02  0.39903752243E+02  0.11259396564E+02  0.47787267182E+02  0.19999982392E+02 0.  0.
         12    1    1    2    0    0 -0.12827320649E+02 -0.39903752243E+02 -0.11259396564E+02  0.43400732818E+02  0.00000000000E+00 0. -1.
         11    1    3    3    0    0  0.13125375154E+02  0.23570418444E+02  0.96014749389E+01  0.28636138354E+02  0.51100000000E-03 0. -1.
        -11    1    3    3    0    0 -0.17623506398E+01  0.41604672199E+01  0.46990977794E+01  0.65189636804E+01  0.51100000000E-03 0.  1.
         12    1    3    3    0    0  0.14642961351E+01  0.12172866580E+02 -0.30411761545E+01  0.12632165149E+02  0.00000000000E+00 0. -1.
</event>
<event>
 7    1  0.1384886E-010  0.4778727E+02  0.7816164E-02  0.1312668E+00
        -11   -1    0    0    0    0  0.00000000000E+00  0.00000000000E+00  0.45593999997E+02  0.45594000000E+02  0.51100000000E-03 0. -1.
         11   -1    0    0    0    0 -0.00000000000E+00 -0.00000000000E+00 -0.45593999997E+02  0.45594000000E+02  0.51100000000E-03 0.  1.
    9900012    2    1    2    0    0  0.40681330431E+02  0.15080311055E+02 -0.11121309240E+01  0.47787271177E+02  0.20000000604E+02 0.  0.
         12    1    1    2    0    0 -0.40681330431E+02 -0.15080311055E+02  0.11121309240E+01  0.43400728823E+02  0.00000000000E+00 0. -1.
         11    1    3    3    0    0  0.29876502424E+02  0.10305006807E+02  0.16804828593E+01  0.31648421529E+02  0.51100000000E-03 0. -1.
        -11    1    3    3    0    0  0.63846213508E+01  0.81099807367E+01 -0.12921630603E+01  0.10402156650E+02  0.51100000000E-03 0.  1.
         12    1    3    3    0    0  0.44202066567E+01 -0.33346764890E+01 -0.15004507231E+01  0.57366929974E+01  0.00000000000E+00 0. -1.
</event>
<event>
 7    1  0.1384886E-010  0.4778728E+02  0.7816164E-02  0.1312668E+00
        -11   -1    0    0    0    0  0.00000000000E+00  0.00000000000E+00  0.45593999997E+02  0.45594000000E+02  0.51100000000E-03 0. -1.
         11   -1    0    0    0    0 -0.00000000000E+00 -0.00000000000E+00 -0.45593999997E+02  0.45594000000E+02  0.51100000000E-03 0.  1.
    9900012    2    1    2    0    0 -0.32132232324E+02 -0.25653887073E+01 -0.29061336332E+02  0.47787276012E+02  0.20000022648E+02 0.  0.
         12    1    1    2    0    0  0.32132232324E+02  0.25653887073E+01  0.29061336332E+02  0.43400723988E+02  0.00000000000E+00 0. -1.
         11    1    3    3    0    0 -0.34552019082E+01  0.18917880493E+01 -0.13747781908E+02  0.14301006604E+02  0.51100000000E-03 0. -1.
        -11    1    3    3    0    0 -0.78018889050E+01 -0.18587532145E+01 -0.10929888129E+01  0.80943843993E+01  0.51100000000E-03 0.  1.
        -12    1    3    3    0    0 -0.20875141510E+02 -0.25984235421E+01 -0.14220565611E+02  0.25391885008E+02  0.00000000000E+00 0.  1.
</event>
<event>
 7    1  0.1384886E-010  0.4778727E+02  0.7816164E-02  0.1312668E+00
        -11   -1    0    0    0    0  0.00000000000E+00  0.00000000000E+00  0.45593999997E+02  0.45594000000E+02  0.51100000000E-03 0.  1.
         11   -1    0    0    0    0 -0.00000000000E+00 -0.00000000000E+00 -0.45593999997E+02  0.45594000000E+02  0.51100000000E-03 0. -1.
    9900012    2    1    2    0    0  0.52932770898E+00 -0.43326788848E+02  0.24764282975E+01  0.47787268246E+02  0.19999987240E+02 0.  0.
         12    1    1    2    0    0 -0.52932770898E+00  0.43326788848E+02 -0.24764282975E+01  0.43400731754E+02  0.00000000000E+00 0. -1.
         11    1    3    3    0    0  0.37219494790E+01 -0.19419887456E+02 -0.47394398401E+01  0.20333401757E+02  0.51100000000E-03 0.  1.
        -11    1    3    3    0    0  0.44823112979E+00  0.36862154049E+00  0.23610861637E+01  0.24313619886E+01  0.51100000000E-03 0. -1.
        -12    1    3    3    0    0 -0.36408528998E+01 -0.24275522932E+02  0.48547819739E+01  0.25022504501E+02  0.00000000000E+00 0.  1.
</event>
<event>
 7    1  0.1384886E-010  0.4778727E+02  0.7816164E-02  0.1312668E+00
        -11   -1    0    0    0    0  0.00000000000E+00  0.00000000000E+00  0.45593999997E+02  0.45594000000E+02  0.51100000000E-03 0.  1.
         11   -1    0    0    0    0 -0.00000000000E+00 -0.00000000000E+00 -0.45593999997E+02  0.45594000000E+02  0.51100000000E-03 0. -1.
    9900012    2    1    2    0    0 -0.11179895497E+02 -0.18862286253E+02  0.37454601795E+02  0.47787273029E+02  0.20000009050E+02 0.  0.
         12    1    1    2    0    0  0.11179895497E+02  0.18862286253E+02 -0.37454601795E+02  0.43400726971E+02  0.00000000000E+00 0. -1.
         11    1    3    3    0    0 -0.12779095421E+01  0.21751311828E+01  0.89814560986E+00  0.26778562803E+01  0.51100000000E-03 0. -1.
        -11    1    3    3    0    0 -0.47156031261E+01  0.34404046964E-01  0.70671015558E+01  0.84960003026E+01  0.51100000000E-03 0.  1.
         12    1    3    3    0    0 -0.51863828283E+01 -0.21071821483E+02  0.29489354629E+02  0.36613416446E+02  0.00000000000E+00 0. -1.
</event>
<event>
 7    1  0.1384886E-010  0.4778728E+02  0.7816164E-02  0.1312668E+00
        -11   -1    0    0    0    0  0.00000000000E+00  0.00000000000E+00  0.45593999997E+02  0.45594000000E+02  0.51100000000E-03 0.  1.
         11   -1    0    0    0    0 -0.00000000000E+00 -0.00000000000E+00 -0.45593999997E+02  0.45594000000E+02  0.51100000000E-03 0. -1.
    9900012    2    1    2    0    0 -0.10633971449E+02  0.42000511652E+02 -0.25492328027E+01  0.47787275171E+02  0.20000018813E+02 0.  0.
         12    1    1    2    0    0  0.10633971449E+02 -0.42000511652E+02  0.25492328027E+01  0.43400724829E+02  0.00000000000E+00 0. -1.
         11    1    3    3    0    0 -0.35560450127E+01  0.99614795478E+01  0.42962793198E+00  0.10585892090E+02  0.51100000000E-03 0.  1.
        -11    1    3    3    0    0 -0.12102257592E+02  0.15098620182E+02 -0.26297273960E+01  0.19528144732E+02  0.51100000000E-03 0. -1.
         12    1    3    3    0    0  0.50243311556E+01  0.16940411922E+02 -0.34913333871E+00  0.17673238349E+02  0.00000000000E+00 0. -1.
</event>
<event>
 7    1  0.1384886E-010  0.4778727E+02  0.7816164E-02  0.1312668E+00
        -11   -1    0    0    0    0  0.00000000000E+00  0.00000000000E+00  0.45593999997E+02  0.45594000000E+02  0.51100000000E-03 0.  1.
         11   -1    0    0    0    0 -0.00000000000E+00 -0.00000000000E+00 -0.45593999997E+02  0.45594000000E+02  0.51100000000E-03 0. -1.
    9900012    2    1    2    0    0 -0.29154196417E+02  0.18546172591E+02  0.26262060481E+02  0.47787268357E+02  0.19999987745E+02 0.  0.
         12    1    1    2    0    0  0.29154196417E+02 -0.18546172591E+02 -0.26262060481E+02  0.43400731643E+02  0.00000000000E+00 0. -1.
         11    1    3    3    0    0 -0.64246513367E+01  0.10495910842E+02  0.64768172467E+01  0.13906453578E+02  0.51100000000E-03 0. -1.
        -11    1    3    3    0    0 -0.80672918708E+01 -0.76654274315E+00  0.52746908452E+00  0.81207764285E+01  0.51100000000E-03 0.  1.
        -12    1    3    3    0    0 -0.14662253209E+02  0.88168044922E+01  0.19257774149E+02  0.25760038351E+02  0.00000000000E+00 0.  1.
</event>
<event>
 7    1  0.1384886E-010  0.4778727E+02  0.7816164E-02  0.1312668E+00
        -11   -1    0    0    0    0  0.00000000000E+00  0.00000000000E+00  0.45593999997E+02  0.45594000000E+02  0.51100000000E-03 0. -1.
         11   -1    0    0    0    0 -0.00000000000E+00 -0.00000000000E+00 -0.45593999997E+02  0.45594000000E+02  0.51100000000E-03 0.  1.
    9900012    2    1    2    0    0 -0.11952027303E+02  0.32391183075E+01 -0.41596637005E+02  0.47787273576E+02  0.20000011541E+02 0.  0.
         12    1    1    2    0    0  0.11952027303E+02 -0.32391183075E+01  0.41596637005E+02  0.43400726424E+02  0.00000000000E+00 0. -1.
         11    1    3    3    0    0  0.43501081189E+01 -0.36634678135E+01 -0.12246152931E+02  0.13502321983E+02  0.51100000000E-03 0. -1.
        -11    1    3    3    0    0 -0.60662218768E+01  0.22336021222E+01 -0.10305517114E+02  0.12165184321E+02  0.51100000000E-03 0.  1.
         12    1    3    3    0    0 -0.10235913545E+02  0.46689839988E+01 -0.19044966959E+02  0.22119767272E+02  0.00000000000E+00 0. -1.
</event>
<event>
 7    1  0.1384886E-010  0.4778727E+02  0.7816164E-02  0.1312668E+00
        -11   -1    0    0    0    0  0.00000000000E+00  0.00000000000E+00  0.45593999997E+02  0.45594000000E+02  0.51100000000E-03 0.  1.
         11   -1    0    0    0    0 -0.00000000000E+00 -0.00000000000E+00 -0.45593999997E+02  0.45594000000E+02  0.51100000000E-03 0. -1.
    9900012    2    1    2    0    0  0.32076318084E+02  0.28189038594E+02  0.77531670264E+01  0.47787266393E+02  0.19999978792E+02 0.  0.
         12    1    1    2    0    0 -0.32076318084E+02 -0.28189038594E+02 -0.77531670264E+01  0.43400733607E+02  0.00000000000E+00 0. -1.
         11    1    3    3    0    0  0.18240809561E+02  0.16566104461E+02  0.90467365814E+00  0.24657278543E+02  0.51100000000E-03 0. -1.
        -11    1    3    3    0    0  0.13160167166E+02  0.11540794113E+02  0.98277938233E+01  0.20073999609E+02  0.51100000000E-03 0.  1.
         12    1    3    3    0    0  0.67534135689E+00  0.82140020647E-01 -0.29793004550E+01  0.30559882416E+01  0.00000000000E+00 0. -1.
</event>
<event>
 7    1  0.1384886E-010  0.4778727E+02  0.7816164E-02  0.1312668E+00
        -11   -1    0    0    0    0  0.00000000000E+00  0.00000000000E+00  0.45593999997E+02  0.45594000000E+02  0.51100000000E-03 0. -1.
         11   -1    0    0    0    0 -0.00000000000E+00 -0.00000000000E+00 -0.45593999997E+02  0.45594000000E+02  0.51100000000E-03 0.  1.
    9900012    2    1    2    0    0 -0.43241457314E+02 -0.20884624220E+01 -0.30721336254E+01  0.47787270618E+02  0.19999998054E+02 0.  0.
         12    1    1    2    0    0  0.43241457314E+02  0.20884624220E+01  0.30721336254E+01  0.43400729382E+02  0.00000000000E+00 0. -1.
         11    1    3    3    0    0 -0.13476441085E+02 -0.67033589390E+01 -0.76454447273E+01  0.16882011454E+02  0.51100000000E-03 0. -1.
        -11    1    3    3    0    0 -0.13805233313E+02  0.37214283307E+01  0.69797051705E-01  0.14298194556E+02  0.51100000000E-03 0.  1.
         12    1    3    3    0    0 -0.15959782915E+02  0.89346818629E+00  0.45035140502E+01  0.16607064608E+02  0.00000000000E+00 0. -1.
</event>
<event>
 7    1  0.1384886E-010  0.4778727E+02  0.7816164E-02  0.1312668E+00
        -11   -1    0    0    0    0  0.00000000000E+00  0.00000000000E+00  0.45593999997E+02  0.45594000000E+02  0.51100000000E-03 0.  1.
         11   -1    0    0    0    0 -0.00000000000E+00 -0.00000000000E+00 -0.45593999997E+02  0.45594000000E+02  0.51100000000E-03 0. -1.
    9900012    2    1    2    0    0  0.11993304731E+02  0.38386530983E+02  0.16317423645E+02  0.47787269203E+02  0.19999991605E+02 0.  0.
         12    1    1    2    0    0 -0.11993304731E+02 -0.38386530983E+02 -0.16317423645E+02  0.43400730797E+02  0.00000000000E+00 0. -1.
         11    1    3    3    0    0  0.10236972374E+02  0.21475258625E+02  0.22631467751E+01  0.23897785880E+02  0.51100000000E-03 0.  1.
        -11    1    3    3    0    0 -0.13146151771E+01 -0.36081573314E+00  0.26073387908E+01  0.29422129237E+01  0.51100000000E-03 0. -1.
        -12    1    3    3    0    0  0.30709475341E+01  0.17272088091E+02  0.11446938079E+02  0.20947270399E+02  0.00000000000E+00 0.  1.
</event>
<event>
 7    1  0.1384886E-010  0.4778727E+02  0.7816164E-02  0.1312668E+00
        -11   -1    0    0    0    0  0.00000000000E+00  0.00000000000E+00  0.45593999997E+02  0.45594000000E+02  0.51100000000E-03 0. -1.
         11   -1    0    0    0    0 -0.00000000000E+00 -0.00000000000E+00 -0.45593999997E+02  0.45594000000E+02  0.51100000000E-03 0.  1.
    9900012    2    1    2    0    0  0.90729038657E+01  0.39861149734E+01 -0.42254188690E+02  0.47787272368E+02  0.20000006034E+02 0.  0.
         12    1    1    2    0    0 -0.90729038657E+01 -0.39861149734E+01  0.42254188690E+02  0.43400727632E+02  0.00000000000E+00 0. -1.
         11    1    3    3    0    0  0.67907988324E+01  0.52477701714E+01 -0.91712477339E+01  0.12560486687E+02  0.51100000000E-03 0. -1.
        -11    1    3    3    0    0 -0.29807211480E+01  0.35202678828E+01 -0.17506715105E+02  0.18104200025E+02  0.51100000000E-03 0.  1.
         12    1    3    3    0    0  0.52628261812E+01 -0.47819230807E+01 -0.15576225851E+02  0.17122585655E+02  0.00000000000E+00 0. -1.
</event>
<event>
 7    1  0.1384886E-010  0.4778728E+02  0.7816164E-02  0.1312668E+00
        -11   -1    0    0    0    0  0.00000000000E+00  0.00000000000E+00  0.45593999997E+02  0.45594000000E+02  0.51100000000E-03 0.  1.
         11   -1    0    0    0    0 -0.00000000000E+00 -0.00000000000E+00 -0.45593999997E+02  0.45594000000E+02  0.51100000000E-03 0. -1.
    9900012    2    1    2    0    0  0.38549836570E+02 -0.17406529619E+02  0.97234276251E+01  0.47787283212E+02  0.20000055475E+02 0.  0.
         12    1    1    2    0    0 -0.38549836570E+02  0.17406529619E+02 -0.97234276251E+01  0.43400716788E+02  0.00000000000E+00 0. -1.
         11    1    3    3    0    0  0.62745442321E+01 -0.50125910408E+01 -0.21438316610E+01  0.83121590886E+01  0.51100000000E-03 0. -1.
        -11    1    3    3    0    0  0.18663071080E+01 -0.46549682368E+01  0.55260057200E+01  0.74624775367E+01  0.51100000000E-03 0.  1.
        -12    1    3    3    0    0  0.30408985230E+02 -0.77389703411E+01  0.63412535661E+01  0.32012646586E+02  0.00000000000E+00 0.  1.
</event>
<event>
 7    1  0.1384886E-010  0.4778727E+02  0.7816164E-02  0.1312668E+00
        -11   -1    0    0    0    0  0.00000000000E+00  0.00000000000E+00  0.45593999997E+02  0.45594000000E+02  0.51100000000E-03 0.  1.
         11   -1    0    0    0    0 -0.00000000000E+00 -0.00000000000E+00 -0.45593999997E+02  0.45594000000E+02  0.51100000000E-03 0. -1.
    9900012    2    1    2    0    0 -0.35148165707E+02 -0.22444116409E+02  0.12020453967E+02  0.47787271579E+02  0.20000002436E+02 0.  0.
         12    1    1    2    0    0  0.35148165707E+02  0.22444116409E+02 -0.12020453967E+02  0.43400728421E+02  0.00000000000E+00 0. -1.
         11    1    3    3    0    0 -0.17393834227E+02 -0.10484930410E+02  0.11251880562E+02  0.23218183634E+02  0.51100000000E-03 0.  1.
        -11    1    3    3    0    0 -0.10276779458E+02 -0.11169946088E+02  0.49506342174E+01  0.15965233197E+02  0.51100000000E-03 0. -1.
        -12    1    3    3    0    0 -0.74775520223E+01 -0.78923991085E+00 -0.41820608118E+01  0.86038547476E+01  0.00000000000E+00 0.  1.
</event>
<event>
 7    1  0.1384886E-010  0.4778727E+02  0.7816164E-02  0.1312668E+00
        -11   -1    0    0    0    0  0.00000000000E+00  0.00000000000E+00  0.45593999997E+02  0.45594000000E+02  0.51100000000E-03 0.  1.
         11   -1    0    0    0    0 -0.00000000000E+00 -0.00000000000E+00 -0.45593999997E+02  0.45594000000E+02  0.51100000000E-03 0. -1.
    9900012    2    1    2    0    0  0.49156591279E+01  0.13776144271E+02  0.40861684089E+02  0.47787273253E+02  0.20000010069E+02 0.  0.
         12    1    1    2    0    0 -0.49156591279E+01 -0.13776144271E+02 -0.40861684089E+02  0.43400726747E+02  0.00000000000E+00 0. -1.
         11    1    3    3    0    0  0.29735697986E+01  0.50209545466E+01  0.48245160272E+00  0.58553276352E+01  0.51100000000E-03 0. -1.
        -11    1    3    3    0    0  0.37197681563E+01  0.55469171101E+01  0.16967016147E+02  0.18234160298E+02  0.51100000000E-03 0.  1.
         12    1    3    3    0    0 -0.17776788270E+01  0.32082726144E+01  0.23412216338E+02  0.23697785320E+02  0.00000000000E+00 0. -1.
</event>
<event>
 7    1  0.1384886E-010  0.4778727E+02  0.7816164E-02  0.1312668E+00
        -11   -1    0    0    0    0  0.00000000000E+00  0.00000000000E+00  0.45593999997E+02  0.45594000000E+02  0.51100000000E-03 0.  1.
         11   -1    0    0    0    0 -0.00000000000E+00 -0.00000000000E+00 -0.45593999997E+02  0.45594000000E+02  0.51100000000E-03 0. -1.
    9900012    2    1    2    0    0  0.25840149685E+02 -0.26908049807E+02  0.22178068322E+02  0.47787271957E+02  0.20000004161E+02 0.  0.
         12    1    1    2    0    0 -0.25840149685E+02  0.26908049807E+02 -0.22178068322E+02  0.43400728043E+02  0.00000000000E+00 0. -1.
         11    1    3    3    0    0  0.50413248303E+01 -0.15759461615E+02  0.12800529450E+02  0.20919587493E+02  0.51100000000E-03 0. -1.
        -11    1    3    3    0    0  0.13821184469E+02 -0.81047552320E+01  0.10523671835E+02  0.19169242725E+02  0.51100000000E-03 0.  1.
        -12    1    3    3    0    0  0.69776403859E+01 -0.30438329601E+01 -0.11461329621E+01  0.76984417392E+01  0.00000000000E+00 0.  1.
</event>
<event>
 7    1  0.1384886E-010  0.4778725E+02  0.7816164E-02  0.1312668E+00
        -11   -1    0    0    0    0  0.00000000000E+00  0.00000000000E+00  0.45593999997E+02  0.45594000000E+02  0.51100000000E-03 0.  1.
         11   -1    0    0    0    0 -0.00000000000E+00 -0.00000000000E+00 -0.45593999997E+02  0.45594000000E+02  0.51100000000E-03 0. -1.
    9900012    2    1    2    0    0 -0.33204337459E+02  0.23324942797E+02  0.15396244700E+02  0.47787247317E+02  0.19999891818E+02 0.  0.
         12    1    1    2    0    0  0.33204337459E+02 -0.23324942797E+02 -0.15396244700E+02  0.43400752683E+02  0.00000000000E+00 0. -1.
         11    1    3    3    0    0  0.21089539149E+00  0.10683523777E+00 -0.13684183095E+00  0.27316035950E+00  0.51100000000E-03 0. -1.
        -11    1    3    3    0    0 -0.27475922563E+02  0.16846307648E+02  0.19788640845E+02  0.37819501700E+02  0.51100000000E-03 0.  1.
         12    1    3    3    0    0 -0.59393102873E+01  0.63717999108E+01 -0.42555543146E+01  0.96945852576E+01  0.00000000000E+00 0. -1.
</event>
<event>
 7    1  0.1384886E-010  0.4778727E+02  0.7816164E-02  0.1312668E+00
        -11   -1    0    0    0    0  0.00000000000E+00  0.00000000000E+00  0.45593999997E+02  0.45594000000E+02  0.51100000000E-03 0.  1.
         11   -1    0    0    0    0 -0.00000000000E+00 -0.00000000000E+00 -0.45593999997E+02  0.45594000000E+02  0.51100000000E-03 0. -1.
    9900012    2    1    2    0    0  0.29442104277E+02  0.65398859495E+01  0.31209223874E+02  0.47787271120E+02  0.20000000346E+02 0.  0.
         12    1    1    2    0    0 -0.29442104277E+02 -0.65398859495E+01 -0.31209223874E+02  0.43400728880E+02  0.00000000000E+00 0. -1.
         11    1    3    3    0    0  0.98150916362E+01  0.35820145704E+01  0.34936066515E+01  0.11016902464E+02  0.51100000000E-03 0. -1.
        -11    1    3    3    0    0  0.25085969304E+01  0.43693942120E+01  0.13713592109E+02  0.14609834808E+02  0.51100000000E-03 0.  1.
         12    1    3    3    0    0  0.17118415710E+02 -0.14115228328E+01  0.14002025114E+02  0.22160533848E+02  0.00000000000E+00 0. -1.
</event>
<event>
 7    1  0.1414772E-010  0.4778727E+02  0.7816164E-02  0.1312668E+00
        -11   -1    0    0    0    0  0.00000000000E+00  0.00000000000E+00  0.45593999997E+02  0.45594000000E+02  0.51100000000E-03 0. -1.
         11   -1    0    0    0    0 -0.00000000000E+00 -0.00000000000E+00 -0.45593999997E+02  0.45594000000E+02  0.51100000000E-03 0.  1.
    9900012    2    1    2    0    0  0.43247456865E+02  0.22113046864E+01 -0.28967000174E+01  0.47787271150E+02  0.20000000483E+02 0.  0.
         12    1    1    2    0    0 -0.43247456865E+02 -0.22113046864E+01  0.28967000174E+01  0.43400728850E+02  0.00000000000E+00 0. -1.
         11    1    3    3    0    0  0.70195260658E+01 -0.16083037076E+01  0.44287710220E+01  0.84542533692E+01  0.51100000000E-03 0. -1.
        -11    1    3    3    0    0  0.19866744064E+02  0.77551594246E+01 -0.98235997066E+00  0.21349357104E+02  0.51100000000E-03 0.  1.
        -12    1    3    3    0    0  0.16361186735E+02 -0.39355510307E+01 -0.63431110687E+01  0.17983660677E+02  0.00000000000E+00 0.  1.
</event>
<event>
 7    1  0.1384886E-010  0.4778727E+02  0.7816164E-02  0.1312668E+00
        -11   -1    0    0    0    0  0.00000000000E+00  0.00000000000E+00  0.45593999997E+02  0.45594000000E+02  0.51100000000E-03 0.  1.
         11   -1    0    0    0    0 -0.00000000000E+00 -0.00000000000E+00 -0.45593999997E+02  0.45594000000E+02  0.51100000000E-03 0. -1.
    9900012    2    1    2    0    0  0.24039690636E+02  0.36105547146E+02  0.14511569295E+01  0.47787272851E+02  0.20000008239E+02 0.  0.
         12    1    1    2    0    0 -0.24039690636E+02 -0.36105547146E+02 -0.14511569295E+01  0.43400727149E+02  0.00000000000E+00 0. -1.
         11    1    3    3    0    0  0.45276504553E+01  0.11047487139E+02  0.32279493683E+01  0.12367952463E+02  0.51100000000E-03 0. -1.
        -11    1    3    3    0    0  0.22388243091E+01  0.12889264470E+02  0.36931519563E+01  0.13593558934E+02  0.51100000000E-03 0.  1.
         12    1    3    3    0    0  0.17273215872E+02  0.12168795536E+02 -0.54699443951E+01  0.21825761454E+02  0.00000000000E+00 0. -1.
</event>
<event>
 7    1  0.1384886E-010  0.4778727E+02  0.7816164E-02  0.1312668E+00
        -11   -1    0    0    0    0  0.00000000000E+00  0.00000000000E+00  0.45593999997E+02  0.45594000000E+02  0.51100000000E-03 0. -1.
         11   -1    0    0    0    0 -0.00000000000E+00 -0.00000000000E+00 -0.45593999997E+02  0.45594000000E+02  0.51100000000E-03 0.  1.
    9900012    2    1    2    0    0  0.41105490387E+02 -0.10781431069E+02 -0.88160465362E+01  0.47787271062E+02  0.20000000080E+02 0.  0.
         12    1    1    2    0    0 -0.41105490387E+02  0.10781431069E+02  0.88160465362E+01  0.43400728938E+02  0.00000000000E+00 0. -1.
         11    1    3    3    0    0  0.10514331736E+01 -0.45089741369E+01 -0.17538278442E+01  0.49509869576E+01  0.51100000000E-03 0. -1.
        -11    1    3    3    0    0  0.19777027312E+02  0.15253181349E+01 -0.72259869126E+01  0.21110951941E+02  0.51100000000E-03 0.  1.
         12    1    3    3    0    0  0.20277029901E+02 -0.77977750673E+01  0.16376822058E+00  0.21725332164E+02  0.00000000000E+00 0. -1.
</event>
<event>
 7    1  0.1384886E-010  0.4778727E+02  0.7816164E-02  0.1312668E+00
        -11   -1    0    0    0    0  0.00000000000E+00  0.00000000000E+00  0.45593999997E+02  0.45594000000E+02  0.51100000000E-03 0. -1.
         11   -1    0    0    0    0 -0.00000000000E+00 -0.00000000000E+00 -0.45593999997E+02  0.45594000000E+02  0.51100000000E-03 0.  1.
    9900012    2    1    2    0    0 -0.34042510223E+02 -0.21095576709E+02 -0.16724446121E+02  0.47787274695E+02  0.20000016643E+02 0.  0.
         12    1    1    2    0    0  0.34042510223E+02  0.21095576709E+02  0.16724446121E+02  0.43400725305E+02  0.00000000000E+00 0. -1.
         11    1    3    3    0    0  0.19192862512E+01 -0.99330064889E+00 -0.12015591984E+00  0.21644268524E+01  0.51100000000E-03 0. -1.
        -11    1    3    3    0    0 -0.16203656702E+02 -0.36563905172E+01 -0.45069178431E+01  0.17211623713E+02  0.51100000000E-03 0.  1.
        -12    1    3    3    0    0 -0.19758139773E+02 -0.16445885543E+02 -0.12097372358E+02  0.28411224129E+02  0.00000000000E+00 0.  1.
</event>
<event>
 7    1  0.1384886E-010  0.4778727E+02  0.7816164E-02  0.1312668E+00
        -11   -1    0    0    0    0  0.00000000000E+00  0.00000000000E+00  0.45593999997E+02  0.45594000000E+02  0.51100000000E-03 0. -1.
         11   -1    0    0    0    0 -0.00000000000E+00 -0.00000000000E+00 -0.45593999997E+02  0.45594000000E+02  0.51100000000E-03 0.  1.
    9900012    2    1    2    0    0  0.25679774068E+02  0.34912787909E+02 -0.22956233250E+01  0.47787269105E+02  0.19999991158E+02 0.  0.
         12    1    1    2    0    0 -0.25679774068E+02 -0.34912787909E+02  0.22956233250E+01  0.43400730895E+02  0.00000000000E+00 0. -1.
         11    1    3    3    0    0  0.10337000324E+02  0.26221817795E+02  0.34845911564E+01  0.28400346476E+02  0.51100000000E-03 0. -1.
        -11    1    3    3    0    0  0.13079750139E+01 -0.48591608636E+00 -0.15646002802E+01  0.20963986687E+01  0.51100000000E-03 0.  1.
        -12    1    3    3    0    0  0.14034798731E+02  0.91768862005E+01 -0.42156142011E+01  0.17290523961E+02  0.00000000000E+00 0.  1.
</event>
<event>
 7    1  0.1384886E-010  0.4778726E+02  0.7816164E-02  0.1312668E+00
        -11   -1    0    0    0    0  0.00000000000E+00  0.00000000000E+00  0.45593999997E+02  0.45594000000E+02  0.51100000000E-03 0.  1.
         11   -1    0    0    0    0 -0.00000000000E+00 -0.00000000000E+00 -0.45593999997E+02  0.45594000000E+02  0.51100000000E-03 0. -1.
    9900012    2    1    2    0    0  0.25763214807E+02 -0.28623716777E+02  0.20014088757E+02  0.47787260972E+02  0.19999954078E+02 0.  0.
         12    1    1    2    0    0 -0.25763214807E+02  0.28623716777E+02 -0.20014088757E+02  0.43400739028E+02  0.00000000000E+00 0. -1.
         11    1    3    3    0    0  0.78214220648E+01 -0.21933862638E+01 -0.20494608152E+01  0.83777011353E+01  0.51100000000E-03 0. -1.
        -11    1    3    3    0    0  0.62524739582E+01 -0.84885354585E+01  0.11258916586E+02  0.15424391974E+02  0.51100000000E-03 0.  1.
        -12    1    3    3    0    0  0.11689318784E+02 -0.17941795055E+02  0.10804632987E+02  0.23985167863E+02  0.00000000000E+00 0.  1.
</event>
<event>
 7    1  0.1384886E-010  0.4778727E+02  0.7816164E-02  0.1312668E+00
        -11   -1    0    0    0    0  0.00000000000E+00  0.00000000000E+00  0.45593999997E+02  0.45594000000E+02  0.51100000000E-03 0.  1.
         11   -1    0    0    0    0 -0.00000000000E+00 -0.00000000000E+00 -0.45593999997E+02  0.45594000000E+02  0.51100000000E-03 0. -1.
    9900012    2    1    2    0    0  0.30983172754E+02  0.30388428181E+02  0.45789089210E+00  0.47787271604E+02  0.20000002553E+02 0.  0.
         12    1    1    2    0    0 -0.30983172754E+02 -0.30388428181E+02 -0.45789089210E+00  0.43400728396E+02  0.00000000000E+00 0. -1.
         11    1    3    3    0    0  0.67693017201E+01  0.86961379299E+01  0.38242123938E+01  0.11664941550E+02  0.51100000000E-03 0. -1.
        -11    1    3    3    0    0  0.25536626324E+02  0.16224883016E+02 -0.37372793479E+01  0.30484969577E+02  0.51100000000E-03 0.  1.
        -12    1    3    3    0    0 -0.13227552905E+01  0.54674072349E+01  0.37095784620E+00  0.56373604776E+01  0.00000000000E+00 0.  1.
</event>
<event>
 7    1  0.1384886E-010  0.4778727E+02  0.7816164E-02  0.1312668E+00
        -11   -1    0    0    0    0  0.00000000000E+00  0.00000000000E+00  0.45593999997E+02  0.45594000000E+02  0.51100000000E-03 0.  1.
         11   -1    0    0    0    0 -0.00000000000E+00 -0.00000000000E+00 -0.45593999997E+02  0.45594000000E+02  0.51100000000E-03 0. -1.
    9900012    2    1    2    0    0  0.17989187653E+01  0.18311130167E+02  0.39307628859E+02  0.47787270936E+02  0.19999999507E+02 0.  0.
         12    1    1    2    0    0 -0.17989187653E+01 -0.18311130167E+02 -0.39307628859E+02  0.43400729064E+02  0.00000000000E+00 0. -1.
         11    1    3    3    0    0 -0.11195909064E+01  0.15473264939E+01 -0.65721058664E+00  0.20198091724E+01  0.51100000000E-03 0. -1.
        -11    1    3    3    0    0 -0.23930239644E+00  0.18631231580E+02  0.33649163507E+02  0.38463570567E+02  0.51100000000E-03 0.  1.
         12    1    3    3    0    0  0.31578120682E+01 -0.18674279066E+01  0.63156759392E+01  0.73038911967E+01  0.00000000000E+00 0. -1.
</event>
<event>
 7    1  0.1384886E-010  0.4778728E+02  0.7816164E-02  0.1312668E+00
        -11   -1    0    0    0    0  0.00000000000E+00  0.00000000000E+00  0.45593999997E+02  0.45594000000E+02  0.51100000000E-03 0. -1.
         11   -1    0    0    0    0 -0.00000000000E+00 -0.00000000000E+00 -0.45593999997E+02  0.45594000000E+02  0.51100000000E-03 0.  1.
    9900012    2    1    2    0    0 -0.27294845634E+02  0.20705856252E+02 -0.26643606461E+02  0.47787275967E+02  0.20000022444E+02 0.  0.
         12    1    1    2    0    0  0.27294845634E+02 -0.20705856252E+02  0.26643606461E+02  0.43400724033E+02  0.00000000000E+00 0. -1.
         11    1    3    3    0    0 -0.34760263731E+01  0.60987105667E+01 -0.11665777845E+02  0.13614969810E+02  0.51100000000E-03 0. -1.
        -11    1    3    3    0    0 -0.11612454332E+02  0.13905631051E+02 -0.63065274338E+01  0.19183012253E+02  0.51100000000E-03 0.  1.
         12    1    3    3    0    0 -0.12206364929E+02  0.70151463377E+00 -0.86713011825E+01  0.14989293905E+02  0.00000000000E+00 0. -1.
</event>
<event>
 7    1  0.1384886E-010  0.4778726E+02  0.7816164E-02  0.1312668E+00
        -11   -1    0    0    0    0  0.00000000000E+00  0.00000000000E+00  0.45593999997E+02  0.45594000000E+02  0.51100000000E-03 0. -1.
         11   -1    0    0    0    0 -0.00000000000E+00 -0.00000000000E+00 -0.45593999997E+02  0.45594000000E+02  0.51100000000E-03 0.  1.
    9900012    2    1    2    0    0  0.77342939179E+01  0.42618163616E+02  0.27380195297E+01  0.47787263562E+02  0.19999965884E+02 0.  0.
         12    1    1    2    0    0 -0.77342939179E+01 -0.42618163616E+02 -0.27380195297E+01  0.43400736438E+02  0.00000000000E+00 0. -1.
         11    1    3    3    0    0  0.23034769121E+01  0.29655493138E+00  0.21731026994E+01  0.31806172852E+01  0.51100000000E-03 0.  1.
        -11    1    3    3    0    0 -0.18382741276E+00  0.30904053113E+02  0.46303038697E+01  0.31249544085E+02  0.51100000000E-03 0. -1.
         12    1    3    3    0    0  0.56146444186E+01  0.11417555571E+02 -0.40653870394E+01  0.13357102191E+02  0.00000000000E+00 0. -1.
</event>
<event>
 7    1  0.1384886E-010  0.4778727E+02  0.7816164E-02  0.1312668E+00
        -11   -1    0    0    0    0  0.00000000000E+00  0.00000000000E+00  0.45593999997E+02  0.45594000000E+02  0.51100000000E-03 0.  1.
         11   -1    0    0    0    0 -0.00000000000E+00 -0.00000000000E+00 -0.45593999997E+02  0.45594000000E+02  0.51100000000E-03 0. -1.
    9900012    2    1    2    0    0 -0.14199182274E+02 -0.23830659114E+02  0.33378231728E+02  0.47787269081E+02  0.19999991046E+02 0.  0.
         12    1    1    2    0    0  0.14199182274E+02  0.23830659114E+02 -0.33378231728E+02  0.43400730919E+02  0.00000000000E+00 0. -1.
         11    1    3    3    0    0  0.18831290432E+01 -0.64848758767E+01  0.56180007519E+01  0.87841745679E+01  0.51100000000E-03 0. -1.
        -11    1    3    3    0    0 -0.15635234832E+02 -0.19325129298E+02  0.23159570004E+02  0.33974797625E+02  0.51100000000E-03 0.  1.
         12    1    3    3    0    0 -0.44707648474E+00  0.19793460605E+01  0.46006609717E+01  0.50282968873E+01  0.00000000000E+00 0. -1.
</event>
<event>
 7    1  0.1384886E-010  0.4778727E+02  0.7816164E-02  0.1312668E+00
        -11   -1    0    0    0    0  0.00000000000E+00  0.00000000000E+00  0.45593999997E+02  0.45594000000E+02  0.51100000000E-03 0.  1.
         11   -1    0    0    0    0 -0.00000000000E+00 -0.00000000000E+00 -0.45593999997E+02  0.45594000000E+02  0.51100000000E-03 0. -1.
    9900012    2    1    2    0    0  0.18738334588E+02  0.34798005212E+02  0.17933122916E+02  0.47787271349E+02  0.20000001390E+02 0.  0.
         12    1    1    2    0    0 -0.18738334588E+02 -0.34798005212E+02 -0.17933122916E+02  0.43400728651E+02  0.00000000000E+00 0. -1.
         11    1    3    3    0    0  0.37042371572E+01  0.80725212652E+01 -0.10735403744E+01  0.89464776135E+01  0.51100000000E-03 0. -1.
        -11    1    3    3    0    0  0.13392581062E+02  0.28285388959E+02  0.18928934239E+02  0.36574977891E+02  0.51100000000E-03 0.  1.
         12    1    3    3    0    0  0.16415163690E+01 -0.15599050120E+01  0.77729051801E-01  0.22658158446E+01  0.00000000000E+00 0. -1.
</event>
<event>
 7    1  0.1384886E-010  0.4778728E+02  0.7816164E-02  0.1312668E+00
        -11   -1    0    0    0    0  0.00000000000E+00  0.00000000000E+00  0.45593999997E+02  0.45594000000E+02  0.51100000000E-03 0. -1.
         11   -1    0    0    0    0 -0.00000000000E+00 -0.00000000000E+00 -0.45593999997E+02  0.45594000000E+02  0.51100000000E-03 0.  1.
    9900012    2    1    2    0    0  0.24893343069E+02  0.33524639094E+02 -0.11833959318E+02  0.47787279400E+02  0.20000038094E+02 0.  0.
         12    1    1    2    0    0 -0.24893343069E+02 -0.33524639094E+02  0.11833959318E+02  0.43400720600E+02  0.00000000000E+00 0. -1.
         11    1    3    3    0    0  0.88044415998E+01  0.19063663708E+02 -0.33346452159E+01  0.21261733815E+02  0.51100000000E-03 0. -1.
        -11    1    3    3    0    0  0.11000116784E+02  0.11106719728E+02 -0.11807976245E+02  0.19590561392E+02  0.51100000000E-03 0.  1.
         12    1    3    3    0    0  0.50887846847E+01  0.33542556579E+01  0.33086621423E+01  0.69349841930E+01  0.00000000000E+00 0. -1.
</event>
<event>
 7    1  0.1384886E-010  0.4778726E+02  0.7816164E-02  0.1312668E+00
        -11   -1    0    0    0    0  0.00000000000E+00  0.00000000000E+00  0.45593999997E+02  0.45594000000E+02  0.51100000000E-03 0.  1.
         11   -1    0    0    0    0 -0.00000000000E+00 -0.00000000000E+00 -0.45593999997E+02  0.45594000000E+02  0.51100000000E-03 0. -1.
    9900012    2    1    2    0    0 -0.12966546439E+02  0.41204898686E+02 -0.42010732778E+01  0.47787262460E+02  0.19999960862E+02 0.  0.
         12    1    1    2    0    0  0.12966546439E+02 -0.41204898686E+02  0.42010732778E+01  0.43400737540E+02  0.00000000000E+00 0. -1.
         11    1    3    3    0    0 -0.16459738191E+01  0.16674830473E+01  0.66827973342E+00  0.24364580008E+01  0.51100000000E-03 0. -1.
        -11    1    3    3    0    0  0.10651323209E+01 -0.16566419154E+01  0.41168024533E+00  0.20120760876E+01  0.51100000000E-03 0.  1.
         12    1    3    3    0    0 -0.12385704941E+02  0.41194057554E+02 -0.52810332566E+01  0.43338728372E+02  0.00000000000E+00 0. -1.
</event>
<event>
 7    1  0.1384886E-010  0.4778726E+02  0.7816164E-02  0.1312668E+00
        -11   -1    0    0    0    0  0.00000000000E+00  0.00000000000E+00  0.45593999997E+02  0.45594000000E+02  0.51100000000E-03 0. -1.
         11   -1    0    0    0    0 -0.00000000000E+00 -0.00000000000E+00 -0.45593999997E+02  0.45594000000E+02  0.51100000000E-03 0.  1.
    9900012    2    1    2    0    0  0.27481956509E+02  0.25341119429E+02  0.22049809111E+02  0.47787258655E+02  0.19999943511E+02 0.  0.
         12    1    1    2    0    0 -0.27481956509E+02 -0.25341119429E+02 -0.22049809111E+02  0.43400741345E+02  0.00000000000E+00 0. -1.
         11    1    3    3    0    0  0.54178536997E+01  0.16916282943E+02  0.14002527689E+02  0.22618234884E+02  0.51100000000E-03 0. -1.
        -11    1    3    3    0    0  0.11805265326E+02  0.46228078133E+01  0.60493054115E+01  0.14047374763E+02  0.51100000000E-03 0.  1.
         12    1    3    3    0    0  0.10258837483E+02  0.38020286730E+01  0.19979760107E+01  0.11121649008E+02  0.00000000000E+00 0. -1.
</event>
<event>
 7    1  0.1384886E-010  0.4778727E+02  0.7816164E-02  0.1312668E+00
        -11   -1    0    0    0    0  0.00000000000E+00  0.00000000000E+00  0.45593999997E+02  0.45594000000E+02  0.51100000000E-03 0.  1.
         11   -1    0    0    0    0 -0.00000000000E+00 -0.00000000000E+00 -0.45593999997E+02  0.45594000000E+02  0.51100000000E-03 0. -1.
    9900012    2    1    2    0    0 -0.31767422953E+02 -0.23927837991E+02 -0.17375632971E+02  0.47787271744E+02  0.20000003189E+02 0.  0.
         12    1    1    2    0    0  0.31767422953E+02  0.23927837991E+02  0.17375632971E+02  0.43400728256E+02  0.00000000000E+00 0. -1.
         11    1    3    3    0    0 -0.50618130175E+00 -0.15130158166E+01 -0.72003939847E+01  0.73750328926E+01  0.51100000000E-03 0. -1.
        -11    1    3    3    0    0 -0.10581313466E+02 -0.40116942947E+01 -0.15813840844E+01  0.11426226921E+02  0.51100000000E-03 0.  1.
        -12    1    3    3    0    0 -0.20679928185E+02 -0.18403127880E+02 -0.85938549023E+01  0.28986011930E+02  0.00000000000E+00 0.  1.
</event>
<event>
 7    1  0.1384886E-010  0.4778727E+02  0.7816164E-02  0.1312668E+00
        -11   -1    0    0    0    0  0.00000000000E+00  0.00000000000E+00  0.45593999997E+02  0.45594000000E+02  0.51100000000E-03 0. -1.
         11   -1    0    0    0    0 -0.00000000000E+00 -0.00000000000E+00 -0.45593999997E+02  0.45594000000E+02  0.51100000000E-03 0.  1.
    9900012    2    1    2    0    0 -0.44245451157E+00 -0.25575582660E+02 -0.35061617132E+02  0.47787272007E+02  0.20000004391E+02 0.  0.
         12    1    1    2    0    0  0.44245451157E+00  0.25575582660E+02  0.35061617132E+02  0.43400727993E+02  0.00000000000E+00 0. -1.
         11    1    3    3    0    0 -0.45281419574E+01 -0.18047414457E+02 -0.11265840572E+02  0.21751606889E+02  0.51100000000E-03 0. -1.
        -11    1    3    3    0    0 -0.12174780250E+01 -0.14019144241E+01 -0.87698470501E+01  0.89642531389E+01  0.51100000000E-03 0.  1.
        -12    1    3    3    0    0  0.53031654708E+01 -0.61262537785E+01 -0.15025929509E+02  0.17071411980E+02  0.00000000000E+00 0.  1.
</event>
<event>
 7    1  0.1384886E-010  0.4778727E+02  0.7816164E-02  0.1312668E+00
        -11   -1    0    0    0    0  0.00000000000E+00  0.00000000000E+00  0.45593999997E+02  0.45594000000E+02  0.51100000000E-03 0.  1.
         11   -1    0    0    0    0 -0.00000000000E+00 -0.00000000000E+00 -0.45593999997E+02  0.45594000000E+02  0.51100000000E-03 0. -1.
    9900012    2    1    2    0    0  0.22324086582E+02 -0.31600346779E+02  0.19664087078E+02  0.47787273291E+02  0.20000010243E+02 0.  0.
         12    1    1    2    0    0 -0.22324086582E+02  0.31600346779E+02 -0.19664087078E+02  0.43400726709E+02  0.00000000000E+00 0. -1.
         11    1    3    3    0    0  0.44172876426E+01 -0.66662268763E+00  0.20072901067E+01  0.48975534462E+01  0.51100000000E-03 0. -1.
        -11    1    3    3    0    0  0.14684053368E+02 -0.12718506291E+02  0.38427260425E+01  0.19802736409E+02  0.51100000000E-03 0.  1.
         12    1    3    3    0    0  0.32227455712E+01 -0.18215217800E+02  0.13814070929E+02  0.23086983436E+02  0.00000000000E+00 0. -1.
</event>
<event>
 7    1  0.1384886E-010  0.4778726E+02  0.7816164E-02  0.1312668E+00
        -11   -1    0    0    0    0  0.00000000000E+00  0.00000000000E+00  0.45593999997E+02  0.45594000000E+02  0.51100000000E-03 0.  1.
         11   -1    0    0    0    0 -0.00000000000E+00 -0.00000000000E+00 -0.45593999997E+02  0.45594000000E+02  0.51100000000E-03 0. -1.
    9900012    2    1    2    0    0 -0.21993609094E+01  0.32361386048E+02  0.28836218932E+02  0.47787262476E+02  0.19999960932E+02 0.  0.
         12    1    1    2    0    0  0.21993609094E+01 -0.32361386048E+02 -0.28836218932E+02  0.43400737524E+02  0.00000000000E+00 0. -1.
         11    1    3    3    0    0 -0.66720815289E+01  0.10810085203E+02  0.15042391005E+02  0.19688782122E+02  0.51100000000E-03 0. -1.
        -11    1    3    3    0    0  0.51033119291E+01  0.55084435697E+01  0.81455714350E+01  0.11078676702E+02  0.51100000000E-03 0.  1.
         12    1    3    3    0    0 -0.63059130965E+00  0.16042857275E+02  0.56482564918E+01  0.17019803652E+02  0.00000000000E+00 0. -1.
</event>
<event>
 7    1  0.1384886E-010  0.4778727E+02  0.7816164E-02  0.1312668E+00
        -11   -1    0    0    0    0  0.00000000000E+00  0.00000000000E+00  0.45593999997E+02  0.45594000000E+02  0.51100000000E-03 0.  1.
         11   -1    0    0    0    0 -0.00000000000E+00 -0.00000000000E+00 -0.45593999997E+02  0.45594000000E+02  0.51100000000E-03 0. -1.
    9900012    2    1    2    0    0 -0.17868396081E+02  0.15016545869E+02  0.36590259379E+02  0.47787270631E+02  0.19999998113E+02 0.  0.
         12    1    1    2    0    0  0.17868396081E+02 -0.15016545869E+02 -0.36590259379E+02  0.43400729369E+02  0.00000000000E+00 0. -1.
         11    1    3    3    0    0 -0.17464578570E+02  0.11042857738E+02  0.36835794439E+02  0.42235434932E+02  0.51100000000E-03 0.  1.
        -11    1    3    3    0    0  0.14575031434E+01  0.20491032639E+01  0.85655639002E+00  0.26564692186E+01  0.51100000000E-03 0. -1.
        -12    1    3    3    0    0 -0.18613206541E+01  0.19245848675E+01 -0.11020914501E+01  0.28953664801E+01  0.00000000000E+00 0.  1.
</event>
<event>
 7    1  0.1384886E-010  0.4778726E+02  0.7816164E-02  0.1312668E+00
        -11   -1    0    0    0    0  0.00000000000E+00  0.00000000000E+00  0.45593999997E+02  0.45594000000E+02  0.51100000000E-03 0. -1.
         11   -1    0    0    0    0 -0.00000000000E+00 -0.00000000000E+00 -0.45593999997E+02  0.45594000000E+02  0.51100000000E-03 0.  1.
    9900012    2    1    2    0    0 -0.17019340257E+02  0.28774809510E+02  0.27676279099E+02  0.47787262334E+02  0.19999960288E+02 0.  0.
         12    1    1    2    0    0  0.17019340257E+02 -0.28774809510E+02 -0.27676279099E+02  0.43400737666E+02  0.00000000000E+00 0. -1.
         11    1    3    3    0    0 -0.39337364905E+01  0.95132869836E+01  0.12703243148E+02  0.16350819513E+02  0.51100000000E-03 0.  1.
        -11    1    3    3    0    0 -0.11593030505E+02  0.20528269155E+02  0.16647109974E+02  0.28860603970E+02  0.51100000000E-03 0. -1.
         12    1    3    3    0    0 -0.14925732619E+01 -0.12667466276E+01 -0.16740740221E+01  0.25758388521E+01  0.00000000000E+00 0. -1.
</event>
<event>
 7    1  0.1384886E-010  0.4778727E+02  0.7816164E-02  0.1312668E+00
        -11   -1    0    0    0    0  0.00000000000E+00  0.00000000000E+00  0.45593999997E+02  0.45594000000E+02  0.51100000000E-03 0.  1.
         11   -1    0    0    0    0 -0.00000000000E+00 -0.00000000000E+00 -0.45593999997E+02  0.45594000000E+02  0.51100000000E-03 0. -1.
    9900012    2    1    2    0    0 -0.39812037370E+02  0.16777698710E+02  0.41393006347E+01  0.47787270706E+02  0.19999998456E+02 0.  0.
         12    1    1    2    0    0  0.39812037370E+02 -0.16777698710E+02 -0.41393006347E+01  0.43400729294E+02  0.00000000000E+00 0. -1.
         11    1    3    3    0    0 -0.30055353993E+01 -0.38635237904E+01  0.10565122216E+01  0.50076219357E+01  0.51100000000E-03 0. -1.
        -11    1    3    3    0    0 -0.14524143765E+02  0.83837958147E+01 -0.18583906162E+01  0.16872830240E+02  0.51100000000E-03 0.  1.
        -12    1    3    3    0    0 -0.22282358206E+02  0.12257426685E+02  0.49411790293E+01  0.25906818530E+02  0.00000000000E+00 0.  1.
</event>
<event>
 7    1  0.1384886E-010  0.4778728E+02  0.7816164E-02  0.1312668E+00
        -11   -1    0    0    0    0  0.00000000000E+00  0.00000000000E+00  0.45593999997E+02  0.45594000000E+02  0.51100000000E-03 0. -1.
         11   -1    0    0    0    0 -0.00000000000E+00 -0.00000000000E+00 -0.45593999997E+02  0.45594000000E+02  0.51100000000E-03 0.  1.
    9900012    2    1    2    0    0  0.10575446790E+02 -0.23005228930E+01 -0.42029637135E+02  0.47787275604E+02  0.20000020791E+02 0.  0.
         12    1    1    2    0    0 -0.10575446790E+02  0.23005228930E+01  0.42029637135E+02  0.43400724396E+02  0.00000000000E+00 0. -1.
         11    1    3    3    0    0  0.80260322924E+01  0.62901703455E+01 -0.13579269384E+02  0.16981754756E+02  0.51100000000E-03 0. -1.
        -11    1    3    3    0    0 -0.10841920520E+01 -0.34411502280E+01 -0.33408839846E+01  0.49171631412E+01  0.51100000000E-03 0.  1.
        -12    1    3    3    0    0  0.36336065494E+01 -0.51495430105E+01 -0.25109483766E+02  0.25888357707E+02  0.00000000000E+00 0.  1.
</event>
<event>
 7    1  0.1384886E-010  0.4778727E+02  0.7816164E-02  0.1312668E+00
        -11   -1    0    0    0    0  0.00000000000E+00  0.00000000000E+00  0.45593999997E+02  0.45594000000E+02  0.51100000000E-03 0.  1.
         11   -1    0    0    0    0 -0.00000000000E+00 -0.00000000000E+00 -0.45593999997E+02  0.45594000000E+02  0.51100000000E-03 0. -1.
    9900012    2    1    2    0    0  0.23835057762E+02 -0.20089209011E+02  0.30198298847E+02  0.47787267858E+02  0.19999985473E+02 0.  0.
         12    1    1    2    0    0 -0.23835057762E+02  0.20089209011E+02 -0.30198298847E+02  0.43400732142E+02  0.00000000000E+00 0. -1.
         11    1    3    3    0    0  0.79983784135E+01 -0.50585199228E+01  0.16908411090E+02  0.19376714038E+02  0.51100000000E-03 0. -1.
        -11    1    3    3    0    0  0.13848444238E+02 -0.50901896891E+01  0.60166452961E+01  0.15933909117E+02  0.51100000000E-03 0.  1.
        -12    1    3    3    0    0  0.19882351108E+01 -0.99404993989E+01  0.72732424607E+01  0.12476644703E+02  0.00000000000E+00 0.  1.
</event>
<event>
 7    1  0.1384886E-010  0.4778727E+02  0.7816164E-02  0.1312668E+00
        -11   -1    0    0    0    0  0.00000000000E+00  0.00000000000E+00  0.45593999997E+02  0.45594000000E+02  0.51100000000E-03 0. -1.
         11   -1    0    0    0    0 -0.00000000000E+00 -0.00000000000E+00 -0.45593999997E+02  0.45594000000E+02  0.51100000000E-03 0.  1.
    9900012    2    1    2    0    0 -0.15428173169E+02  0.37928442980E+02 -0.14388465557E+02  0.47787271258E+02  0.20000000974E+02 0.  0.
         12    1    1    2    0    0  0.15428173169E+02 -0.37928442980E+02  0.14388465557E+02  0.43400728742E+02  0.00000000000E+00 0. -1.
         11    1    3    3    0    0 -0.93319786405E+01  0.20460569742E+02 -0.91802848811E+01  0.24289882056E+02  0.51100000000E-03 0. -1.
        -11    1    3    3    0    0 -0.60202597953E+01  0.63210413448E+00 -0.90919570734E+00  0.61212515661E+01  0.51100000000E-03 0.  1.
         12    1    3    3    0    0 -0.75934733000E-01  0.16835769104E+02 -0.42989849685E+01  0.17376137637E+02  0.00000000000E+00 0. -1.
</event>
<event>
 7    1  0.1384886E-010  0.4778727E+02  0.7816164E-02  0.1312668E+00
        -11   -1    0    0    0    0  0.00000000000E+00  0.00000000000E+00  0.45593999997E+02  0.45594000000E+02  0.51100000000E-03 0.  1.
         11   -1    0    0    0    0 -0.00000000000E+00 -0.00000000000E+00 -0.45593999997E+02  0.45594000000E+02  0.51100000000E-03 0. -1.
    9900012    2    1    2    0    0 -0.14162155860E+02 -0.14860995652E+02  0.38238822242E+02  0.47787269858E+02  0.19999994592E+02 0.  0.
         12    1    1    2    0    0  0.14162155860E+02  0.14860995652E+02 -0.38238822242E+02  0.43400730142E+02  0.00000000000E+00 0. -1.
         11    1    3    3    0    0 -0.62338078934E+00 -0.50057012120E+00  0.10913946820E+02  0.10943190097E+02  0.51100000000E-03 0. -1.
        -11    1    3    3    0    0 -0.64072128797E+01 -0.12296720726E+02  0.76967279826E+01  0.15858793756E+02  0.51100000000E-03 0.  1.
         12    1    3    3    0    0 -0.71315621912E+01 -0.20637048053E+01  0.19628147439E+02  0.20985286005E+02  0.00000000000E+00 0. -1.
</event>
<event>
 7    1  0.1384886E-010  0.4778726E+02  0.7816164E-02  0.1312668E+00
        -11   -1    0    0    0    0  0.00000000000E+00  0.00000000000E+00  0.45593999997E+02  0.45594000000E+02  0.51100000000E-03 0.  1.
         11   -1    0    0    0    0 -0.00000000000E+00 -0.00000000000E+00 -0.45593999997E+02  0.45594000000E+02  0.51100000000E-03 0. -1.
    9900012    2    1    2    0    0 -0.15524953754E+02  0.36049325929E+02  0.18521497251E+02  0.47787263262E+02  0.19999964517E+02 0.  0.
         12    1    1    2    0    0  0.15524953754E+02 -0.36049325929E+02 -0.18521497251E+02  0.43400736738E+02  0.00000000000E+00 0. -1.
         11    1    3    3    0    0 -0.10717006395E+02  0.57711974915E+01  0.50089217216E+01  0.13162455836E+02  0.51100000000E-03 0. -1.
        -11    1    3    3    0    0  0.24039702357E+01  0.86141958984E+01  0.50743837763E+01  0.10282646296E+02  0.51100000000E-03 0.  1.
        -12    1    3    3    0    0 -0.72119175948E+01  0.21663932539E+02  0.84381917529E+01  0.24342161130E+02  0.00000000000E+00 0.  1.
</event>
<event>
 7    1  0.1384886E-010  0.4778727E+02  0.7816164E-02  0.1312668E+00
        -11   -1    0    0    0    0  0.00000000000E+00  0.00000000000E+00  0.45593999997E+02  0.45594000000E+02  0.51100000000E-03 0.  1.
         11   -1    0    0    0    0 -0.00000000000E+00 -0.00000000000E+00 -0.45593999997E+02  0.45594000000E+02  0.51100000000E-03 0. -1.
    9900012    2    1    2    0    0 -0.27324250188E+02  0.10449539020E+02  0.32059567269E+02  0.47787269965E+02  0.19999995079E+02 0.  0.
         12    1    1    2    0    0  0.27324250188E+02 -0.10449539020E+02 -0.32059567269E+02  0.43400730035E+02  0.00000000000E+00 0. -1.
         11    1    3    3    0    0  0.16844418715E+01 -0.16989046433E+01  0.40170846295E+01  0.46755310487E+01  0.51100000000E-03 0. -1.
        -11    1    3    3    0    0 -0.95146947217E+01  0.63053442863E+01  0.52739628701E+01  0.12573840576E+02  0.51100000000E-03 0.  1.
        -12    1    3    3    0    0 -0.19493997338E+02  0.58430993767E+01  0.22768519770E+02  0.30537898340E+02  0.00000000000E+00 0.  1.
</event>
<event>
 7    1  0.1384886E-010  0.4778728E+02  0.7816164E-02  0.1312668E+00
        -11   -1    0    0    0    0  0.00000000000E+00  0.00000000000E+00  0.45593999997E+02  0.45594000000E+02  0.51100000000E-03 0.  1.
         11   -1    0    0    0    0 -0.00000000000E+00 -0.00000000000E+00 -0.45593999997E+02  0.45594000000E+02  0.51100000000E-03 0. -1.
    9900012    2    1    2    0    0 -0.17001569267E+02 -0.12555983388E+02  0.37906685570E+02  0.47787275498E+02  0.20000020306E+02 0.  0.
         12    1    1    2    0    0  0.17001569267E+02  0.12555983388E+02 -0.37906685570E+02  0.43400724502E+02  0.00000000000E+00 0. -1.
         11    1    3    3    0    0  0.90577298786E+00 -0.18924870118E+01  0.10876257806E+01  0.23632312403E+01  0.51100000000E-03 0. -1.
        -11    1    3    3    0    0 -0.20153955594E+02 -0.54464435301E+01  0.29997818469E+02  0.36547432007E+02  0.51100000000E-03 0.  1.
        -12    1    3    3    0    0  0.22466133385E+01 -0.52170528461E+01  0.68212413206E+01  0.88766122504E+01  0.00000000000E+00 0.  1.
</event>
<event>
 7    1  0.1739857E-010  0.4778727E+02  0.7816164E-02  0.1312668E+00
        -11   -1    0    0    0    0  0.00000000000E+00  0.00000000000E+00  0.45593999997E+02  0.45594000000E+02  0.51100000000E-03 0.  1.
         11   -1    0    0    0    0 -0.00000000000E+00 -0.00000000000E+00 -0.45593999997E+02  0.45594000000E+02  0.51100000000E-03 0. -1.
    9900012    2    1    2    0    0  0.27536073012E+02  0.32230319713E+02  0.93056083339E+01  0.47787272215E+02  0.20000005339E+02 0.  0.
         12    1    1    2    0    0 -0.27536073012E+02 -0.32230319713E+02 -0.93056083339E+01  0.43400727785E+02  0.00000000000E+00 0. -1.
         11    1    3    3    0    0  0.61400897941E+00  0.53973659092E+01 -0.28261809356E+01  0.61233867039E+01  0.51100000000E-03 0. -1.
        -11    1    3    3    0    0  0.17104869773E+02  0.22650114917E+02  0.49772091934E+01  0.28816260814E+02  0.51100000000E-03 0.  1.
        -12    1    3    3    0    0  0.98171942602E+01  0.41828388871E+01  0.71545800761E+01  0.12847624697E+02  0.00000000000E+00 0.  1.
</event>
<event>
 7    1  0.1384886E-010  0.4778727E+02  0.7816164E-02  0.1312668E+00
        -11   -1    0    0    0    0  0.00000000000E+00  0.00000000000E+00  0.45593999997E+02  0.45594000000E+02  0.51100000000E-03 0.  1.
         11   -1    0    0    0    0 -0.00000000000E+00 -0.00000000000E+00 -0.45593999997E+02  0.45594000000E+02  0.51100000000E-03 0. -1.
    9900012    2    1    2    0    0  0.36788730513E+02 -0.22227606617E+02 -0.60121594732E+01  0.47787271317E+02  0.20000001243E+02 0.  0.
         12    1    1    2    0    0 -0.36788730513E+02  0.22227606617E+02  0.60121594732E+01  0.43400728683E+02  0.00000000000E+00 0. -1.
         11    1    3    3    0    0  0.17935910395E+02 -0.16523602437E+02 -0.88657281809E+01  0.25948554018E+02  0.51100000000E-03 0. -1.
        -11    1    3    3    0    0  0.17126014884E+02 -0.56442649019E+01 -0.52954729900E+00  0.18039914986E+02  0.51100000000E-03 0.  1.
         12    1    3    3    0    0  0.17268052345E+01 -0.59739277330E-01  0.33831160067E+01  0.37988023130E+01  0.00000000000E+00 0. -1.
</event>
<event>
 7    1  0.1384886E-010  0.4778727E+02  0.7816164E-02  0.1312668E+00
        -11   -1    0    0    0    0  0.00000000000E+00  0.00000000000E+00  0.45593999997E+02  0.45594000000E+02  0.51100000000E-03 0. -1.
         11   -1    0    0    0    0 -0.00000000000E+00 -0.00000000000E+00 -0.45593999997E+02  0.45594000000E+02  0.51100000000E-03 0.  1.
    9900012    2    1    2    0    0 -0.18774818408E+01 -0.19532086140E+01 -0.43316087561E+02  0.47787269551E+02  0.19999993190E+02 0.  0.
         12    1    1    2    0    0  0.18774818408E+01  0.19532086140E+01  0.43316087561E+02  0.43400730449E+02  0.00000000000E+00 0. -1.
         11    1    3    3    0    0  0.47068291776E+00  0.31298962202E+01 -0.24286514596E+01  0.39895038453E+01  0.51100000000E-03 0. -1.
        -11    1    3    3    0    0 -0.36490579362E+01 -0.65916279386E+01 -0.41108804369E+02  0.41793527964E+02  0.51100000000E-03 0.  1.
        -12    1    3    3    0    0  0.13008931777E+01  0.15085231045E+01  0.22136826819E+00  0.20042377421E+01  0.00000000000E+00 0.  1.
</event>
<event>
 7    1  0.1384886E-010  0.4778727E+02  0.7816164E-02  0.1312668E+00
        -11   -1    0    0    0    0  0.00000000000E+00  0.00000000000E+00  0.45593999997E+02  0.45594000000E+02  0.51100000000E-03 0.  1.
         11   -1    0    0    0    0 -0.00000000000E+00 -0.00000000000E+00 -0.45593999997E+02  0.45594000000E+02  0.51100000000E-03 0. -1.
    9900012    2    1    2    0    0  0.21391194592E+02 -0.76772221664E+01  0.36974317482E+02  0.47787273053E+02  0.20000009159E+02 0.  0.
         12    1    1    2    0    0 -0.21391194592E+02  0.76772221664E+01 -0.36974317482E+02  0.43400726947E+02  0.00000000000E+00 0. -1.
         11    1    3    3    0    0  0.47436766791E+01 -0.30784744959E+01  0.20658448610E+01  0.60205638364E+01  0.51100000000E-03 0. -1.
        -11    1    3    3    0    0  0.19052552200E+02 -0.20676334715E+01  0.31596657719E+02  0.36954345249E+02  0.51100000000E-03 0.  1.
        -12    1    3    3    0    0 -0.24050342874E+01 -0.25311141991E+01  0.33118149016E+01  0.48123639674E+01  0.00000000000E+00 0.  1.
</event>
<event>
 7    1  0.1384886E-010  0.4778727E+02  0.7816164E-02  0.1312668E+00
        -11   -1    0    0    0    0  0.00000000000E+00  0.00000000000E+00  0.45593999997E+02  0.45594000000E+02  0.51100000000E-03 0. -1.
         11   -1    0    0    0    0 -0.00000000000E+00 -0.00000000000E+00 -0.45593999997E+02  0.45594000000E+02  0.51100000000E-03 0.  1.
    9900012    2    1    2    0    0  0.68794487145E+01  0.28310013255E+02 -0.32168924414E+02  0.47787270016E+02  0.19999995313E+02 0.  0.
         12    1    1    2    0    0 -0.68794487145E+01 -0.28310013255E+02  0.32168924414E+02  0.43400729984E+02  0.00000000000E+00 0. -1.
         11    1    3    3    0    0  0.88438484650E+01  0.18726525953E+02 -0.96136233380E+01  0.22832393302E+02  0.51100000000E-03 0. -1.
        -11    1    3    3    0    0  0.10324838896E+01  0.19977361649E+01 -0.75290656231E+01  0.78577224553E+01  0.51100000000E-03 0.  1.
        -12    1    3    3    0    0 -0.29968836400E+01  0.75857511376E+01 -0.15026235453E+02  0.17097154259E+02  0.00000000000E+00 0.  1.
</event>
<event>
 7    1  0.1384886E-010  0.4778725E+02  0.7816164E-02  0.1312668E+00
        -11   -1    0    0    0    0  0.00000000000E+00  0.00000000000E+00  0.45593999997E+02  0.45594000000E+02  0.51100000000E-03 0.  1.
         11   -1    0    0    0    0 -0.00000000000E+00 -0.00000000000E+00 -0.45593999997E+02  0.45594000000E+02  0.51100000000E-03 0. -1.
    9900012    2    1    2    0    0  0.11904193024E+02  0.37562600927E+01  0.41566887535E+02  0.47787246080E+02  0.19999886179E+02 0.  0.
         12    1    1    2    0    0 -0.11904193024E+02 -0.37562600927E+01 -0.41566887535E+02  0.43400753920E+02  0.00000000000E+00 0. -1.
         11    1    3    3    0    0  0.59321861415E+01  0.44087000394E+01  0.46413421572E+01  0.87275154389E+01  0.51100000000E-03 0. -1.
        -11    1    3    3    0    0 -0.58716913549E+00  0.43283331823E+01  0.15569767986E+02  0.16170866122E+02  0.51100000000E-03 0.  1.
         12    1    3    3    0    0  0.65591760178E+01 -0.49807731290E+01  0.21355777392E+02  0.22888864520E+02  0.00000000000E+00 0. -1.
</event>
<event>
 7    1  0.1384886E-010  0.4778727E+02  0.7816164E-02  0.1312668E+00
        -11   -1    0    0    0    0  0.00000000000E+00  0.00000000000E+00  0.45593999997E+02  0.45594000000E+02  0.51100000000E-03 0. -1.
         11   -1    0    0    0    0 -0.00000000000E+00 -0.00000000000E+00 -0.45593999997E+02  0.45594000000E+02  0.51100000000E-03 0.  1.
    9900012    2    1    2    0    0  0.22204549649E+02  0.99946370283E+01 -0.35926156231E+02  0.47787268486E+02  0.19999988334E+02 0.  0.
         12    1    1    2    0    0 -0.22204549649E+02 -0.99946370283E+01  0.35926156231E+02  0.43400731514E+02  0.00000000000E+00 0. -1.
         11    1    3    3    0    0  0.85130113005E+01  0.78142624684E+00 -0.75580545061E+01  0.11410792109E+02  0.51100000000E-03 0. -1.
        -11    1    3    3    0    0  0.13669967127E+02  0.34450796318E+01 -0.10437036541E+02  0.17540476246E+02  0.51100000000E-03 0.  1.
        -12    1    3    3    0    0  0.21571221402E-01  0.57681311497E+01 -0.17931065184E+02  0.18836000131E+02  0.00000000000E+00 0.  1.
</event>
<event>
 7    1  0.1384886E-010  0.4778727E+02  0.7816164E-02  0.1312668E+00
        -11   -1    0    0    0    0  0.00000000000E+00  0.00000000000E+00  0.45593999997E+02  0.45594000000E+02  0.51100000000E-03 0. -1.
         11   -1    0    0    0    0 -0.00000000000E+00 -0.00000000000E+00 -0.45593999997E+02  0.45594000000E+02  0.51100000000E-03 0.  1.
    9900012    2    1    2    0    0 -0.27803602401E+02 -0.28506483502E+02 -0.17261608126E+02  0.47787273932E+02  0.20000013165E+02 0.  0.
         12    1    1    2    0    0  0.27803602401E+02  0.28506483502E+02  0.17261608126E+02  0.43400726068E+02  0.00000000000E+00 0. -1.
         11    1    3    3    0    0 -0.48305493006E+01  0.13363804753E+01 -0.32873113520E+01  0.59938748324E+01  0.51100000000E-03 0. -1.
        -11    1    3    3    0    0 -0.19864305789E+02 -0.16967448345E+02 -0.86722375427E+01  0.27526217540E+02  0.51100000000E-03 0.  1.
         12    1    3    3    0    0 -0.31087473117E+01 -0.12875415632E+02 -0.53020592313E+01  0.14267181559E+02  0.00000000000E+00 0. -1.
</event>
<event>
 7    1  0.1384886E-010  0.4778727E+02  0.7816164E-02  0.1312668E+00
        -11   -1    0    0    0    0  0.00000000000E+00  0.00000000000E+00  0.45593999997E+02  0.45594000000E+02  0.51100000000E-03 0.  1.
         11   -1    0    0    0    0 -0.00000000000E+00 -0.00000000000E+00 -0.45593999997E+02  0.45594000000E+02  0.51100000000E-03 0. -1.
    9900012    2    1    2    0    0  0.86405591394E+00  0.45699402132E+01  0.43150813639E+02  0.47787266551E+02  0.19999979513E+02 0.  0.
         12    1    1    2    0    0 -0.86405591394E+00 -0.45699402132E+01 -0.43150813639E+02  0.43400733449E+02  0.00000000000E+00 0. -1.
         11    1    3    3    0    0 -0.12783780667E+00 -0.47173157553E+01  0.59888121448E+01  0.76246496055E+01  0.51100000000E-03 0. -1.
        -11    1    3    3    0    0  0.37000944955E+01  0.30720997953E+01  0.29675261826E+02  0.30062429395E+02  0.51100000000E-03 0.  1.
         12    1    3    3    0    0 -0.27082007749E+01  0.62151561732E+01  0.74867396687E+01  0.10100187551E+02  0.00000000000E+00 0. -1.
</event>
<event>
 7    1  0.1384886E-010  0.4778727E+02  0.7816164E-02  0.1312668E+00
        -11   -1    0    0    0    0  0.00000000000E+00  0.00000000000E+00  0.45593999997E+02  0.45594000000E+02  0.51100000000E-03 0.  1.
         11   -1    0    0    0    0 -0.00000000000E+00 -0.00000000000E+00 -0.45593999997E+02  0.45594000000E+02  0.51100000000E-03 0. -1.
    9900012    2    1    2    0    0 -0.12022649375E+02 -0.87076041426E+01  0.40783047114E+02  0.47787269593E+02  0.19999993384E+02 0.  0.
         12    1    1    2    0    0  0.12022649375E+02  0.87076041426E+01 -0.40783047114E+02  0.43400730407E+02  0.00000000000E+00 0. -1.
         11    1    3    3    0    0  0.22116194746E+01  0.12676331088E+01  0.38759784626E+01  0.46391123831E+01  0.51100000000E-03 0. -1.
        -11    1    3    3    0    0  0.22364723009E+01 -0.11433832286E+01  0.10502501999E+02  0.10798688905E+02  0.51100000000E-03 0.  1.
        -12    1    3    3    0    0 -0.16470741150E+02 -0.88318540228E+01  0.26404566652E+02  0.32349468305E+02  0.00000000000E+00 0.  1.
</event>
<event>
 7    1  0.1384886E-010  0.4778727E+02  0.7816164E-02  0.1312668E+00
        -11   -1    0    0    0    0  0.00000000000E+00  0.00000000000E+00  0.45593999997E+02  0.45594000000E+02  0.51100000000E-03 0.  1.
         11   -1    0    0    0    0 -0.00000000000E+00 -0.00000000000E+00 -0.45593999997E+02  0.45594000000E+02  0.51100000000E-03 0. -1.
    9900012    2    1    2    0    0 -0.35146215507E+02 -0.24405650631E+02  0.72616159728E+01  0.47787270585E+02  0.19999997906E+02 0.  0.
         12    1    1    2    0    0  0.35146215507E+02  0.24405650631E+02 -0.72616159728E+01  0.43400729415E+02  0.00000000000E+00 0. -1.
         11    1    3    3    0    0 -0.73600570630E+01 -0.97034630999E+01  0.46013687519E+01  0.13019225428E+02  0.51100000000E-03 0. -1.
        -11    1    3    3    0    0 -0.15795500307E+02 -0.11061759935E+02 -0.52041126656E+01  0.19973561318E+02  0.51100000000E-03 0.  1.
        -12    1    3    3    0    0 -0.11990658137E+02 -0.36404275958E+01  0.78643598865E+01  0.14794483839E+02  0.00000000000E+00 0.  1.
</event>
<event>
 7    1  0.1384886E-010  0.4778727E+02  0.7816164E-02  0.1312668E+00
        -11   -1    0    0    0    0  0.00000000000E+00  0.00000000000E+00  0.45593999997E+02  0.45594000000E+02  0.51100000000E-03 0. -1.
         11   -1    0    0    0    0 -0.00000000000E+00 -0.00000000000E+00 -0.45593999997E+02  0.45594000000E+02  0.51100000000E-03 0.  1.
    9900012    2    1    2    0    0  0.32977336246E+02  0.27775588339E+02 -0.49634252438E+01  0.47787267246E+02  0.19999982681E+02 0.  0.
         12    1    1    2    0    0 -0.32977336246E+02 -0.27775588339E+02  0.49634252438E+01  0.43400732754E+02  0.00000000000E+00 0. -1.
         11    1    3    3    0    0  0.22719177264E+02  0.13855091364E+02 -0.40928278870E+01  0.26923517836E+02  0.51100000000E-03 0. -1.
        -11    1    3    3    0    0  0.32641226086E+01  0.64579803021E+01  0.52541843001E+01  0.89423967094E+01  0.51100000000E-03 0.  1.
         12    1    3    3    0    0  0.69940363726E+01  0.74625166730E+01 -0.61247816570E+01  0.11921352701E+02  0.00000000000E+00 0. -1.
</event>
<event>
 7    1  0.1384886E-010  0.4778727E+02  0.7816164E-02  0.1312668E+00
        -11   -1    0    0    0    0  0.00000000000E+00  0.00000000000E+00  0.45593999997E+02  0.45594000000E+02  0.51100000000E-03 0.  1.
         11   -1    0    0    0    0 -0.00000000000E+00 -0.00000000000E+00 -0.45593999997E+02  0.45594000000E+02  0.51100000000E-03 0. -1.
    9900012    2    1    2    0    0 -0.34631872982E+02 -0.24247518050E+02  0.98140026650E+01  0.47787269520E+02  0.19999993051E+02 0.  0.
         12    1    1    2    0    0  0.34631872982E+02  0.24247518050E+02 -0.98140026650E+01  0.43400730480E+02  0.00000000000E+00 0. -1.
         11    1    3    3    0    0 -0.10990225785E-02 -0.98892910206E+00  0.49077108513E+01  0.50063567630E+01  0.51100000000E-03 0. -1.
        -11    1    3    3    0    0 -0.15543547068E+02 -0.84933944721E+01  0.57846507447E+01  0.18633351540E+02  0.51100000000E-03 0.  1.
         12    1    3    3    0    0 -0.19087226891E+02 -0.14765194476E+02 -0.87835893101E+00  0.24147561217E+02  0.00000000000E+00 0. -1.
</event>
<event>
 7    1  0.1384886E-010  0.4778727E+02  0.7816164E-02  0.1312668E+00
        -11   -1    0    0    0    0  0.00000000000E+00  0.00000000000E+00  0.45593999997E+02  0.45594000000E+02  0.51100000000E-03 0.  1.
         11   -1    0    0    0    0 -0.00000000000E+00 -0.00000000000E+00 -0.45593999997E+02  0.45594000000E+02  0.51100000000E-03 0. -1.
    9900012    2    1    2    0    0  0.31874692393E+02 -0.20421123364E+02  0.21227455793E+02  0.47787272195E+02  0.20000005244E+02 0.  0.
         12    1    1    2    0    0 -0.31874692393E+02  0.20421123364E+02 -0.21227455793E+02  0.43400727805E+02  0.00000000000E+00 0. -1.
         11    1    3    3    0    0  0.22233392915E+01 -0.31856224974E+01 -0.29936031616E+01  0.49043948098E+01  0.51100000000E-03 0. -1.
        -11    1    3    3    0    0  0.78412891549E+01 -0.92457539818E+01  0.92452774496E+01  0.15246145011E+02  0.51100000000E-03 0.  1.
        -12    1    3    3    0    0  0.21810063947E+02 -0.79897468847E+01  0.14975781505E+02  0.27636732374E+02  0.00000000000E+00 0.  1.
</event>
<event>
 7    1  0.1384886E-010  0.4778727E+02  0.7816164E-02  0.1312668E+00
        -11   -1    0    0    0    0  0.00000000000E+00  0.00000000000E+00  0.45593999997E+02  0.45594000000E+02  0.51100000000E-03 0. -1.
         11   -1    0    0    0    0 -0.00000000000E+00 -0.00000000000E+00 -0.45593999997E+02  0.45594000000E+02  0.51100000000E-03 0.  1.
    9900012    2    1    2    0    0 -0.31934079621E+02  0.78052472774E+01 -0.28335772103E+02  0.47787270663E+02  0.19999998259E+02 0.  0.
         12    1    1    2    0    0  0.31934079621E+02 -0.78052472774E+01  0.28335772103E+02  0.43400729337E+02  0.00000000000E+00 0. -1.
         11    1    3    3    0    0 -0.20509043171E+01 -0.32104409831E+01 -0.27282174095E+01  0.46857561096E+01  0.51100000000E-03 0. -1.
        -11    1    3    3    0    0 -0.22107971397E+02  0.11836750989E+02 -0.24753716117E+02  0.35236593694E+02  0.51100000000E-03 0.  1.
        -12    1    3    3    0    0 -0.77752039074E+01 -0.82106272871E+00 -0.85383857658E+00  0.78649208592E+01  0.00000000000E+00 0.  1.
</event>
<event>
 7    1  0.1384886E-010  0.4778727E+02  0.7816164E-02  0.1312668E+00
        -11   -1    0    0    0    0  0.00000000000E+00  0.00000000000E+00  0.45593999997E+02  0.45594000000E+02  0.51100000000E-03 0.  1.
         11   -1    0    0    0    0 -0.00000000000E+00 -0.00000000000E+00 -0.45593999997E+02  0.45594000000E+02  0.51100000000E-03 0. -1.
    9900012    2    1    2    0    0  0.20226061550E+02 -0.38370451572E+02  0.14960572150E+01  0.47787270665E+02  0.19999998268E+02 0.  0.
         12    1    1    2    0    0 -0.20226061550E+02  0.38370451572E+02 -0.14960572150E+01  0.43400729335E+02  0.00000000000E+00 0. -1.
         11    1    3    3    0    0  0.15979018496E+02 -0.31965435399E+02 -0.16072145956E+01  0.35772911978E+02  0.51100000000E-03 0.  1.
        -11    1    3    3    0    0 -0.24431565214E+01 -0.22443716256E+01 -0.49290086907E+00  0.33539781320E+01  0.51100000000E-03 0. -1.
        -12    1    3    3    0    0  0.66901995762E+01 -0.41606445467E+01  0.35961726797E+01  0.86603805549E+01  0.00000000000E+00 0.  1.
</event>
<event>
 7    1  0.1384886E-010  0.4778727E+02  0.7816164E-02  0.1312668E+00
        -11   -1    0    0    0    0  0.00000000000E+00  0.00000000000E+00  0.45593999997E+02  0.45594000000E+02  0.51100000000E-03 0.  1.
         11   -1    0    0    0    0 -0.00000000000E+00 -0.00000000000E+00 -0.45593999997E+02  0.45594000000E+02  0.51100000000E-03 0. -1.
    9900012    2    1    2    0    0 -0.29213113249E+02 -0.12519288354E+02  0.29554772215E+02  0.47787272733E+02  0.20000007701E+02 0.  0.
         12    1    1    2    0    0  0.29213113249E+02  0.12519288354E+02 -0.29554772215E+02  0.43400727267E+02  0.00000000000E+00 0. -1.
         11    1    3    3    0    0 -0.35364401944E+00  0.19512162566E+01  0.35769487391E+01  0.40898498157E+01  0.51100000000E-03 0. -1.
        -11    1    3    3    0    0 -0.28299735321E+02 -0.92100638852E+01  0.23110623244E+02  0.37680249508E+02  0.51100000000E-03 0.  1.
         12    1    3    3    0    0 -0.55973390871E+00 -0.52604407252E+01  0.28672002322E+01  0.60171734098E+01  0.00000000000E+00 0. -1.
</event>
<event>
 7    1  0.1384886E-010  0.4778727E+02  0.7816164E-02  0.1312668E+00
        -11   -1    0    0    0    0  0.00000000000E+00  0.00000000000E+00  0.45593999997E+02  0.45594000000E+02  0.51100000000E-03 0.  1.
         11   -1    0    0    0    0 -0.00000000000E+00 -0.00000000000E+00 -0.45593999997E+02  0.45594000000E+02  0.51100000000E-03 0. -1.
    9900012    2    1    2    0    0  0.10596054080E+02 -0.38286367702E+02  0.17478584269E+02  0.47787271643E+02  0.20000002729E+02 0.  0.
         12    1    1    2    0    0 -0.10596054080E+02  0.38286367702E+02 -0.17478584269E+02  0.43400728357E+02  0.00000000000E+00 0. -1.
         11    1    3    3    0    0 -0.33741699848E+01 -0.23034785055E+01  0.27503761971E+00  0.40947139418E+01  0.51100000000E-03 0. -1.
        -11    1    3    3    0    0  0.52080230524E+01 -0.17118012431E+02  0.13842653150E+02  0.22622309789E+02  0.51100000000E-03 0.  1.
         12    1    3    3    0    0  0.87622010126E+01 -0.18864876766E+02  0.33608934990E+01  0.21070247912E+02  0.00000000000E+00 0. -1.
</event>
<event>
 7    1  0.1384886E-010  0.4778728E+02  0.7816164E-02  0.1312668E+00
        -11   -1    0    0    0    0  0.00000000000E+00  0.00000000000E+00  0.45593999997E+02  0.45594000000E+02  0.51100000000E-03 0.  1.
         11   -1    0    0    0    0 -0.00000000000E+00 -0.00000000000E+00 -0.45593999997E+02  0.45594000000E+02  0.51100000000E-03 0. -1.
    9900012    2    1    2    0    0  0.10491747092E+02 -0.33878707615E+02  0.25015566150E+02  0.47787284148E+02  0.20000059743E+02 0.  0.
         12    1    1    2    0    0 -0.10491747092E+02  0.33878707615E+02 -0.25015566150E+02  0.43400715852E+02  0.00000000000E+00 0. -1.
         11    1    3    3    0    0  0.23788003870E+01 -0.84648120558E+01  0.10636200301E+02  0.13800017809E+02  0.51100000000E-03 0. -1.
        -11    1    3    3    0    0 -0.33299672222E+01 -0.57789549641E+01  0.79338818638E+01  0.10364916009E+02  0.51100000000E-03 0.  1.
        -12    1    3    3    0    0  0.11442913927E+02 -0.19634940595E+02  0.64454839843E+01  0.23622350330E+02  0.00000000000E+00 0.  1.
</event>
<event>
 7    1  0.1384886E-010  0.4778727E+02  0.7816164E-02  0.1312668E+00
        -11   -1    0    0    0    0  0.00000000000E+00  0.00000000000E+00  0.45593999997E+02  0.45594000000E+02  0.51100000000E-03 0.  1.
         11   -1    0    0    0    0 -0.00000000000E+00 -0.00000000000E+00 -0.45593999997E+02  0.45594000000E+02  0.51100000000E-03 0. -1.
    9900012    2    1    2    0    0 -0.29717574105E+02  0.31600091178E+02  0.13867121864E+01  0.47787274847E+02  0.20000017336E+02 0.  0.
         12    1    1    2    0    0  0.29717574105E+02 -0.31600091178E+02 -0.13867121864E+01  0.43400725153E+02  0.00000000000E+00 0. -1.
         11    1    3    3    0    0  0.11982533489E+01 -0.22648975070E+00  0.13825904472E+00  0.12272833902E+01  0.51100000000E-03 0. -1.
        -11    1    3    3    0    0 -0.22483392272E+02  0.13289867961E+02 -0.48288112402E+00  0.26121958061E+02  0.51100000000E-03 0.  1.
         12    1    3    3    0    0 -0.84324351816E+01  0.18536712968E+02  0.17313342657E+01  0.20438033396E+02  0.00000000000E+00 0. -1.
</event>
<event>
 7    1  0.1384886E-010  0.4778727E+02  0.7816164E-02  0.1312668E+00
        -11   -1    0    0    0    0  0.00000000000E+00  0.00000000000E+00  0.45593999997E+02  0.45594000000E+02  0.51100000000E-03 0.  1.
         11   -1    0    0    0    0 -0.00000000000E+00 -0.00000000000E+00 -0.45593999997E+02  0.45594000000E+02  0.51100000000E-03 0. -1.
    9900012    2    1    2    0    0  0.99123434511E+01 -0.12792650700E+02  0.40270546856E+02  0.47787269491E+02  0.19999992919E+02 0.  0.
         12    1    1    2    0    0 -0.99123434511E+01  0.12792650700E+02 -0.40270546856E+02  0.43400730509E+02  0.00000000000E+00 0. -1.
         11    1    3    3    0    0 -0.61579481111E+00 -0.28578057940E+01  0.25624734296E+02  0.25790953166E+02  0.51100000000E-03 0.  1.
        -11    1    3    3    0    0  0.93693118212E+00 -0.10104472158E+01 -0.91556829168E+00  0.16544210993E+01  0.51100000000E-03 0. -1.
        -12    1    3    3    0    0  0.95912070801E+01 -0.89243976901E+01  0.15561380852E+02  0.20341895226E+02  0.00000000000E+00 0.  1.
</event>
<event>
 7    1  0.1384886E-010  0.4778727E+02  0.7816164E-02  0.1312668E+00
        -11   -1    0    0    0    0  0.00000000000E+00  0.00000000000E+00  0.45593999997E+02  0.45594000000E+02  0.51100000000E-03 0. -1.
         11   -1    0    0    0    0 -0.00000000000E+00 -0.00000000000E+00 -0.45593999997E+02  0.45594000000E+02  0.51100000000E-03 0.  1.
    9900012    2    1    2    0    0  0.75629378640E+01  0.27504932164E+02 -0.32709384736E+02  0.47787272214E+02  0.20000005334E+02 0.  0.
         12    1    1    2    0    0 -0.75629378640E+01 -0.27504932164E+02  0.32709384736E+02  0.43400727786E+02  0.00000000000E+00 0. -1.
         11    1    3    3    0    0 -0.49886211974E+01  0.76170721262E+01 -0.68030715627E+01  0.11366086053E+02  0.51100000000E-03 0. -1.
        -11    1    3    3    0    0  0.13206476544E+01 -0.97084391443E+00 -0.57152955110E+00  0.17358843344E+01  0.51100000000E-03 0.  1.
        -12    1    3    3    0    0  0.11230911407E+02  0.20858703953E+02 -0.25334783622E+02  0.34685301827E+02  0.00000000000E+00 0.  1.
</event>
<event>
 7    1  0.1384886E-010  0.4778728E+02  0.7816164E-02  0.1312668E+00
        -11   -1    0    0    0    0  0.00000000000E+00  0.00000000000E+00  0.45593999997E+02  0.45594000000E+02  0.51100000000E-03 0.  1.
         11   -1    0    0    0    0 -0.00000000000E+00 -0.00000000000E+00 -0.45593999997E+02  0.45594000000E+02  0.51100000000E-03 0. -1.
    9900012    2    1    2    0    0  0.34847340687E+02  0.22969579377E+02  0.11903085174E+02  0.47787283804E+02  0.20000058174E+02 0.  0.
         12    1    1    2    0    0 -0.34847340687E+02 -0.22969579377E+02 -0.11903085174E+02  0.43400716196E+02  0.00000000000E+00 0. -1.
         11    1    3    3    0    0  0.23280933556E+02  0.86131750865E+01 -0.15725018680E+01  0.24872905232E+02  0.51100000000E-03 0. -1.
        -11    1    3    3    0    0  0.46846405132E+01  0.43811100056E+01  0.46018969060E+01  0.78941394093E+01  0.51100000000E-03 0.  1.
         12    1    3    3    0    0  0.68817666176E+01  0.99752942848E+01  0.88736901365E+01  0.15020239162E+02  0.00000000000E+00 0. -1.
</event>
<event>
 7    1  0.1384886E-010  0.4778727E+02  0.7816164E-02  0.1312668E+00
        -11   -1    0    0    0    0  0.00000000000E+00  0.00000000000E+00  0.45593999997E+02  0.45594000000E+02  0.51100000000E-03 0. -1.
         11   -1    0    0    0    0 -0.00000000000E+00 -0.00000000000E+00 -0.45593999997E+02  0.45594000000E+02  0.51100000000E-03 0.  1.
    9900012    2    1    2    0    0  0.24157794313E+02  0.90209671878E+01 -0.34909122721E+02  0.47787265856E+02  0.19999976345E+02 0.  0.
         12    1    1    2    0    0 -0.24157794313E+02 -0.90209671878E+01  0.34909122721E+02  0.43400734144E+02  0.00000000000E+00 0. -1.
         11    1    3    3    0    0  0.58577355436E+01  0.90433429458E+01 -0.57241115141E+01  0.12200843013E+02  0.51100000000E-03 0. -1.
        -11    1    3    3    0    0  0.64189128947E+01 -0.40971410021E+01 -0.87476478080E+01  0.11597859698E+02  0.51100000000E-03 0.  1.
        -12    1    3    3    0    0  0.11881145875E+02  0.40747652441E+01 -0.20437363399E+02  0.23988563146E+02  0.00000000000E+00 0.  1.
</event>
<event>
 7    1  0.1384886E-010  0.4778727E+02  0.7816164E-02  0.1312668E+00
        -11   -1    0    0    0    0  0.00000000000E+00  0.00000000000E+00  0.45593999997E+02  0.45594000000E+02  0.51100000000E-03 0. -1.
         11   -1    0    0    0    0 -0.00000000000E+00 -0.00000000000E+00 -0.45593999997E+02  0.45594000000E+02  0.51100000000E-03 0.  1.
    9900012    2    1    2    0    0  0.28154870545E+02 -0.29220169626E+02 -0.15398313328E+02  0.47787273028E+02  0.20000009044E+02 0.  0.
         12    1    1    2    0    0 -0.28154870545E+02  0.29220169626E+02  0.15398313328E+02  0.43400726972E+02  0.00000000000E+00 0. -1.
         11    1    3    3    0    0  0.51616523251E+01 -0.79625860928E+01 -0.62346287247E+01  0.11354119411E+02  0.51100000000E-03 0. -1.
        -11    1    3    3    0    0  0.62800328079E+01  0.26146371815E+00 -0.65229306155E+01  0.90584656217E+01  0.51100000000E-03 0.  1.
         12    1    3    3    0    0  0.16713185412E+02 -0.21519047251E+02 -0.26407539876E+01  0.27374687995E+02  0.00000000000E+00 0. -1.
</event>
<event>
 7    1  0.1384886E-010  0.4778727E+02  0.7816164E-02  0.1312668E+00
        -11   -1    0    0    0    0  0.00000000000E+00  0.00000000000E+00  0.45593999997E+02  0.45594000000E+02  0.51100000000E-03 0. -1.
         11   -1    0    0    0    0 -0.00000000000E+00 -0.00000000000E+00 -0.45593999997E+02  0.45594000000E+02  0.51100000000E-03 0.  1.
    9900012    2    1    2    0    0  0.26506336836E+02  0.51811730705E+01  0.33973417226E+02  0.47787268153E+02  0.19999986816E+02 0.  0.
         12    1    1    2    0    0 -0.26506336836E+02 -0.51811730705E+01 -0.33973417226E+02  0.43400731847E+02  0.00000000000E+00 0. -1.
         11    1    3    3    0    0 -0.20093545905E+01  0.75788278616E+00  0.37880243241E+01  0.43544254189E+01  0.51100000000E-03 0. -1.
        -11    1    3    3    0    0  0.16204408805E+02  0.10024375518E+01  0.86600512265E+01  0.18400658501E+02  0.51100000000E-03 0.  1.
         12    1    3    3    0    0  0.12311282621E+02  0.34208527325E+01  0.21525341676E+02  0.25032184232E+02  0.00000000000E+00 0. -1.
</event>
<event>
 7    1  0.1384886E-010  0.4778727E+02  0.7816164E-02  0.1312668E+00
        -11   -1    0    0    0    0  0.00000000000E+00  0.00000000000E+00  0.45593999997E+02  0.45594000000E+02  0.51100000000E-03 0.  1.
         11   -1    0    0    0    0 -0.00000000000E+00 -0.00000000000E+00 -0.45593999997E+02  0.45594000000E+02  0.51100000000E-03 0. -1.
    9900012    2    1    2    0    0 -0.20986249465E+01 -0.42750338778E+02 -0.71852249303E+01  0.47787272476E+02  0.20000006528E+02 0.  0.
         12    1    1    2    0    0  0.20986249465E+01  0.42750338778E+02  0.71852249303E+01  0.43400727524E+02  0.00000000000E+00 0. -1.
         11    1    3    3    0    0 -0.25974933120E+01 -0.23849393637E+02 -0.46529922822E+01  0.24437489352E+02  0.51100000000E-03 0.  1.
        -11    1    3    3    0    0  0.25760424204E+01 -0.19999103299E+02 -0.40304157564E+01  0.20563180171E+02  0.51100000000E-03 0. -1.
         12    1    3    3    0    0 -0.20771740550E+01  0.10981581582E+01  0.14981831082E+01  0.27866029536E+01  0.00000000000E+00 0. -1.
</event>
<event>
 7    1  0.1384886E-010  0.4778727E+02  0.7816164E-02  0.1312668E+00
        -11   -1    0    0    0    0  0.00000000000E+00  0.00000000000E+00  0.45593999997E+02  0.45594000000E+02  0.51100000000E-03 0.  1.
         11   -1    0    0    0    0 -0.00000000000E+00 -0.00000000000E+00 -0.45593999997E+02  0.45594000000E+02  0.51100000000E-03 0. -1.
    9900012    2    1    2    0    0 -0.18591622866E+02  0.78722238611E+01  0.38418789066E+02  0.47787266105E+02  0.19999977480E+02 0.  0.
         12    1    1    2    0    0  0.18591622866E+02 -0.78722238611E+01 -0.38418789066E+02  0.43400733895E+02  0.00000000000E+00 0. -1.
         11    1    3    3    0    0 -0.97029821585E+01  0.10569385673E+02  0.22277143898E+02  0.26497753052E+02  0.51100000000E-03 0. -1.
        -11    1    3    3    0    0  0.22131767924E+01 -0.43628793335E+00  0.45618009394E+01  0.50890595150E+01  0.51100000000E-03 0.  1.
        -12    1    3    3    0    0 -0.11101817500E+02 -0.22608738786E+01  0.11579844228E+02  0.16200453538E+02  0.00000000000E+00 0.  1.
</event>
<event>
 7    1  0.1548885E-010  0.4778727E+02  0.7816164E-02  0.1312668E+00
        -11   -1    0    0    0    0  0.00000000000E+00  0.00000000000E+00  0.45593999997E+02  0.45594000000E+02  0.51100000000E-03 0.  1.
         11   -1    0    0    0    0 -0.00000000000E+00 -0.00000000000E+00 -0.45593999997E+02  0.45594000000E+02  0.51100000000E-03 0. -1.
    9900012    2    1    2    0    0 -0.25608754825E+00  0.38168209196E+02  0.20657816950E+02  0.47787272182E+02  0.20000005186E+02 0.  0.
         12    1    1    2    0    0  0.25608754825E+00 -0.38168209196E+02 -0.20657816950E+02  0.43400727818E+02  0.00000000000E+00 0. -1.
         11    1    3    3    0    0 -0.96356491732E+00  0.85842050768E+01 -0.45797819540E+00  0.86502473051E+01  0.51100000000E-03 0. -1.
        -11    1    3    3    0    0  0.51748895918E+01  0.27537702094E+02  0.17490187292E+02  0.33030458227E+02  0.51100000000E-03 0.  1.
        -12    1    3    3    0    0 -0.44674122227E+01  0.20463020246E+01  0.36256078531E+01  0.61065666497E+01  0.00000000000E+00 0.  1.
</event>
<event>
 7    1  0.1384886E-010  0.4778725E+02  0.7816164E-02  0.1312668E+00
        -11   -1    0    0    0    0  0.00000000000E+00  0.00000000000E+00  0.45593999997E+02  0.45594000000E+02  0.51100000000E-03 0. -1.
         11   -1    0    0    0    0 -0.00000000000E+00 -0.00000000000E+00 -0.45593999997E+02  0.45594000000E+02  0.51100000000E-03 0.  1.
    9900012    2    1    2    0    0  0.32218684103E+02 -0.66674460921E+01 -0.28304180415E+02  0.47787250333E+02  0.19999905566E+02 0.  0.
         12    1    1    2    0    0 -0.32218684103E+02  0.66674460921E+01  0.28304180415E+02  0.43400749667E+02  0.00000000000E+00 0. -1.
         11    1    3    3    0    0  0.58821092812E+01  0.21839036646E+01 -0.17500959408E+01  0.65139451084E+01  0.51100000000E-03 0. -1.
        -11    1    3    3    0    0  0.28283840589E+02 -0.80575445674E+01 -0.25481020497E+02  0.38912492451E+02  0.51100000000E-03 0.  1.
         12    1    3    3    0    0 -0.19472657677E+01 -0.79380518928E+00 -0.10730639774E+01  0.23608127728E+01  0.00000000000E+00 0. -1.
</event>
<event>
 7    1  0.1384886E-010  0.4778727E+02  0.7816164E-02  0.1312668E+00
        -11   -1    0    0    0    0  0.00000000000E+00  0.00000000000E+00  0.45593999997E+02  0.45594000000E+02  0.51100000000E-03 0.  1.
         11   -1    0    0    0    0 -0.00000000000E+00 -0.00000000000E+00 -0.45593999997E+02  0.45594000000E+02  0.51100000000E-03 0. -1.
    9900012    2    1    2    0    0 -0.26014571586E+00  0.13144638316E+02  0.41361504646E+02  0.47787271218E+02  0.20000000791E+02 0.  0.
         12    1    1    2    0    0  0.26014571586E+00 -0.13144638316E+02 -0.41361504646E+02  0.43400728782E+02  0.00000000000E+00 0. -1.
         11    1    3    3    0    0 -0.29848981378E+01  0.76491010399E-01  0.14441038504E+01  0.33167610646E+01  0.51100000000E-03 0. -1.
        -11    1    3    3    0    0 -0.23788334276E+01  0.13708172661E+02  0.33296682822E+02  0.36086589384E+02  0.51100000000E-03 0.  1.
         12    1    3    3    0    0  0.51035858495E+01 -0.64002535544E+00  0.66207179734E+01  0.83839207691E+01  0.00000000000E+00 0. -1.
</event>
<event>
 7    1  0.1384886E-010  0.4778726E+02  0.7816164E-02  0.1312668E+00
        -11   -1    0    0    0    0  0.00000000000E+00  0.00000000000E+00  0.45593999997E+02  0.45594000000E+02  0.51100000000E-03 0.  1.
         11   -1    0    0    0    0 -0.00000000000E+00 -0.00000000000E+00 -0.45593999997E+02  0.45594000000E+02  0.51100000000E-03 0. -1.
    9900012    2    1    2    0    0  0.47660938087E+01  0.25217374103E+02  0.34999900247E+02  0.47787255489E+02  0.19999929076E+02 0.  0.
         12    1    1    2    0    0 -0.47660938087E+01 -0.25217374103E+02 -0.34999900247E+02  0.43400744511E+02  0.00000000000E+00 0. -1.
         11    1    3    3    0    0  0.47173687125E-02  0.38883614446E+01 -0.10992706631E+01  0.40407639413E+01  0.51100000000E-03 0. -1.
        -11    1    3    3    0    0  0.27881155421E+01  0.19565887459E+02  0.22741698552E+02  0.30129427370E+02  0.51100000000E-03 0.  1.
        -12    1    3    3    0    0  0.19732608979E+01  0.17631251996E+01  0.13357472357E+02  0.13617064178E+02  0.00000000000E+00 0.  1.
</event>
<event>
 7    1  0.1384886E-010  0.4778727E+02  0.7816164E-02  0.1312668E+00
        -11   -1    0    0    0    0  0.00000000000E+00  0.00000000000E+00  0.45593999997E+02  0.45594000000E+02  0.51100000000E-03 0.  1.
         11   -1    0    0    0    0 -0.00000000000E+00 -0.00000000000E+00 -0.45593999997E+02  0.45594000000E+02  0.51100000000E-03 0. -1.
    9900012    2    1    2    0    0  0.25231522568E+02  0.13368325481E+02  0.32684576721E+02  0.47787269445E+02  0.19999992709E+02 0.  0.
         12    1    1    2    0    0 -0.25231522568E+02 -0.13368325481E+02 -0.32684576721E+02  0.43400730555E+02  0.00000000000E+00 0. -1.
         11    1    3    3    0    0  0.43499341712E+01 -0.14000440080E+01  0.10961031285E+01  0.46993076987E+01  0.51100000000E-03 0. -1.
        -11    1    3    3    0    0 -0.11988533003E+01  0.11371190342E+01 -0.58610299351E+00  0.17532272853E+01  0.51100000000E-03 0.  1.
        -12    1    3    3    0    0  0.22080441697E+02  0.13631250455E+02  0.32174576586E+02  0.41334734461E+02  0.00000000000E+00 0.  1.
</event>
<event>
 7    1 -0.4548246E-010  0.4778724E+02  0.7816164E-02  0.1312668E+00
        -11   -1    0    0    0    0  0.00000000000E+00  0.00000000000E+00  0.45593999997E+02  0.45594000000E+02  0.51100000000E-03 0.  1.
         11   -1    0    0    0    0 -0.00000000000E+00 -0.00000000000E+00 -0.45593999997E+02  0.45594000000E+02  0.51100000000E-03 0. -1.
    9900012    2    1    2    0    0  0.41567109086E+02  0.11613638098E+02  0.45743548922E+01  0.47787241132E+02  0.19999863615E+02 0.  0.
         12    1    1    2    0    0 -0.41567109086E+02 -0.11613638098E+02 -0.45743548922E+01  0.43400758868E+02  0.00000000000E+00 0. -1.
         11    1    3    3    0    0  0.15791606362E+02  0.25800641876E+00 -0.12646520242E+01  0.15844265329E+02  0.51100000000E-03 0. -1.
        -11    1    3    3    0    0  0.13628551992E+00  0.41315849854E+01 -0.13565509268E+01  0.43507239527E+01  0.51100000000E-03 0.  1.
        -12    1    3    3    0    0  0.25639217204E+02  0.72240466936E+01  0.71955578433E+01  0.27592251850E+02  0.00000000000E+00 0.  1.
</event>
<event>
 7    1  0.1384886E-010  0.4778728E+02  0.7816164E-02  0.1312668E+00
        -11   -1    0    0    0    0  0.00000000000E+00  0.00000000000E+00  0.45593999997E+02  0.45594000000E+02  0.51100000000E-03 0. -1.
         11   -1    0    0    0    0 -0.00000000000E+00 -0.00000000000E+00 -0.45593999997E+02  0.45594000000E+02  0.51100000000E-03 0.  1.
    9900012    2    1    2    0    0  0.35130207310E+02  0.17049608584E+02 -0.18942077098E+02  0.47787275313E+02  0.20000019463E+02 0.  0.
         12    1    1    2    0    0 -0.35130207310E+02 -0.17049608584E+02  0.18942077098E+02  0.43400724687E+02  0.00000000000E+00 0. -1.
         11    1    3    3    0    0  0.46886066275E+01 -0.18700813455E+01 -0.25682393452E+01  0.56635757204E+01  0.51100000000E-03 0. -1.
        -11    1    3    3    0    0  0.31343566579E+02  0.15442710797E+02 -0.16235288828E+02  0.38528964251E+02  0.51100000000E-03 0.  1.
        -12    1    3    3    0    0 -0.90196589659E+00  0.34769791333E+01 -0.13854892467E+00  0.35947353417E+01  0.00000000000E+00 0.  1.
</event>
<event>
 7    1  0.1384886E-010  0.4778727E+02  0.7816164E-02  0.1312668E+00
        -11   -1    0    0    0    0  0.00000000000E+00  0.00000000000E+00  0.45593999997E+02  0.45594000000E+02  0.51100000000E-03 0.  1.
         11   -1    0    0    0    0 -0.00000000000E+00 -0.00000000000E+00 -0.45593999997E+02  0.45594000000E+02  0.51100000000E-03 0. -1.
    9900012    2    1    2    0    0  0.42510256608E+02 -0.86397275507E+01 -0.13624720719E+01  0.47787272597E+02  0.20000007077E+02 0.  0.
         12    1    1    2    0    0 -0.42510256608E+02  0.86397275507E+01  0.13624720719E+01  0.43400727403E+02  0.00000000000E+00 0. -1.
         11    1    3    3    0    0  0.31160005037E+02 -0.79977043618E+01 -0.62843968842E+01  0.32778084652E+02  0.51100000000E-03 0.  1.
        -11    1    3    3    0    0  0.50350895705E+01  0.29973052561E+01 -0.56377623991E+00  0.58867486519E+01  0.51100000000E-03 0. -1.
        -12    1    3    3    0    0  0.63151619998E+01 -0.36393284450E+01  0.54857010522E+01  0.91224392927E+01  0.00000000000E+00 0.  1.
</event>
<event>
 7    1  0.1384886E-010  0.4778727E+02  0.7816164E-02  0.1312668E+00
        -11   -1    0    0    0    0  0.00000000000E+00  0.00000000000E+00  0.45593999997E+02  0.45594000000E+02  0.51100000000E-03 0. -1.
         11   -1    0    0    0    0 -0.00000000000E+00 -0.00000000000E+00 -0.45593999997E+02  0.45594000000E+02  0.51100000000E-03 0.  1.
    9900012    2    1    2    0    0 -0.26433555411E+02 -0.24324070646E+02 -0.24356313385E+02  0.47787271133E+02  0.20000000403E+02 0.  0.
         12    1    1    2    0    0  0.26433555411E+02  0.24324070646E+02  0.24356313385E+02  0.43400728867E+02  0.00000000000E+00 0. -1.
         11    1    3    3    0    0 -0.39255298122E+01 -0.14861053225E+02 -0.12747799064E+02  0.19969152924E+02  0.51100000000E-03 0. -1.
        -11    1    3    3    0    0 -0.98407059371E+01 -0.70272239675E+01 -0.35262596866E+01  0.12595867484E+02  0.51100000000E-03 0.  1.
         12    1    3    3    0    0 -0.12667319662E+02 -0.24357934542E+01 -0.80822546342E+01  0.15222250725E+02  0.00000000000E+00 0. -1.
</event>
<event>
 7    1  0.1384886E-010  0.4778727E+02  0.7816164E-02  0.1312668E+00
        -11   -1    0    0    0    0  0.00000000000E+00  0.00000000000E+00  0.45593999997E+02  0.45594000000E+02  0.51100000000E-03 0. -1.
         11   -1    0    0    0    0 -0.00000000000E+00 -0.00000000000E+00 -0.45593999997E+02  0.45594000000E+02  0.51100000000E-03 0.  1.
    9900012    2    1    2    0    0  0.22878637238E+02  0.24277288387E+02 -0.27763365032E+02  0.47787271767E+02  0.20000003294E+02 0.  0.
         12    1    1    2    0    0 -0.22878637238E+02 -0.24277288387E+02  0.27763365032E+02  0.43400728233E+02  0.00000000000E+00 0. -1.
         11    1    3    3    0    0  0.93718213678E+00  0.17284615673E+01  0.14767849052E+01  0.24590208752E+01  0.51100000000E-03 0. -1.
        -11    1    3    3    0    0  0.16609551574E+02  0.11559282806E+02 -0.25500065974E+02  0.32553764566E+02  0.51100000000E-03 0.  1.
         12    1    3    3    0    0  0.53319035280E+01  0.10989544013E+02 -0.37400839629E+01  0.12774486326E+02  0.00000000000E+00 0. -1.
</event>
<event>
 7    1  0.1384886E-010  0.4778727E+02  0.7816164E-02  0.1312668E+00
        -11   -1    0    0    0    0  0.00000000000E+00  0.00000000000E+00  0.45593999997E+02  0.45594000000E+02  0.51100000000E-03 0.  1.
         11   -1    0    0    0    0 -0.00000000000E+00 -0.00000000000E+00 -0.45593999997E+02  0.45594000000E+02  0.51100000000E-03 0. -1.
    9900012    2    1    2    0    0  0.17260038775E+01 -0.30697064752E+02  0.30632250672E+02  0.47787266654E+02  0.19999979980E+02 0.  0.
         12    1    1    2    0    0 -0.17260038775E+01  0.30697064752E+02 -0.30632250672E+02  0.43400733346E+02  0.00000000000E+00 0. -1.
         11    1    3    3    0    0  0.26573485583E+01 -0.13416513343E+02  0.18198035116E+02  0.22764727408E+02  0.51100000000E-03 0.  1.
        -11    1    3    3    0    0  0.26810212130E+01 -0.24274777178E+01  0.85013188431E+01  0.92386657666E+01  0.51100000000E-03 0. -1.
        -12    1    3    3    0    0 -0.36123658938E+01 -0.14853073691E+02  0.39328967134E+01  0.15783873479E+02  0.00000000000E+00 0.  1.
</event>
<event>
 7    1  0.1384886E-010  0.4778727E+02  0.7816164E-02  0.1312668E+00
        -11   -1    0    0    0    0  0.00000000000E+00  0.00000000000E+00  0.45593999997E+02  0.45594000000E+02  0.51100000000E-03 0. -1.
         11   -1    0    0    0    0 -0.00000000000E+00 -0.00000000000E+00 -0.45593999997E+02  0.45594000000E+02  0.51100000000E-03 0.  1.
    9900012    2    1    2    0    0  0.37301563186E+02 -0.17726800632E+02 -0.13340817096E+02  0.47787268698E+02  0.19999989301E+02 0.  0.
         12    1    1    2    0    0 -0.37301563186E+02  0.17726800632E+02  0.13340817096E+02  0.43400731302E+02  0.00000000000E+00 0. -1.
         11    1    3    3    0    0 -0.11397388053E+01 -0.32731089229E+01  0.69719119402E-01  0.34665700025E+01  0.51100000000E-03 0. -1.
        -11    1    3    3    0    0  0.15844144933E+02 -0.11081778980E+02 -0.73326398835E+01  0.20678741788E+02  0.51100000000E-03 0.  1.
        -12    1    3    3    0    0  0.22597157058E+02 -0.33719127290E+01 -0.60778963316E+01  0.23641956907E+02  0.00000000000E+00 0.  1.
</event>
<event>
 7    1  0.1384886E-010  0.4778727E+02  0.7816164E-02  0.1312668E+00
        -11   -1    0    0    0    0  0.00000000000E+00  0.00000000000E+00  0.45593999997E+02  0.45594000000E+02  0.51100000000E-03 0. -1.
         11   -1    0    0    0    0 -0.00000000000E+00 -0.00000000000E+00 -0.45593999997E+02  0.45594000000E+02  0.51100000000E-03 0.  1.
    9900012    2    1    2    0    0 -0.23866619513E+02 -0.22348499699E+02 -0.28540361607E+02  0.47787271821E+02  0.20000003542E+02 0.  0.
         12    1    1    2    0    0  0.23866619513E+02  0.22348499699E+02  0.28540361607E+02  0.43400728179E+02  0.00000000000E+00 0. -1.
         11    1    3    3    0    0  0.97722333736E-01 -0.14583840837E+00  0.22309700158E+01  0.22378663875E+01  0.51100000000E-03 0. -1.
        -11    1    3    3    0    0 -0.97066601144E+01 -0.12300848827E+02 -0.10504051720E+02  0.18864390667E+02  0.51100000000E-03 0.  1.
        -12    1    3    3    0    0 -0.14257681732E+02 -0.99018124632E+01 -0.20267279903E+02  0.26685014767E+02  0.00000000000E+00 0.  1.
</event>
<event>
 7    1  0.1384886E-010  0.4778727E+02  0.7816164E-02  0.1312668E+00
        -11   -1    0    0    0    0  0.00000000000E+00  0.00000000000E+00  0.45593999997E+02  0.45594000000E+02  0.51100000000E-03 0.  1.
         11   -1    0    0    0    0 -0.00000000000E+00 -0.00000000000E+00 -0.45593999997E+02  0.45594000000E+02  0.51100000000E-03 0. -1.
    9900012    2    1    2    0    0  0.27394078404E+02 -0.39207800188E+01  0.33433738919E+02  0.47787274826E+02  0.20000017240E+02 0.  0.
         12    1    1    2    0    0 -0.27394078404E+02  0.39207800188E+01 -0.33433738919E+02  0.43400725174E+02  0.00000000000E+00 0. -1.
         11    1    3    3    0    0  0.12604019320E+02  0.56237771412E+01  0.65066683581E+01  0.15258601042E+02  0.51100000000E-03 0. -1.
        -11    1    3    3    0    0  0.82754513155E+01 -0.32835157591E+01  0.10377741995E+02  0.13673408478E+02  0.51100000000E-03 0.  1.
         12    1    3    3    0    0  0.65146077676E+01 -0.62610414008E+01  0.16549328566E+02  0.18855265306E+02  0.00000000000E+00 0. -1.
</event>
<event>
 7    1  0.1384886E-010  0.4778727E+02  0.7816164E-02  0.1312668E+00
        -11   -1    0    0    0    0  0.00000000000E+00  0.00000000000E+00  0.45593999997E+02  0.45594000000E+02  0.51100000000E-03 0. -1.
         11   -1    0    0    0    0 -0.00000000000E+00 -0.00000000000E+00 -0.45593999997E+02  0.45594000000E+02  0.51100000000E-03 0.  1.
    9900012    2    1    2    0    0  0.34177136024E+02  0.21634561158E+02 -0.15731891865E+02  0.47787270917E+02  0.19999999418E+02 0.  0.
         12    1    1    2    0    0 -0.34177136024E+02 -0.21634561158E+02  0.15731891865E+02  0.43400729083E+02  0.00000000000E+00 0. -1.
         11    1    3    3    0    0  0.10371856723E+02  0.17183506595E+01 -0.34618428847E+01  0.11068536366E+02  0.51100000000E-03 0. -1.
        -11    1    3    3    0    0  0.16125712555E+02  0.20479985741E+02 -0.59019366162E+01  0.26726415350E+02  0.51100000000E-03 0.  1.
        -12    1    3    3    0    0  0.76795667456E+01 -0.56377524258E+00 -0.63681123639E+01  0.99923192004E+01  0.00000000000E+00 0.  1.
</event>
<event>
 7    1  0.1384886E-010  0.4778727E+02  0.7816164E-02  0.1312668E+00
        -11   -1    0    0    0    0  0.00000000000E+00  0.00000000000E+00  0.45593999997E+02  0.45594000000E+02  0.51100000000E-03 0.  1.
         11   -1    0    0    0    0 -0.00000000000E+00 -0.00000000000E+00 -0.45593999997E+02  0.45594000000E+02  0.51100000000E-03 0. -1.
    9900012    2    1    2    0    0  0.14344207618E+02 -0.29443400431E+02  0.28477242344E+02  0.47787268985E+02  0.19999990610E+02 0.  0.
         12    1    1    2    0    0 -0.14344207618E+02  0.29443400431E+02 -0.28477242344E+02  0.43400731015E+02  0.00000000000E+00 0. -1.
         11    1    3    3    0    0  0.66458493840E+01 -0.13191087767E+02  0.13226462177E+02  0.19827037410E+02  0.51100000000E-03 0. -1.
        -11    1    3    3    0    0  0.57867601447E+01 -0.18990779930E+02  0.14365606063E+02  0.24505243381E+02  0.51100000000E-03 0.  1.
         12    1    3    3    0    0  0.19115980896E+01  0.27384672661E+01  0.88517410406E+00  0.34549881936E+01  0.00000000000E+00 0. -1.
</event>
<event>
 7    1  0.1384886E-010  0.4778727E+02  0.7816164E-02  0.1312668E+00
        -11   -1    0    0    0    0  0.00000000000E+00  0.00000000000E+00  0.45593999997E+02  0.45594000000E+02  0.51100000000E-03 0.  1.
         11   -1    0    0    0    0 -0.00000000000E+00 -0.00000000000E+00 -0.45593999997E+02  0.45594000000E+02  0.51100000000E-03 0. -1.
    9900012    2    1    2    0    0 -0.42684129298E+02 -0.31216356160E+01  0.72072323236E+01  0.47787266128E+02  0.19999977584E+02 0.  0.
         12    1    1    2    0    0  0.42684129298E+02  0.31216356160E+01 -0.72072323236E+01  0.43400733872E+02  0.00000000000E+00 0. -1.
         11    1    3    3    0    0 -0.75670779396E+01 -0.52241699692E+01 -0.13084128484E+01  0.92878719228E+01  0.51100000000E-03 0. -1.
        -11    1    3    3    0    0 -0.17089549944E+02 -0.17752380399E+01  0.10202800825E+02  0.19982525675E+02  0.51100000000E-03 0.  1.
         12    1    3    3    0    0 -0.18027501414E+02  0.38777723930E+01 -0.16871556532E+01  0.18516868530E+02  0.00000000000E+00 0. -1.
</event>
<event>
 7    1  0.1384886E-010  0.4778727E+02  0.7816164E-02  0.1312668E+00
        -11   -1    0    0    0    0  0.00000000000E+00  0.00000000000E+00  0.45593999997E+02  0.45594000000E+02  0.51100000000E-03 0. -1.
         11   -1    0    0    0    0 -0.00000000000E+00 -0.00000000000E+00 -0.45593999997E+02  0.45594000000E+02  0.51100000000E-03 0.  1.
    9900012    2    1    2    0    0  0.20047857155E+01  0.68478422654E+01 -0.42810174903E+02  0.47787272072E+02  0.20000004687E+02 0.  0.
         12    1    1    2    0    0 -0.20047857155E+01 -0.68478422654E+01  0.42810174903E+02  0.43400727928E+02  0.00000000000E+00 0. -1.
         11    1    3    3    0    0 -0.68590470517E+01  0.22151569793E+01 -0.12942893416E+02  0.14814585284E+02  0.51100000000E-03 0. -1.
        -11    1    3    3    0    0  0.47838772350E+01  0.30838577832E+01 -0.45633556634E+01  0.72951953639E+01  0.51100000000E-03 0.  1.
         12    1    3    3    0    0  0.40799555323E+01  0.15488275029E+01 -0.25303925824E+02  0.25677491425E+02  0.00000000000E+00 0. -1.
</event>
<event>
 7    1  0.1384886E-010  0.4778727E+02  0.7816164E-02  0.1312668E+00
        -11   -1    0    0    0    0  0.00000000000E+00  0.00000000000E+00  0.45593999997E+02  0.45594000000E+02  0.51100000000E-03 0.  1.
         11   -1    0    0    0    0 -0.00000000000E+00 -0.00000000000E+00 -0.45593999997E+02  0.45594000000E+02  0.51100000000E-03 0. -1.
    9900012    2    1    2    0    0  0.21906331248E+02 -0.96833152918E+01  0.36193499936E+02  0.47787269805E+02  0.19999994351E+02 0.  0.
         12    1    1    2    0    0 -0.21906331248E+02  0.96833152918E+01 -0.36193499936E+02  0.43400730195E+02  0.00000000000E+00 0. -1.
         11    1    3    3    0    0  0.13100810267E+02  0.90806822326E+00  0.11341012119E+02  0.17351494855E+02  0.51100000000E-03 0. -1.
        -11    1    3    3    0    0  0.92786533298E+01 -0.54097073169E+01  0.22047841462E+02  0.24524796723E+02  0.51100000000E-03 0.  1.
         12    1    3    3    0    0 -0.47313234815E+00 -0.51816761982E+01  0.28046463545E+01  0.59109782283E+01  0.00000000000E+00 0. -1.
</event>
<event>
 7    1  0.1384886E-010  0.4778727E+02  0.7816164E-02  0.1312668E+00
        -11   -1    0    0    0    0  0.00000000000E+00  0.00000000000E+00  0.45593999997E+02  0.45594000000E+02  0.51100000000E-03 0.  1.
         11   -1    0    0    0    0 -0.00000000000E+00 -0.00000000000E+00 -0.45593999997E+02  0.45594000000E+02  0.51100000000E-03 0. -1.
    9900012    2    1    2    0    0 -0.26815074871E+02  0.20962343934E+02  0.26928705302E+02  0.47787271057E+02  0.20000000056E+02 0.  0.
         12    1    1    2    0    0  0.26815074871E+02 -0.20962343934E+02 -0.26928705302E+02  0.43400728943E+02  0.00000000000E+00 0. -1.
         11    1    3    3    0    0  0.12457371297E+00 -0.58767661495E+00  0.75932510559E+00  0.96822378137E+00  0.51100000000E-03 0. -1.
        -11    1    3    3    0    0 -0.20092229883E+02  0.57372764750E+01  0.99057032148E+01  0.23124381061E+02  0.51100000000E-03 0.  1.
         12    1    3    3    0    0 -0.68474187006E+01  0.15812744074E+02  0.16263676982E+02  0.23694666214E+02  0.00000000000E+00 0. -1.
</event>
<event>
 7    1  0.1384886E-010  0.4778727E+02  0.7816164E-02  0.1312668E+00
        -11   -1    0    0    0    0  0.00000000000E+00  0.00000000000E+00  0.45593999997E+02  0.45594000000E+02  0.51100000000E-03 0.  1.
         11   -1    0    0    0    0 -0.00000000000E+00 -0.00000000000E+00 -0.45593999997E+02  0.45594000000E+02  0.51100000000E-03 0. -1.
    9900012    2    1    2    0    0  0.12130843326E+02 -0.41643753192E+02  0.15045467806E+01  0.47787271887E+02  0.20000003842E+02 0.  0.
         12    1    1    2    0    0 -0.12130843326E+02  0.41643753192E+02 -0.15045467806E+01  0.43400728113E+02  0.00000000000E+00 0. -1.
         11    1    3    3    0    0  0.31232699437E+01  0.91365639346E+00 -0.10727856461E+01  0.34264343639E+01  0.51100000000E-03 0. -1.
        -11    1    3    3    0    0  0.60568117046E+01 -0.26908987767E+02 -0.23751535873E+01  0.27684290590E+02  0.51100000000E-03 0.  1.
        -12    1    3    3    0    0  0.29507616777E+01 -0.15648421818E+02  0.49524860140E+01  0.16676546933E+02  0.00000000000E+00 0.  1.
</event>
<event>
 7    1  0.1384886E-010  0.4778727E+02  0.7816164E-02  0.1312668E+00
        -11   -1    0    0    0    0  0.00000000000E+00  0.00000000000E+00  0.45593999997E+02  0.45594000000E+02  0.51100000000E-03 0.  1.
         11   -1    0    0    0    0 -0.00000000000E+00 -0.00000000000E+00 -0.45593999997E+02  0.45594000000E+02  0.51100000000E-03 0. -1.
    9900012    2    1    2    0    0 -0.48522565532E+01  0.41618586508E+02  0.11312464346E+02  0.47787274359E+02  0.20000015112E+02 0.  0.
         12    1    1    2    0    0  0.48522565532E+01 -0.41618586508E+02 -0.11312464346E+02  0.43400725641E+02  0.00000000000E+00 0. -1.
         11    1    3    3    0    0 -0.31243182924E+01  0.44341508717E+01 -0.46376509152E+01  0.71365863700E+01  0.51100000000E-03 0.  1.
        -11    1    3    3    0    0 -0.13849935589E+01  0.22417280656E+02  0.77718959103E+01  0.23766679311E+02  0.51100000000E-03 0. -1.
        -12    1    3    3    0    0 -0.34294470192E+00  0.14767154981E+02  0.81782193510E+01  0.16884008678E+02  0.00000000000E+00 0.  1.
</event>
<event>
 7    1  0.1384886E-010  0.4778727E+02  0.7816164E-02  0.1312668E+00
        -11   -1    0    0    0    0  0.00000000000E+00  0.00000000000E+00  0.45593999997E+02  0.45594000000E+02  0.51100000000E-03 0.  1.
         11   -1    0    0    0    0 -0.00000000000E+00 -0.00000000000E+00 -0.45593999997E+02  0.45594000000E+02  0.51100000000E-03 0. -1.
    9900012    2    1    2    0    0 -0.11616300113E+02  0.73506697933E+01  0.41166154113E+02  0.47787273978E+02  0.20000013377E+02 0.  0.
         12    1    1    2    0    0  0.11616300113E+02 -0.73506697933E+01 -0.41166154113E+02  0.43400726022E+02  0.00000000000E+00 0. -1.
         11    1    3    3    0    0  0.29850763846E+01  0.39081328090E+01  0.67140312202E+01  0.83224034125E+01  0.51100000000E-03 0. -1.
        -11    1    3    3    0    0 -0.65850719632E+01 -0.41994158315E+01  0.10596856115E+02  0.13164027722E+02  0.51100000000E-03 0.  1.
         12    1    3    3    0    0 -0.80163045341E+01  0.76419528158E+01  0.23855266778E+02  0.26300842843E+02  0.00000000000E+00 0. -1.
</event>
<event>
 7    1  0.1384886E-010  0.4778727E+02  0.7816164E-02  0.1312668E+00
        -11   -1    0    0    0    0  0.00000000000E+00  0.00000000000E+00  0.45593999997E+02  0.45594000000E+02  0.51100000000E-03 0. -1.
         11   -1    0    0    0    0 -0.00000000000E+00 -0.00000000000E+00 -0.45593999997E+02  0.45594000000E+02  0.51100000000E-03 0.  1.
    9900012    2    1    2    0    0 -0.36801287942E+02  0.91921103235E+01 -0.21090130412E+02  0.47787270891E+02  0.19999999302E+02 0.  0.
         12    1    1    2    0    0  0.36801287942E+02 -0.91921103235E+01  0.21090130412E+02  0.43400729109E+02  0.00000000000E+00 0. -1.
         11    1    3    3    0    0 -0.78635507640E+00  0.40022898605E+01 -0.34830911943E+01  0.53636371020E+01  0.51100000000E-03 0. -1.
        -11    1    3    3    0    0 -0.20750541151E+02 -0.34805064445E+01 -0.93829088080E+01  0.23037748613E+02  0.51100000000E-03 0.  1.
         12    1    3    3    0    0 -0.15264391714E+02  0.86703269075E+01 -0.82241304100E+01  0.19385885177E+02  0.00000000000E+00 0. -1.
</event>
<event>
 7    1  0.2101610E-010  0.4778727E+02  0.7816164E-02  0.1312668E+00
        -11   -1    0    0    0    0  0.00000000000E+00  0.00000000000E+00  0.45593999997E+02  0.45594000000E+02  0.51100000000E-03 0. -1.
         11   -1    0    0    0    0 -0.00000000000E+00 -0.00000000000E+00 -0.45593999997E+02  0.45594000000E+02  0.51100000000E-03 0.  1.
    9900012    2    1    2    0    0  0.53336604786E+01  0.31081463697E+02 -0.29818080576E+02  0.47787271332E+02  0.20000001313E+02 0.  0.
         12    1    1    2    0    0 -0.53336604786E+01 -0.31081463697E+02  0.29818080576E+02  0.43400728668E+02  0.00000000000E+00 0. -1.
         11    1    3    3    0    0  0.73008152493E+01  0.49573486030E+01 -0.47379445085E+01  0.10016253137E+02  0.51100000000E-03 0. -1.
        -11    1    3    3    0    0  0.10408144205E+00  0.95985905795E+01 -0.16368098321E+02  0.18975205321E+02  0.51100000000E-03 0.  1.
        -12    1    3    3    0    0 -0.20712362128E+01  0.16525524514E+02 -0.87120377461E+01  0.18795812874E+02  0.00000000000E+00 0.  1.
</event>
<event>
 7    1  0.1384886E-010  0.4778727E+02  0.7816164E-02  0.1312668E+00
        -11   -1    0    0    0    0  0.00000000000E+00  0.00000000000E+00  0.45593999997E+02  0.45594000000E+02  0.51100000000E-03 0. -1.
         11   -1    0    0    0    0 -0.00000000000E+00 -0.00000000000E+00 -0.45593999997E+02  0.45594000000E+02  0.51100000000E-03 0.  1.
    9900012    2    1    2    0    0  0.58773398065E+01  0.28764915180E+02 -0.31963420419E+02  0.47787265981E+02  0.19999976915E+02 0.  0.
         12    1    1    2    0    0 -0.58773398065E+01 -0.28764915180E+02  0.31963420419E+02  0.43400734019E+02  0.00000000000E+00 0. -1.
         11    1    3    3    0    0 -0.34800760261E+01  0.63083694509E+01 -0.83946687852E+01  0.11062410160E+02  0.51100000000E-03 0. -1.
        -11    1    3    3    0    0  0.12813988140E+02  0.20077455425E+02 -0.21308560744E+02  0.31958680662E+02  0.51100000000E-03 0.  1.
         12    1    3    3    0    0 -0.34565723077E+01  0.23790903038E+01 -0.22601908894E+01  0.47661751592E+01  0.00000000000E+00 0. -1.
</event>
<event>
 7    1  0.1384886E-010  0.4778724E+02  0.7816164E-02  0.1312668E+00
        -11   -1    0    0    0    0  0.00000000000E+00  0.00000000000E+00  0.45593999997E+02  0.45594000000E+02  0.51100000000E-03 0.  1.
         11   -1    0    0    0    0 -0.00000000000E+00 -0.00000000000E+00 -0.45593999997E+02  0.45594000000E+02  0.51100000000E-03 0. -1.
    9900012    2    1    2    0    0  0.30186133924E+02 -0.14344274138E+02  0.27688711401E+02  0.47787244006E+02  0.19999876720E+02 0.  0.
         12    1    1    2    0    0 -0.30186133924E+02  0.14344274138E+02 -0.27688711401E+02  0.43400755994E+02  0.00000000000E+00 0. -1.
         11    1    3    3    0    0  0.12763912011E+02  0.29957950903E+01  0.14123204288E+02  0.19270628886E+02  0.51100000000E-03 0.  1.
        -11    1    3    3    0    0  0.28771754647E+01 -0.49584501640E+01  0.15072333584E+01  0.59275728035E+01  0.51100000000E-03 0. -1.
        -12    1    3    3    0    0  0.14545046448E+02 -0.12381619064E+02  0.12058273755E+02  0.22589042316E+02  0.00000000000E+00 0.  1.
</event>
<event>
 7    1  0.1384886E-010  0.4778727E+02  0.7816164E-02  0.1312668E+00
        -11   -1    0    0    0    0  0.00000000000E+00  0.00000000000E+00  0.45593999997E+02  0.45594000000E+02  0.51100000000E-03 0.  1.
         11   -1    0    0    0    0 -0.00000000000E+00 -0.00000000000E+00 -0.45593999997E+02  0.45594000000E+02  0.51100000000E-03 0. -1.
    9900012    2    1    2    0    0 -0.12343003685E+02 -0.17430702975E+01  0.41572049783E+02  0.47787270085E+02  0.19999995624E+02 0.  0.
         12    1    1    2    0    0  0.12343003685E+02  0.17430702975E+01 -0.41572049783E+02  0.43400729915E+02  0.00000000000E+00 0. -1.
         11    1    3    3    0    0 -0.72983189341E+00 -0.16961857746E+01  0.51442290662E+00  0.19168547057E+01  0.51100000000E-03 0. -1.
        -11    1    3    3    0    0  0.22264325649E+01  0.45535565045E+00 -0.26594388169E+00  0.22880290960E+01  0.51100000000E-03 0.  1.
        -12    1    3    3    0    0 -0.13839604356E+02 -0.50224017338E+00  0.41323570758E+02  0.43582386283E+02  0.00000000000E+00 0.  1.
</event>
<event>
 7    1  0.1384886E-010  0.4778727E+02  0.7816164E-02  0.1312668E+00
        -11   -1    0    0    0    0  0.00000000000E+00  0.00000000000E+00  0.45593999997E+02  0.45594000000E+02  0.51100000000E-03 0.  1.
         11   -1    0    0    0    0 -0.00000000000E+00 -0.00000000000E+00 -0.45593999997E+02  0.45594000000E+02  0.51100000000E-03 0. -1.
    9900012    2    1    2    0    0 -0.27606386868E+02  0.81065925259E+01  0.32492981606E+02  0.47787270836E+02  0.19999999050E+02 0.  0.
         12    1    1    2    0    0  0.27606386868E+02 -0.81065925259E+01 -0.32492981606E+02  0.43400729164E+02  0.00000000000E+00 0. -1.
         11    1    3    3    0    0  0.10289033107E+01 -0.13024701151E+01  0.15513751698E+01  0.22719673418E+01  0.51100000000E-03 0. -1.
        -11    1    3    3    0    0 -0.18487107868E+02  0.97337824722E+01  0.12184360561E+02  0.24186325084E+02  0.51100000000E-03 0.  1.
        -12    1    3    3    0    0 -0.10148182312E+02 -0.32471983112E+00  0.18757245875E+02  0.21328978410E+02  0.00000000000E+00 0.  1.
</event>
<event>
 7    1  0.1384886E-010  0.4778727E+02  0.7816164E-02  0.1312668E+00
        -11   -1    0    0    0    0  0.00000000000E+00  0.00000000000E+00  0.45593999997E+02  0.45594000000E+02  0.51100000000E-03 0.  1.
         11   -1    0    0    0    0 -0.00000000000E+00 -0.00000000000E+00 -0.45593999997E+02  0.45594000000E+02  0.51100000000E-03 0. -1.
    9900012    2    1    2    0    0  0.31462937284E+02  0.14430710883E+02  0.26181315866E+02  0.47787272591E+02  0.20000007052E+02 0.  0.
         12    1    1    2    0    0 -0.31462937284E+02 -0.14430710883E+02 -0.26181315866E+02  0.43400727409E+02  0.00000000000E+00 0. -1.
         11    1    3    3    0    0  0.14757792175E+01  0.41624334334E+01  0.10609802650E+02  0.11492244730E+02  0.51100000000E-03 0. -1.
        -11    1    3    3    0    0  0.14668717191E+02  0.75812313000E+00  0.58465518332E+01  0.15809117095E+02  0.51100000000E-03 0.  1.
        -12    1    3    3    0    0  0.15318440875E+02  0.95101543199E+01  0.97249613826E+01  0.20485910766E+02  0.00000000000E+00 0.  1.
</event>
<event>
 7    1  0.1384886E-010  0.4778728E+02  0.7816164E-02  0.1312668E+00
        -11   -1    0    0    0    0  0.00000000000E+00  0.00000000000E+00  0.45593999997E+02  0.45594000000E+02  0.51100000000E-03 0.  1.
         11   -1    0    0    0    0 -0.00000000000E+00 -0.00000000000E+00 -0.45593999997E+02  0.45594000000E+02  0.51100000000E-03 0. -1.
    9900012    2    1    2    0    0 -0.11416185294E+02  0.10582309282E+02  0.40513063659E+02  0.47787275542E+02  0.20000020507E+02 0.  0.
         12    1    1    2    0    0  0.11416185294E+02 -0.10582309282E+02 -0.40513063659E+02  0.43400724458E+02  0.00000000000E+00 0. -1.
         11    1    3    3    0    0 -0.37860813198E+01  0.16572148192E+01  0.82273542066E+01  0.92070695783E+01  0.51100000000E-03 0. -1.
        -11    1    3    3    0    0 -0.13274849482E+02  0.69516836956E+01  0.20860992891E+02  0.25685181713E+02  0.51100000000E-03 0.  1.
         12    1    3    3    0    0  0.56447455085E+01  0.19734107671E+01  0.11424716562E+02  0.12895024251E+02  0.00000000000E+00 0. -1.
</event>
<event>
 7    1  0.1384886E-010  0.4778727E+02  0.7816164E-02  0.1312668E+00
        -11   -1    0    0    0    0  0.00000000000E+00  0.00000000000E+00  0.45593999997E+02  0.45594000000E+02  0.51100000000E-03 0. -1.
         11   -1    0    0    0    0 -0.00000000000E+00 -0.00000000000E+00 -0.45593999997E+02  0.45594000000E+02  0.51100000000E-03 0.  1.
    9900012    2    1    2    0    0 -0.21997447568E+02  0.18518059428E+02 -0.32508720699E+02  0.47787272518E+02  0.20000006718E+02 0.  0.
         12    1    1    2    0    0  0.21997447568E+02 -0.18518059428E+02  0.32508720699E+02  0.43400727482E+02  0.00000000000E+00 0. -1.
         11    1    3    3    0    0  0.10551559016E+01 -0.21089943455E+01 -0.19529810814E+01  0.30619187598E+01  0.51100000000E-03 0. -1.
        -11    1    3    3    0    0 -0.51197269797E+01 -0.26589455046E+00 -0.47501356713E+01  0.69889980266E+01  0.51100000000E-03 0.  1.
        -12    1    3    3    0    0 -0.17932876490E+02  0.20892948324E+02 -0.25805603946E+02  0.37736355732E+02  0.00000000000E+00 0.  1.
</event>
<event>
 7    1  0.1384886E-010  0.4778727E+02  0.7816164E-02  0.1312668E+00
        -11   -1    0    0    0    0  0.00000000000E+00  0.00000000000E+00  0.45593999997E+02  0.45594000000E+02  0.51100000000E-03 0.  1.
         11   -1    0    0    0    0 -0.00000000000E+00 -0.00000000000E+00 -0.45593999997E+02  0.45594000000E+02  0.51100000000E-03 0. -1.
    9900012    2    1    2    0    0  0.40135683982E+01 -0.29104791231E+02  0.31944100494E+02  0.47787272353E+02  0.20000005968E+02 0.  0.
         12    1    1    2    0    0 -0.40135683982E+01  0.29104791231E+02 -0.31944100494E+02  0.43400727647E+02  0.00000000000E+00 0. -1.
         11    1    3    3    0    0 -0.23448291402E+01 -0.26422251956E+00 -0.45531453772E+00  0.24031955446E+01  0.51100000000E-03 0. -1.
        -11    1    3    3    0    0 -0.86982939602E+00 -0.21013294467E+02  0.19817942673E+02  0.28897508536E+02  0.51100000000E-03 0.  1.
         12    1    3    3    0    0  0.72282269344E+01 -0.78272742452E+01  0.12581472358E+02  0.16486568273E+02  0.00000000000E+00 0. -1.
</event>
<event>
 7    1  0.1384886E-010  0.4778727E+02  0.7816164E-02  0.1312668E+00
        -11   -1    0    0    0    0  0.00000000000E+00  0.00000000000E+00  0.45593999997E+02  0.45594000000E+02  0.51100000000E-03 0.  1.
         11   -1    0    0    0    0 -0.00000000000E+00 -0.00000000000E+00 -0.45593999997E+02  0.45594000000E+02  0.51100000000E-03 0. -1.
    9900012    2    1    2    0    0  0.30779412413E+02 -0.14502796364E+02  0.26942906659E+02  0.47787267862E+02  0.19999985491E+02 0.  0.
         12    1    1    2    0    0 -0.30779412413E+02  0.14502796364E+02 -0.26942906659E+02  0.43400732138E+02  0.00000000000E+00 0. -1.
         11    1    3    3    0    0  0.13730040479E+01  0.18197098665E+01  0.40370024817E+01  0.46361485537E+01  0.51100000000E-03 0. -1.
        -11    1    3    3    0    0  0.22147650821E+02 -0.13318916381E+02  0.23939224637E+02  0.35227807864E+02  0.51100000000E-03 0.  1.
         12    1    3    3    0    0  0.72587575442E+01 -0.30035898499E+01 -0.10333204596E+01  0.79233114444E+01  0.00000000000E+00 0. -1.
</event>
<event>
 7    1  0.1384886E-010  0.4778726E+02  0.7816164E-02  0.1312668E+00
        -11   -1    0    0    0    0  0.00000000000E+00  0.00000000000E+00  0.45593999997E+02  0.45594000000E+02  0.51100000000E-03 0. -1.
         11   -1    0    0    0    0 -0.00000000000E+00 -0.00000000000E+00 -0.45593999997E+02  0.45594000000E+02  0.51100000000E-03 0.  1.
    9900012    2    1    2    0    0 -0.33812441916E+02  0.20224848636E+02 -0.18201608712E+02  0.47787259334E+02  0.19999946605E+02 0.  0.
         12    1    1    2    0    0  0.33812441916E+02 -0.20224848636E+02  0.18201608712E+02  0.43400740666E+02  0.00000000000E+00 0. -1.
         11    1    3    3    0    0 -0.20939126135E+02  0.14454614585E+02 -0.49206879831E+01  0.25915170395E+02  0.51100000000E-03 0. -1.
        -11    1    3    3    0    0 -0.73252978399E+01  0.81367126615E+01 -0.10709028061E+02  0.15315004527E+02  0.51100000000E-03 0.  1.
        -12    1    3    3    0    0 -0.55480179412E+01 -0.23664786104E+01 -0.25718926677E+01  0.65570844118E+01  0.00000000000E+00 0.  1.
</event>
<event>
 7    1  0.1384886E-010  0.4778727E+02  0.7816164E-02  0.1312668E+00
        -11   -1    0    0    0    0  0.00000000000E+00  0.00000000000E+00  0.45593999997E+02  0.45594000000E+02  0.51100000000E-03 0.  1.
         11   -1    0    0    0    0 -0.00000000000E+00 -0.00000000000E+00 -0.45593999997E+02  0.45594000000E+02  0.51100000000E-03 0. -1.
    9900012    2    1    2    0    0  0.68516708507E+01 -0.36283024867E+02  0.22808331558E+02  0.47787271026E+02  0.19999999918E+02 0.  0.
         12    1    1    2    0    0 -0.68516708507E+01  0.36283024867E+02 -0.22808331558E+02  0.43400728974E+02  0.00000000000E+00 0. -1.
         11    1    3    3    0    0 -0.10019702573E+01 -0.69647098199E+01  0.71006559418E+01  0.99965215119E+01  0.51100000000E-03 0. -1.
        -11    1    3    3    0    0  0.11282903278E+02 -0.25505556048E+02  0.89154079190E+01  0.29280057963E+02  0.51100000000E-03 0.  1.
        -12    1    3    3    0    0 -0.34292621696E+01 -0.38127589996E+01  0.67922676975E+01  0.85106915519E+01  0.00000000000E+00 0.  1.
</event>
<event>
 7    1  0.1384886E-010  0.4778727E+02  0.7816164E-02  0.1312668E+00
        -11   -1    0    0    0    0  0.00000000000E+00  0.00000000000E+00  0.45593999997E+02  0.45594000000E+02  0.51100000000E-03 0.  1.
         11   -1    0    0    0    0 -0.00000000000E+00 -0.00000000000E+00 -0.45593999997E+02  0.45594000000E+02  0.51100000000E-03 0. -1.
    9900012    2    1    2    0    0  0.12666841460E+02  0.60576184534E+01  0.41066767120E+02  0.47787274481E+02  0.20000015670E+02 0.  0.
         12    1    1    2    0    0 -0.12666841460E+02 -0.60576184534E+01 -0.41066767120E+02  0.43400725519E+02  0.00000000000E+00 0. -1.
         11    1    3    3    0    0  0.26589593803E+01  0.21771860022E+00  0.70781964590E+00  0.27601585619E+01  0.51100000000E-03 0. -1.
        -11    1    3    3    0    0  0.20990051402E+01  0.12790645380E+01  0.33545038723E+02  0.33634973641E+02  0.51100000000E-03 0.  1.
        -12    1    3    3    0    0  0.79088769396E+01  0.45608353152E+01  0.68139087509E+01  0.11392142278E+02  0.00000000000E+00 0.  1.
</event>
<event>
 7    1  0.1384886E-010  0.4778727E+02  0.7816164E-02  0.1312668E+00
        -11   -1    0    0    0    0  0.00000000000E+00  0.00000000000E+00  0.45593999997E+02  0.45594000000E+02  0.51100000000E-03 0. -1.
         11   -1    0    0    0    0 -0.00000000000E+00 -0.00000000000E+00 -0.45593999997E+02  0.45594000000E+02  0.51100000000E-03 0.  1.
    9900012    2    1    2    0    0  0.62845383037E+01  0.45004411893E+01 -0.42706836430E+02  0.47787271084E+02  0.20000000180E+02 0.  0.
         12    1    1    2    0    0 -0.62845383037E+01 -0.45004411893E+01  0.42706836430E+02  0.43400728916E+02  0.00000000000E+00 0. -1.
         11    1    3    3    0    0 -0.21333994534E+01 -0.13663614788E+01 -0.13291011525E+02  0.13530311324E+02  0.51100000000E-03 0. -1.
        -11    1    3    3    0    0  0.10445163987E+02 -0.89006795835E+00 -0.16784135328E+02  0.19788907769E+02  0.51100000000E-03 0.  1.
        -12    1    3    3    0    0 -0.20272262301E+01  0.67568706265E+01 -0.12631689577E+02  0.14468051991E+02  0.00000000000E+00 0.  1.
</event>
<event>
 7    1  0.1384886E-010  0.4778727E+02  0.7816164E-02  0.1312668E+00
        -11   -1    0    0    0    0  0.00000000000E+00  0.00000000000E+00  0.45593999997E+02  0.45594000000E+02  0.51100000000E-03 0. -1.
         11   -1    0    0    0    0 -0.00000000000E+00 -0.00000000000E+00 -0.45593999997E+02  0.45594000000E+02  0.51100000000E-03 0.  1.
    9900012    2    1    2    0    0 -0.22154965341E+02 -0.48145767886E+01 -0.37008113030E+02  0.47787273405E+02  0.20000010764E+02 0.  0.
         12    1    1    2    0    0  0.22154965341E+02  0.48145767886E+01  0.37008113030E+02  0.43400726595E+02  0.00000000000E+00 0. -1.
         11    1    3    3    0    0 -0.54136088021E+01 -0.63288979638E+00 -0.19055231634E+01  0.57739699120E+01  0.51100000000E-03 0. -1.
        -11    1    3    3    0    0 -0.12881302300E+02  0.34938134273E+01 -0.27385978938E+02  0.30465169028E+02  0.51100000000E-03 0.  1.
        -12    1    3    3    0    0 -0.38600542390E+01 -0.76755004195E+01 -0.77166109283E+01  0.11548134466E+02  0.00000000000E+00 0.  1.
</event>
<event>
 7    1  0.1384886E-010  0.4778727E+02  0.7816164E-02  0.1312668E+00
        -11   -1    0    0    0    0  0.00000000000E+00  0.00000000000E+00  0.45593999997E+02  0.45594000000E+02  0.51100000000E-03 0.  1.
         11   -1    0    0    0    0 -0.00000000000E+00 -0.00000000000E+00 -0.45593999997E+02  0.45594000000E+02  0.51100000000E-03 0. -1.
    9900012    2    1    2    0    0 -0.65658923774E+01 -0.40286366830E+02  0.14748590829E+02  0.47787271590E+02  0.20000002487E+02 0.  0.
         12    1    1    2    0    0  0.65658923774E+01  0.40286366830E+02 -0.14748590829E+02  0.43400728410E+02  0.00000000000E+00 0. -1.
         11    1    3    3    0    0 -0.60814245303E+00 -0.12064393487E+02 -0.13695270666E+01  0.12157098013E+02  0.51100000000E-03 0. -1.
        -11    1    3    3    0    0 -0.74267135019E+01 -0.62685388143E+01  0.39833836366E+01  0.10503237490E+02  0.51100000000E-03 0.  1.
        -12    1    3    3    0    0  0.14689635775E+01 -0.21953434529E+02  0.12134734259E+02  0.25126936087E+02  0.00000000000E+00 0.  1.
</event>
<event>
 7    1  0.1384886E-010  0.4778727E+02  0.7816164E-02  0.1312668E+00
        -11   -1    0    0    0    0  0.00000000000E+00  0.00000000000E+00  0.45593999997E+02  0.45594000000E+02  0.51100000000E-03 0.  1.
         11   -1    0    0    0    0 -0.00000000000E+00 -0.00000000000E+00 -0.45593999997E+02  0.45594000000E+02  0.51100000000E-03 0. -1.
    9900012    2    1    2    0    0  0.30908885282E+01 -0.52742856661E+01  0.42968026259E+02  0.47787274640E+02  0.20000016392E+02 0.  0.
         12    1    1    2    0    0 -0.30908885282E+01  0.52742856661E+01 -0.42968026259E+02  0.43400725360E+02  0.00000000000E+00 0. -1.
         11    1    3    3    0    0  0.43948765685E+01  0.16722359567E+01  0.13426575949E+02  0.14226182029E+02  0.51100000000E-03 0.  1.
        -11    1    3    3    0    0 -0.62822185494E+01 -0.17507303590E+01  0.57136641300E+01  0.86704835357E+01  0.51100000000E-03 0. -1.
         12    1    3    3    0    0  0.49782305091E+01 -0.51957912638E+01  0.23827786181E+02  0.24890609075E+02  0.00000000000E+00 0. -1.
</event>
<event>
 7    1  0.1384886E-010  0.4778727E+02  0.7816164E-02  0.1312668E+00
        -11   -1    0    0    0    0  0.00000000000E+00  0.00000000000E+00  0.45593999997E+02  0.45594000000E+02  0.51100000000E-03 0. -1.
         11   -1    0    0    0    0 -0.00000000000E+00 -0.00000000000E+00 -0.45593999997E+02  0.45594000000E+02  0.51100000000E-03 0.  1.
    9900012    2    1    2    0    0 -0.17572208008E+02  0.32257077335E+02 -0.23115406040E+02  0.47787268107E+02  0.19999986607E+02 0.  0.
         12    1    1    2    0    0  0.17572208008E+02 -0.32257077335E+02  0.23115406040E+02  0.43400731893E+02  0.00000000000E+00 0. -1.
         11    1    3    3    0    0 -0.57606212457E+01  0.13904400131E+02 -0.21490918956E+01  0.15203147581E+02  0.51100000000E-03 0. -1.
        -11    1    3    3    0    0 -0.12546051223E+02  0.90653268006E+01 -0.11341188111E+02  0.19188697176E+02  0.51100000000E-03 0.  1.
        -12    1    3    3    0    0  0.73446446069E+00  0.92873504036E+01 -0.96251260325E+01  0.13395423349E+02  0.00000000000E+00 0.  1.
</event>
<event>
 7    1  0.1384886E-010  0.4778727E+02  0.7816164E-02  0.1312668E+00
        -11   -1    0    0    0    0  0.00000000000E+00  0.00000000000E+00  0.45593999997E+02  0.45594000000E+02  0.51100000000E-03 0. -1.
         11   -1    0    0    0    0 -0.00000000000E+00 -0.00000000000E+00 -0.45593999997E+02  0.45594000000E+02  0.51100000000E-03 0.  1.
    9900012    2    1    2    0    0  0.26847350700E+02 -0.27530690940E+02 -0.20122225584E+02  0.47787272521E+02  0.20000006732E+02 0.  0.
         12    1    1    2    0    0 -0.26847350700E+02  0.27530690940E+02  0.20122225584E+02  0.43400727479E+02  0.00000000000E+00 0. -1.
         11    1    3    3    0    0 -0.10542995113E+01 -0.75431995966E+01 -0.31096949328E+01  0.82268833983E+01  0.51100000000E-03 0. -1.
        -11    1    3    3    0    0  0.13166771826E+02 -0.10968963689E+02 -0.31811226154E+01  0.17429904936E+02  0.51100000000E-03 0.  1.
        -12    1    3    3    0    0  0.14734878385E+02 -0.90185276550E+01 -0.13831408036E+02  0.22130484187E+02  0.00000000000E+00 0.  1.
</event>
<event>
 7    1  0.1384886E-010  0.4778727E+02  0.7816164E-02  0.1312668E+00
        -11   -1    0    0    0    0  0.00000000000E+00  0.00000000000E+00  0.45593999997E+02  0.45594000000E+02  0.51100000000E-03 0. -1.
         11   -1    0    0    0    0 -0.00000000000E+00 -0.00000000000E+00 -0.45593999997E+02  0.45594000000E+02  0.51100000000E-03 0.  1.
    9900012    2    1    2    0    0 -0.33828439857E+02 -0.85432948653E+01  0.25812252979E+02  0.47787266894E+02  0.19999981076E+02 0.  0.
         12    1    1    2    0    0  0.33828439857E+02  0.85432948653E+01 -0.25812252979E+02  0.43400733106E+02  0.00000000000E+00 0. -1.
         11    1    3    3    0    0 -0.10134527774E+02 -0.59248025931E+01  0.15832710307E+01  0.11845618869E+02  0.51100000000E-03 0.  1.
        -11    1    3    3    0    0 -0.21197444341E+02 -0.18965314519E+01  0.14207515548E+02  0.25588707987E+02  0.51100000000E-03 0. -1.
         12    1    3    3    0    0 -0.24964677412E+01 -0.72196082028E+00  0.10021466401E+02  0.10352940038E+02  0.00000000000E+00 0. -1.
</event>
<event>
 7    1  0.1384886E-010  0.4778727E+02  0.7816164E-02  0.1312668E+00
        -11   -1    0    0    0    0  0.00000000000E+00  0.00000000000E+00  0.45593999997E+02  0.45594000000E+02  0.51100000000E-03 0.  1.
         11   -1    0    0    0    0 -0.00000000000E+00 -0.00000000000E+00 -0.45593999997E+02  0.45594000000E+02  0.51100000000E-03 0. -1.
    9900012    2    1    2    0    0  0.20163791641E+02  0.34111669925E+02  0.17704204655E+02  0.47787269812E+02  0.19999994380E+02 0.  0.
         12    1    1    2    0    0 -0.20163791641E+02 -0.34111669925E+02 -0.17704204655E+02  0.43400730188E+02  0.00000000000E+00 0. -1.
         11    1    3    3    0    0  0.47480628885E+01  0.10922384805E+02  0.12399407028E+02  0.17192669540E+02  0.51100000000E-03 0. -1.
        -11    1    3    3    0    0  0.17388179383E+00  0.52324915219E+01 -0.24732765196E+01  0.57901899285E+01  0.51100000000E-03 0.  1.
         12    1    3    3    0    0  0.15241846959E+02  0.17956793598E+02  0.77780741466E+01  0.24804410343E+02  0.00000000000E+00 0. -1.
</event>
<event>
 7    1  0.1384886E-010  0.4778728E+02  0.7816164E-02  0.1312668E+00
        -11   -1    0    0    0    0  0.00000000000E+00  0.00000000000E+00  0.45593999997E+02  0.45594000000E+02  0.51100000000E-03 0. -1.
         11   -1    0    0    0    0 -0.00000000000E+00 -0.00000000000E+00 -0.45593999997E+02  0.45594000000E+02  0.51100000000E-03 0.  1.
    9900012    2    1    2    0    0  0.37782569702E+02  0.20487157232E+02 -0.60312986532E+01  0.47787277100E+02  0.20000027611E+02 0.  0.
         12    1    1    2    0    0 -0.37782569702E+02 -0.20487157232E+02  0.60312986532E+01  0.43400722900E+02  0.00000000000E+00 0. -1.
         11    1    3    3    0    0  0.18143380847E+02  0.57533205156E+01  0.32999224470E+01  0.19317672063E+02  0.51100000000E-03 0. -1.
        -11    1    3    3    0    0  0.81661355937E-01  0.50502493429E+01 -0.22134180991E+01  0.55146085033E+01  0.51100000000E-03 0.  1.
        -12    1    3    3    0    0  0.19557527499E+02  0.96835873740E+01 -0.71178030011E+01  0.22954996534E+02  0.00000000000E+00 0.  1.
</event>
<event>
 7    1  0.1384886E-010  0.4778726E+02  0.7816164E-02  0.1312668E+00
        -11   -1    0    0    0    0  0.00000000000E+00  0.00000000000E+00  0.45593999997E+02  0.45594000000E+02  0.51100000000E-03 0.  1.
         11   -1    0    0    0    0 -0.00000000000E+00 -0.00000000000E+00 -0.45593999997E+02  0.45594000000E+02  0.51100000000E-03 0. -1.
    9900012    2    1    2    0    0  0.19710908683E+02 -0.13667743336E+02  0.36170391796E+02  0.47787258397E+02  0.19999942337E+02 0.  0.
         12    1    1    2    0    0 -0.19710908683E+02  0.13667743336E+02 -0.36170391796E+02  0.43400741603E+02  0.00000000000E+00 0. -1.
         11    1    3    3    0    0  0.67820617411E+01  0.33340215762E+00  0.66105302194E+01  0.94766359275E+01  0.51100000000E-03 0. -1.
        -11    1    3    3    0    0  0.25775435144E+01 -0.10252757372E+02  0.23442691870E+02  0.25716192694E+02  0.51100000000E-03 0.  1.
         12    1    3    3    0    0  0.10351303428E+02 -0.37483881218E+01  0.61171697060E+01  0.12594429776E+02  0.00000000000E+00 0. -1.
</event>
<event>
 7    1  0.1384886E-010  0.4778727E+02  0.7816164E-02  0.1312668E+00
        -11   -1    0    0    0    0  0.00000000000E+00  0.00000000000E+00  0.45593999997E+02  0.45594000000E+02  0.51100000000E-03 0. -1.
         11   -1    0    0    0    0 -0.00000000000E+00 -0.00000000000E+00 -0.45593999997E+02  0.45594000000E+02  0.51100000000E-03 0.  1.
    9900012    2    1    2    0    0  0.30541865183E+02 -0.22302549694E+02 -0.21293522826E+02  0.47787269983E+02  0.19999995158E+02 0.  0.
         12    1    1    2    0    0 -0.30541865183E+02  0.22302549694E+02  0.21293522826E+02  0.43400730017E+02  0.00000000000E+00 0. -1.
         11    1    3    3    0    0  0.13051504975E+02 -0.13060642424E+02 -0.17261304074E+02  0.25275972409E+02  0.51100000000E-03 0. -1.
        -11    1    3    3    0    0  0.16335564964E+02 -0.56926676595E+01 -0.59771671672E+01  0.18302559258E+02  0.51100000000E-03 0.  1.
         12    1    3    3    0    0  0.11547952437E+01 -0.35492396106E+01  0.19449484154E+01  0.42087383153E+01  0.00000000000E+00 0. -1.
</event>
<event>
 7    1  0.1384886E-010  0.4778727E+02  0.7816164E-02  0.1312668E+00
        -11   -1    0    0    0    0  0.00000000000E+00  0.00000000000E+00  0.45593999997E+02  0.45594000000E+02  0.51100000000E-03 0. -1.
         11   -1    0    0    0    0 -0.00000000000E+00 -0.00000000000E+00 -0.45593999997E+02  0.45594000000E+02  0.51100000000E-03 0.  1.
    9900012    2    1    2    0    0 -0.20685865965E+02 -0.29421681660E+02 -0.24291621315E+02  0.47787271106E+02  0.20000000282E+02 0.  0.
         12    1    1    2    0    0  0.20685865965E+02  0.29421681660E+02  0.24291621315E+02  0.43400728894E+02  0.00000000000E+00 0. -1.
         11    1    3    3    0    0 -0.34739812084E+01 -0.84885483244E+01  0.35885800680E+00  0.91789311700E+01  0.51100000000E-03 0. -1.
        -11    1    3    3    0    0 -0.12808250384E+02 -0.20990728291E+02 -0.17393904160E+02  0.30119924540E+02  0.51100000000E-03 0.  1.
         12    1    3    3    0    0 -0.44036343723E+01  0.57594955907E-01 -0.72565751618E+01  0.84884153964E+01  0.00000000000E+00 0. -1.
</event>
<event>
 7    1  0.1384886E-010  0.4778727E+02  0.7816164E-02  0.1312668E+00
        -11   -1    0    0    0    0  0.00000000000E+00  0.00000000000E+00  0.45593999997E+02  0.45594000000E+02  0.51100000000E-03 0. -1.
         11   -1    0    0    0    0 -0.00000000000E+00 -0.00000000000E+00 -0.45593999997E+02  0.45594000000E+02  0.51100000000E-03 0.  1.
    9900012    2    1    2    0    0  0.49566590339E+01 -0.13596932476E+02 -0.40916725924E+02  0.47787268418E+02  0.19999988023E+02 0.  0.
         12    1    1    2    0    0 -0.49566590339E+01  0.13596932476E+02  0.40916725924E+02  0.43400731582E+02  0.00000000000E+00 0. -1.
         11    1    3    3    0    0  0.39749689950E+01 -0.23215589098E+01 -0.11769243290E+02  0.12637448404E+02  0.51100000000E-03 0. -1.
        -11    1    3    3    0    0  0.61129565470E+01 -0.11199281826E+02 -0.13036381051E+02  0.18241145313E+02  0.51100000000E-03 0.  1.
         12    1    3    3    0    0 -0.51312665080E+01 -0.76091741086E-01 -0.16111101583E+02  0.16908674701E+02  0.00000000000E+00 0. -1.
</event>
<event>
 7    1  0.1384886E-010  0.4778727E+02  0.7816164E-02  0.1312668E+00
        -11   -1    0    0    0    0  0.00000000000E+00  0.00000000000E+00  0.45593999997E+02  0.45594000000E+02  0.51100000000E-03 0.  1.
         11   -1    0    0    0    0 -0.00000000000E+00 -0.00000000000E+00 -0.45593999997E+02  0.45594000000E+02  0.51100000000E-03 0. -1.
    9900012    2    1    2    0    0 -0.41244932274E+02  0.13223718647E+02  0.27589922383E+01  0.47787271765E+02  0.20000003286E+02 0.  0.
         12    1    1    2    0    0  0.41244932274E+02 -0.13223718647E+02 -0.27589922383E+01  0.43400728235E+02  0.00000000000E+00 0. -1.
         11    1    3    3    0    0 -0.13521792895E+02  0.98406138153E+01 -0.18181190239E+01  0.16822072417E+02  0.51100000000E-03 0. -1.
        -11    1    3    3    0    0 -0.98355386245E+01 -0.45821082225E+01  0.33065539606E+01  0.11343140445E+02  0.51100000000E-03 0.  1.
        -12    1    3    3    0    0 -0.17887600755E+02  0.79652130543E+01  0.12705573016E+01  0.19622058904E+02  0.00000000000E+00 0.  1.
</event>
<event>
 7    1  0.1384886E-010  0.4778727E+02  0.7816164E-02  0.1312668E+00
        -11   -1    0    0    0    0  0.00000000000E+00  0.00000000000E+00  0.45593999997E+02  0.45594000000E+02  0.51100000000E-03 0.  1.
         11   -1    0    0    0    0 -0.00000000000E+00 -0.00000000000E+00 -0.45593999997E+02  0.45594000000E+02  0.51100000000E-03 0. -1.
    9900012    2    1    2    0    0 -0.35588710168E+02 -0.16818529732E+02 -0.18281257475E+02  0.47787267187E+02  0.19999982413E+02 0.  0.
         12    1    1    2    0    0  0.35588710168E+02  0.16818529732E+02  0.18281257475E+02  0.43400732813E+02  0.00000000000E+00 0. -1.
         11    1    3    3    0    0 -0.49464467812E+00 -0.15609646250E+01 -0.52446339408E+01  0.54943124549E+01  0.51100000000E-03 0. -1.
        -11    1    3    3    0    0 -0.25263705270E+02 -0.56008692328E+01 -0.11851983054E+02  0.28462151055E+02  0.51100000000E-03 0.  1.
         12    1    3    3    0    0 -0.98303602208E+01 -0.96566958746E+01 -0.11846404799E+01  0.13830803677E+02  0.00000000000E+00 0. -1.
</event>
<event>
 7    1  0.1384886E-010  0.4778722E+02  0.7816164E-02  0.1312668E+00
        -11   -1    0    0    0    0  0.00000000000E+00  0.00000000000E+00  0.45593999997E+02  0.45594000000E+02  0.51100000000E-03 0.  1.
         11   -1    0    0    0    0 -0.00000000000E+00 -0.00000000000E+00 -0.45593999997E+02  0.45594000000E+02  0.51100000000E-03 0. -1.
    9900012    2    1    2    0    0 -0.19500087368E+02  0.16107686426E+01  0.38739903787E+02  0.47787215117E+02  0.19999745004E+02 0.  0.
         12    1    1    2    0    0  0.19500087368E+02 -0.16107686426E+01 -0.38739903787E+02  0.43400784883E+02  0.00000000000E+00 0. -1.
         11    1    3    3    0    0 -0.98725170967E+01  0.51299929353E+01  0.20399566981E+02  0.23236302516E+02  0.51100000000E-03 0. -1.
        -11    1    3    3    0    0 -0.12652948759E+02 -0.22776968832E+01  0.16021578381E+02  0.20542054168E+02  0.51100000000E-03 0.  1.
        -12    1    3    3    0    0  0.30253784873E+01 -0.12415274094E+01  0.23187584255E+01  0.40088584330E+01  0.00000000000E+00 0.  1.
</event>
<event>
 7    1  0.1384886E-010  0.4778727E+02  0.7816164E-02  0.1312668E+00
        -11   -1    0    0    0    0  0.00000000000E+00  0.00000000000E+00  0.45593999997E+02  0.45594000000E+02  0.51100000000E-03 0.  1.
         11   -1    0    0    0    0 -0.00000000000E+00 -0.00000000000E+00 -0.45593999997E+02  0.45594000000E+02  0.51100000000E-03 0. -1.
    9900012    2    1    2    0    0 -0.38064450977E+02  0.20538197946E+02 -0.35921165703E+01  0.47787270692E+02  0.19999998393E+02 0.  0.
         12    1    1    2    0    0  0.38064450977E+02 -0.20538197946E+02  0.35921165703E+01  0.43400729308E+02  0.00000000000E+00 0. -1.
         11    1    3    3    0    0 -0.15439776489E+02  0.24096521188E+01 -0.25538744593E+01  0.15833994959E+02  0.51100000000E-03 0. -1.
        -11    1    3    3    0    0 -0.81028776566E+01  0.96688206545E+01  0.57043425206E+01  0.13844935645E+02  0.51100000000E-03 0.  1.
        -12    1    3    3    0    0 -0.14521796831E+02  0.84597251726E+01 -0.67425846316E+01  0.18108340087E+02  0.00000000000E+00 0.  1.
</event>
<event>
 7    1  0.1384886E-010  0.4778727E+02  0.7816164E-02  0.1312668E+00
        -11   -1    0    0    0    0  0.00000000000E+00  0.00000000000E+00  0.45593999997E+02  0.45594000000E+02  0.51100000000E-03 0.  1.
         11   -1    0    0    0    0 -0.00000000000E+00 -0.00000000000E+00 -0.45593999997E+02  0.45594000000E+02  0.51100000000E-03 0. -1.
    9900012    2    1    2    0    0  0.14689268111E+02  0.36376879278E+02  0.18562633451E+02  0.47787270695E+02  0.19999998405E+02 0.  0.
         12    1    1    2    0    0 -0.14689268111E+02 -0.36376879278E+02 -0.18562633451E+02  0.43400729305E+02  0.00000000000E+00 0. -1.
         11    1    3    3    0    0 -0.68338548296E+00  0.24654218645E+01  0.68380650235E+01  0.73009899476E+01  0.51100000000E-03 0. -1.
        -11    1    3    3    0    0 -0.12745749056E+01  0.51714392536E+01  0.31349043065E+01  0.61802872437E+01  0.51100000000E-03 0.  1.
        -12    1    3    3    0    0  0.16647228499E+02  0.28740018160E+02  0.85896641208E+01  0.34305993503E+02  0.00000000000E+00 0.  1.
</event>
<event>
 7    1  0.1384886E-010  0.4778726E+02  0.7816164E-02  0.1312668E+00
        -11   -1    0    0    0    0  0.00000000000E+00  0.00000000000E+00  0.45593999997E+02  0.45594000000E+02  0.51100000000E-03 0.  1.
         11   -1    0    0    0    0 -0.00000000000E+00 -0.00000000000E+00 -0.45593999997E+02  0.45594000000E+02  0.51100000000E-03 0. -1.
    9900012    2    1    2    0    0 -0.36425715314E+02 -0.23333354442E+02  0.35136936624E+01  0.47787260273E+02  0.19999950889E+02 0.  0.
         12    1    1    2    0    0  0.36425715314E+02  0.23333354442E+02 -0.35136936624E+01  0.43400739727E+02  0.00000000000E+00 0. -1.
         11    1    3    3    0    0 -0.32503095739E+01 -0.16104319055E+01 -0.39524767334E+01  0.53647065006E+01  0.51100000000E-03 0. -1.
        -11    1    3    3    0    0 -0.30888231873E+02 -0.14703965476E+02  0.46619821830E+01  0.34525694013E+02  0.51100000000E-03 0.  1.
         12    1    3    3    0    0 -0.22871738675E+01 -0.70189570608E+01  0.28041882128E+01  0.78968597591E+01  0.00000000000E+00 0. -1.
</event>
<event>
 7    1  0.1384886E-010  0.4778727E+02  0.7816164E-02  0.1312668E+00
        -11   -1    0    0    0    0  0.00000000000E+00  0.00000000000E+00  0.45593999997E+02  0.45594000000E+02  0.51100000000E-03 0.  1.
         11   -1    0    0    0    0 -0.00000000000E+00 -0.00000000000E+00 -0.45593999997E+02  0.45594000000E+02  0.51100000000E-03 0. -1.
    9900012    2    1    2    0    0  0.35230634930E+02 -0.16564983300E+01  0.25291928785E+02  0.47787270905E+02  0.19999999363E+02 0.  0.
         12    1    1    2    0    0 -0.35230634930E+02  0.16564983300E+01 -0.25291928785E+02  0.43400729095E+02  0.00000000000E+00 0. -1.
         11    1    3    3    0    0  0.77465273578E+01 -0.48278816733E+01  0.46265172842E+01  0.10233366504E+02  0.51100000000E-03 0. -1.
        -11    1    3    3    0    0  0.28773028932E+02  0.24876531024E+01  0.16774657893E+02  0.33398574215E+02  0.51100000000E-03 0.  1.
         12    1    3    3    0    0 -0.12889213599E+01  0.68373024092E+00  0.38907536086E+01  0.41553301863E+01  0.00000000000E+00 0. -1.
</event>
<event>
 7    1  0.1384886E-010  0.4778728E+02  0.7816164E-02  0.1312668E+00
        -11   -1    0    0    0    0  0.00000000000E+00  0.00000000000E+00  0.45593999997E+02  0.45594000000E+02  0.51100000000E-03 0.  1.
         11   -1    0    0    0    0 -0.00000000000E+00 -0.00000000000E+00 -0.45593999997E+02  0.45594000000E+02  0.51100000000E-03 0. -1.
    9900012    2    1    2    0    0 -0.36282738076E+02 -0.39775394035E+01  0.23481146782E+02  0.47787283920E+02  0.20000058706E+02 0.  0.
         12    1    1    2    0    0  0.36282738076E+02  0.39775394035E+01 -0.23481146782E+02  0.43400716080E+02  0.00000000000E+00 0. -1.
         11    1    3    3    0    0 -0.84604366767E+01  0.17677625384E+01  0.78326087856E+01  0.11664207380E+02  0.51100000000E-03 0. -1.
        -11    1    3    3    0    0 -0.12226424613E+02  0.54186767139E+01  0.61360922263E+01  0.14713909889E+02  0.51100000000E-03 0.  1.
        -12    1    3    3    0    0 -0.15595876787E+02 -0.11163978656E+02  0.95124457704E+01  0.21409166651E+02  0.00000000000E+00 0.  1.
</event>
<event>
 7    1  0.1384886E-010  0.4778727E+02  0.7816164E-02  0.1312668E+00
        -11   -1    0    0    0    0  0.00000000000E+00  0.00000000000E+00  0.45593999997E+02  0.45594000000E+02  0.51100000000E-03 0.  1.
         11   -1    0    0    0    0 -0.00000000000E+00 -0.00000000000E+00 -0.45593999997E+02  0.45594000000E+02  0.51100000000E-03 0. -1.
    9900012    2    1    2    0    0 -0.32523521928E+02  0.21670460719E+02  0.18874186235E+02  0.47787271292E+02  0.20000001127E+02 0.  0.
         12    1    1    2    0    0  0.32523521928E+02 -0.21670460719E+02 -0.18874186235E+02  0.43400728708E+02  0.00000000000E+00 0. -1.
         11    1    3    3    0    0 -0.24302881800E+00  0.36294155759E+00  0.69313970160E+01  0.69451461061E+01  0.51100000000E-03 0. -1.
        -11    1    3    3    0    0 -0.15134628017E+02  0.11203757792E+02  0.84379415519E+01  0.20634437520E+02  0.51100000000E-03 0.  1.
        -12    1    3    3    0    0 -0.17145865094E+02  0.10103761369E+02  0.35048476667E+01  0.20207687665E+02  0.00000000000E+00 0.  1.
</event>
<event>
 7    1  0.1384886E-010  0.4778729E+02  0.7816164E-02  0.1312668E+00
        -11   -1    0    0    0    0  0.00000000000E+00  0.00000000000E+00  0.45593999997E+02  0.45594000000E+02  0.51100000000E-03 0.  1.
         11   -1    0    0    0    0 -0.00000000000E+00 -0.00000000000E+00 -0.45593999997E+02  0.45594000000E+02  0.51100000000E-03 0. -1.
    9900012    2    1    2    0    0  0.29564098827E+02  0.24400119486E+02  0.20352400266E+02  0.47787286100E+02  0.20000068645E+02 0.  0.
         12    1    1    2    0    0 -0.29564098827E+02 -0.24400119486E+02 -0.20352400266E+02  0.43400713900E+02  0.00000000000E+00 0. -1.
         11    1    3    3    0    0 -0.11681965810E+01  0.99390810383E+00  0.44508283790E+01  0.47076968988E+01  0.51100000000E-03 0. -1.
        -11    1    3    3    0    0  0.13280624959E+02  0.14271645492E+02  0.35103961596E+01  0.19808527098E+02  0.51100000000E-03 0.  1.
         12    1    3    3    0    0  0.17451670450E+02  0.91345658904E+01  0.12391175728E+02  0.23271062103E+02  0.00000000000E+00 0. -1.
</event>
<event>
 7    1  0.1384886E-010  0.4778727E+02  0.7816164E-02  0.1312668E+00
        -11   -1    0    0    0    0  0.00000000000E+00  0.00000000000E+00  0.45593999997E+02  0.45594000000E+02  0.51100000000E-03 0. -1.
         11   -1    0    0    0    0 -0.00000000000E+00 -0.00000000000E+00 -0.45593999997E+02  0.45594000000E+02  0.51100000000E-03 0.  1.
    9900012    2    1    2    0    0  0.24136037907E+02  0.35889760794E+02 -0.36055696588E+01  0.47787269727E+02  0.19999993993E+02 0.  0.
         12    1    1    2    0    0 -0.24136037907E+02 -0.35889760794E+02  0.36055696588E+01  0.43400730273E+02  0.00000000000E+00 0. -1.
         11    1    3    3    0    0  0.50620207058E+01  0.20670098713E+02  0.57978590735E+00  0.21288804250E+02  0.51100000000E-03 0. -1.
        -11    1    3    3    0    0  0.48875276093E+01 -0.38222232032E+00  0.39871442782E+00  0.49186373611E+01  0.51100000000E-03 0.  1.
        -12    1    3    3    0    0  0.14186489592E+02  0.15601884401E+02 -0.45840699940E+01  0.21579828116E+02  0.00000000000E+00 0.  1.
</event>
<event>
 7    1  0.1384886E-010  0.4778728E+02  0.7816164E-02  0.1312668E+00
        -11   -1    0    0    0    0  0.00000000000E+00  0.00000000000E+00  0.45593999997E+02  0.45594000000E+02  0.51100000000E-03 0. -1.
         11   -1    0    0    0    0 -0.00000000000E+00 -0.00000000000E+00 -0.45593999997E+02  0.45594000000E+02  0.51100000000E-03 0.  1.
    9900012    2    1    2    0    0 -0.18255805528E+02  0.24840146741E+02 -0.30550209334E+02  0.47787278625E+02  0.20000034561E+02 0.  0.
         12    1    1    2    0    0  0.18255805528E+02 -0.24840146741E+02  0.30550209334E+02  0.43400721375E+02  0.00000000000E+00 0. -1.
         11    1    3    3    0    0 -0.31350539094E+00 -0.18571309971E+01 -0.14603388783E+01  0.23832354208E+01  0.51100000000E-03 0. -1.
        -11    1    3    3    0    0 -0.36409466398E+01  0.16419077965E+02 -0.10657257795E+02  0.19910292756E+02  0.51100000000E-03 0.  1.
         12    1    3    3    0    0 -0.14301353497E+02  0.10278199773E+02 -0.18432612660E+02  0.25493750448E+02  0.00000000000E+00 0. -1.
</event>
<event>
 7    1  0.1384886E-010  0.4778727E+02  0.7816164E-02  0.1312668E+00
        -11   -1    0    0    0    0  0.00000000000E+00  0.00000000000E+00  0.45593999997E+02  0.45594000000E+02  0.51100000000E-03 0.  1.
         11   -1    0    0    0    0 -0.00000000000E+00 -0.00000000000E+00 -0.45593999997E+02  0.45594000000E+02  0.51100000000E-03 0. -1.
    9900012    2    1    2    0    0  0.21731176159E+02  0.58092880175E+01  0.37116459204E+02  0.47787269725E+02  0.19999993985E+02 0.  0.
         12    1    1    2    0    0 -0.21731176159E+02 -0.58092880175E+01 -0.37116459204E+02  0.43400730275E+02  0.00000000000E+00 0. -1.
         11    1    3    3    0    0 -0.26741688486E+01 -0.24208638370E+01  0.43351516935E+01  0.56396188891E+01  0.51100000000E-03 0. -1.
        -11    1    3    3    0    0  0.11651265252E+02  0.30072958809E+01  0.20058063053E+02  0.23390632830E+02  0.51100000000E-03 0.  1.
         12    1    3    3    0    0  0.12754079756E+02  0.52228559736E+01  0.12723244457E+02  0.18757018006E+02  0.00000000000E+00 0. -1.
</event>
<event>
 7    1  0.1384886E-010  0.4778727E+02  0.7816164E-02  0.1312668E+00
        -11   -1    0    0    0    0  0.00000000000E+00  0.00000000000E+00  0.45593999997E+02  0.45594000000E+02  0.51100000000E-03 0.  1.
         11   -1    0    0    0    0 -0.00000000000E+00 -0.00000000000E+00 -0.45593999997E+02  0.45594000000E+02  0.51100000000E-03 0. -1.
    9900012    2    1    2    0    0  0.42870959007E+02  0.38950903059E+01  0.55256365239E+01  0.47787268282E+02  0.19999987405E+02 0.  0.
         12    1    1    2    0    0 -0.42870959007E+02 -0.38950903059E+01 -0.55256365239E+01  0.43400731718E+02  0.00000000000E+00 0. -1.
         11    1    3    3    0    0  0.44839080988E+01  0.32189085811E+01  0.30269523769E+01  0.62951763474E+01  0.51100000000E-03 0. -1.
        -11    1    3    3    0    0  0.11183012713E+02 -0.66446949644E+01 -0.12667783556E+01  0.13069677585E+02  0.51100000000E-03 0.  1.
         12    1    3    3    0    0  0.27204038195E+02  0.73208766891E+01  0.37654625026E+01  0.28422414349E+02  0.00000000000E+00 0. -1.
</event>
<event>
 7    1  0.1384886E-010  0.4778727E+02  0.7816164E-02  0.1312668E+00
        -11   -1    0    0    0    0  0.00000000000E+00  0.00000000000E+00  0.45593999997E+02  0.45594000000E+02  0.51100000000E-03 0.  1.
         11   -1    0    0    0    0 -0.00000000000E+00 -0.00000000000E+00 -0.45593999997E+02  0.45594000000E+02  0.51100000000E-03 0. -1.
    9900012    2    1    2    0    0  0.20748724487E+01 -0.41706597546E+02  0.11827000831E+02  0.47787270476E+02  0.19999997409E+02 0.  0.
         12    1    1    2    0    0 -0.20748724487E+01  0.41706597546E+02 -0.11827000831E+02  0.43400729524E+02  0.00000000000E+00 0. -1.
         11    1    3    3    0    0 -0.10298644591E+00 -0.18356187458E+02  0.81189630603E+01  0.20071815704E+02  0.51100000000E-03 0.  1.
        -11    1    3    3    0    0  0.62114102247E+01 -0.11328094387E+02  0.68895990282E+01  0.14641513393E+02  0.51100000000E-03 0. -1.
         12    1    3    3    0    0 -0.40335513301E+01 -0.12022315701E+02 -0.31815612579E+01  0.13073941379E+02  0.00000000000E+00 0. -1.
</event>
<event>
 7    1  0.1384886E-010  0.4778727E+02  0.7816164E-02  0.1312668E+00
        -11   -1    0    0    0    0  0.00000000000E+00  0.00000000000E+00  0.45593999997E+02  0.45594000000E+02  0.51100000000E-03 0.  1.
         11   -1    0    0    0    0 -0.00000000000E+00 -0.00000000000E+00 -0.45593999997E+02  0.45594000000E+02  0.51100000000E-03 0. -1.
    9900012    2    1    2    0    0 -0.35755189065E+02 -0.20481236086E+02  0.13627500362E+02  0.47787270250E+02  0.19999996377E+02 0.  0.
         12    1    1    2    0    0  0.35755189065E+02  0.20481236086E+02 -0.13627500362E+02  0.43400729750E+02  0.00000000000E+00 0. -1.
         11    1    3    3    0    0 -0.82024466216E+01 -0.24839981273E+00  0.74027780961E+01  0.11051830475E+02  0.51100000000E-03 0. -1.
        -11    1    3    3    0    0 -0.25919293178E+02 -0.13406899423E+02  0.47975412507E+01  0.29573148518E+02  0.51100000000E-03 0.  1.
         12    1    3    3    0    0 -0.16334492659E+01 -0.68259368507E+01  0.14271810157E+01  0.71622912567E+01  0.00000000000E+00 0. -1.
</event>
<event>
 7    1  0.1384886E-010  0.4778728E+02  0.7816164E-02  0.1312668E+00
        -11   -1    0    0    0    0  0.00000000000E+00  0.00000000000E+00  0.45593999997E+02  0.45594000000E+02  0.51100000000E-03 0. -1.
         11   -1    0    0    0    0 -0.00000000000E+00 -0.00000000000E+00 -0.45593999997E+02  0.45594000000E+02  0.51100000000E-03 0.  1.
    9900012    2    1    2    0    0  0.62778656758E+01 -0.24325507203E+02 -0.35390400354E+02  0.47787281857E+02  0.20000049297E+02 0.  0.
         12    1    1    2    0    0 -0.62778656758E+01  0.24325507203E+02  0.35390400354E+02  0.43400718143E+02  0.00000000000E+00 0. -1.
         11    1    3    3    0    0 -0.59214592336E+00 -0.64765461877E+01 -0.24275984247E+01  0.69418673056E+01  0.51100000000E-03 0. -1.
        -11    1    3    3    0    0 -0.42549284854E+01 -0.84692615342E+01 -0.14762037241E+02  0.17542820501E+02  0.51100000000E-03 0.  1.
         12    1    3    3    0    0  0.11124940085E+02 -0.93796994810E+01 -0.18200764689E+02  0.23302594051E+02  0.00000000000E+00 0. -1.
</event>
<event>
 7    1  0.1384886E-010  0.4778727E+02  0.7816164E-02  0.1312668E+00
        -11   -1    0    0    0    0  0.00000000000E+00  0.00000000000E+00  0.45593999997E+02  0.45594000000E+02  0.51100000000E-03 0.  1.
         11   -1    0    0    0    0 -0.00000000000E+00 -0.00000000000E+00 -0.45593999997E+02  0.45594000000E+02  0.51100000000E-03 0. -1.
    9900012    2    1    2    0    0  0.36820219407E+02 -0.20966140312E+02  0.93976427025E+01  0.47787270915E+02  0.19999999409E+02 0.  0.
         12    1    1    2    0    0 -0.36820219407E+02  0.20966140312E+02 -0.93976427025E+01  0.43400729085E+02  0.00000000000E+00 0. -1.
         11    1    3    3    0    0  0.15632400907E+02 -0.71612832555E+01  0.56661572592E+01  0.18104178366E+02  0.51100000000E-03 0. -1.
        -11    1    3    3    0    0  0.21844001728E+02 -0.15964415251E+02  0.41942486233E+01  0.27379092161E+02  0.51100000000E-03 0.  1.
         12    1    3    3    0    0 -0.65618322836E+00  0.21595581939E+01 -0.46276317993E+00  0.23040003869E+01  0.00000000000E+00 0. -1.
</event>
<event>
 7    1  0.1384886E-010  0.4778728E+02  0.7816164E-02  0.1312668E+00
        -11   -1    0    0    0    0  0.00000000000E+00  0.00000000000E+00  0.45593999997E+02  0.45594000000E+02  0.51100000000E-03 0.  1.
         11   -1    0    0    0    0 -0.00000000000E+00 -0.00000000000E+00 -0.45593999997E+02  0.45594000000E+02  0.51100000000E-03 0. -1.
    9900012    2    1    2    0    0 -0.32560817486E+02 -0.23403590357E+01  0.28599628703E+02  0.47787275609E+02  0.20000020810E+02 0.  0.
         12    1    1    2    0    0  0.32560817486E+02  0.23403590357E+01 -0.28599628703E+02  0.43400724391E+02  0.00000000000E+00 0. -1.
         11    1    3    3    0    0 -0.28753556404E+02 -0.89232937246E+00  0.20683966593E+02  0.35431479392E+02  0.51100000000E-03 0.  1.
        -11    1    3    3    0    0 -0.26568906632E+01  0.18629960122E+01 -0.45891792196E+00  0.32772592296E+01  0.51100000000E-03 0. -1.
        -12    1    3    3    0    0 -0.11503704182E+01 -0.33110256755E+01  0.83745800318E+01  0.90785369875E+01  0.00000000000E+00 0.  1.
</event>
<event>
 7    1  0.1384886E-010  0.4778727E+02  0.7816164E-02  0.1312668E+00
        -11   -1    0    0    0    0  0.00000000000E+00  0.00000000000E+00  0.45593999997E+02  0.45594000000E+02  0.51100000000E-03 0.  1.
         11   -1    0    0    0    0 -0.00000000000E+00 -0.00000000000E+00 -0.45593999997E+02  0.45594000000E+02  0.51100000000E-03 0. -1.
    9900012    2    1    2    0    0 -0.15995737638E+02  0.34192331813E+02  0.21415971147E+02  0.47787274228E+02  0.20000014513E+02 0.  0.
         12    1    1    2    0    0  0.15995737638E+02 -0.34192331813E+02 -0.21415971147E+02  0.43400725772E+02  0.00000000000E+00 0. -1.
         11    1    3    3    0    0 -0.21202021956E+01  0.88539916846E+01  0.47211076971E+00  0.91165407333E+01  0.51100000000E-03 0. -1.
        -11    1    3    3    0    0 -0.13516223096E+02  0.10705713127E+02  0.15067116896E+02  0.22898004109E+02  0.51100000000E-03 0.  1.
         12    1    3    3    0    0 -0.35931234609E+00  0.14632627001E+02  0.58767434809E+01  0.15772729385E+02  0.00000000000E+00 0. -1.
</event>
<event>
 7    1  0.1384886E-010  0.4778727E+02  0.7816164E-02  0.1312668E+00
        -11   -1    0    0    0    0  0.00000000000E+00  0.00000000000E+00  0.45593999997E+02  0.45594000000E+02  0.51100000000E-03 0.  1.
         11   -1    0    0    0    0 -0.00000000000E+00 -0.00000000000E+00 -0.45593999997E+02  0.45594000000E+02  0.51100000000E-03 0. -1.
    9900012    2    1    2    0    0  0.24664069859E+02 -0.16901046134E+02  0.31458887093E+02  0.47787270979E+02  0.19999999702E+02 0.  0.
         12    1    1    2    0    0 -0.24664069859E+02  0.16901046134E+02 -0.31458887093E+02  0.43400729021E+02  0.00000000000E+00 0. -1.
         11    1    3    3    0    0  0.78860777870E+01 -0.10833851759E+02  0.45131685994E+01  0.14139705013E+02  0.51100000000E-03 0. -1.
        -11    1    3    3    0    0  0.11988413188E+01  0.14339382536E+01  0.70246621458E+01  0.72690630721E+01  0.51100000000E-03 0.  1.
        -12    1    3    3    0    0  0.15579150753E+02 -0.75011326288E+01  0.19921056348E+02  0.26378502894E+02  0.00000000000E+00 0.  1.
</event>
<event>
 7    1  0.1384886E-010  0.4778727E+02  0.7816164E-02  0.1312668E+00
        -11   -1    0    0    0    0  0.00000000000E+00  0.00000000000E+00  0.45593999997E+02  0.45594000000E+02  0.51100000000E-03 0.  1.
         11   -1    0    0    0    0 -0.00000000000E+00 -0.00000000000E+00 -0.45593999997E+02  0.45594000000E+02  0.51100000000E-03 0. -1.
    9900012    2    1    2    0    0  0.15613249392E+02  0.38882373571E+01  0.40307955106E+02  0.47787271997E+02  0.20000004345E+02 0.  0.
         12    1    1    2    0    0 -0.15613249392E+02 -0.38882373571E+01 -0.40307955106E+02  0.43400728003E+02  0.00000000000E+00 0. -1.
         11    1    3    3    0    0  0.66573449317E+01  0.16656007060E+00  0.22857171260E+01  0.70407731705E+01  0.51100000000E-03 0. -1.
        -11    1    3    3    0    0  0.11970977724E+00  0.55682014904E+01  0.12869777903E+02  0.14023208684E+02  0.51100000000E-03 0.  1.
         12    1    3    3    0    0  0.88361946831E+01 -0.18465242039E+01  0.25152460077E+02  0.26723290143E+02  0.00000000000E+00 0. -1.
</event>
<event>
 7    1  0.1384886E-010  0.4778726E+02  0.7816164E-02  0.1312668E+00
        -11   -1    0    0    0    0  0.00000000000E+00  0.00000000000E+00  0.45593999997E+02  0.45594000000E+02  0.51100000000E-03 0. -1.
         11   -1    0    0    0    0 -0.00000000000E+00 -0.00000000000E+00 -0.45593999997E+02  0.45594000000E+02  0.51100000000E-03 0.  1.
    9900012    2    1    2    0    0  0.39511666444E+01 -0.20221992902E+02 -0.38197949618E+02  0.47787261874E+02  0.19999958191E+02 0.  0.
         12    1    1    2    0    0 -0.39511666444E+01  0.20221992902E+02  0.38197949618E+02  0.43400738126E+02  0.00000000000E+00 0. -1.
         11    1    3    3    0    0 -0.25410395755E+01 -0.54242425107E+01 -0.19143824365E+01  0.62884138949E+01  0.51100000000E-03 0. -1.
        -11    1    3    3    0    0 -0.12425393826E+01 -0.81687409516E+00  0.35423085941E+00  0.15286160956E+01  0.51100000000E-03 0.  1.
        -12    1    3    3    0    0  0.77347456026E+01 -0.13980876296E+02 -0.36637798041E+02  0.39970231884E+02  0.00000000000E+00 0.  1.
</event>
<event>
 7    1  0.1384886E-010  0.4778727E+02  0.7816164E-02  0.1312668E+00
        -11   -1    0    0    0    0  0.00000000000E+00  0.00000000000E+00  0.45593999997E+02  0.45594000000E+02  0.51100000000E-03 0. -1.
         11   -1    0    0    0    0 -0.00000000000E+00 -0.00000000000E+00 -0.45593999997E+02  0.45594000000E+02  0.51100000000E-03 0.  1.
    9900012    2    1    2    0    0  0.29600442941E+02  0.30244899108E+01 -0.31595716962E+02  0.47787273141E+02  0.20000009560E+02 0.  0.
         12    1    1    2    0    0 -0.29600442941E+02 -0.30244899108E+01  0.31595716962E+02  0.43400726859E+02  0.00000000000E+00 0. -1.
         11    1    3    3    0    0  0.64789015944E+01 -0.61715162361E+01 -0.94534802983E+01  0.13016607413E+02  0.51100000000E-03 0. -1.
        -11    1    3    3    0    0  0.12004430986E+02  0.52312853439E+01 -0.18005779777E+02  0.22263890389E+02  0.51100000000E-03 0.  1.
         12    1    3    3    0    0  0.11117110360E+02  0.39647208030E+01 -0.41364568875E+01  0.12506775339E+02  0.00000000000E+00 0. -1.
</event>
<event>
 7    1  0.1384886E-010  0.4778727E+02  0.7816164E-02  0.1312668E+00
        -11   -1    0    0    0    0  0.00000000000E+00  0.00000000000E+00  0.45593999997E+02  0.45594000000E+02  0.51100000000E-03 0.  1.
         11   -1    0    0    0    0 -0.00000000000E+00 -0.00000000000E+00 -0.45593999997E+02  0.45594000000E+02  0.51100000000E-03 0. -1.
    9900012    2    1    2    0    0  0.42121528011E+02 -0.74192573886E+01  0.73725562866E+01  0.47787273182E+02  0.20000009745E+02 0.  0.
         12    1    1    2    0    0 -0.42121528011E+02  0.74192573886E+01 -0.73725562866E+01  0.43400726818E+02  0.00000000000E+00 0. -1.
         11    1    3    3    0    0  0.22430139863E+01 -0.23907661510E+01 -0.35015638952E+01  0.47966472150E+01  0.51100000000E-03 0. -1.
        -11    1    3    3    0    0  0.24338906552E+02  0.10502599734E+01  0.98355235049E+01  0.26272094341E+02  0.51100000000E-03 0.  1.
         12    1    3    3    0    0  0.15539607472E+02 -0.60787512110E+01  0.10385966768E+01  0.16718531626E+02  0.00000000000E+00 0. -1.
</event>
<event>
 7    1  0.1384886E-010  0.4778727E+02  0.7816164E-02  0.1312668E+00
        -11   -1    0    0    0    0  0.00000000000E+00  0.00000000000E+00  0.45593999997E+02  0.45594000000E+02  0.51100000000E-03 0. -1.
         11   -1    0    0    0    0 -0.00000000000E+00 -0.00000000000E+00 -0.45593999997E+02  0.45594000000E+02  0.51100000000E-03 0.  1.
    9900012    2    1    2    0    0  0.29627224267E+02 -0.36327914647E+01 -0.31506402482E+02  0.47787274327E+02  0.20000014967E+02 0.  0.
         12    1    1    2    0    0 -0.29627224267E+02  0.36327914647E+01  0.31506402482E+02  0.43400725673E+02  0.00000000000E+00 0. -1.
         11    1    3    3    0    0 -0.55480004466E+00  0.19786133043E+01 -0.55046116374E+01  0.58756670462E+01  0.51100000000E-03 0. -1.
        -11    1    3    3    0    0  0.16896647698E+02 -0.42203082058E+00 -0.20632293440E+02  0.26671451897E+02  0.51100000000E-03 0.  1.
         12    1    3    3    0    0  0.13285376614E+02 -0.51893739485E+01 -0.53694974045E+01  0.15240155384E+02  0.00000000000E+00 0. -1.
</event>
<event>
 7    1  0.1384886E-010  0.4778727E+02  0.7816164E-02  0.1312668E+00
        -11   -1    0    0    0    0  0.00000000000E+00  0.00000000000E+00  0.45593999997E+02  0.45594000000E+02  0.51100000000E-03 0. -1.
         11   -1    0    0    0    0 -0.00000000000E+00 -0.00000000000E+00 -0.45593999997E+02  0.45594000000E+02  0.51100000000E-03 0.  1.
    9900012    2    1    2    0    0 -0.41982852230E+02  0.99181851612E+01  0.47637032958E+01  0.47787272502E+02  0.20000006647E+02 0.  0.
         12    1    1    2    0    0  0.41982852230E+02 -0.99181851612E+01 -0.47637032958E+01  0.43400727498E+02  0.00000000000E+00 0. -1.
         11    1    3    3    0    0 -0.18463761424E+02 -0.50150312952E+01  0.15588519673E+01  0.19196120560E+02  0.51100000000E-03 0. -1.
        -11    1    3    3    0    0 -0.13597656473E+02  0.92976716860E+01 -0.81722464172E+00  0.16492750429E+02  0.51100000000E-03 0.  1.
         12    1    3    3    0    0 -0.99214343326E+01  0.56355447704E+01  0.40220759702E+01  0.12098401514E+02  0.00000000000E+00 0. -1.
</event>
<event>
 7    1  0.1384886E-010  0.4778728E+02  0.7816164E-02  0.1312668E+00
        -11   -1    0    0    0    0  0.00000000000E+00  0.00000000000E+00  0.45593999997E+02  0.45594000000E+02  0.51100000000E-03 0.  1.
         11   -1    0    0    0    0 -0.00000000000E+00 -0.00000000000E+00 -0.45593999997E+02  0.45594000000E+02  0.51100000000E-03 0. -1.
    9900012    2    1    2    0    0 -0.11573921354E+02 -0.79524327795E+01  0.41066114805E+02  0.47787278487E+02  0.20000033936E+02 0.  0.
         12    1    1    2    0    0  0.11573921354E+02  0.79524327795E+01 -0.41066114805E+02  0.43400721513E+02  0.00000000000E+00 0. -1.
         11    1    3    3    0    0 -0.88643366745E+01 -0.10254948568E+02  0.15580732494E+02  0.20651868199E+02  0.51100000000E-03 0. -1.
        -11    1    3    3    0    0 -0.24085727303E+01 -0.17306470434E+01  0.20511209819E+02  0.20724528711E+02  0.51100000000E-03 0.  1.
        -12    1    3    3    0    0 -0.30101194963E+00  0.40331628316E+01  0.49741724914E+01  0.64108815770E+01  0.00000000000E+00 0.  1.
</event>
<event>
 7    1  0.1384886E-010  0.4778727E+02  0.7816164E-02  0.1312668E+00
        -11   -1    0    0    0    0  0.00000000000E+00  0.00000000000E+00  0.45593999997E+02  0.45594000000E+02  0.51100000000E-03 0. -1.
         11   -1    0    0    0    0 -0.00000000000E+00 -0.00000000000E+00 -0.45593999997E+02  0.45594000000E+02  0.51100000000E-03 0.  1.
    9900012    2    1    2    0    0 -0.11416940035E+02 -0.18679939383E+02 -0.37474484201E+02  0.47787267042E+02  0.19999981753E+02 0.  0.
         12    1    1    2    0    0  0.11416940035E+02  0.18679939383E+02  0.37474484201E+02  0.43400732958E+02  0.00000000000E+00 0. -1.
         11    1    3    3    0    0 -0.49693448995E+01 -0.10894419924E+02 -0.98195478553E+01  0.15485680307E+02  0.51100000000E-03 0.  1.
        -11    1    3    3    0    0 -0.69485061733E+00  0.29590415589E+01 -0.13810631035E+01  0.33385745288E+01  0.51100000000E-03 0. -1.
         12    1    3    3    0    0 -0.57527445179E+01 -0.10744561018E+02 -0.26273873242E+02  0.28963012207E+02  0.00000000000E+00 0. -1.
</event>
<event>
 7    1  0.1384886E-010  0.4778727E+02  0.7816164E-02  0.1312668E+00
        -11   -1    0    0    0    0  0.00000000000E+00  0.00000000000E+00  0.45593999997E+02  0.45594000000E+02  0.51100000000E-03 0. -1.
         11   -1    0    0    0    0 -0.00000000000E+00 -0.00000000000E+00 -0.45593999997E+02  0.45594000000E+02  0.51100000000E-03 0.  1.
    9900012    2    1    2    0    0  0.33320024700E+02 -0.27759313161E+02 -0.16792268322E+01  0.47787270560E+02  0.19999997792E+02 0.  0.
         12    1    1    2    0    0 -0.33320024700E+02  0.27759313161E+02  0.16792268322E+01  0.43400729440E+02  0.00000000000E+00 0. -1.
         11    1    3    3    0    0  0.84169727521E+01 -0.14514089791E+02 -0.42105054037E+01  0.17298340637E+02  0.51100000000E-03 0. -1.
        -11    1    3    3    0    0  0.22728379924E+02 -0.12022734755E+02 -0.14912862581E+01  0.25755569105E+02  0.51100000000E-03 0.  1.
         12    1    3    3    0    0  0.21746720232E+01 -0.12224886147E+01  0.40225648296E+01  0.47333608176E+01  0.00000000000E+00 0. -1.
</event>
<event>
 7    1  0.1384886E-010  0.4778727E+02  0.7816164E-02  0.1312668E+00
        -11   -1    0    0    0    0  0.00000000000E+00  0.00000000000E+00  0.45593999997E+02  0.45594000000E+02  0.51100000000E-03 0. -1.
         11   -1    0    0    0    0 -0.00000000000E+00 -0.00000000000E+00 -0.45593999997E+02  0.45594000000E+02  0.51100000000E-03 0.  1.
    9900012    2    1    2    0    0  0.18283520622E+02  0.39152903468E+02 -0.40479968464E+01  0.47787271265E+02  0.20000001004E+02 0.  0.
         12    1    1    2    0    0 -0.18283520622E+02 -0.39152903468E+02  0.40479968464E+01  0.43400728735E+02  0.00000000000E+00 0. -1.
         11    1    3    3    0    0  0.12104548801E+02  0.26229512206E+02  0.64002857174E+01  0.29588360376E+02  0.51100000000E-03 0. -1.
        -11    1    3    3    0    0  0.46973306972E+01  0.55199927611E+01 -0.40538478611E+01  0.83047527659E+01  0.51100000000E-03 0.  1.
         12    1    3    3    0    0  0.14816411237E+01  0.74033985012E+01 -0.63944347027E+01  0.98941581226E+01  0.00000000000E+00 0. -1.
</event>
<event>
 7    1  0.1384886E-010  0.4778727E+02  0.7816164E-02  0.1312668E+00
        -11   -1    0    0    0    0  0.00000000000E+00  0.00000000000E+00  0.45593999997E+02  0.45594000000E+02  0.51100000000E-03 0.  1.
         11   -1    0    0    0    0 -0.00000000000E+00 -0.00000000000E+00 -0.45593999997E+02  0.45594000000E+02  0.51100000000E-03 0. -1.
    9900012    2    1    2    0    0 -0.40895573502E+02  0.14366074270E+02  0.21888991020E+01  0.47787270729E+02  0.19999998562E+02 0.  0.
         12    1    1    2    0    0  0.40895573502E+02 -0.14366074270E+02 -0.21888991020E+01  0.43400729271E+02  0.00000000000E+00 0. -1.
         11    1    3    3    0    0 -0.10402933905E+02 -0.18222761380E+01  0.14355402459E+01  0.10658447364E+02  0.51100000000E-03 0. -1.
        -11    1    3    3    0    0 -0.23491317653E+02  0.12740260386E+02  0.64201973254E+01  0.27484089465E+02  0.51100000000E-03 0.  1.
         12    1    3    3    0    0 -0.70013219443E+01  0.34480900223E+01 -0.56668384693E+01  0.96447339002E+01  0.00000000000E+00 0. -1.
</event>
<event>
 7    1  0.1384886E-010  0.4778727E+02  0.7816164E-02  0.1312668E+00
        -11   -1    0    0    0    0  0.00000000000E+00  0.00000000000E+00  0.45593999997E+02  0.45594000000E+02  0.51100000000E-03 0. -1.
         11   -1    0    0    0    0 -0.00000000000E+00 -0.00000000000E+00 -0.45593999997E+02  0.45594000000E+02  0.51100000000E-03 0.  1.
    9900012    2    1    2    0    0  0.26247853799E+02 -0.32217225141E+02 -0.12518936518E+02  0.47787271937E+02  0.20000004069E+02 0.  0.
         12    1    1    2    0    0 -0.26247853799E+02  0.32217225141E+02  0.12518936518E+02  0.43400728063E+02  0.00000000000E+00 0. -1.
         11    1    3    3    0    0  0.40571429948E+01 -0.28598025352E+01  0.32451457861E+01  0.59304174604E+01  0.51100000000E-03 0. -1.
        -11    1    3    3    0    0  0.12464481115E+02 -0.23871867532E+02 -0.74695999673E+01  0.27946811498E+02  0.51100000000E-03 0.  1.
        -12    1    3    3    0    0  0.97262296893E+01 -0.54855550738E+01 -0.82944823369E+01  0.13910042979E+02  0.00000000000E+00 0.  1.
</event>
<event>
 7    1  0.1384886E-010  0.4778727E+02  0.7816164E-02  0.1312668E+00
        -11   -1    0    0    0    0  0.00000000000E+00  0.00000000000E+00  0.45593999997E+02  0.45594000000E+02  0.51100000000E-03 0.  1.
         11   -1    0    0    0    0 -0.00000000000E+00 -0.00000000000E+00 -0.45593999997E+02  0.45594000000E+02  0.51100000000E-03 0. -1.
    9900012    2    1    2    0    0  0.13992173306E+02  0.30653233752E+02  0.27353644071E+02  0.47787268471E+02  0.19999988269E+02 0.  0.
         12    1    1    2    0    0 -0.13992173306E+02 -0.30653233752E+02 -0.27353644071E+02  0.43400731529E+02  0.00000000000E+00 0. -1.
         11    1    3    3    0    0 -0.10843031056E+01  0.64224965742E+01  0.52061227809E+01  0.83383385720E+01  0.51100000000E-03 0. -1.
        -11    1    3    3    0    0  0.10634723600E+02  0.31756795491E+01  0.83151817813E+01  0.13868112163E+02  0.51100000000E-03 0.  1.
        -12    1    3    3    0    0  0.44417528111E+01  0.21055057629E+02  0.13832339508E+02  0.25580817736E+02  0.00000000000E+00 0.  1.
</event>
<event>
 7    1  0.1384886E-010  0.4778727E+02  0.7816164E-02  0.1312668E+00
        -11   -1    0    0    0    0  0.00000000000E+00  0.00000000000E+00  0.45593999997E+02  0.45594000000E+02  0.51100000000E-03 0. -1.
         11   -1    0    0    0    0 -0.00000000000E+00 -0.00000000000E+00 -0.45593999997E+02  0.45594000000E+02  0.51100000000E-03 0.  1.
    9900012    2    1    2    0    0 -0.40274071551E+02 -0.31610570659E+01  0.15862861548E+02  0.47787268468E+02  0.19999988252E+02 0.  0.
         12    1    1    2    0    0  0.40274071551E+02  0.31610570659E+01 -0.15862861548E+02  0.43400731532E+02  0.00000000000E+00 0. -1.
         11    1    3    3    0    0 -0.58235493032E+01  0.13764365633E+01  0.42542333509E+01  0.73421254256E+01  0.51100000000E-03 0. -1.
        -11    1    3    3    0    0 -0.12491374296E+02  0.33980877796E+01  0.11160110747E+02  0.17091796410E+02  0.51100000000E-03 0.  1.
         12    1    3    3    0    0 -0.21959147951E+02 -0.79355814088E+01  0.44851745032E+00  0.23353346633E+02  0.00000000000E+00 0. -1.
</event>
<event>
 7    1  0.1384886E-010  0.4778727E+02  0.7816164E-02  0.1312668E+00
        -11   -1    0    0    0    0  0.00000000000E+00  0.00000000000E+00  0.45593999997E+02  0.45594000000E+02  0.51100000000E-03 0.  1.
         11   -1    0    0    0    0 -0.00000000000E+00 -0.00000000000E+00 -0.45593999997E+02  0.45594000000E+02  0.51100000000E-03 0. -1.
    9900012    2    1    2    0    0 -0.87569835701E+01  0.14183900506E+02  0.40071881402E+02  0.47787268740E+02  0.19999989495E+02 0.  0.
         12    1    1    2    0    0  0.87569835701E+01 -0.14183900506E+02 -0.40071881402E+02  0.43400731260E+02  0.00000000000E+00 0. -1.
         11    1    3    3    0    0 -0.86502952918E+01  0.99090991070E+01  0.17981799138E+02  0.22279204524E+02  0.51100000000E-03 0. -1.
        -11    1    3    3    0    0  0.91140707394E+00  0.73268879460E+01  0.20746907125E+02  0.22021537307E+02  0.51100000000E-03 0.  1.
         12    1    3    3    0    0 -0.10180953523E+01 -0.30520865470E+01  0.13431751385E+01  0.34865269093E+01  0.00000000000E+00 0. -1.
</event>
<event>
 7    1  0.1384886E-010  0.4778727E+02  0.7816164E-02  0.1312668E+00
        -11   -1    0    0    0    0  0.00000000000E+00  0.00000000000E+00  0.45593999997E+02  0.45594000000E+02  0.51100000000E-03 0. -1.
         11   -1    0    0    0    0 -0.00000000000E+00 -0.00000000000E+00 -0.45593999997E+02  0.45594000000E+02  0.51100000000E-03 0.  1.
    9900012    2    1    2    0    0  0.32430052315E+02 -0.18332808552E+02 -0.22267090214E+02  0.47787268795E+02  0.19999989742E+02 0.  0.
         12    1    1    2    0    0 -0.32430052315E+02  0.18332808552E+02  0.22267090214E+02  0.43400731205E+02  0.00000000000E+00 0. -1.
         11    1    3    3    0    0  0.21657877271E+01 -0.67903421750E+01  0.62963906606E+00  0.71551260609E+01  0.51100000000E-03 0. -1.
        -11    1    3    3    0    0  0.35451027425E+01 -0.14731215157E+01  0.29003153362E+00  0.38499297405E+01  0.51100000000E-03 0.  1.
        -12    1    3    3    0    0  0.26719161845E+02 -0.10069344862E+02 -0.23186760814E+02  0.36782212993E+02  0.00000000000E+00 0.  1.
</event>
<event>
 7    1  0.1384886E-010  0.4778727E+02  0.7816164E-02  0.1312668E+00
        -11   -1    0    0    0    0  0.00000000000E+00  0.00000000000E+00  0.45593999997E+02  0.45594000000E+02  0.51100000000E-03 0. -1.
         11   -1    0    0    0    0 -0.00000000000E+00 -0.00000000000E+00 -0.45593999997E+02  0.45594000000E+02  0.51100000000E-03 0.  1.
    9900012    2    1    2    0    0  0.14972338010E+01  0.17785947858E+02 -0.39560606577E+02  0.47787271400E+02  0.20000001622E+02 0.  0.
         12    1    1    2    0    0 -0.14972338010E+01 -0.17785947858E+02  0.39560606577E+02  0.43400728600E+02  0.00000000000E+00 0. -1.
         11    1    3    3    0    0  0.35220071421E+01 -0.13432272976E+00 -0.68292180886E+01  0.76851022679E+01  0.51100000000E-03 0. -1.
        -11    1    3    3    0    0  0.16953352933E+01  0.16358442249E+02 -0.16197604852E+02  0.23083223297E+02  0.51100000000E-03 0.  1.
         12    1    3    3    0    0 -0.37201086345E+01  0.15618283381E+01 -0.16533783637E+02  0.17018945835E+02  0.00000000000E+00 0. -1.
</event>
<event>
 7    1  0.1384886E-010  0.4778726E+02  0.7816164E-02  0.1312668E+00
        -11   -1    0    0    0    0  0.00000000000E+00  0.00000000000E+00  0.45593999997E+02  0.45594000000E+02  0.51100000000E-03 0. -1.
         11   -1    0    0    0    0 -0.00000000000E+00 -0.00000000000E+00 -0.45593999997E+02  0.45594000000E+02  0.51100000000E-03 0.  1.
    9900012    2    1    2    0    0 -0.27129387128E+02  0.21859838866E+02 -0.25879868585E+02  0.47787264993E+02  0.19999972409E+02 0.  0.
         12    1    1    2    0    0  0.27129387128E+02 -0.21859838866E+02  0.25879868585E+02  0.43400735007E+02  0.00000000000E+00 0. -1.
         11    1    3    3    0    0 -0.12995660705E+01  0.10682954168E+02 -0.96327311589E+01  0.14443126101E+02  0.51100000000E-03 0.  1.
        -11    1    3    3    0    0 -0.16287444955E+02  0.10707770770E+02 -0.97864585374E+01  0.21810822749E+02  0.51100000000E-03 0. -1.
        -12    1    3    3    0    0 -0.95423761025E+01  0.46911392826E+00 -0.64606788884E+01  0.11533316143E+02  0.00000000000E+00 0.  1.
</event>
<event>
 7    1  0.1384886E-010  0.4778727E+02  0.7816164E-02  0.1312668E+00
        -11   -1    0    0    0    0  0.00000000000E+00  0.00000000000E+00  0.45593999997E+02  0.45594000000E+02  0.51100000000E-03 0.  1.
         11   -1    0    0    0    0 -0.00000000000E+00 -0.00000000000E+00 -0.45593999997E+02  0.45594000000E+02  0.51100000000E-03 0. -1.
    9900012    2    1    2    0    0 -0.10737444053E+02 -0.38233995956E+02  0.17506916022E+02  0.47787271202E+02  0.20000000721E+02 0.  0.
         12    1    1    2    0    0  0.10737444053E+02  0.38233995956E+02 -0.17506916022E+02  0.43400728798E+02  0.00000000000E+00 0. -1.
         11    1    3    3    0    0  0.36970579287E+01 -0.12033745493E+02  0.56336779734E+00  0.12601454339E+02  0.51100000000E-03 0. -1.
        -11    1    3    3    0    0 -0.44909577361E+01 -0.10643203627E+02  0.10556744498E+02  0.15649004425E+02  0.51100000000E-03 0.  1.
        -12    1    3    3    0    0 -0.99435442455E+01 -0.15557046836E+02  0.63868037272E+01  0.19536812439E+02  0.00000000000E+00 0.  1.
</event>
<event>
 7    1  0.1384886E-010  0.4778727E+02  0.7816164E-02  0.1312668E+00
        -11   -1    0    0    0    0  0.00000000000E+00  0.00000000000E+00  0.45593999997E+02  0.45594000000E+02  0.51100000000E-03 0.  1.
         11   -1    0    0    0    0 -0.00000000000E+00 -0.00000000000E+00 -0.45593999997E+02  0.45594000000E+02  0.51100000000E-03 0. -1.
    9900012    2    1    2    0    0 -0.38718733068E+02  0.18180604462E+02  0.73449783067E+01  0.47787269875E+02  0.19999994670E+02 0.  0.
         12    1    1    2    0    0  0.38718733068E+02 -0.18180604462E+02 -0.73449783067E+01  0.43400730125E+02  0.00000000000E+00 0. -1.
         11    1    3    3    0    0 -0.24142488680E+01  0.16123615930E+01 -0.40370450900E+01  0.49725286146E+01  0.51100000000E-03 0. -1.
        -11    1    3    3    0    0 -0.99291551905E+01  0.93576665750E+01  0.61928318653E+01  0.14983498033E+02  0.51100000000E-03 0.  1.
         12    1    3    3    0    0 -0.26375329010E+02  0.72105762944E+01  0.51891915314E+01  0.27831243228E+02  0.00000000000E+00 0. -1.
</event>
<event>
 7    1  0.1384886E-010  0.4778727E+02  0.7816164E-02  0.1312668E+00
        -11   -1    0    0    0    0  0.00000000000E+00  0.00000000000E+00  0.45593999997E+02  0.45594000000E+02  0.51100000000E-03 0. -1.
         11   -1    0    0    0    0 -0.00000000000E+00 -0.00000000000E+00 -0.45593999997E+02  0.45594000000E+02  0.51100000000E-03 0.  1.
    9900012    2    1    2    0    0  0.15569600596E+02 -0.30427417133E+02 -0.26746645745E+02  0.47787271496E+02  0.20000002058E+02 0.  0.
         12    1    1    2    0    0 -0.15569600596E+02  0.30427417133E+02  0.26746645745E+02  0.43400728504E+02  0.00000000000E+00 0. -1.
         11    1    3    3    0    0  0.86360767873E+00 -0.92011525699E+01 -0.14603663160E+02  0.17282187500E+02  0.51100000000E-03 0. -1.
        -11    1    3    3    0    0  0.10463245996E+02 -0.90244966306E+01 -0.10760181449E+02  0.17512925549E+02  0.51100000000E-03 0.  1.
        -12    1    3    3    0    0  0.42427469214E+01 -0.12201767932E+02 -0.13828011352E+01  0.12992158446E+02  0.00000000000E+00 0.  1.
</event>
<event>
 7    1  0.1384886E-010  0.4778727E+02  0.7816164E-02  0.1312668E+00
        -11   -1    0    0    0    0  0.00000000000E+00  0.00000000000E+00  0.45593999997E+02  0.45594000000E+02  0.51100000000E-03 0. -1.
         11   -1    0    0    0    0 -0.00000000000E+00 -0.00000000000E+00 -0.45593999997E+02  0.45594000000E+02  0.51100000000E-03 0.  1.
    9900012    2    1    2    0    0 -0.31471417021E+02 -0.21324062555E+02 -0.20939377911E+02  0.47787270968E+02  0.19999999654E+02 0.  0.
         12    1    1    2    0    0  0.31471417021E+02  0.21324062555E+02  0.20939377911E+02  0.43400729032E+02  0.00000000000E+00 0. -1.
         11    1    3    3    0    0 -0.26200798175E+02 -0.98122915842E+01 -0.16888313131E+02  0.32679932861E+02  0.51100000000E-03 0.  1.
        -11    1    3    3    0    0 -0.58334823084E+01 -0.61353190939E+01 -0.19683149102E+00  0.84681992846E+01  0.51100000000E-03 0. -1.
        -12    1    3    3    0    0  0.56286346209E+00 -0.53764518770E+01 -0.38542332895E+01  0.66391388231E+01  0.00000000000E+00 0.  1.
</event>
<event>
 7    1  0.1384886E-010  0.4778727E+02  0.7816164E-02  0.1312668E+00
        -11   -1    0    0    0    0  0.00000000000E+00  0.00000000000E+00  0.45593999997E+02  0.45594000000E+02  0.51100000000E-03 0.  1.
         11   -1    0    0    0    0 -0.00000000000E+00 -0.00000000000E+00 -0.45593999997E+02  0.45594000000E+02  0.51100000000E-03 0. -1.
    9900012    2    1    2    0    0  0.23915097599E+01  0.42355720973E+02  0.91595216072E+01  0.47787271271E+02  0.20000001034E+02 0.  0.
         12    1    1    2    0    0 -0.23915097599E+01 -0.42355720973E+02 -0.91595216072E+01  0.43400728729E+02  0.00000000000E+00 0. -1.
         11    1    3    3    0    0  0.20151067006E+01  0.21361906747E+02  0.89983145064E+01  0.23267173853E+02  0.51100000000E-03 0. -1.
        -11    1    3    3    0    0  0.38362158674E+01  0.78579740526E+01  0.50326234824E+01  0.10089182711E+02  0.51100000000E-03 0.  1.
         12    1    3    3    0    0 -0.34598128082E+01  0.13135840174E+02 -0.48714163816E+01  0.14430914708E+02  0.00000000000E+00 0. -1.
</event>
<event>
 7    1  0.1384886E-010  0.4778727E+02  0.7816164E-02  0.1312668E+00
        -11   -1    0    0    0    0  0.00000000000E+00  0.00000000000E+00  0.45593999997E+02  0.45594000000E+02  0.51100000000E-03 0.  1.
         11   -1    0    0    0    0 -0.00000000000E+00 -0.00000000000E+00 -0.45593999997E+02  0.45594000000E+02  0.51100000000E-03 0. -1.
    9900012    2    1    2    0    0  0.34685837307E+02 -0.20260031709E+02  0.16433102693E+02  0.47787273524E+02  0.20000011305E+02 0.  0.
         12    1    1    2    0    0 -0.34685837307E+02  0.20260031709E+02 -0.16433102693E+02  0.43400726476E+02  0.00000000000E+00 0. -1.
         11    1    3    3    0    0  0.26410990490E+00 -0.48872756040E+01  0.54077222587E+01  0.72937423289E+01  0.51100000000E-03 0. -1.
        -11    1    3    3    0    0  0.10468944704E+02 -0.18145550415E+01 -0.53959048522E+00  0.10638729782E+02  0.51100000000E-03 0.  1.
         12    1    3    3    0    0  0.23952782697E+02 -0.13558201064E+02  0.11564970920E+02  0.29854801413E+02  0.00000000000E+00 0. -1.
</event>
<event>
 7    1  0.1384886E-010  0.4778726E+02  0.7816164E-02  0.1312668E+00
        -11   -1    0    0    0    0  0.00000000000E+00  0.00000000000E+00  0.45593999997E+02  0.45594000000E+02  0.51100000000E-03 0. -1.
         11   -1    0    0    0    0 -0.00000000000E+00 -0.00000000000E+00 -0.45593999997E+02  0.45594000000E+02  0.51100000000E-03 0.  1.
    9900012    2    1    2    0    0 -0.81829130582E+01  0.25424755435E+02 -0.34208855932E+02  0.47787261767E+02  0.19999957698E+02 0.  0.
         12    1    1    2    0    0  0.81829130582E+01 -0.25424755435E+02  0.34208855932E+02  0.43400738233E+02  0.00000000000E+00 0. -1.
         11    1    3    3    0    0 -0.62275932153E+01  0.99277825007E+01 -0.11500393917E+02  0.16419587180E+02  0.51100000000E-03 0. -1.
        -11    1    3    3    0    0  0.36152733440E+01  0.76538890923E+01 -0.19447680033E+02  0.21210008923E+02  0.51100000000E-03 0.  1.
         12    1    3    3    0    0 -0.55705931868E+01  0.78430838423E+01 -0.32607819813E+01  0.10157665664E+02  0.00000000000E+00 0. -1.
</event>
<event>
 7    1  0.1384886E-010  0.4778727E+02  0.7816164E-02  0.1312668E+00
        -11   -1    0    0    0    0  0.00000000000E+00  0.00000000000E+00  0.45593999997E+02  0.45594000000E+02  0.51100000000E-03 0.  1.
         11   -1    0    0    0    0 -0.00000000000E+00 -0.00000000000E+00 -0.45593999997E+02  0.45594000000E+02  0.51100000000E-03 0. -1.
    9900012    2    1    2    0    0  0.37797458346E+02  0.20037868142E+02  0.73115869601E+01  0.47787270502E+02  0.19999997526E+02 0.  0.
         12    1    1    2    0    0 -0.37797458346E+02 -0.20037868142E+02 -0.73115869601E+01  0.43400729498E+02  0.00000000000E+00 0. -1.
         11    1    3    3    0    0  0.20314063212E+00  0.32438457594E+01  0.10737627757E+01  0.34229765098E+01  0.51100000000E-03 0. -1.
        -11    1    3    3    0    0  0.11342832870E+02  0.14832052080E+01 -0.42677043044E+01  0.12209547719E+02  0.51100000000E-03 0.  1.
         12    1    3    3    0    0  0.26251484844E+02  0.15310817175E+02  0.10505528489E+02  0.32154746273E+02  0.00000000000E+00 0. -1.
</event>
<event>
 7    1  0.1384886E-010  0.4778727E+02  0.7816164E-02  0.1312668E+00
        -11   -1    0    0    0    0  0.00000000000E+00  0.00000000000E+00  0.45593999997E+02  0.45594000000E+02  0.51100000000E-03 0. -1.
         11   -1    0    0    0    0 -0.00000000000E+00 -0.00000000000E+00 -0.45593999997E+02  0.45594000000E+02  0.51100000000E-03 0.  1.
    9900012    2    1    2    0    0 -0.37348249018E+02 -0.19574813111E+02  0.10274159348E+02  0.47787270014E+02  0.19999995300E+02 0.  0.
         12    1    1    2    0    0  0.37348249018E+02  0.19574813111E+02 -0.10274159348E+02  0.43400729986E+02  0.00000000000E+00 0. -1.
         11    1    3    3    0    0 -0.14095865847E+02 -0.16125845599E+01  0.41490434337E+01  0.14782030463E+02  0.51100000000E-03 0. -1.
        -11    1    3    3    0    0 -0.24919740005E+02 -0.17968061156E+02  0.61778156011E+01  0.31337039896E+02  0.51100000000E-03 0.  1.
         12    1    3    3    0    0  0.16673568335E+01  0.58326047258E-02 -0.52699687353E-01  0.16681996542E+01  0.00000000000E+00 0. -1.
</event>
<event>
 7    1  0.1384886E-010  0.4778727E+02  0.7816164E-02  0.1312668E+00
        -11   -1    0    0    0    0  0.00000000000E+00  0.00000000000E+00  0.45593999997E+02  0.45594000000E+02  0.51100000000E-03 0.  1.
         11   -1    0    0    0    0 -0.00000000000E+00 -0.00000000000E+00 -0.45593999997E+02  0.45594000000E+02  0.51100000000E-03 0. -1.
    9900012    2    1    2    0    0  0.37981111567E+02  0.99391200641E+01  0.18500608951E+02  0.47787268727E+02  0.19999989433E+02 0.  0.
         12    1    1    2    0    0 -0.37981111567E+02 -0.99391200641E+01 -0.18500608951E+02  0.43400731273E+02  0.00000000000E+00 0. -1.
         11    1    3    3    0    0  0.11981516953E+02  0.70857372427E+01  0.31271194017E+01  0.14266860088E+02  0.51100000000E-03 0.  1.
        -11    1    3    3    0    0  0.76876530497E+01  0.45433416767E+01 -0.88566945240E+00  0.89736488478E+01  0.51100000000E-03 0. -1.
        -12    1    3    3    0    0  0.18311941564E+02 -0.16899588553E+01  0.16259159002E+02  0.24546759791E+02  0.00000000000E+00 0.  1.
</event>
<event>
 7    1  0.1384886E-010  0.4778727E+02  0.7816164E-02  0.1312668E+00
        -11   -1    0    0    0    0  0.00000000000E+00  0.00000000000E+00  0.45593999997E+02  0.45594000000E+02  0.51100000000E-03 0.  1.
         11   -1    0    0    0    0 -0.00000000000E+00 -0.00000000000E+00 -0.45593999997E+02  0.45594000000E+02  0.51100000000E-03 0. -1.
    9900012    2    1    2    0    0  0.23761096047E+02 -0.16730936288E+02  0.32235220708E+02  0.47787269954E+02  0.19999995030E+02 0.  0.
         12    1    1    2    0    0 -0.23761096047E+02  0.16730936288E+02 -0.32235220708E+02  0.43400730046E+02  0.00000000000E+00 0. -1.
         11    1    3    3    0    0  0.69233832607E+01 -0.81952763737E+01  0.39675986097E+01  0.11438427759E+02  0.51100000000E-03 0.  1.
        -11    1    3    3    0    0  0.17221691758E+02 -0.41646733832E+01  0.18370471941E+02  0.25522645063E+02  0.51100000000E-03 0. -1.
        -12    1    3    3    0    0 -0.38397897259E+00 -0.43709865312E+01  0.98971501573E+01  0.10826197132E+02  0.00000000000E+00 0.  1.
</event>
<event>
 7    1  0.1384886E-010  0.4778730E+02  0.7816164E-02  0.1312668E+00
        -11   -1    0    0    0    0  0.00000000000E+00  0.00000000000E+00  0.45593999997E+02  0.45594000000E+02  0.51100000000E-03 0. -1.
         11   -1    0    0    0    0 -0.00000000000E+00 -0.00000000000E+00 -0.45593999997E+02  0.45594000000E+02  0.51100000000E-03 0.  1.
    9900012    2    1    2    0    0  0.85382556998E+01  0.38761361835E+02 -0.17557788742E+02  0.47787298080E+02  0.20000123264E+02 0.  0.
         12    1    1    2    0    0 -0.85382556998E+01 -0.38761361835E+02  0.17557788742E+02  0.43400701920E+02  0.00000000000E+00 0. -1.
         11    1    3    3    0    0  0.67195845207E+01  0.28285985887E+02 -0.11169830893E+02  0.31145062790E+02  0.51100000000E-03 0. -1.
        -11    1    3    3    0    0 -0.16747451327E+01  0.81288934387E+01 -0.85459357413E+01  0.11912879490E+02  0.51100000000E-03 0.  1.
         12    1    3    3    0    0  0.34934163118E+01  0.23464825091E+01  0.21579778930E+01  0.47293557997E+01  0.00000000000E+00 0. -1.
</event>
<event>
 7    1  0.1384886E-010  0.4778727E+02  0.7816164E-02  0.1312668E+00
        -11   -1    0    0    0    0  0.00000000000E+00  0.00000000000E+00  0.45593999997E+02  0.45594000000E+02  0.51100000000E-03 0.  1.
         11   -1    0    0    0    0 -0.00000000000E+00 -0.00000000000E+00 -0.45593999997E+02  0.45594000000E+02  0.51100000000E-03 0. -1.
    9900012    2    1    2    0    0  0.22270071543E+02  0.11822433729E+02  0.35325590813E+02  0.47787269682E+02  0.19999993788E+02 0.  0.
         12    1    1    2    0    0 -0.22270071543E+02 -0.11822433729E+02 -0.35325590813E+02  0.43400730318E+02  0.00000000000E+00 0. -1.
         11    1    3    3    0    0  0.13890760458E+02  0.36130109619E+01  0.15523268323E+02  0.21141876312E+02  0.51100000000E-03 0. -1.
        -11    1    3    3    0    0  0.21660131071E+01 -0.19723258961E+01  0.12093656447E+02  0.12443400208E+02  0.51100000000E-03 0.  1.
         12    1    3    3    0    0  0.62132979783E+01  0.10181748663E+02  0.77086660438E+01  0.14201993162E+02  0.00000000000E+00 0. -1.
</event>
<event>
 7    1  0.1384886E-010  0.4778727E+02  0.7816164E-02  0.1312668E+00
        -11   -1    0    0    0    0  0.00000000000E+00  0.00000000000E+00  0.45593999997E+02  0.45594000000E+02  0.51100000000E-03 0.  1.
         11   -1    0    0    0    0 -0.00000000000E+00 -0.00000000000E+00 -0.45593999997E+02  0.45594000000E+02  0.51100000000E-03 0. -1.
    9900012    2    1    2    0    0 -0.93080846947E+01 -0.38531804201E+02  0.17671528541E+02  0.47787270782E+02  0.19999998804E+02 0.  0.
         12    1    1    2    0    0  0.93080846947E+01  0.38531804201E+02 -0.17671528541E+02  0.43400729218E+02  0.00000000000E+00 0. -1.
         11    1    3    3    0    0 -0.11283181975E+02 -0.10324876544E+02  0.80552847661E+01  0.17285857921E+02  0.51100000000E-03 0.  1.
        -11    1    3    3    0    0 -0.13717249980E+01 -0.45881766105E+01  0.20015312937E-01  0.47888824325E+01  0.51100000000E-03 0. -1.
        -12    1    3    3    0    0  0.33468222785E+01 -0.23618751046E+02  0.95962284622E+01  0.25712530429E+02  0.00000000000E+00 0.  1.
</event>
<event>
 7    1  0.1384886E-010  0.4778728E+02  0.7816164E-02  0.1312668E+00
        -11   -1    0    0    0    0  0.00000000000E+00  0.00000000000E+00  0.45593999997E+02  0.45594000000E+02  0.51100000000E-03 0.  1.
         11   -1    0    0    0    0 -0.00000000000E+00 -0.00000000000E+00 -0.45593999997E+02  0.45594000000E+02  0.51100000000E-03 0. -1.
    9900012    2    1    2    0    0  0.36045168495E+02 -0.54321337250E+01  0.23555479380E+02  0.47787275842E+02  0.20000021872E+02 0.  0.
         12    1    1    2    0    0 -0.36045168495E+02  0.54321337250E+01 -0.23555479380E+02  0.43400724158E+02  0.00000000000E+00 0. -1.
         11    1    3    3    0    0  0.70153674425E+01  0.46319513967E+01  0.79931850774E+01  0.11600058708E+02  0.51100000000E-03 0. -1.
        -11    1    3    3    0    0  0.14510317487E+02 -0.53630297606E+01  0.13967906287E+02  0.20842596002E+02  0.51100000000E-03 0.  1.
        -12    1    3    3    0    0  0.14519483565E+02 -0.47010553612E+01  0.15943880150E+01  0.15344621131E+02  0.00000000000E+00 0.  1.
</event>
<event>
 7    1  0.1384886E-010  0.4778728E+02  0.7816164E-02  0.1312668E+00
        -11   -1    0    0    0    0  0.00000000000E+00  0.00000000000E+00  0.45593999997E+02  0.45594000000E+02  0.51100000000E-03 0. -1.
         11   -1    0    0    0    0 -0.00000000000E+00 -0.00000000000E+00 -0.45593999997E+02  0.45594000000E+02  0.51100000000E-03 0.  1.
    9900012    2    1    2    0    0  0.26721663868E+02  0.29393090976E+02 -0.17482020501E+02  0.47787283902E+02  0.20000058622E+02 0.  0.
         12    1    1    2    0    0 -0.26721663868E+02 -0.29393090976E+02  0.17482020501E+02  0.43400716098E+02  0.00000000000E+00 0. -1.
         11    1    3    3    0    0  0.51947800794E+01  0.15127277388E+02 -0.10734050943E+02  0.19262401490E+02  0.51100000000E-03 0. -1.
        -11    1    3    3    0    0  0.16780144903E+02  0.13650651881E+02 -0.87534260537E+01  0.23335295748E+02  0.51100000000E-03 0.  1.
         12    1    3    3    0    0  0.47467388862E+01  0.61516170774E+00  0.20054564962E+01  0.51895866636E+01  0.00000000000E+00 0. -1.
</event>
<event>
 7    1  0.1384886E-010  0.4778728E+02  0.7816164E-02  0.1312668E+00
        -11   -1    0    0    0    0  0.00000000000E+00  0.00000000000E+00  0.45593999997E+02  0.45594000000E+02  0.51100000000E-03 0. -1.
         11   -1    0    0    0    0 -0.00000000000E+00 -0.00000000000E+00 -0.45593999997E+02  0.45594000000E+02  0.51100000000E-03 0.  1.
    9900012    2    1    2    0    0 -0.30077511730E+02 -0.14754553070E+02 -0.27591110130E+02  0.47787275278E+02  0.20000019302E+02 0.  0.
         12    1    1    2    0    0  0.30077511730E+02  0.14754553070E+02  0.27591110130E+02  0.43400724722E+02  0.00000000000E+00 0. -1.
         11    1    3    3    0    0 -0.70665678896E+01 -0.26026156854E+01 -0.10795752364E+01  0.76075931211E+01  0.51100000000E-03 0. -1.
        -11    1    3    3    0    0 -0.11956346329E+02 -0.50191933528E+01 -0.23256066469E+02  0.26626887676E+02  0.51100000000E-03 0.  1.
        -12    1    3    3    0    0 -0.11054597512E+02 -0.71327440322E+01 -0.32554684250E+01  0.13552794481E+02  0.00000000000E+00 0.  1.
</event>
<event>
 7    1  0.1384886E-010  0.4778727E+02  0.7816164E-02  0.1312668E+00
        -11   -1    0    0    0    0  0.00000000000E+00  0.00000000000E+00  0.45593999997E+02  0.45594000000E+02  0.51100000000E-03 0. -1.
         11   -1    0    0    0    0 -0.00000000000E+00 -0.00000000000E+00 -0.45593999997E+02  0.45594000000E+02  0.51100000000E-03 0.  1.
    9900012    2    1    2    0    0 -0.33775186539E+01 -0.28632186935E+02 -0.32440927754E+02  0.47787267812E+02  0.19999985261E+02 0.  0.
         12    1    1    2    0    0  0.33775186539E+01  0.28632186935E+02  0.32440927754E+02  0.43400732188E+02  0.00000000000E+00 0. -1.
         11    1    3    3    0    0  0.10918391302E+01 -0.13305935042E+02 -0.25630274816E+01  0.13594452183E+02  0.51100000000E-03 0. -1.
        -11    1    3    3    0    0 -0.35535983751E+01 -0.85046526556E+01 -0.12741725558E+02  0.15726053181E+02  0.51100000000E-03 0.  1.
        -12    1    3    3    0    0 -0.91575940889E+00 -0.68215992381E+01 -0.17136174714E+02  0.18466762448E+02  0.00000000000E+00 0.  1.
</event>
<event>
 7    1  0.1384886E-010  0.4778727E+02  0.7816164E-02  0.1312668E+00
        -11   -1    0    0    0    0  0.00000000000E+00  0.00000000000E+00  0.45593999997E+02  0.45594000000E+02  0.51100000000E-03 0. -1.
         11   -1    0    0    0    0 -0.00000000000E+00 -0.00000000000E+00 -0.45593999997E+02  0.45594000000E+02  0.51100000000E-03 0.  1.
    9900012    2    1    2    0    0  0.42375773317E+02 -0.25445913652E+01  0.90245310646E+01  0.47787271085E+02  0.20000000185E+02 0.  0.
         12    1    1    2    0    0 -0.42375773317E+02  0.25445913652E+01 -0.90245310646E+01  0.43400728915E+02  0.00000000000E+00 0. -1.
         11    1    3    3    0    0  0.17299277821E+02 -0.36730582533E+01  0.99809378257E+01  0.20307030561E+02  0.51100000000E-03 0. -1.
        -11    1    3    3    0    0  0.23699963238E+02  0.86887425213E+00  0.24060924337E+01  0.23837627420E+02  0.51100000000E-03 0.  1.
         12    1    3    3    0    0  0.13765322580E+01  0.25959263593E+00 -0.33624991948E+01  0.36426131044E+01  0.00000000000E+00 0. -1.
</event>
<event>
 7    1  0.1384886E-010  0.4778727E+02  0.7816164E-02  0.1312668E+00
        -11   -1    0    0    0    0  0.00000000000E+00  0.00000000000E+00  0.45593999997E+02  0.45594000000E+02  0.51100000000E-03 0.  1.
         11   -1    0    0    0    0 -0.00000000000E+00 -0.00000000000E+00 -0.45593999997E+02  0.45594000000E+02  0.51100000000E-03 0. -1.
    9900012    2    1    2    0    0  0.30809145105E+02  0.13581057817E+02  0.27385672776E+02  0.47787266977E+02  0.19999981457E+02 0.  0.
         12    1    1    2    0    0 -0.30809145105E+02 -0.13581057817E+02 -0.27385672776E+02  0.43400733023E+02  0.00000000000E+00 0. -1.
         11    1    3    3    0    0 -0.83344470005E+00  0.34262564666E+01  0.11984929261E+01  0.37242783191E+01  0.51100000000E-03 0.  1.
        -11    1    3    3    0    0  0.23851457612E+01  0.48865751029E+01  0.61688008878E+01  0.82232378777E+01  0.51100000000E-03 0. -1.
        -12    1    3    3    0    0  0.29257444044E+02  0.52682262476E+01  0.20018378962E+02  0.35839750781E+02  0.00000000000E+00 0.  1.
</event>
<event>
 7    1  0.1384886E-010  0.4778728E+02  0.7816164E-02  0.1312668E+00
        -11   -1    0    0    0    0  0.00000000000E+00  0.00000000000E+00  0.45593999997E+02  0.45594000000E+02  0.51100000000E-03 0.  1.
         11   -1    0    0    0    0 -0.00000000000E+00 -0.00000000000E+00 -0.45593999997E+02  0.45594000000E+02  0.51100000000E-03 0. -1.
    9900012    2    1    2    0    0 -0.70771206636E+01 -0.12003281205E+02  0.41103020983E+02  0.47787277304E+02  0.20000028542E+02 0.  0.
         12    1    1    2    0    0  0.70771206636E+01  0.12003281205E+02 -0.41103020983E+02  0.43400722696E+02  0.00000000000E+00 0. -1.
         11    1    3    3    0    0 -0.64813530770E+01 -0.11731445790E+02  0.11832094592E+02  0.17878289089E+02  0.51100000000E-03 0. -1.
        -11    1    3    3    0    0  0.22307299692E+00  0.99528860053E+00  0.57001338948E+00  0.11684504635E+01  0.51100000000E-03 0.  1.
        -12    1    3    3    0    0 -0.81884058348E+00 -0.12671240147E+01  0.28700913001E+02  0.28740537752E+02  0.00000000000E+00 0.  1.
</event>
<event>
 7    1  0.1384886E-010  0.4778727E+02  0.7816164E-02  0.1312668E+00
        -11   -1    0    0    0    0  0.00000000000E+00  0.00000000000E+00  0.45593999997E+02  0.45594000000E+02  0.51100000000E-03 0.  1.
         11   -1    0    0    0    0 -0.00000000000E+00 -0.00000000000E+00 -0.45593999997E+02  0.45594000000E+02  0.51100000000E-03 0. -1.
    9900012    2    1    2    0    0 -0.15258138171E+02 -0.24185603680E+02  0.32647656041E+02  0.47787266703E+02  0.19999980204E+02 0.  0.
         12    1    1    2    0    0  0.15258138171E+02  0.24185603680E+02 -0.32647656041E+02  0.43400733297E+02  0.00000000000E+00 0. -1.
         11    1    3    3    0    0  0.10943186845E+01  0.17466082401E+01  0.46551706930E+01  0.50910498101E+01  0.51100000000E-03 0. -1.
        -11    1    3    3    0    0 -0.76877555708E+01 -0.13262088546E+02  0.20549709909E+02  0.25637378101E+02  0.51100000000E-03 0.  1.
         12    1    3    3    0    0 -0.86647012848E+01 -0.12670123374E+02  0.74427754389E+01  0.17058838791E+02  0.00000000000E+00 0. -1.
</event>
<event>
 7    1  0.1384886E-010  0.4778727E+02  0.7816164E-02  0.1312668E+00
        -11   -1    0    0    0    0  0.00000000000E+00  0.00000000000E+00  0.45593999997E+02  0.45594000000E+02  0.51100000000E-03 0. -1.
         11   -1    0    0    0    0 -0.00000000000E+00 -0.00000000000E+00 -0.45593999997E+02  0.45594000000E+02  0.51100000000E-03 0.  1.
    9900012    2    1    2    0    0 -0.20697615508E+02 -0.18693962141E+02  0.33253084953E+02  0.47787272274E+02  0.20000005606E+02 0.  0.
         12    1    1    2    0    0  0.20697615508E+02  0.18693962141E+02 -0.33253084953E+02  0.43400727726E+02  0.00000000000E+00 0. -1.
         11    1    3    3    0    0 -0.23028485536E+01  0.64996130984E+00 -0.32439159046E+00  0.24147031557E+01  0.51100000000E-03 0. -1.
        -11    1    3    3    0    0 -0.17405973654E+02 -0.80513286628E+01  0.20836789422E+02  0.28318961947E+02  0.51100000000E-03 0.  1.
        -12    1    3    3    0    0 -0.98879330134E+00 -0.11292594788E+02  0.12740687121E+02  0.17053607171E+02  0.00000000000E+00 0.  1.
</event>
<event>
 7    1  0.1384886E-010  0.4778728E+02  0.7816164E-02  0.1312668E+00
        -11   -1    0    0    0    0  0.00000000000E+00  0.00000000000E+00  0.45593999997E+02  0.45594000000E+02  0.51100000000E-03 0. -1.
         11   -1    0    0    0    0 -0.00000000000E+00 -0.00000000000E+00 -0.45593999997E+02  0.45594000000E+02  0.51100000000E-03 0.  1.
    9900012    2    1    2    0    0 -0.32295345813E+02 -0.26477592763E+02 -0.11813992321E+02  0.47787277721E+02  0.20000030442E+02 0.  0.
         12    1    1    2    0    0  0.32295345813E+02  0.26477592763E+02  0.11813992321E+02  0.43400722279E+02  0.00000000000E+00 0. -1.
         11    1    3    3    0    0 -0.59383815990E+01 -0.22161608220E+00 -0.39605854078E+01  0.71414092962E+01  0.51100000000E-03 0. -1.
        -11    1    3    3    0    0 -0.27471475045E+02 -0.25741389599E+02 -0.92698273873E+01  0.38771520214E+02  0.51100000000E-03 0.  1.
         12    1    3    3    0    0  0.11145108309E+01 -0.51458708273E+00  0.14164204738E+01  0.18743482111E+01  0.00000000000E+00 0. -1.
</event>
<event>
 7    1  0.1384886E-010  0.4778727E+02  0.7816164E-02  0.1312668E+00
        -11   -1    0    0    0    0  0.00000000000E+00  0.00000000000E+00  0.45593999997E+02  0.45594000000E+02  0.51100000000E-03 0.  1.
         11   -1    0    0    0    0 -0.00000000000E+00 -0.00000000000E+00 -0.45593999997E+02  0.45594000000E+02  0.51100000000E-03 0. -1.
    9900012    2    1    2    0    0  0.22730253355E+01 -0.12153305608E+02  0.41602329323E+02  0.47787270899E+02  0.19999999338E+02 0.  0.
         12    1    1    2    0    0 -0.22730253355E+01  0.12153305608E+02 -0.41602329323E+02  0.43400729101E+02  0.00000000000E+00 0. -1.
         11    1    3    3    0    0  0.21908608461E+01  0.84320446220E+00  0.10571668829E+02  0.10829175735E+02  0.51100000000E-03 0. -1.
        -11    1    3    3    0    0  0.26772157647E+01 -0.65730593493E+01  0.23861857248E+01  0.74877550731E+01  0.51100000000E-03 0.  1.
         12    1    3    3    0    0 -0.25950512753E+01 -0.64234507209E+01  0.28644474769E+02  0.29470340091E+02  0.00000000000E+00 0. -1.
</event>
<event>
 7    1  0.1384886E-010  0.4778727E+02  0.7816164E-02  0.1312668E+00
        -11   -1    0    0    0    0  0.00000000000E+00  0.00000000000E+00  0.45593999997E+02  0.45594000000E+02  0.51100000000E-03 0.  1.
         11   -1    0    0    0    0 -0.00000000000E+00 -0.00000000000E+00 -0.45593999997E+02  0.45594000000E+02  0.51100000000E-03 0. -1.
    9900012    2    1    2    0    0  0.26672654013E+02 -0.58600809990E+01  0.33732069425E+02  0.47787268104E+02  0.19999986595E+02 0.  0.
         12    1    1    2    0    0 -0.26672654013E+02  0.58600809990E+01 -0.33732069425E+02  0.43400731896E+02  0.00000000000E+00 0. -1.
         11    1    3    3    0    0  0.39783825452E+01 -0.44264442667E+01  0.71972516200E+01  0.93392380667E+01  0.51100000000E-03 0. -1.
        -11    1    3    3    0    0  0.29548896717E+01 -0.29282874503E+01  0.14935743587E+02  0.15504279317E+02  0.51100000000E-03 0.  1.
         12    1    3    3    0    0  0.19739381796E+02  0.14946507180E+01  0.11599074218E+02  0.22943750721E+02  0.00000000000E+00 0. -1.
</event>
<event>
 7    1  0.1384886E-010  0.4778729E+02  0.7816164E-02  0.1312668E+00
        -11   -1    0    0    0    0  0.00000000000E+00  0.00000000000E+00  0.45593999997E+02  0.45594000000E+02  0.51100000000E-03 0.  1.
         11   -1    0    0    0    0 -0.00000000000E+00 -0.00000000000E+00 -0.45593999997E+02  0.45594000000E+02  0.51100000000E-03 0. -1.
    9900012    2    1    2    0    0  0.11472013407E+02 -0.31381449965E+02  0.27698718600E+02  0.47787291416E+02  0.20000092883E+02 0.  0.
         12    1    1    2    0    0 -0.11472013407E+02  0.31381449965E+02 -0.27698718600E+02  0.43400708584E+02  0.00000000000E+00 0. -1.
         11    1    3    3    0    0  0.62148486043E+01 -0.39542953608E+01  0.59222220657E+01  0.94516405683E+01  0.51100000000E-03 0. -1.
        -11    1    3    3    0    0  0.36826795578E+01 -0.11761879760E+02  0.18538985855E+02  0.22262029131E+02  0.51100000000E-03 0.  1.
        -12    1    3    3    0    0  0.15744852451E+01 -0.15665274844E+02  0.32375106788E+01  0.16073621717E+02  0.00000000000E+00 0.  1.
</event>
<event>
 7    1  0.1384886E-010  0.4778727E+02  0.7816164E-02  0.1312668E+00
        -11   -1    0    0    0    0  0.00000000000E+00  0.00000000000E+00  0.45593999997E+02  0.45594000000E+02  0.51100000000E-03 0.  1.
         11   -1    0    0    0    0 -0.00000000000E+00 -0.00000000000E+00 -0.45593999997E+02  0.45594000000E+02  0.51100000000E-03 0. -1.
    9900012    2    1    2    0    0 -0.19366566499E+02  0.32149103877E+02  0.21794366690E+02  0.47787271925E+02  0.20000004017E+02 0.  0.
         12    1    1    2    0    0  0.19366566499E+02 -0.32149103877E+02 -0.21794366690E+02  0.43400728075E+02  0.00000000000E+00 0. -1.
         11    1    3    3    0    0  0.12837986879E+01 -0.57969129080E+00 -0.24400774217E-01  0.14088210399E+01  0.51100000000E-03 0. -1.
        -11    1    3    3    0    0 -0.15212793506E+02  0.14542350431E+02  0.66218016766E+01  0.22062576913E+02  0.51100000000E-03 0.  1.
         12    1    3    3    0    0 -0.54375716803E+01  0.18186444736E+02  0.15196965787E+02  0.24315873973E+02  0.00000000000E+00 0. -1.
</event>
<event>
 7    1  0.1384886E-010  0.4778726E+02  0.7816164E-02  0.1312668E+00
        -11   -1    0    0    0    0  0.00000000000E+00  0.00000000000E+00  0.45593999997E+02  0.45594000000E+02  0.51100000000E-03 0. -1.
         11   -1    0    0    0    0 -0.00000000000E+00 -0.00000000000E+00 -0.45593999997E+02  0.45594000000E+02  0.51100000000E-03 0.  1.
    9900012    2    1    2    0    0 -0.12958576519E+02 -0.33940181363E+02 -0.23743706542E+02  0.47787260182E+02  0.19999950474E+02 0.  0.
         12    1    1    2    0    0  0.12958576519E+02  0.33940181363E+02  0.23743706542E+02  0.43400739818E+02  0.00000000000E+00 0. -1.
         11    1    3    3    0    0 -0.59814672175E+01 -0.19727776958E+02 -0.69088283231E+01  0.21741551068E+02  0.51100000000E-03 0. -1.
        -11    1    3    3    0    0 -0.10125272838E+02 -0.81536594195E+01 -0.11865452032E+02  0.17600916572E+02  0.51100000000E-03 0.  1.
        -12    1    3    3    0    0  0.31481635364E+01 -0.60587449851E+01 -0.49694261875E+01  0.84447925421E+01  0.00000000000E+00 0.  1.
</event>
<event>
 7    1  0.1384886E-010  0.4778729E+02  0.7816164E-02  0.1312668E+00
        -11   -1    0    0    0    0  0.00000000000E+00  0.00000000000E+00  0.45593999997E+02  0.45594000000E+02  0.51100000000E-03 0.  1.
         11   -1    0    0    0    0 -0.00000000000E+00 -0.00000000000E+00 -0.45593999997E+02  0.45594000000E+02  0.51100000000E-03 0. -1.
    9900012    2    1    2    0    0 -0.37255525252E+01 -0.38043726124E+02 -0.20552788014E+02  0.47787286478E+02  0.20000070370E+02 0.  0.
         12    1    1    2    0    0  0.37255525252E+01  0.38043726124E+02  0.20552788014E+02  0.43400713522E+02  0.00000000000E+00 0. -1.
         11    1    3    3    0    0  0.23698566341E+01 -0.11450761448E+02  0.14852232237E+01  0.11787368090E+02  0.51100000000E-03 0. -1.
        -11    1    3    3    0    0 -0.32477458784E+01 -0.24583704315E+01 -0.42246067371E+01  0.58684530171E+01  0.51100000000E-03 0.  1.
        -12    1    3    3    0    0 -0.28476632809E+01 -0.24134594244E+02 -0.17813404501E+02  0.30131465371E+02  0.00000000000E+00 0.  1.
</event>
<event>
 7    1  0.1384886E-010  0.4778726E+02  0.7816164E-02  0.1312668E+00
        -11   -1    0    0    0    0  0.00000000000E+00  0.00000000000E+00  0.45593999997E+02  0.45594000000E+02  0.51100000000E-03 0.  1.
         11   -1    0    0    0    0 -0.00000000000E+00 -0.00000000000E+00 -0.45593999997E+02  0.45594000000E+02  0.51100000000E-03 0. -1.
    9900012    2    1    2    0    0  0.36618979105E+02 -0.64876471002E+01 -0.22373749551E+02  0.47787264239E+02  0.19999968973E+02 0.  0.
         12    1    1    2    0    0 -0.36618979105E+02  0.64876471002E+01  0.22373749551E+02  0.43400735761E+02  0.00000000000E+00 0. -1.
         11    1    3    3    0    0  0.18008806637E+02 -0.72929297819E+00 -0.13330153762E+02  0.22417448211E+02  0.51100000000E-03 0. -1.
        -11    1    3    3    0    0  0.12266399108E+02 -0.99304190037E+01 -0.80366490716E+01  0.17710604090E+02  0.51100000000E-03 0.  1.
        -12    1    3    3    0    0  0.63437733597E+01  0.41720648817E+01 -0.10069467175E+01  0.76592119378E+01  0.00000000000E+00 0.  1.
</event>
<event>
 7    1  0.1384886E-010  0.4778727E+02  0.7816164E-02  0.1312668E+00
        -11   -1    0    0    0    0  0.00000000000E+00  0.00000000000E+00  0.45593999997E+02  0.45594000000E+02  0.51100000000E-03 0. -1.
         11   -1    0    0    0    0 -0.00000000000E+00 -0.00000000000E+00 -0.45593999997E+02  0.45594000000E+02  0.51100000000E-03 0.  1.
    9900012    2    1    2    0    0  0.38286780936E+02 -0.20200244179E+02  0.31138216387E+01  0.47787270230E+02  0.19999996287E+02 0.  0.
         12    1    1    2    0    0 -0.38286780936E+02  0.20200244179E+02 -0.31138216387E+01  0.43400729770E+02  0.00000000000E+00 0. -1.
         11    1    3    3    0    0  0.25419366173E+02 -0.38733015944E+01  0.26195465020E+01  0.25845863615E+02  0.51100000000E-03 0. -1.
        -11    1    3    3    0    0  0.10719045858E-01 -0.33849154086E+01 -0.12664258726E+01  0.36140838359E+01  0.51100000000E-03 0.  1.
        -12    1    3    3    0    0  0.12856695718E+02 -0.12942027176E+02  0.17607010093E+01  0.18327322779E+02  0.00000000000E+00 0.  1.
</event>
<event>
 7    1  0.1384886E-010  0.4778727E+02  0.7816164E-02  0.1312668E+00
        -11   -1    0    0    0    0  0.00000000000E+00  0.00000000000E+00  0.45593999997E+02  0.45594000000E+02  0.51100000000E-03 0.  1.
         11   -1    0    0    0    0 -0.00000000000E+00 -0.00000000000E+00 -0.45593999997E+02  0.45594000000E+02  0.51100000000E-03 0. -1.
    9900012    2    1    2    0    0  0.52477911556E+01  0.36443773385E+02  0.22976844437E+02  0.47787270619E+02  0.19999998059E+02 0.  0.
         12    1    1    2    0    0 -0.52477911556E+01 -0.36443773385E+02 -0.22976844437E+02  0.43400729381E+02  0.00000000000E+00 0. -1.
         11    1    3    3    0    0  0.15417692388E+01  0.16731244136E+02  0.23849882962E+01  0.16970555447E+02  0.51100000000E-03 0.  1.
        -11    1    3    3    0    0 -0.38597240069E+01  0.91546869927E+01  0.86738516310E+01  0.13188687036E+02  0.51100000000E-03 0. -1.
        -12    1    3    3    0    0  0.75657459237E+01  0.10557842256E+02  0.11918004509E+02  0.17628028136E+02  0.00000000000E+00 0.  1.
</event>
<event>
 7    1  0.1384886E-010  0.4778730E+02  0.7816164E-02  0.1312668E+00
        -11   -1    0    0    0    0  0.00000000000E+00  0.00000000000E+00  0.45593999997E+02  0.45594000000E+02  0.51100000000E-03 0.  1.
         11   -1    0    0    0    0 -0.00000000000E+00 -0.00000000000E+00 -0.45593999997E+02  0.45594000000E+02  0.51100000000E-03 0. -1.
    9900012    2    1    2    0    0  0.22837076958E+02 -0.39201666047E+01  0.36697691725E+02  0.47787304521E+02  0.20000152631E+02 0.  0.
         12    1    1    2    0    0 -0.22837076958E+02  0.39201666047E+01 -0.36697691725E+02  0.43400695479E+02  0.00000000000E+00 0. -1.
         11    1    3    3    0    0 -0.55367917886E+00 -0.66234563146E+01  0.93735521719E+01  0.11490875283E+02  0.51100000000E-03 0. -1.
        -11    1    3    3    0    0  0.60529405031E+01 -0.74087401369E+00  0.86439113409E+01  0.10578477517E+02  0.51100000000E-03 0.  1.
         12    1    3    3    0    0  0.17337815634E+02  0.34441637236E+01  0.18680228212E+02  0.25717951721E+02  0.00000000000E+00 0. -1.
</event>
<event>
 7    1  0.1384886E-010  0.4778726E+02  0.7816164E-02  0.1312668E+00
        -11   -1    0    0    0    0  0.00000000000E+00  0.00000000000E+00  0.45593999997E+02  0.45594000000E+02  0.51100000000E-03 0. -1.
         11   -1    0    0    0    0 -0.00000000000E+00 -0.00000000000E+00 -0.45593999997E+02  0.45594000000E+02  0.51100000000E-03 0.  1.
    9900012    2    1    2    0    0  0.69148750180E+01  0.32672511859E+02 -0.27718504289E+02  0.47787262590E+02  0.19999961455E+02 0.  0.
         12    1    1    2    0    0 -0.69148750180E+01 -0.32672511859E+02  0.27718504289E+02  0.43400737410E+02  0.00000000000E+00 0. -1.
         11    1    3    3    0    0  0.42327429651E+01  0.38867120269E+01 -0.74898452079E+01  0.94403614808E+01  0.51100000000E-03 0. -1.
        -11    1    3    3    0    0 -0.39751853687E+01  0.22687352044E+02 -0.17462613165E+02  0.28904340510E+02  0.51100000000E-03 0.  1.
         12    1    3    3    0    0  0.66573174216E+01  0.60984477882E+01 -0.27660459156E+01  0.94425606001E+01  0.00000000000E+00 0. -1.
</event>
<event>
 7    1  0.1384886E-010  0.4778727E+02  0.7816164E-02  0.1312668E+00
        -11   -1    0    0    0    0  0.00000000000E+00  0.00000000000E+00  0.45593999997E+02  0.45594000000E+02  0.51100000000E-03 0.  1.
         11   -1    0    0    0    0 -0.00000000000E+00 -0.00000000000E+00 -0.45593999997E+02  0.45594000000E+02  0.51100000000E-03 0. -1.
    9900012    2    1    2    0    0  0.22219897526E+02 -0.41863825123E+01  0.37045563196E+02  0.47787269625E+02  0.19999993527E+02 0.  0.
         12    1    1    2    0    0 -0.22219897526E+02  0.41863825123E+01 -0.37045563196E+02  0.43400730375E+02  0.00000000000E+00 0. -1.
         11    1    3    3    0    0  0.10977187186E+02 -0.47282566752E+01  0.22442200828E+02  0.25426510338E+02  0.51100000000E-03 0. -1.
        -11    1    3    3    0    0  0.10194535105E+02 -0.29625337327E+01  0.15314612738E+02  0.18634444336E+02  0.51100000000E-03 0.  1.
         12    1    3    3    0    0  0.10481752351E+01  0.35044078956E+01 -0.71125037046E+00  0.37263149507E+01  0.00000000000E+00 0. -1.
</event>
<event>
 7    1  0.1384886E-010  0.4778727E+02  0.7816164E-02  0.1312668E+00
        -11   -1    0    0    0    0  0.00000000000E+00  0.00000000000E+00  0.45593999997E+02  0.45594000000E+02  0.51100000000E-03 0.  1.
         11   -1    0    0    0    0 -0.00000000000E+00 -0.00000000000E+00 -0.45593999997E+02  0.45594000000E+02  0.51100000000E-03 0. -1.
    9900012    2    1    2    0    0 -0.28882336686E+02 -0.25972174570E+02 -0.19361817518E+02  0.47787271873E+02  0.20000003779E+02 0.  0.
         12    1    1    2    0    0  0.28882336686E+02  0.25972174570E+02  0.19361817518E+02  0.43400728127E+02  0.00000000000E+00 0. -1.
         11    1    3    3    0    0 -0.15585969665E+02 -0.12598494013E+02 -0.12088448914E+02  0.23404595686E+02  0.51100000000E-03 0.  1.
        -11    1    3    3    0    0 -0.71153638264E+01 -0.23392475425E+01  0.30197725687E+01  0.80758595874E+01  0.51100000000E-03 0. -1.
         12    1    3    3    0    0 -0.61810031944E+01 -0.11034433014E+02 -0.10293141172E+02  0.16306816600E+02  0.00000000000E+00 0. -1.
</event>
<event>
 7    1  0.1384886E-010  0.4778727E+02  0.7816164E-02  0.1312668E+00
        -11   -1    0    0    0    0  0.00000000000E+00  0.00000000000E+00  0.45593999997E+02  0.45594000000E+02  0.51100000000E-03 0.  1.
         11   -1    0    0    0    0 -0.00000000000E+00 -0.00000000000E+00 -0.45593999997E+02  0.45594000000E+02  0.51100000000E-03 0. -1.
    9900012    2    1    2    0    0  0.22321528213E+02  0.33008752573E+02  0.17198679286E+02  0.47787274920E+02  0.20000017672E+02 0.  0.
         12    1    1    2    0    0 -0.22321528213E+02 -0.33008752573E+02 -0.17198679286E+02  0.43400725080E+02  0.00000000000E+00 0. -1.
         11    1    3    3    0    0 -0.65298953514E-01 -0.15938864999E+01 -0.11980952107E+01  0.19950364716E+01  0.51100000000E-03 0. -1.
        -11    1    3    3    0    0  0.47271018512E+01  0.98128384749E+01  0.84028942525E+01  0.13756668308E+02  0.51100000000E-03 0.  1.
        -12    1    3    3    0    0  0.17659725316E+02  0.24789800598E+02  0.99938802444E+01  0.32035570141E+02  0.00000000000E+00 0.  1.
</event>
<event>
 7    1  0.1384886E-010  0.4778727E+02  0.7816164E-02  0.1312668E+00
        -11   -1    0    0    0    0  0.00000000000E+00  0.00000000000E+00  0.45593999997E+02  0.45594000000E+02  0.51100000000E-03 0.  1.
         11   -1    0    0    0    0 -0.00000000000E+00 -0.00000000000E+00 -0.45593999997E+02  0.45594000000E+02  0.51100000000E-03 0. -1.
    9900012    2    1    2    0    0  0.16870569338E+02 -0.24925734302E+02  0.31268433852E+02  0.47787270792E+02  0.19999998847E+02 0.  0.
         12    1    1    2    0    0 -0.16870569338E+02  0.24925734302E+02 -0.31268433852E+02  0.43400729208E+02  0.00000000000E+00 0. -1.
         11    1    3    3    0    0  0.49999785394E+01 -0.24590022488E+00  0.35637448159E+01  0.61449596980E+01  0.51100000000E-03 0. -1.
        -11    1    3    3    0    0  0.13642915488E+02 -0.25130180009E+02  0.23342810912E+02  0.36912625371E+02  0.51100000000E-03 0.  1.
        -12    1    3    3    0    0 -0.17723246894E+01  0.45034593159E+00  0.43618781240E+01  0.47296857223E+01  0.00000000000E+00 0.  1.
</event>
<event>
 7    1  0.1384886E-010  0.4778727E+02  0.7816164E-02  0.1312668E+00
        -11   -1    0    0    0    0  0.00000000000E+00  0.00000000000E+00  0.45593999997E+02  0.45594000000E+02  0.51100000000E-03 0. -1.
         11   -1    0    0    0    0 -0.00000000000E+00 -0.00000000000E+00 -0.45593999997E+02  0.45594000000E+02  0.51100000000E-03 0.  1.
    9900012    2    1    2    0    0  0.21945698639E+02 -0.21380411934E+02 -0.30739022740E+02  0.47787271639E+02  0.20000002709E+02 0.  0.
         12    1    1    2    0    0 -0.21945698639E+02  0.21380411934E+02  0.30739022740E+02  0.43400728361E+02  0.00000000000E+00 0. -1.
         11    1    3    3    0    0  0.27369743122E+01 -0.96903604038E+01 -0.20263487092E+02  0.22627483787E+02  0.51100000000E-03 0. -1.
        -11    1    3    3    0    0  0.96300182926E+01 -0.68313136993E+01 -0.75981500349E+01  0.14040512220E+02  0.51100000000E-03 0.  1.
         12    1    3    3    0    0  0.95787060347E+01 -0.48587378313E+01 -0.28773856133E+01  0.11119275632E+02  0.00000000000E+00 0. -1.
</event>
<event>
 7    1  0.1384886E-010  0.4778724E+02  0.7816164E-02  0.1312668E+00
        -11   -1    0    0    0    0  0.00000000000E+00  0.00000000000E+00  0.45593999997E+02  0.45594000000E+02  0.51100000000E-03 0.  1.
         11   -1    0    0    0    0 -0.00000000000E+00 -0.00000000000E+00 -0.45593999997E+02  0.45594000000E+02  0.51100000000E-03 0. -1.
    9900012    2    1    2    0    0  0.43303242416E+02  0.19649824265E+01 -0.21433546138E+01  0.47787240460E+02  0.19999860551E+02 0.  0.
         12    1    1    2    0    0 -0.43303242416E+02 -0.19649824265E+01  0.21433546138E+01  0.43400759540E+02  0.00000000000E+00 0. -1.
         11    1    3    3    0    0  0.18502104251E+02  0.26409149660E+01  0.13508697853E+01  0.18738386884E+02  0.51100000000E-03 0. -1.
        -11    1    3    3    0    0  0.98471354224E+01  0.39595263713E+01  0.44310394024E+01  0.11501218873E+02  0.51100000000E-03 0.  1.
         12    1    3    3    0    0  0.14954002743E+02 -0.46354589107E+01 -0.79252638014E+01  0.17547634703E+02  0.00000000000E+00 0. -1.
</event>
<event>
 7    1  0.1384886E-010  0.4778726E+02  0.7816164E-02  0.1312668E+00
        -11   -1    0    0    0    0  0.00000000000E+00  0.00000000000E+00  0.45593999997E+02  0.45594000000E+02  0.51100000000E-03 0.  1.
         11   -1    0    0    0    0 -0.00000000000E+00 -0.00000000000E+00 -0.45593999997E+02  0.45594000000E+02  0.51100000000E-03 0. -1.
    9900012    2    1    2    0    0  0.41326984801E+02  0.90624745430E+00  0.13224330188E+02  0.47787264221E+02  0.19999968891E+02 0.  0.
         12    1    1    2    0    0 -0.41326984801E+02 -0.90624745430E+00 -0.13224330188E+02  0.43400735779E+02  0.00000000000E+00 0. -1.
         11    1    3    3    0    0  0.12297541332E+02  0.22334574760E+01 -0.23446906843E+01  0.12716738173E+02  0.51100000000E-03 0. -1.
        -11    1    3    3    0    0  0.12976760309E+02 -0.63191659103E+01  0.53264318875E+01  0.15385026579E+02  0.51100000000E-03 0.  1.
        -12    1    3    3    0    0  0.16052683160E+02  0.49919558885E+01  0.10242588985E+02  0.19685499469E+02  0.00000000000E+00 0.  1.
</event>
<event>
 7    1  0.1384886E-010  0.4778728E+02  0.7816164E-02  0.1312668E+00
        -11   -1    0    0    0    0  0.00000000000E+00  0.00000000000E+00  0.45593999997E+02  0.45594000000E+02  0.51100000000E-03 0.  1.
         11   -1    0    0    0    0 -0.00000000000E+00 -0.00000000000E+00 -0.45593999997E+02  0.45594000000E+02  0.51100000000E-03 0. -1.
    9900012    2    1    2    0    0 -0.22693535318E+02 -0.12672680893E+02  0.34756711845E+02  0.47787281060E+02  0.20000045663E+02 0.  0.
         12    1    1    2    0    0  0.22693535318E+02  0.12672680893E+02 -0.34756711845E+02  0.43400718940E+02  0.00000000000E+00 0. -1.
         11    1    3    3    0    0  0.73065308150E-01  0.60050775369E+00 -0.68707883688E+00  0.91543743134E+00  0.51100000000E-03 0. -1.
        -11    1    3    3    0    0 -0.17238493590E+02 -0.10792027258E+02  0.35383597600E+02  0.40812161092E+02  0.51100000000E-03 0.  1.
        -12    1    3    3    0    0 -0.55281070362E+01 -0.24811613881E+01  0.60193082305E-01  0.60596825366E+01  0.00000000000E+00 0.  1.
</event>
<event>
 7    1  0.1384886E-010  0.4778727E+02  0.7816164E-02  0.1312668E+00
        -11   -1    0    0    0    0  0.00000000000E+00  0.00000000000E+00  0.45593999997E+02  0.45594000000E+02  0.51100000000E-03 0.  1.
         11   -1    0    0    0    0 -0.00000000000E+00 -0.00000000000E+00 -0.45593999997E+02  0.45594000000E+02  0.51100000000E-03 0. -1.
    9900012    2    1    2    0    0 -0.40765266698E+01  0.19492800357E+02  0.38562101212E+02  0.47787274369E+02  0.20000015159E+02 0.  0.
         12    1    1    2    0    0  0.40765266698E+01 -0.19492800357E+02 -0.38562101212E+02  0.43400725631E+02  0.00000000000E+00 0. -1.
         11    1    3    3    0    0 -0.11947158343E+01  0.11099220994E+02  0.22486099501E+02  0.25104675334E+02  0.51100000000E-03 0.  1.
        -11    1    3    3    0    0 -0.58452877382E+01  0.10534146188E+02  0.14032508121E+02  0.18494510242E+02  0.51100000000E-03 0. -1.
         12    1    3    3    0    0  0.29634769026E+01 -0.21405668260E+01  0.20434935900E+01  0.41880887933E+01  0.00000000000E+00 0. -1.
</event>
<event>
 7    1  0.1384886E-010  0.4778727E+02  0.7816164E-02  0.1312668E+00
        -11   -1    0    0    0    0  0.00000000000E+00  0.00000000000E+00  0.45593999997E+02  0.45594000000E+02  0.51100000000E-03 0.  1.
         11   -1    0    0    0    0 -0.00000000000E+00 -0.00000000000E+00 -0.45593999997E+02  0.45594000000E+02  0.51100000000E-03 0. -1.
    9900012    2    1    2    0    0  0.31057580515E+02 -0.88821280025E+01  0.28985475228E+02  0.47787270980E+02  0.19999999706E+02 0.  0.
         12    1    1    2    0    0 -0.31057580515E+02  0.88821280025E+01 -0.28985475228E+02  0.43400729020E+02  0.00000000000E+00 0. -1.
         11    1    3    3    0    0  0.15005166467E+02 -0.17620187327E+01  0.14716670891E+02  0.21091233560E+02  0.51100000000E-03 0. -1.
        -11    1    3    3    0    0  0.10627586839E+02 -0.18678805357E+01  0.27375212674E+00  0.10793957578E+02  0.51100000000E-03 0.  1.
         12    1    3    3    0    0  0.54248272094E+01 -0.52522287341E+01  0.13995052211E+02  0.15902079842E+02  0.00000000000E+00 0. -1.
</event>
<event>
 7    1  0.1384886E-010  0.4778728E+02  0.7816164E-02  0.1312668E+00
        -11   -1    0    0    0    0  0.00000000000E+00  0.00000000000E+00  0.45593999997E+02  0.45594000000E+02  0.51100000000E-03 0. -1.
         11   -1    0    0    0    0 -0.00000000000E+00 -0.00000000000E+00 -0.45593999997E+02  0.45594000000E+02  0.51100000000E-03 0.  1.
    9900012    2    1    2    0    0 -0.14527676911E+02 -0.29498079114E+02  0.28327244781E+02  0.47787275758E+02  0.20000021490E+02 0.  0.
         12    1    1    2    0    0  0.14527676911E+02  0.29498079114E+02 -0.28327244781E+02  0.43400724242E+02  0.00000000000E+00 0. -1.
         11    1    3    3    0    0  0.28653443330E+01 -0.11337568947E+01  0.74316201799E+00  0.31698411457E+01  0.51100000000E-03 0. -1.
        -11    1    3    3    0    0 -0.73843031016E+00 -0.10819776829E+02  0.76480571062E+01  0.13270479558E+02  0.51100000000E-03 0.  1.
        -12    1    3    3    0    0 -0.16654590934E+02 -0.17544545391E+02  0.19936025657E+02  0.31346955054E+02  0.00000000000E+00 0.  1.
</event>
<event>
 7    1  0.1384886E-010  0.4778727E+02  0.7816164E-02  0.1312668E+00
        -11   -1    0    0    0    0  0.00000000000E+00  0.00000000000E+00  0.45593999997E+02  0.45594000000E+02  0.51100000000E-03 0. -1.
         11   -1    0    0    0    0 -0.00000000000E+00 -0.00000000000E+00 -0.45593999997E+02  0.45594000000E+02  0.51100000000E-03 0.  1.
    9900012    2    1    2    0    0  0.35072394999E+02 -0.16898749394E+02 -0.19182878210E+02  0.47787269148E+02  0.19999991353E+02 0.  0.
         12    1    1    2    0    0 -0.35072394999E+02  0.16898749394E+02  0.19182878210E+02  0.43400730852E+02  0.00000000000E+00 0. -1.
         11    1    3    3    0    0  0.16909532377E+02 -0.11376075393E+02 -0.54727104616E+01  0.21102083703E+02  0.51100000000E-03 0. -1.
        -11    1    3    3    0    0  0.11063768748E+02 -0.94399446786E+01 -0.10618672330E+02  0.18007657726E+02  0.51100000000E-03 0.  1.
         12    1    3    3    0    0  0.70990938747E+01  0.39172706774E+01 -0.30914954184E+01  0.86775277196E+01  0.00000000000E+00 0. -1.
</event>
<event>
 7    1  0.1384886E-010  0.4778727E+02  0.7816164E-02  0.1312668E+00
        -11   -1    0    0    0    0  0.00000000000E+00  0.00000000000E+00  0.45593999997E+02  0.45594000000E+02  0.51100000000E-03 0.  1.
         11   -1    0    0    0    0 -0.00000000000E+00 -0.00000000000E+00 -0.45593999997E+02  0.45594000000E+02  0.51100000000E-03 0. -1.
    9900012    2    1    2    0    0 -0.33415977073E+02  0.24721199505E+02 -0.12484309155E+02  0.47787271852E+02  0.20000003682E+02 0.  0.
         12    1    1    2    0    0  0.33415977073E+02 -0.24721199505E+02  0.12484309155E+02  0.43400728148E+02  0.00000000000E+00 0. -1.
         11    1    3    3    0    0 -0.21577250501E+02  0.55330491733E+01 -0.17804092781E+01  0.22346414249E+02  0.51100000000E-03 0. -1.
        -11    1    3    3    0    0 -0.74820112422E+01  0.91696041053E+01 -0.34511668443E+01  0.12327720167E+02  0.51100000000E-03 0.  1.
         12    1    3    3    0    0 -0.43567153298E+01  0.10018546227E+02 -0.72527330330E+01  0.13113137436E+02  0.00000000000E+00 0. -1.
</event>
<event>
 7    1  0.1384886E-010  0.4778727E+02  0.7816164E-02  0.1312668E+00
        -11   -1    0    0    0    0  0.00000000000E+00  0.00000000000E+00  0.45593999997E+02  0.45594000000E+02  0.51100000000E-03 0.  1.
         11   -1    0    0    0    0 -0.00000000000E+00 -0.00000000000E+00 -0.45593999997E+02  0.45594000000E+02  0.51100000000E-03 0. -1.
    9900012    2    1    2    0    0 -0.28113263941E+02  0.31787455001E+02  0.91008495739E+01  0.47787269962E+02  0.19999995066E+02 0.  0.
         12    1    1    2    0    0  0.28113263941E+02 -0.31787455001E+02 -0.91008495739E+01  0.43400730038E+02  0.00000000000E+00 0. -1.
         11    1    3    3    0    0 -0.88812533569E+01  0.18064945117E+02  0.10247902270E+01  0.20156118142E+02  0.51100000000E-03 0. -1.
        -11    1    3    3    0    0 -0.54826653597E+01  0.47169578037E+01 -0.29801699583E+01  0.78224499749E+01  0.51100000000E-03 0.  1.
        -12    1    3    3    0    0 -0.13749345224E+02  0.90055520803E+01  0.11056229305E+02  0.19808701845E+02  0.00000000000E+00 0.  1.
</event>
<event>
 7    1  0.1384886E-010  0.4778727E+02  0.7816164E-02  0.1312668E+00
        -11   -1    0    0    0    0  0.00000000000E+00  0.00000000000E+00  0.45593999997E+02  0.45594000000E+02  0.51100000000E-03 0. -1.
         11   -1    0    0    0    0 -0.00000000000E+00 -0.00000000000E+00 -0.45593999997E+02  0.45594000000E+02  0.51100000000E-03 0.  1.
    9900012    2    1    2    0    0  0.41910877020E+02 -0.81679757681E+01 -0.77708473350E+01  0.47787268335E+02  0.19999987649E+02 0.  0.
         12    1    1    2    0    0 -0.41910877020E+02  0.81679757681E+01  0.77708473350E+01  0.43400731665E+02  0.00000000000E+00 0. -1.
         11    1    3    3    0    0  0.34855492875E+01  0.19754233191E+01 -0.36407673901E+01  0.54135513829E+01  0.51100000000E-03 0. -1.
        -11    1    3    3    0    0  0.22765203811E+02 -0.51814179640E+00 -0.68794334534E+01  0.23787592992E+02  0.51100000000E-03 0.  1.
         12    1    3    3    0    0  0.15660123922E+02 -0.96252572908E+01  0.27493535085E+01  0.18586123960E+02  0.00000000000E+00 0. -1.
</event>
<event>
 7    1  0.1384886E-010  0.4778727E+02  0.7816164E-02  0.1312668E+00
        -11   -1    0    0    0    0  0.00000000000E+00  0.00000000000E+00  0.45593999997E+02  0.45594000000E+02  0.51100000000E-03 0.  1.
         11   -1    0    0    0    0 -0.00000000000E+00 -0.00000000000E+00 -0.45593999997E+02  0.45594000000E+02  0.51100000000E-03 0. -1.
    9900012    2    1    2    0    0 -0.27524616916E+02 -0.27550994506E+02  0.19156237154E+02  0.47787271244E+02  0.20000000911E+02 0.  0.
         12    1    1    2    0    0  0.27524616916E+02  0.27550994506E+02 -0.19156237154E+02  0.43400728756E+02  0.00000000000E+00 0. -1.
         11    1    3    3    0    0 -0.41011114716E+01 -0.77953554372E+01  0.95933119038E+01  0.13023759643E+02  0.51100000000E-03 0.  1.
        -11    1    3    3    0    0 -0.46795124052E+01 -0.88127613977E+01 -0.19918370047E+01  0.10174970011E+02  0.51100000000E-03 0. -1.
         12    1    3    3    0    0 -0.18743993039E+02 -0.10942877671E+02  0.11554762255E+02  0.24588541591E+02  0.00000000000E+00 0. -1.
</event>
<event>
 7    1  0.1384886E-010  0.4778726E+02  0.7816164E-02  0.1312668E+00
        -11   -1    0    0    0    0  0.00000000000E+00  0.00000000000E+00  0.45593999997E+02  0.45594000000E+02  0.51100000000E-03 0. -1.
         11   -1    0    0    0    0 -0.00000000000E+00 -0.00000000000E+00 -0.45593999997E+02  0.45594000000E+02  0.51100000000E-03 0.  1.
    9900012    2    1    2    0    0  0.34779894844E+01 -0.38835510523E+02 -0.19061244480E+02  0.47787258882E+02  0.19999944546E+02 0.  0.
         12    1    1    2    0    0 -0.34779894844E+01  0.38835510523E+02  0.19061244480E+02  0.43400741118E+02  0.00000000000E+00 0. -1.
         11    1    3    3    0    0  0.61542530873E+01 -0.29796785578E+02 -0.21046766699E+02  0.36995805851E+02  0.51100000000E-03 0. -1.
        -11    1    3    3    0    0 -0.25141117093E+01 -0.43322783109E+01 -0.11430535555E+01  0.51377003359E+01  0.51100000000E-03 0.  1.
        -12    1    3    3    0    0 -0.16215189366E+00 -0.47064466344E+01  0.31285757742E+01  0.56537526948E+01  0.00000000000E+00 0.  1.
</event>
<event>
 7    1  0.1384886E-010  0.4778727E+02  0.7816164E-02  0.1312668E+00
        -11   -1    0    0    0    0  0.00000000000E+00  0.00000000000E+00  0.45593999997E+02  0.45594000000E+02  0.51100000000E-03 0.  1.
         11   -1    0    0    0    0 -0.00000000000E+00 -0.00000000000E+00 -0.45593999997E+02  0.45594000000E+02  0.51100000000E-03 0. -1.
    9900012    2    1    2    0    0  0.30202498191E+02  0.29915600569E+02  0.87458188047E+01  0.47787269580E+02  0.19999993324E+02 0.  0.
         12    1    1    2    0    0 -0.30202498191E+02 -0.29915600569E+02 -0.87458188047E+01  0.43400730420E+02  0.00000000000E+00 0. -1.
         11    1    3    3    0    0  0.32196276560E+01 -0.46245094611E-01  0.22799414491E+01  0.39454117813E+01  0.51100000000E-03 0. -1.
        -11    1    3    3    0    0  0.19270807428E+02  0.28681574292E+02  0.88485270619E+01  0.35669218582E+02  0.51100000000E-03 0.  1.
        -12    1    3    3    0    0  0.77120631069E+01  0.12802713719E+01 -0.23826497063E+01  0.81726392171E+01  0.00000000000E+00 0.  1.
</event>
<event>
 7    1  0.1384886E-010  0.4778727E+02  0.7816164E-02  0.1312668E+00
        -11   -1    0    0    0    0  0.00000000000E+00  0.00000000000E+00  0.45593999997E+02  0.45594000000E+02  0.51100000000E-03 0.  1.
         11   -1    0    0    0    0 -0.00000000000E+00 -0.00000000000E+00 -0.45593999997E+02  0.45594000000E+02  0.51100000000E-03 0. -1.
    9900012    2    1    2    0    0 -0.39073421309E+01  0.71672931328E+01  0.42626118229E+02  0.47787269952E+02  0.19999995020E+02 0.  0.
         12    1    1    2    0    0  0.39073421309E+01 -0.71672931328E+01 -0.42626118229E+02  0.43400730048E+02  0.00000000000E+00 0. -1.
         11    1    3    3    0    0 -0.15936537553E+01  0.30222971156E+00 -0.20276496788E+00  0.16346831447E+01  0.51100000000E-03 0. -1.
        -11    1    3    3    0    0 -0.49529988410E+01  0.43059340899E+01  0.41831763106E+02  0.42343472587E+02  0.51100000000E-03 0.  1.
        -12    1    3    3    0    0  0.26393104654E+01  0.25591293313E+01  0.99712009069E+00  0.38091142202E+01  0.00000000000E+00 0.  1.
</event>
<event>
 7    1  0.1384886E-010  0.4778727E+02  0.7816164E-02  0.1312668E+00
        -11   -1    0    0    0    0  0.00000000000E+00  0.00000000000E+00  0.45593999997E+02  0.45594000000E+02  0.51100000000E-03 0.  1.
         11   -1    0    0    0    0 -0.00000000000E+00 -0.00000000000E+00 -0.45593999997E+02  0.45594000000E+02  0.51100000000E-03 0. -1.
    9900012    2    1    2    0    0 -0.22861929542E+02  0.18920268794E+01  0.36842577110E+02  0.47787273322E+02  0.20000010384E+02 0.  0.
         12    1    1    2    0    0  0.22861929542E+02 -0.18920268794E+01 -0.36842577110E+02  0.43400726678E+02  0.00000000000E+00 0. -1.
         11    1    3    3    0    0 -0.50392689873E+00  0.29452913565E+01  0.12075364304E+02  0.12439578241E+02  0.51100000000E-03 0. -1.
        -11    1    3    3    0    0 -0.17058595822E+02  0.12125800739E+01  0.24092103297E+02  0.29544804677E+02  0.51100000000E-03 0.  1.
        -12    1    3    3    0    0 -0.52994068213E+01 -0.22658445509E+01  0.67510950866E+00  0.58028904035E+01  0.00000000000E+00 0.  1.
</event>
<event>
 7    1  0.1384886E-010  0.4778727E+02  0.7816164E-02  0.1312668E+00
        -11   -1    0    0    0    0  0.00000000000E+00  0.00000000000E+00  0.45593999997E+02  0.45594000000E+02  0.51100000000E-03 0.  1.
         11   -1    0    0    0    0 -0.00000000000E+00 -0.00000000000E+00 -0.45593999997E+02  0.45594000000E+02  0.51100000000E-03 0. -1.
    9900012    2    1    2    0    0 -0.39572907683E+02 -0.37082423779E+01  0.17431497600E+02  0.47787271980E+02  0.20000004267E+02 0.  0.
         12    1    1    2    0    0  0.39572907683E+02  0.37082423779E+01 -0.17431497600E+02  0.43400728020E+02  0.00000000000E+00 0. -1.
         11    1    3    3    0    0 -0.96633880433E+01  0.31877957709E+01  0.55118518219E+01  0.11572537367E+02  0.51100000000E-03 0. -1.
        -11    1    3    3    0    0 -0.16800792915E+02  0.12377283448E+01  0.12175267383E+02  0.20785469688E+02  0.51100000000E-03 0.  1.
         12    1    3    3    0    0 -0.13108726725E+02 -0.81337664936E+01 -0.25562160473E+00  0.15429264925E+02  0.00000000000E+00 0. -1.
</event>
<event>
 7    1  0.1384886E-010  0.4778727E+02  0.7816164E-02  0.1312668E+00
        -11   -1    0    0    0    0  0.00000000000E+00  0.00000000000E+00  0.45593999997E+02  0.45594000000E+02  0.51100000000E-03 0.  1.
         11   -1    0    0    0    0 -0.00000000000E+00 -0.00000000000E+00 -0.45593999997E+02  0.45594000000E+02  0.51100000000E-03 0. -1.
    9900012    2    1    2    0    0 -0.60067972552E+00 -0.36625537982E+02  0.23277296488E+02  0.47787269817E+02  0.19999994403E+02 0.  0.
         12    1    1    2    0    0  0.60067972552E+00  0.36625537982E+02 -0.23277296488E+02  0.43400730183E+02  0.00000000000E+00 0. -1.
         11    1    3    3    0    0  0.67333324733E+00 -0.55283056678E+01  0.88013172925E+01  0.10415312168E+02  0.51100000000E-03 0. -1.
        -11    1    3    3    0    0  0.31945869985E+01 -0.29526556388E+02  0.12906459125E+02  0.32382087728E+02  0.51100000000E-03 0.  1.
         12    1    3    3    0    0 -0.44685999713E+01 -0.15706759266E+01  0.15695200705E+01  0.49898699204E+01  0.00000000000E+00 0. -1.
</event>
<event>
 7    1  0.1384886E-010  0.4778727E+02  0.7816164E-02  0.1312668E+00
        -11   -1    0    0    0    0  0.00000000000E+00  0.00000000000E+00  0.45593999997E+02  0.45594000000E+02  0.51100000000E-03 0.  1.
         11   -1    0    0    0    0 -0.00000000000E+00 -0.00000000000E+00 -0.45593999997E+02  0.45594000000E+02  0.51100000000E-03 0. -1.
    9900012    2    1    2    0    0 -0.18002493329E+02  0.38425447353E+02  0.91114738008E+01  0.47787265845E+02  0.19999976295E+02 0.  0.
         12    1    1    2    0    0  0.18002493329E+02 -0.38425447353E+02 -0.91114738008E+01  0.43400734155E+02  0.00000000000E+00 0. -1.
         11    1    3    3    0    0 -0.26420329881E+01 -0.13171617860E+01 -0.21426564216E+01  0.36477705908E+01  0.51100000000E-03 0. -1.
        -11    1    3    3    0    0 -0.64200268677E+01  0.15764486005E+02  0.32757115688E+01  0.17333956575E+02  0.51100000000E-03 0.  1.
        -12    1    3    3    0    0 -0.89404334732E+01  0.23978123134E+02  0.79784186536E+01  0.26805538680E+02  0.00000000000E+00 0.  1.
</event>
<event>
 7    1  0.1384886E-010  0.4778726E+02  0.7816164E-02  0.1312668E+00
        -11   -1    0    0    0    0  0.00000000000E+00  0.00000000000E+00  0.45593999997E+02  0.45594000000E+02  0.51100000000E-03 0.  1.
         11   -1    0    0    0    0 -0.00000000000E+00 -0.00000000000E+00 -0.45593999997E+02  0.45594000000E+02  0.51100000000E-03 0. -1.
    9900012    2    1    2    0    0  0.11821837965E+01  0.28748158663E+02  0.32492613009E+02  0.47787261697E+02  0.19999957382E+02 0.  0.
         12    1    1    2    0    0 -0.11821837965E+01 -0.28748158663E+02 -0.32492613009E+02  0.43400738303E+02  0.00000000000E+00 0. -1.
         11    1    3    3    0    0  0.17761495171E+01  0.11958827094E+02  0.10835062374E+02  0.16234741436E+02  0.51100000000E-03 0. -1.
        -11    1    3    3    0    0  0.62947169698E+01  0.12457770704E+02  0.17590539348E+02  0.22455435589E+02  0.51100000000E-03 0.  1.
        -12    1    3    3    0    0 -0.68886826904E+01  0.43315608655E+01  0.40670112867E+01  0.90970846729E+01  0.00000000000E+00 0.  1.
</event>
<event>
 7    1  0.1384886E-010  0.4778727E+02  0.7816164E-02  0.1312668E+00
        -11   -1    0    0    0    0  0.00000000000E+00  0.00000000000E+00  0.45593999997E+02  0.45594000000E+02  0.51100000000E-03 0. -1.
         11   -1    0    0    0    0 -0.00000000000E+00 -0.00000000000E+00 -0.45593999997E+02  0.45594000000E+02  0.51100000000E-03 0.  1.
    9900012    2    1    2    0    0 -0.43925387216E+01  0.42236047968E+02 -0.89691268458E+01  0.47787269813E+02  0.19999994387E+02 0.  0.
         12    1    1    2    0    0  0.43925387216E+01 -0.42236047968E+02  0.89691268458E+01  0.43400730187E+02  0.00000000000E+00 0. -1.
         11    1    3    3    0    0  0.21627197516E+01  0.35556950379E+01 -0.27751368349E+01  0.50021703930E+01  0.51100000000E-03 0. -1.
        -11    1    3    3    0    0 -0.84987758733E+01  0.12428470278E+02  0.20622037428E+01  0.15196998037E+02  0.51100000000E-03 0.  1.
        -12    1    3    3    0    0  0.19435174000E+01  0.26251882652E+02 -0.82561937537E+01  0.27588101384E+02  0.00000000000E+00 0.  1.
</event>
<event>
 7    1  0.1384886E-010  0.4778727E+02  0.7816164E-02  0.1312668E+00
        -11   -1    0    0    0    0  0.00000000000E+00  0.00000000000E+00  0.45593999997E+02  0.45594000000E+02  0.51100000000E-03 0.  1.
         11   -1    0    0    0    0 -0.00000000000E+00 -0.00000000000E+00 -0.45593999997E+02  0.45594000000E+02  0.51100000000E-03 0. -1.
    9900012    2    1    2    0    0  0.10150619587E+02 -0.24704042060E+02  0.34209625857E+02  0.47787271051E+02  0.20000000028E+02 0.  0.
         12    1    1    2    0    0 -0.10150619587E+02  0.24704042060E+02 -0.34209625857E+02  0.43400728949E+02  0.00000000000E+00 0. -1.
         11    1    3    3    0    0 -0.27101535473E+01 -0.11729246632E+01  0.12612288886E+00  0.29557726164E+01  0.51100000000E-03 0. -1.
        -11    1    3    3    0    0  0.88704371580E+01 -0.50565093077E+01  0.12583845955E+02  0.16205126381E+02  0.51100000000E-03 0.  1.
         12    1    3    3    0    0  0.39903359758E+01 -0.18474608089E+02  0.21499657013E+02  0.28626372053E+02  0.00000000000E+00 0. -1.
</event>
<event>
 7    1  0.1384886E-010  0.4778727E+02  0.7816164E-02  0.1312668E+00
        -11   -1    0    0    0    0  0.00000000000E+00  0.00000000000E+00  0.45593999997E+02  0.45594000000E+02  0.51100000000E-03 0. -1.
         11   -1    0    0    0    0 -0.00000000000E+00 -0.00000000000E+00 -0.45593999997E+02  0.45594000000E+02  0.51100000000E-03 0.  1.
    9900012    2    1    2    0    0 -0.24153770834E+01  0.36542050834E+02 -0.23290934350E+02  0.47787272488E+02  0.20000006584E+02 0.  0.
         12    1    1    2    0    0  0.24153770834E+01 -0.36542050834E+02  0.23290934350E+02  0.43400727512E+02  0.00000000000E+00 0. -1.
         11    1    3    3    0    0 -0.39322237801E+01  0.26458593974E+01 -0.21295031621E+01  0.51959349289E+01  0.51100000000E-03 0. -1.
        -11    1    3    3    0    0 -0.39477737996E+01  0.42158192129E+01 -0.76568406687E-01  0.57761503262E+01  0.51100000000E-03 0.  1.
        -12    1    3    3    0    0  0.54646204963E+01  0.29680372224E+02 -0.21084862781E+02  0.36815187233E+02  0.00000000000E+00 0.  1.
</event>
<event>
 7    1  0.1384886E-010  0.4778727E+02  0.7816164E-02  0.1312668E+00
        -11   -1    0    0    0    0  0.00000000000E+00  0.00000000000E+00  0.45593999997E+02  0.45594000000E+02  0.51100000000E-03 0.  1.
         11   -1    0    0    0    0 -0.00000000000E+00 -0.00000000000E+00 -0.45593999997E+02  0.45594000000E+02  0.51100000000E-03 0. -1.
    9900012    2    1    2    0    0 -0.30325598841E+02  0.26151672316E+02  0.16735337662E+02  0.47787269169E+02  0.19999991450E+02 0.  0.
         12    1    1    2    0    0  0.30325598841E+02 -0.26151672316E+02 -0.16735337662E+02  0.43400730831E+02  0.00000000000E+00 0. -1.
         11    1    3    3    0    0 -0.26754440476E+02  0.18280916010E+02  0.62220995647E+01  0.32995552709E+02  0.51100000000E-03 0. -1.
        -11    1    3    3    0    0 -0.26340344444E+00 -0.79959416553E+00  0.21129466718E+01  0.22744837003E+01  0.51100000000E-03 0.  1.
        -12    1    3    3    0    0 -0.33077549206E+01  0.86703504719E+01  0.84002914255E+01  0.12517232759E+02  0.00000000000E+00 0.  1.
</event>
<event>
 7    1  0.1384886E-010  0.4778727E+02  0.7816164E-02  0.1312668E+00
        -11   -1    0    0    0    0  0.00000000000E+00  0.00000000000E+00  0.45593999997E+02  0.45594000000E+02  0.51100000000E-03 0.  1.
         11   -1    0    0    0    0 -0.00000000000E+00 -0.00000000000E+00 -0.45593999997E+02  0.45594000000E+02  0.51100000000E-03 0. -1.
    9900012    2    1    2    0    0  0.18153743174E+02 -0.32981422053E+02  0.21593764485E+02  0.47787271244E+02  0.20000000910E+02 0.  0.
         12    1    1    2    0    0 -0.18153743174E+02  0.32981422053E+02 -0.21593764485E+02  0.43400728756E+02  0.00000000000E+00 0. -1.
         11    1    3    3    0    0  0.15027327557E+01  0.11180868704E+01  0.21383048724E+01  0.28426522779E+01  0.51100000000E-03 0. -1.
        -11    1    3    3    0    0  0.11215797975E+02 -0.25019929560E+02  0.20608143433E+02  0.34299950079E+02  0.51100000000E-03 0.  1.
         12    1    3    3    0    0  0.54352124437E+01 -0.90795793639E+01 -0.11526838201E+01  0.10644668887E+02  0.00000000000E+00 0. -1.
</event>
<event>
 7    1  0.1384886E-010  0.4778725E+02  0.7816164E-02  0.1312668E+00
        -11   -1    0    0    0    0  0.00000000000E+00  0.00000000000E+00  0.45593999997E+02  0.45594000000E+02  0.51100000000E-03 0.  1.
         11   -1    0    0    0    0 -0.00000000000E+00 -0.00000000000E+00 -0.45593999997E+02  0.45594000000E+02  0.51100000000E-03 0. -1.
    9900012    2    1    2    0    0  0.32608420665E+02  0.28481067754E+02  0.30239841192E+01  0.47787253478E+02  0.19999919909E+02 0.  0.
         12    1    1    2    0    0 -0.32608420665E+02 -0.28481067754E+02 -0.30239841192E+01  0.43400746522E+02  0.00000000000E+00 0. -1.
         11    1    3    3    0    0  0.13140551234E+02  0.11365700803E+02 -0.40545860631E+01  0.17840765395E+02  0.51100000000E-03 0.  1.
        -11    1    3    3    0    0  0.89898855539E+01  0.32952975264E-01  0.31450641799E+01  0.95242090027E+01  0.51100000000E-03 0. -1.
         12    1    3    3    0    0  0.10477983878E+02  0.17082413976E+02  0.39335060023E+01  0.20422279081E+02  0.00000000000E+00 0. -1.
</event>
<event>
 7    1  0.1384886E-010  0.4778727E+02  0.7816164E-02  0.1312668E+00
        -11   -1    0    0    0    0  0.00000000000E+00  0.00000000000E+00  0.45593999997E+02  0.45594000000E+02  0.51100000000E-03 0. -1.
         11   -1    0    0    0    0 -0.00000000000E+00 -0.00000000000E+00 -0.45593999997E+02  0.45594000000E+02  0.51100000000E-03 0.  1.
    9900012    2    1    2    0    0 -0.28706803265E+02  0.21761163266E+02 -0.24207332166E+02  0.47787266009E+02  0.19999977041E+02 0.  0.
         12    1    1    2    0    0  0.28706803265E+02 -0.21761163266E+02  0.24207332166E+02  0.43400733991E+02  0.00000000000E+00 0. -1.
         11    1    3    3    0    0 -0.17164709010E+01  0.33926327757E+01  0.14351918964E+01  0.40639888712E+01  0.51100000000E-03 0. -1.
        -11    1    3    3    0    0 -0.22162105128E+02  0.17362991876E+02 -0.14788756602E+02  0.31801567771E+02  0.51100000000E-03 0.  1.
         12    1    3    3    0    0 -0.48282272357E+01  0.10055386143E+01 -0.10853767461E+02  0.11921709367E+02  0.00000000000E+00 0. -1.
</event>
<event>
 7    1  0.1384886E-010  0.4778727E+02  0.7816164E-02  0.1312668E+00
        -11   -1    0    0    0    0  0.00000000000E+00  0.00000000000E+00  0.45593999997E+02  0.45594000000E+02  0.51100000000E-03 0.  1.
         11   -1    0    0    0    0 -0.00000000000E+00 -0.00000000000E+00 -0.45593999997E+02  0.45594000000E+02  0.51100000000E-03 0. -1.
    9900012    2    1    2    0    0  0.23064602900E+02  0.53756986192E+01  0.36369618361E+02  0.47787272100E+02  0.20000004812E+02 0.  0.
         12    1    1    2    0    0 -0.23064602900E+02 -0.53756986192E+01 -0.36369618361E+02  0.43400727900E+02  0.00000000000E+00 0. -1.
         11    1    3    3    0    0 -0.67135397471E+00 -0.61590197209E+00  0.51736008736E+01  0.52532083206E+01  0.51100000000E-03 0. -1.
        -11    1    3    3    0    0  0.21003190844E+02  0.10256809262E+02  0.28279909071E+02  0.36689091284E+02  0.51100000000E-03 0.  1.
        -12    1    3    3    0    0  0.27327660300E+01 -0.42652086709E+01  0.29161084161E+01  0.58449724957E+01  0.00000000000E+00 0.  1.
</event>
<event>
 7    1  0.1384886E-010  0.4778727E+02  0.7816164E-02  0.1312668E+00
        -11   -1    0    0    0    0  0.00000000000E+00  0.00000000000E+00  0.45593999997E+02  0.45594000000E+02  0.51100000000E-03 0.  1.
         11   -1    0    0    0    0 -0.00000000000E+00 -0.00000000000E+00 -0.45593999997E+02  0.45594000000E+02  0.51100000000E-03 0. -1.
    9900012    2    1    2    0    0  0.21565615335E+02  0.12245327161E+02  0.35617404292E+02  0.47787270853E+02  0.19999999126E+02 0.  0.
         12    1    1    2    0    0 -0.21565615335E+02 -0.12245327161E+02 -0.35617404292E+02  0.43400729147E+02  0.00000000000E+00 0. -1.
         11    1    3    3    0    0  0.16126670896E+01  0.58037699698E+01  0.12655318987E+02  0.14015760412E+02  0.51100000000E-03 0.  1.
        -11    1    3    3    0    0  0.20368404801E+02  0.85575285228E+01  0.18500614417E+02  0.28816244423E+02  0.51100000000E-03 0. -1.
         12    1    3    3    0    0 -0.41545655639E+00 -0.21159713318E+01  0.44614708874E+01  0.49552660177E+01  0.00000000000E+00 0. -1.
</event>
<event>
 7    1  0.1384886E-010  0.4778727E+02  0.7816164E-02  0.1312668E+00
        -11   -1    0    0    0    0  0.00000000000E+00  0.00000000000E+00  0.45593999997E+02  0.45594000000E+02  0.51100000000E-03 0.  1.
         11   -1    0    0    0    0 -0.00000000000E+00 -0.00000000000E+00 -0.45593999997E+02  0.45594000000E+02  0.51100000000E-03 0. -1.
    9900012    2    1    2    0    0 -0.36723368257E+02 -0.10187187976E+02  0.20766287638E+02  0.47787271005E+02  0.19999999822E+02 0.  0.
         12    1    1    2    0    0  0.36723368257E+02  0.10187187976E+02 -0.20766287638E+02  0.43400728995E+02  0.00000000000E+00 0. -1.
         11    1    3    3    0    0  0.14908845464E+00 -0.46323668355E+01  0.38805440083E+01  0.60448053672E+01  0.51100000000E-03 0. -1.
        -11    1    3    3    0    0 -0.17330452574E+02 -0.67430214915E+01  0.81161331242E+01  0.20290010902E+02  0.51100000000E-03 0.  1.
        -12    1    3    3    0    0 -0.19542004138E+02  0.11882003510E+01  0.87696105056E+01  0.21452454736E+02  0.00000000000E+00 0.  1.
</event>
<event>
 7    1  0.1384886E-010  0.4778727E+02  0.7816164E-02  0.1312668E+00
        -11   -1    0    0    0    0  0.00000000000E+00  0.00000000000E+00  0.45593999997E+02  0.45594000000E+02  0.51100000000E-03 0.  1.
         11   -1    0    0    0    0 -0.00000000000E+00 -0.00000000000E+00 -0.45593999997E+02  0.45594000000E+02  0.51100000000E-03 0. -1.
    9900012    2    1    2    0    0  0.13504411990E+02 -0.31328455570E+02 -0.26828750228E+02  0.47787272927E+02  0.20000008586E+02 0.  0.
         12    1    1    2    0    0 -0.13504411990E+02  0.31328455570E+02  0.26828750228E+02  0.43400727073E+02  0.00000000000E+00 0. -1.
         11    1    3    3    0    0  0.18186767322E+01 -0.52636586153E+01 -0.83677394908E+01  0.10051504938E+02  0.51100000000E-03 0. -1.
        -11    1    3    3    0    0  0.39174818602E+01 -0.12560188313E+02 -0.17809931826E+02  0.22142688782E+02  0.51100000000E-03 0.  1.
        -12    1    3    3    0    0  0.77682533978E+01 -0.13504608641E+02 -0.65107891138E+00  0.15593079207E+02  0.00000000000E+00 0.  1.
</event>
<event>
 7    1  0.1384886E-010  0.4778727E+02  0.7816164E-02  0.1312668E+00
        -11   -1    0    0    0    0  0.00000000000E+00  0.00000000000E+00  0.45593999997E+02  0.45594000000E+02  0.51100000000E-03 0. -1.
         11   -1    0    0    0    0 -0.00000000000E+00 -0.00000000000E+00 -0.45593999997E+02  0.45594000000E+02  0.51100000000E-03 0.  1.
    9900012    2    1    2    0    0 -0.10961897509E+02  0.41807765692E+02 -0.39459661551E+01  0.47787272839E+02  0.20000008184E+02 0.  0.
         12    1    1    2    0    0  0.10961897509E+02 -0.41807765692E+02  0.39459661551E+01  0.43400727161E+02  0.00000000000E+00 0. -1.
         11    1    3    3    0    0 -0.45226044379E+01  0.22921042808E+02 -0.47736837584E+01  0.23845674895E+02  0.51100000000E-03 0. -1.
        -11    1    3    3    0    0 -0.10342843904E+02  0.11142318358E+02 -0.23150828814E+00  0.15204580717E+02  0.51100000000E-03 0.  1.
         12    1    3    3    0    0  0.39035508320E+01  0.77444045255E+01  0.10592258915E+01  0.87370172279E+01  0.00000000000E+00 0. -1.
</event>
<event>
 7    1  0.1384886E-010  0.4778726E+02  0.7816164E-02  0.1312668E+00
        -11   -1    0    0    0    0  0.00000000000E+00  0.00000000000E+00  0.45593999997E+02  0.45594000000E+02  0.51100000000E-03 0.  1.
         11   -1    0    0    0    0 -0.00000000000E+00 -0.00000000000E+00 -0.45593999997E+02  0.45594000000E+02  0.51100000000E-03 0. -1.
    9900012    2    1    2    0    0 -0.19855603719E+02 -0.28221344015E+02 -0.26323650073E+02  0.47787264865E+02  0.19999971826E+02 0.  0.
         12    1    1    2    0    0  0.19855603719E+02  0.28221344015E+02  0.26323650073E+02  0.43400735135E+02  0.00000000000E+00 0. -1.
         11    1    3    3    0    0 -0.66303475240E+01 -0.17353593452E+02 -0.89850876384E+01  0.20635903521E+02  0.51100000000E-03 0. -1.
        -11    1    3    3    0    0 -0.31037527917E+01  0.87768174243E+00  0.76576172909E+00  0.33151165771E+01  0.51100000000E-03 0.  1.
         12    1    3    3    0    0 -0.10121503403E+02 -0.11745432306E+02 -0.18104324164E+02  0.23836244767E+02  0.00000000000E+00 0. -1.
</event>
<event>
 7    1  0.1384886E-010  0.4778726E+02  0.7816164E-02  0.1312668E+00
        -11   -1    0    0    0    0  0.00000000000E+00  0.00000000000E+00  0.45593999997E+02  0.45594000000E+02  0.51100000000E-03 0. -1.
         11   -1    0    0    0    0 -0.00000000000E+00 -0.00000000000E+00 -0.45593999997E+02  0.45594000000E+02  0.51100000000E-03 0.  1.
    9900012    2    1    2    0    0 -0.12899344146E+01  0.42879310272E+02 -0.65821946801E+01  0.47787257299E+02  0.19999937330E+02 0.  0.
         12    1    1    2    0    0  0.12899344146E+01 -0.42879310272E+02  0.65821946801E+01  0.43400742701E+02  0.00000000000E+00 0. -1.
         11    1    3    3    0    0  0.25240638526E+01 -0.67236060833E+00  0.17190095543E+00  0.26177313306E+01  0.51100000000E-03 0. -1.
        -11    1    3    3    0    0  0.27019049802E+01  0.20871565581E+02 -0.38320156189E+01  0.21391748042E+02  0.51100000000E-03 0.  1.
         12    1    3    3    0    0 -0.65159032474E+01  0.22680105299E+02 -0.29220800166E+01  0.23777777927E+02  0.00000000000E+00 0. -1.
</event>
<event>
 7    1  0.1384886E-010  0.4778727E+02  0.7816164E-02  0.1312668E+00
        -11   -1    0    0    0    0  0.00000000000E+00  0.00000000000E+00  0.45593999997E+02  0.45594000000E+02  0.51100000000E-03 0. -1.
         11   -1    0    0    0    0 -0.00000000000E+00 -0.00000000000E+00 -0.45593999997E+02  0.45594000000E+02  0.51100000000E-03 0.  1.
    9900012    2    1    2    0    0  0.30442115162E+02  0.26724926098E+02 -0.15578164433E+02  0.47787271232E+02  0.20000000857E+02 0.  0.
         12    1    1    2    0    0 -0.30442115162E+02 -0.26724926098E+02  0.15578164433E+02  0.43400728768E+02  0.00000000000E+00 0. -1.
         11    1    3    3    0    0  0.78709821157E+00 -0.16497231055E+00 -0.16170936433E+01  0.18060264589E+01  0.51100000000E-03 0. -1.
        -11    1    3    3    0    0  0.21058310400E+02  0.75015374132E+01 -0.47238959686E+01  0.22848209861E+02  0.51100000000E-03 0.  1.
         12    1    3    3    0    0  0.85967065499E+01  0.19388360995E+02 -0.92371748210E+01  0.23133034912E+02  0.00000000000E+00 0. -1.
</event>
<event>
 7    1  0.1678993E-010  0.4778727E+02  0.7816164E-02  0.1312668E+00
        -11   -1    0    0    0    0  0.00000000000E+00  0.00000000000E+00  0.45593999997E+02  0.45594000000E+02  0.51100000000E-03 0.  1.
         11   -1    0    0    0    0 -0.00000000000E+00 -0.00000000000E+00 -0.45593999997E+02  0.45594000000E+02  0.51100000000E-03 0. -1.
    9900012    2    1    2    0    0  0.24669406273E+02 -0.33148578372E+02  0.13274612745E+02  0.47787271925E+02  0.20000004014E+02 0.  0.
         12    1    1    2    0    0 -0.24669406273E+02  0.33148578372E+02 -0.13274612745E+02  0.43400728075E+02  0.00000000000E+00 0. -1.
         11    1    3    3    0    0  0.17316137569E+00  0.99645006936E+00  0.51384998093E+00  0.11344336326E+01  0.51100000000E-03 0. -1.
        -11    1    3    3    0    0  0.12295471045E+02 -0.29218777435E+02  0.84568976992E+01  0.32809064021E+02  0.51100000000E-03 0.  1.
        -12    1    3    3    0    0  0.12200773852E+02 -0.49262510066E+01  0.43038650651E+01  0.13843774271E+02  0.00000000000E+00 0.  1.
</event>
<event>
 7    1  0.1384886E-010  0.4778727E+02  0.7816164E-02  0.1312668E+00
        -11   -1    0    0    0    0  0.00000000000E+00  0.00000000000E+00  0.45593999997E+02  0.45594000000E+02  0.51100000000E-03 0.  1.
         11   -1    0    0    0    0 -0.00000000000E+00 -0.00000000000E+00 -0.45593999997E+02  0.45594000000E+02  0.51100000000E-03 0. -1.
    9900012    2    1    2    0    0 -0.25823040581E+02 -0.22803437488E+02  0.26396909129E+02  0.47787274226E+02  0.20000014506E+02 0.  0.
         12    1    1    2    0    0  0.25823040581E+02  0.22803437488E+02 -0.26396909129E+02  0.43400725774E+02  0.00000000000E+00 0. -1.
         11    1    3    3    0    0 -0.16111710500E+01  0.17519826021E+01 -0.11605726270E+01  0.26480642504E+01  0.51100000000E-03 0. -1.
        -11    1    3    3    0    0 -0.69562295171E+01 -0.13651591813E+02  0.12511782537E+02  0.19781299013E+02  0.51100000000E-03 0.  1.
        -12    1    3    3    0    0 -0.17255640014E+02 -0.10903828276E+02  0.15045699219E+02  0.25357910963E+02  0.00000000000E+00 0.  1.
</event>
<event>
 7    1  0.1384886E-010  0.4778728E+02  0.7816164E-02  0.1312668E+00
        -11   -1    0    0    0    0  0.00000000000E+00  0.00000000000E+00  0.45593999997E+02  0.45594000000E+02  0.51100000000E-03 0.  1.
         11   -1    0    0    0    0 -0.00000000000E+00 -0.00000000000E+00 -0.45593999997E+02  0.45594000000E+02  0.51100000000E-03 0. -1.
    9900012    2    1    2    0    0  0.23532877544E+02  0.11741933995E+02  0.34524679068E+02  0.47787276456E+02  0.20000024672E+02 0.  0.
         12    1    1    2    0    0 -0.23532877544E+02 -0.11741933995E+02 -0.34524679068E+02  0.43400723544E+02  0.00000000000E+00 0. -1.
         11    1    3    3    0    0  0.10724997373E+02  0.10971548353E+02  0.63899121701E+01  0.16620211182E+02  0.51100000000E-03 0. -1.
        -11    1    3    3    0    0  0.44171458407E+01  0.18092288233E+01  0.12715540957E+02  0.13581953777E+02  0.51100000000E-03 0.  1.
         12    1    3    3    0    0  0.83907343305E+01 -0.10388431816E+01  0.15419225940E+02  0.17585111497E+02  0.00000000000E+00 0. -1.
</event>
<event>
 7    1  0.1384886E-010  0.4778727E+02  0.7816164E-02  0.1312668E+00
        -11   -1    0    0    0    0  0.00000000000E+00  0.00000000000E+00  0.45593999997E+02  0.45594000000E+02  0.51100000000E-03 0.  1.
         11   -1    0    0    0    0 -0.00000000000E+00 -0.00000000000E+00 -0.45593999997E+02  0.45594000000E+02  0.51100000000E-03 0. -1.
    9900012    2    1    2    0    0  0.88238132518E+01 -0.37394909286E+02  0.20183768483E+02  0.47787269234E+02  0.19999991746E+02 0.  0.
         12    1    1    2    0    0 -0.88238132518E+01  0.37394909286E+02 -0.20183768483E+02  0.43400730766E+02  0.00000000000E+00 0. -1.
         11    1    3    3    0    0  0.63508288969E+01 -0.17219453973E+02  0.33551946041E+01  0.18657436960E+02  0.51100000000E-03 0.  1.
        -11    1    3    3    0    0 -0.40733403022E+01 -0.10947839595E+02  0.48355396609E+01  0.12642378617E+02  0.51100000000E-03 0. -1.
        -12    1    3    3    0    0  0.65463246570E+01 -0.92276157180E+01  0.11993034218E+02  0.16487453657E+02  0.00000000000E+00 0.  1.
</event>
<event>
 7    1  0.1384886E-010  0.4778728E+02  0.7816164E-02  0.1312668E+00
        -11   -1    0    0    0    0  0.00000000000E+00  0.00000000000E+00  0.45593999997E+02  0.45594000000E+02  0.51100000000E-03 0.  1.
         11   -1    0    0    0    0 -0.00000000000E+00 -0.00000000000E+00 -0.45593999997E+02  0.45594000000E+02  0.51100000000E-03 0. -1.
    9900012    2    1    2    0    0  0.13811065258E+02  0.27275273878E+02  0.30804818105E+02  0.47787275269E+02  0.20000019262E+02 0.  0.
         12    1    1    2    0    0 -0.13811065258E+02 -0.27275273878E+02 -0.30804818105E+02  0.43400724731E+02  0.00000000000E+00 0. -1.
         11    1    3    3    0    0  0.15478561347E+01  0.49392802069E+01  0.12185276962E+02  0.13239083143E+02  0.51100000000E-03 0. -1.
        -11    1    3    3    0    0  0.10395130532E+02  0.16977272821E+02  0.20494813273E+02  0.28571382581E+02  0.51100000000E-03 0.  1.
         12    1    3    3    0    0  0.18680785917E+01  0.53587208506E+01 -0.18752721303E+01  0.59768095454E+01  0.00000000000E+00 0. -1.
</event>
<event>
 7    1  0.1446132E-010  0.4778727E+02  0.7816164E-02  0.1312668E+00
        -11   -1    0    0    0    0  0.00000000000E+00  0.00000000000E+00  0.45593999997E+02  0.45594000000E+02  0.51100000000E-03 0.  1.
         11   -1    0    0    0    0 -0.00000000000E+00 -0.00000000000E+00 -0.45593999997E+02  0.45594000000E+02  0.51100000000E-03 0. -1.
    9900012    2    1    2    0    0  0.38518341133E+02  0.19706113060E+02 -0.34102277036E+01  0.47787272488E+02  0.20000006582E+02 0.  0.
         12    1    1    2    0    0 -0.38518341133E+02 -0.19706113060E+02  0.34102277036E+01  0.43400727512E+02  0.00000000000E+00 0. -1.
         11    1    3    3    0    0 -0.83767903021E+00  0.14241242927E+01  0.17397432214E+00  0.16613559175E+01  0.51100000000E-03 0.  1.
        -11    1    3    3    0    0  0.34807934104E+02  0.14494021567E+02 -0.82404732023E+01  0.38595004037E+02  0.51100000000E-03 0. -1.
        -12    1    3    3    0    0  0.45480860591E+01  0.37879672007E+01  0.46562711765E+01  0.75309125332E+01  0.00000000000E+00 0.  1.
</event>
<event>
 7    1  0.1384886E-010  0.4778728E+02  0.7816164E-02  0.1312668E+00
        -11   -1    0    0    0    0  0.00000000000E+00  0.00000000000E+00  0.45593999997E+02  0.45594000000E+02  0.51100000000E-03 0. -1.
         11   -1    0    0    0    0 -0.00000000000E+00 -0.00000000000E+00 -0.45593999997E+02  0.45594000000E+02  0.51100000000E-03 0.  1.
    9900012    2    1    2    0    0  0.15289733812E+01  0.11625687892E+02 -0.41786701862E+02  0.47787276146E+02  0.20000023261E+02 0.  0.
         12    1    1    2    0    0 -0.15289733812E+01 -0.11625687892E+02  0.41786701862E+02  0.43400723854E+02  0.00000000000E+00 0. -1.
         11    1    3    3    0    0 -0.54492927721E+01 -0.34512116156E+00 -0.98604218917E+01  0.11271283000E+02  0.51100000000E-03 0. -1.
        -11    1    3    3    0    0 -0.82645951621E+00  0.63975042320E+01 -0.21045767203E+02  0.22012165117E+02  0.51100000000E-03 0.  1.
        -12    1    3    3    0    0  0.78047256695E+01  0.55733048214E+01 -0.10880512767E+02  0.14503828029E+02  0.00000000000E+00 0.  1.
</event>
<event>
 7    1  0.1384886E-010  0.4778727E+02  0.7816164E-02  0.1312668E+00
        -11   -1    0    0    0    0  0.00000000000E+00  0.00000000000E+00  0.45593999997E+02  0.45594000000E+02  0.51100000000E-03 0.  1.
         11   -1    0    0    0    0 -0.00000000000E+00 -0.00000000000E+00 -0.45593999997E+02  0.45594000000E+02  0.51100000000E-03 0. -1.
    9900012    2    1    2    0    0 -0.38496924311E+02 -0.19453207655E+02 -0.48148771667E+01  0.47787268305E+02  0.19999987511E+02 0.  0.
         12    1    1    2    0    0  0.38496924311E+02  0.19453207655E+02  0.48148771667E+01  0.43400731695E+02  0.00000000000E+00 0. -1.
         11    1    3    3    0    0 -0.98229616147E+01  0.20482116642E+01  0.70478795592E+00  0.10058949857E+02  0.51100000000E-03 0. -1.
        -11    1    3    3    0    0 -0.10900140932E+02 -0.14339673748E+02 -0.99917418824E+00  0.18039890933E+02  0.51100000000E-03 0.  1.
         12    1    3    3    0    0 -0.17773821764E+02 -0.71617455712E+01 -0.45204909344E+01  0.19688427515E+02  0.00000000000E+00 0. -1.
</event>
<event>
 7    1  0.1384886E-010  0.4778727E+02  0.7816164E-02  0.1312668E+00
        -11   -1    0    0    0    0  0.00000000000E+00  0.00000000000E+00  0.45593999997E+02  0.45594000000E+02  0.51100000000E-03 0.  1.
         11   -1    0    0    0    0 -0.00000000000E+00 -0.00000000000E+00 -0.45593999997E+02  0.45594000000E+02  0.51100000000E-03 0. -1.
    9900012    2    1    2    0    0  0.22504252203E+02  0.18660657057E+02  0.32077438196E+02  0.47787268091E+02  0.19999986533E+02 0.  0.
         12    1    1    2    0    0 -0.22504252203E+02 -0.18660657057E+02 -0.32077438196E+02  0.43400731909E+02  0.00000000000E+00 0. -1.
         11    1    3    3    0    0  0.13090218174E+02  0.41622491821E+01  0.84478588653E+01  0.16125893767E+02  0.51100000000E-03 0. -1.
        -11    1    3    3    0    0  0.50774222871E+01  0.13941730453E+02  0.11513780202E+02  0.18780820001E+02  0.51100000000E-03 0.  1.
         12    1    3    3    0    0  0.43366117421E+01  0.55667742203E+00  0.12115799128E+02  0.12880554323E+02  0.00000000000E+00 0. -1.
</event>
<event>
 7    1  0.1384886E-010  0.4778727E+02  0.7816164E-02  0.1312668E+00
        -11   -1    0    0    0    0  0.00000000000E+00  0.00000000000E+00  0.45593999997E+02  0.45594000000E+02  0.51100000000E-03 0. -1.
         11   -1    0    0    0    0 -0.00000000000E+00 -0.00000000000E+00 -0.45593999997E+02  0.45594000000E+02  0.51100000000E-03 0.  1.
    9900012    2    1    2    0    0  0.27183657493E+02 -0.96484257392E+01 -0.32428074182E+02  0.47787270178E+02  0.19999996048E+02 0.  0.
         12    1    1    2    0    0 -0.27183657493E+02  0.96484257392E+01  0.32428074182E+02  0.43400729822E+02  0.00000000000E+00 0. -1.
         11    1    3    3    0    0  0.17306075383E+02 -0.97654260114E+01 -0.12720512770E+02  0.23593966088E+02  0.51100000000E-03 0. -1.
        -11    1    3    3    0    0  0.82453210111E+01  0.32174808576E+01 -0.78553862212E+01  0.11834043882E+02  0.51100000000E-03 0.  1.
         12    1    3    3    0    0  0.16322610993E+01 -0.31004805853E+01 -0.11852175190E+02  0.12359260208E+02  0.00000000000E+00 0. -1.
</event>
<event>
 7    1  0.1384886E-010  0.4778727E+02  0.7816164E-02  0.1312668E+00
        -11   -1    0    0    0    0  0.00000000000E+00  0.00000000000E+00  0.45593999997E+02  0.45594000000E+02  0.51100000000E-03 0.  1.
         11   -1    0    0    0    0 -0.00000000000E+00 -0.00000000000E+00 -0.45593999997E+02  0.45594000000E+02  0.51100000000E-03 0. -1.
    9900012    2    1    2    0    0  0.23158682396E+02  0.59288764951E+01  0.36223568196E+02  0.47787273743E+02  0.20000012302E+02 0.  0.
         12    1    1    2    0    0 -0.23158682396E+02 -0.59288764951E+01 -0.36223568196E+02  0.43400726257E+02  0.00000000000E+00 0. -1.
         11    1    3    3    0    0  0.17477860155E+02  0.55209722332E+01  0.24281108163E+02  0.30422507193E+02  0.51100000000E-03 0. -1.
        -11    1    3    3    0    0  0.44561797199E+01 -0.36543440677E+01  0.11785467568E+02  0.13119032523E+02  0.51100000000E-03 0.  1.
         12    1    3    3    0    0  0.12246425208E+01  0.40622483296E+01  0.15699246423E+00  0.42457340271E+01  0.00000000000E+00 0. -1.
</event>
<event>
 7    1  0.1384886E-010  0.4778726E+02  0.7816164E-02  0.1312668E+00
        -11   -1    0    0    0    0  0.00000000000E+00  0.00000000000E+00  0.45593999997E+02  0.45594000000E+02  0.51100000000E-03 0.  1.
         11   -1    0    0    0    0 -0.00000000000E+00 -0.00000000000E+00 -0.45593999997E+02  0.45594000000E+02  0.51100000000E-03 0. -1.
    9900012    2    1    2    0    0  0.87114705116E+01 -0.16271425219E+02  0.39280723116E+02  0.47787260310E+02  0.19999951056E+02 0.  0.
         12    1    1    2    0    0 -0.87114705116E+01  0.16271425219E+02 -0.39280723116E+02  0.43400739690E+02  0.00000000000E+00 0. -1.
         11    1    3    3    0    0  0.37391267338E+01  0.18429919979E+01  0.99801485139E+01  0.10815777959E+02  0.51100000000E-03 0. -1.
        -11    1    3    3    0    0  0.32427922837E+01  0.19085697819E+00  0.90680621676E+01  0.96323351228E+01  0.51100000000E-03 0.  1.
        -12    1    3    3    0    0  0.17295514940E+01 -0.18305274195E+02  0.20232512435E+02  0.27339147228E+02  0.00000000000E+00 0.  1.
</event>
<event>
 7    1  0.1384886E-010  0.4778727E+02  0.7816164E-02  0.1312668E+00
        -11   -1    0    0    0    0  0.00000000000E+00  0.00000000000E+00  0.45593999997E+02  0.45594000000E+02  0.51100000000E-03 0. -1.
         11   -1    0    0    0    0 -0.00000000000E+00 -0.00000000000E+00 -0.45593999997E+02  0.45594000000E+02  0.51100000000E-03 0.  1.
    9900012    2    1    2    0    0  0.39770716505E+02  0.68584250658E+01 -0.15964816944E+02  0.47787271138E+02  0.20000000427E+02 0.  0.
         12    1    1    2    0    0 -0.39770716505E+02 -0.68584250658E+01  0.15964816944E+02  0.43400728862E+02  0.00000000000E+00 0. -1.
         11    1    3    3    0    0  0.17396470498E+02 -0.61395749738E+01 -0.75843406679E+01  0.19946272591E+02  0.51100000000E-03 0. -1.
        -11    1    3    3    0    0  0.11051361372E+02  0.58050097664E+01 -0.71112810114E+01  0.14366664346E+02  0.51100000000E-03 0.  1.
        -12    1    3    3    0    0  0.11322884635E+02  0.71929902731E+01 -0.12691952644E+01  0.13474334200E+02  0.00000000000E+00 0.  1.
</event>
<event>
 7    1  0.1384886E-010  0.4778728E+02  0.7816164E-02  0.1312668E+00
        -11   -1    0    0    0    0  0.00000000000E+00  0.00000000000E+00  0.45593999997E+02  0.45594000000E+02  0.51100000000E-03 0.  1.
         11   -1    0    0    0    0 -0.00000000000E+00 -0.00000000000E+00 -0.45593999997E+02  0.45594000000E+02  0.51100000000E-03 0. -1.
    9900012    2    1    2    0    0 -0.14779938659E+02  0.40401707794E+02 -0.57338973985E+01  0.47787283891E+02  0.20000058572E+02 0.  0.
         12    1    1    2    0    0  0.14779938659E+02 -0.40401707794E+02  0.57338973985E+01  0.43400716109E+02  0.00000000000E+00 0. -1.
         11    1    3    3    0    0 -0.10815697918E+02  0.22427509733E+02 -0.82700012130E+01  0.26236719204E+02  0.51100000000E-03 0. -1.
        -11    1    3    3    0    0 -0.55460296518E+01  0.71748010021E+01  0.50082426053E+01  0.10359474339E+02  0.51100000000E-03 0.  1.
         12    1    3    3    0    0  0.15817889102E+01  0.10799397058E+02 -0.24721387908E+01  0.11191090348E+02  0.00000000000E+00 0. -1.
</event>
<event>
 7    1  0.1384886E-010  0.4778727E+02  0.7816164E-02  0.1312668E+00
        -11   -1    0    0    0    0  0.00000000000E+00  0.00000000000E+00  0.45593999997E+02  0.45594000000E+02  0.51100000000E-03 0.  1.
         11   -1    0    0    0    0 -0.00000000000E+00 -0.00000000000E+00 -0.45593999997E+02  0.45594000000E+02  0.51100000000E-03 0. -1.
    9900012    2    1    2    0    0  0.82865468734E+01  0.42301013613E+02 -0.50577563457E+01  0.47787268312E+02  0.19999987541E+02 0.  0.
         12    1    1    2    0    0 -0.82865468734E+01 -0.42301013613E+02  0.50577563457E+01  0.43400731688E+02  0.00000000000E+00 0. -1.
         11    1    3    3    0    0 -0.16392128995E+01  0.22159974782E+00 -0.13202718574E+01  0.21164223153E+01  0.51100000000E-03 0. -1.
        -11    1    3    3    0    0  0.37797316328E+01  0.36732756405E+02 -0.57170346320E+00  0.36931133336E+02  0.51100000000E-03 0.  1.
        -12    1    3    3    0    0  0.61460281401E+01  0.53466574604E+01 -0.31657810250E+01  0.87397126610E+01  0.00000000000E+00 0.  1.
</event>
<event>
 7    1  0.1384886E-010  0.4778727E+02  0.7816164E-02  0.1312668E+00
        -11   -1    0    0    0    0  0.00000000000E+00  0.00000000000E+00  0.45593999997E+02  0.45594000000E+02  0.51100000000E-03 0.  1.
         11   -1    0    0    0    0 -0.00000000000E+00 -0.00000000000E+00 -0.45593999997E+02  0.45594000000E+02  0.51100000000E-03 0. -1.
    9900012    2    1    2    0    0  0.26374237439E+02  0.18620198179E+02  0.29005359882E+02  0.47787273248E+02  0.20000010046E+02 0.  0.
         12    1    1    2    0    0 -0.26374237439E+02 -0.18620198179E+02 -0.29005359882E+02  0.43400726752E+02  0.00000000000E+00 0. -1.
         11    1    3    3    0    0  0.97192172342E+00  0.11400036120E+01 -0.27783547300E+01  0.31565004893E+01  0.51100000000E-03 0. -1.
        -11    1    3    3    0    0  0.11336500087E+02  0.74005221622E+01  0.10111390881E+02  0.16897461002E+02  0.51100000000E-03 0.  1.
         12    1    3    3    0    0  0.14065815629E+02  0.10079672405E+02  0.21672323731E+02  0.27733311756E+02  0.00000000000E+00 0. -1.
</event>
<event>
 7    1  0.1384886E-010  0.4778727E+02  0.7816164E-02  0.1312668E+00
        -11   -1    0    0    0    0  0.00000000000E+00  0.00000000000E+00  0.45593999997E+02  0.45594000000E+02  0.51100000000E-03 0.  1.
         11   -1    0    0    0    0 -0.00000000000E+00 -0.00000000000E+00 -0.45593999997E+02  0.45594000000E+02  0.51100000000E-03 0. -1.
    9900012    2    1    2    0    0  0.88824134742E+01  0.16969890684E+02  0.38945459451E+02  0.47787271080E+02  0.20000000163E+02 0.  0.
         12    1    1    2    0    0 -0.88824134742E+01 -0.16969890684E+02 -0.38945459451E+02  0.43400728920E+02  0.00000000000E+00 0. -1.
         11    1    3    3    0    0  0.86857418949E+01  0.11159321907E+01  0.53332389076E+01  0.10253333820E+02  0.51100000000E-03 0. -1.
        -11    1    3    3    0    0 -0.16975470047E+01  0.22766587184E+01  0.79094536203E+01  0.84038263657E+01  0.51100000000E-03 0.  1.
         12    1    3    3    0    0  0.18942185839E+01  0.13577299775E+02  0.25702766923E+02  0.29130110894E+02  0.00000000000E+00 0. -1.
</event>
<event>
 7    1  0.1384886E-010  0.4778728E+02  0.7816164E-02  0.1312668E+00
        -11   -1    0    0    0    0  0.00000000000E+00  0.00000000000E+00  0.45593999997E+02  0.45594000000E+02  0.51100000000E-03 0.  1.
         11   -1    0    0    0    0 -0.00000000000E+00 -0.00000000000E+00 -0.45593999997E+02  0.45594000000E+02  0.51100000000E-03 0. -1.
    9900012    2    1    2    0    0 -0.28547804831E+02 -0.74712926084E+01  0.31824911085E+02  0.47787281810E+02  0.20000049083E+02 0.  0.
         12    1    1    2    0    0  0.28547804831E+02  0.74712926084E+01 -0.31824911085E+02  0.43400718190E+02  0.00000000000E+00 0. -1.
         11    1    3    3    0    0  0.14547647889E+01  0.33539124763E+00  0.15714111732E+01  0.21675242136E+01  0.51100000000E-03 0. -1.
        -11    1    3    3    0    0 -0.21299216675E+02 -0.75386594507E+01  0.29091918284E+02  0.36835142554E+02  0.51100000000E-03 0.  1.
         12    1    3    3    0    0 -0.87033529442E+01 -0.26802440532E+00  0.11615816274E+01  0.87846150417E+01  0.00000000000E+00 0. -1.
</event>
<event>
 7    1  0.1384886E-010  0.4778727E+02  0.7816164E-02  0.1312668E+00
        -11   -1    0    0    0    0  0.00000000000E+00  0.00000000000E+00  0.45593999997E+02  0.45594000000E+02  0.51100000000E-03 0.  1.
         11   -1    0    0    0    0 -0.00000000000E+00 -0.00000000000E+00 -0.45593999997E+02  0.45594000000E+02  0.51100000000E-03 0. -1.
    9900012    2    1    2    0    0  0.10193087007E+02 -0.41747410519E+02  0.60727139416E+01  0.47787272329E+02  0.20000005855E+02 0.  0.
         12    1    1    2    0    0 -0.10193087007E+02  0.41747410519E+02 -0.60727139416E+01  0.43400727671E+02  0.00000000000E+00 0. -1.
         11    1    3    3    0    0 -0.23776200482E+01 -0.12631563756E+01 -0.98767636259E+00  0.28677771847E+01  0.51100000000E-03 0. -1.
        -11    1    3    3    0    0 -0.19253073985E+01 -0.69504899654E+01  0.40285516762E+01  0.82610742768E+01  0.51100000000E-03 0.  1.
        -12    1    3    3    0    0  0.14496014454E+02 -0.33533764178E+02  0.30318386280E+01  0.36658420867E+02  0.00000000000E+00 0.  1.
</event>
<event>
 7    1  0.1384886E-010  0.4778727E+02  0.7816164E-02  0.1312668E+00
        -11   -1    0    0    0    0  0.00000000000E+00  0.00000000000E+00  0.45593999997E+02  0.45594000000E+02  0.51100000000E-03 0.  1.
         11   -1    0    0    0    0 -0.00000000000E+00 -0.00000000000E+00 -0.45593999997E+02  0.45594000000E+02  0.51100000000E-03 0. -1.
    9900012    2    1    2    0    0  0.20465302307E+02 -0.86970758828E+01  0.37271382077E+02  0.47787266719E+02  0.19999980279E+02 0.  0.
         12    1    1    2    0    0 -0.20465302307E+02  0.86970758828E+01 -0.37271382077E+02  0.43400733281E+02  0.00000000000E+00 0. -1.
         11    1    3    3    0    0  0.12864581971E+02 -0.15317474643E+01  0.22366150092E+02  0.25847405861E+02  0.51100000000E-03 0. -1.
        -11    1    3    3    0    0  0.71512337923E+01 -0.97787701657E+01  0.15006330677E+02  0.19286120692E+02  0.51100000000E-03 0.  1.
         12    1    3    3    0    0  0.44948654347E+00  0.26134417472E+01 -0.10109869215E+00  0.26537401652E+01  0.00000000000E+00 0. -1.
</event>
<event>
 7    1  0.1384886E-010  0.4778727E+02  0.7816164E-02  0.1312668E+00
        -11   -1    0    0    0    0  0.00000000000E+00  0.00000000000E+00  0.45593999997E+02  0.45594000000E+02  0.51100000000E-03 0.  1.
         11   -1    0    0    0    0 -0.00000000000E+00 -0.00000000000E+00 -0.45593999997E+02  0.45594000000E+02  0.51100000000E-03 0. -1.
    9900012    2    1    2    0    0 -0.37270890124E+02  0.18717375074E+02  0.12006835579E+02  0.47787268659E+02  0.19999989123E+02 0.  0.
         12    1    1    2    0    0  0.37270890124E+02 -0.18717375074E+02 -0.12006835579E+02  0.43400731341E+02  0.00000000000E+00 0. -1.
         11    1    3    3    0    0 -0.26617841040E+01  0.37976919163E+01  0.52054553016E+01  0.69716801178E+01  0.51100000000E-03 0. -1.
        -11    1    3    3    0    0 -0.14742299699E+02 -0.10139211929E+01  0.23764217479E+01  0.14966990920E+02  0.51100000000E-03 0.  1.
         12    1    3    3    0    0 -0.19866806321E+02  0.15933604351E+02  0.44249585300E+01  0.25848597622E+02  0.00000000000E+00 0. -1.
</event>
<event>
 7    1  0.1384886E-010  0.4778727E+02  0.7816164E-02  0.1312668E+00
        -11   -1    0    0    0    0  0.00000000000E+00  0.00000000000E+00  0.45593999997E+02  0.45594000000E+02  0.51100000000E-03 0.  1.
         11   -1    0    0    0    0 -0.00000000000E+00 -0.00000000000E+00 -0.45593999997E+02  0.45594000000E+02  0.51100000000E-03 0. -1.
    9900012    2    1    2    0    0 -0.27714402019E+01 -0.41961829106E+02  0.10730686837E+02  0.47787267026E+02  0.19999981678E+02 0.  0.
         12    1    1    2    0    0  0.27714402019E+01  0.41961829106E+02 -0.10730686837E+02  0.43400732974E+02  0.00000000000E+00 0. -1.
         11    1    3    3    0    0  0.30186397201E+01 -0.67894540298E+00 -0.92129685292E+00  0.32283030794E+01  0.51100000000E-03 0. -1.
        -11    1    3    3    0    0 -0.48729958778E+01 -0.11368794796E+02  0.71701843595E+01  0.14297102082E+02  0.51100000000E-03 0.  1.
         12    1    3    3    0    0 -0.91708404412E+00 -0.29914088907E+02  0.44817993305E+01  0.30261861865E+02  0.00000000000E+00 0. -1.
</event>
<event>
 7    1  0.1384886E-010  0.4778727E+02  0.7816164E-02  0.1312668E+00
        -11   -1    0    0    0    0  0.00000000000E+00  0.00000000000E+00  0.45593999997E+02  0.45594000000E+02  0.51100000000E-03 0.  1.
         11   -1    0    0    0    0 -0.00000000000E+00 -0.00000000000E+00 -0.45593999997E+02  0.45594000000E+02  0.51100000000E-03 0. -1.
    9900012    2    1    2    0    0  0.42461759132E+02  0.11187157925E+01  0.89090312965E+01  0.47787270142E+02  0.19999995884E+02 0.  0.
         12    1    1    2    0    0 -0.42461759132E+02 -0.11187157925E+01 -0.89090312965E+01  0.43400729858E+02  0.00000000000E+00 0. -1.
         11    1    3    3    0    0  0.17785471273E+02  0.40475295169E+01  0.67612432572E+00  0.18252743025E+02  0.51100000000E-03 0.  1.
        -11    1    3    3    0    0 -0.82436521578E+00 -0.19246874564E+01  0.27077726134E+01  0.34228690598E+01  0.51100000000E-03 0. -1.
         12    1    3    3    0    0  0.25500653075E+02 -0.10041262680E+01  0.55251343574E+01  0.26111658057E+02  0.00000000000E+00 0. -1.
</event>
<event>
 7    1  0.1384886E-010  0.4778727E+02  0.7816164E-02  0.1312668E+00
        -11   -1    0    0    0    0  0.00000000000E+00  0.00000000000E+00  0.45593999997E+02  0.45594000000E+02  0.51100000000E-03 0. -1.
         11   -1    0    0    0    0 -0.00000000000E+00 -0.00000000000E+00 -0.45593999997E+02  0.45594000000E+02  0.51100000000E-03 0.  1.
    9900012    2    1    2    0    0  0.13511833514E+02  0.38040227258E+02 -0.15937207048E+02  0.47787273010E+02  0.20000008962E+02 0.  0.
         12    1    1    2    0    0 -0.13511833514E+02 -0.38040227258E+02  0.15937207048E+02  0.43400726990E+02  0.00000000000E+00 0. -1.
         11    1    3    3    0    0  0.26991752220E+01  0.18487462524E+02 -0.45131319558E+01  0.19220826667E+02  0.51100000000E-03 0. -1.
        -11    1    3    3    0    0  0.28365711834E+01  0.16101320555E+02 -0.11300747659E+02  0.19874746731E+02  0.51100000000E-03 0.  1.
        -12    1    3    3    0    0  0.79760871090E+01  0.34514441790E+01 -0.12332743298E+00  0.86916996121E+01  0.00000000000E+00 0.  1.
</event>
<event>
 7    1  0.1384886E-010  0.4778728E+02  0.7816164E-02  0.1312668E+00
        -11   -1    0    0    0    0  0.00000000000E+00  0.00000000000E+00  0.45593999997E+02  0.45594000000E+02  0.51100000000E-03 0.  1.
         11   -1    0    0    0    0 -0.00000000000E+00 -0.00000000000E+00 -0.45593999997E+02  0.45594000000E+02  0.51100000000E-03 0. -1.
    9900012    2    1    2    0    0  0.24731184389E+01  0.69893553620E+01  0.42762781108E+02  0.47787275913E+02  0.20000022196E+02 0.  0.
         12    1    1    2    0    0 -0.24731184389E+01 -0.69893553620E+01 -0.42762781108E+02  0.43400724087E+02  0.00000000000E+00 0. -1.
         11    1    3    3    0    0  0.77614765430E+01  0.13656524387E+00  0.13387187826E+02  0.15475011029E+02  0.51100000000E-03 0. -1.
        -11    1    3    3    0    0 -0.39715762547E+01 -0.19949248382E+01  0.82527151095E+01  0.93733905284E+01  0.51100000000E-03 0.  1.
        -12    1    3    3    0    0 -0.13167818493E+01  0.88477149563E+01  0.21122878173E+02  0.22938874355E+02  0.00000000000E+00 0.  1.
</event>
<event>
 7    1  0.1384886E-010  0.4778727E+02  0.7816164E-02  0.1312668E+00
        -11   -1    0    0    0    0  0.00000000000E+00  0.00000000000E+00  0.45593999997E+02  0.45594000000E+02  0.51100000000E-03 0. -1.
         11   -1    0    0    0    0 -0.00000000000E+00 -0.00000000000E+00 -0.45593999997E+02  0.45594000000E+02  0.51100000000E-03 0.  1.
    9900012    2    1    2    0    0 -0.22612855658E+02  0.55080913268E-01 -0.37044287225E+02  0.47787268544E+02  0.19999988601E+02 0.  0.
         12    1    1    2    0    0  0.22612855658E+02 -0.55080913268E-01  0.37044287225E+02  0.43400731456E+02  0.00000000000E+00 0. -1.
         11    1    3    3    0    0 -0.13757555145E+01  0.21599818023E+01 -0.71926771380E+01  0.76349740860E+01  0.51100000000E-03 0. -1.
        -11    1    3    3    0    0 -0.16738491733E+02 -0.86977291369E+01 -0.21428348436E+02  0.28548234877E+02  0.51100000000E-03 0.  1.
        -12    1    3    3    0    0 -0.44986084105E+01  0.65928282479E+01 -0.84232616501E+01  0.11604059581E+02  0.00000000000E+00 0.  1.
</event>
<event>
 7    1  0.1384886E-010  0.4778728E+02  0.7816164E-02  0.1312668E+00
        -11   -1    0    0    0    0  0.00000000000E+00  0.00000000000E+00  0.45593999997E+02  0.45594000000E+02  0.51100000000E-03 0.  1.
         11   -1    0    0    0    0 -0.00000000000E+00 -0.00000000000E+00 -0.45593999997E+02  0.45594000000E+02  0.51100000000E-03 0. -1.
    9900012    2    1    2    0    0 -0.20941043729E+02  0.24219072317E+01  0.37937179510E+02  0.47787279542E+02  0.20000038745E+02 0.  0.
         12    1    1    2    0    0  0.20941043729E+02 -0.24219072317E+01 -0.37937179510E+02  0.43400720458E+02  0.00000000000E+00 0. -1.
         11    1    3    3    0    0 -0.10868508032E+02 -0.67239215568E+01  0.12770210145E+02  0.18066927115E+02  0.51100000000E-03 0. -1.
        -11    1    3    3    0    0 -0.98795732758E+01  0.40434281821E+01  0.16182157354E+02  0.19386012908E+02  0.51100000000E-03 0.  1.
        -12    1    3    3    0    0 -0.19296242113E+00  0.51024006064E+01  0.89848120107E+01  0.10334339520E+02  0.00000000000E+00 0.  1.
</event>
<event>
 7    1  0.1384886E-010  0.4778727E+02  0.7816164E-02  0.1312668E+00
        -11   -1    0    0    0    0  0.00000000000E+00  0.00000000000E+00  0.45593999997E+02  0.45594000000E+02  0.51100000000E-03 0.  1.
         11   -1    0    0    0    0 -0.00000000000E+00 -0.00000000000E+00 -0.45593999997E+02  0.45594000000E+02  0.51100000000E-03 0. -1.
    9900012    2    1    2    0    0  0.27566948934E+02  0.31895567976E+02  0.10313065671E+02  0.47787271278E+02  0.20000001065E+02 0.  0.
         12    1    1    2    0    0 -0.27566948934E+02 -0.31895567976E+02 -0.10313065671E+02  0.43400728722E+02  0.00000000000E+00 0. -1.
         11    1    3    3    0    0  0.15441853428E+02  0.19681124692E+02  0.37941028819E+01  0.25302030024E+02  0.51100000000E-03 0. -1.
        -11    1    3    3    0    0  0.40358191723E+01  0.63845290578E+01 -0.35224413535E+01  0.83341250909E+01  0.51100000000E-03 0.  1.
         12    1    3    3    0    0  0.80892763337E+01  0.58299142268E+01  0.10041404143E+02  0.14151116163E+02  0.00000000000E+00 0. -1.
</event>
<event>
 7    1  0.1384886E-010  0.4778727E+02  0.7816164E-02  0.1312668E+00
        -11   -1    0    0    0    0  0.00000000000E+00  0.00000000000E+00  0.45593999997E+02  0.45594000000E+02  0.51100000000E-03 0.  1.
         11   -1    0    0    0    0 -0.00000000000E+00 -0.00000000000E+00 -0.45593999997E+02  0.45594000000E+02  0.51100000000E-03 0. -1.
    9900012    2    1    2    0    0  0.31181367137E+02 -0.33119632179E+01  0.30006270132E+02  0.47787274152E+02  0.20000014169E+02 0.  0.
         12    1    1    2    0    0 -0.31181367137E+02  0.33119632179E+01 -0.30006270132E+02  0.43400725848E+02  0.00000000000E+00 0. -1.
         11    1    3    3    0    0  0.22177962142E+02  0.10512325514E+00  0.22680291704E+02  0.31721738410E+02  0.51100000000E-03 0.  1.
        -11    1    3    3    0    0  0.10224964644E+02 -0.57016865119E+01  0.60151463812E+01  0.13162109151E+02  0.51100000000E-03 0. -1.
         12    1    3    3    0    0 -0.12215596499E+01  0.22846000389E+01  0.13108320466E+01  0.29034265912E+01  0.00000000000E+00 0. -1.
</event>
<event>
 7    1  0.1384886E-010  0.4778727E+02  0.7816164E-02  0.1312668E+00
        -11   -1    0    0    0    0  0.00000000000E+00  0.00000000000E+00  0.45593999997E+02  0.45594000000E+02  0.51100000000E-03 0. -1.
         11   -1    0    0    0    0 -0.00000000000E+00 -0.00000000000E+00 -0.45593999997E+02  0.45594000000E+02  0.51100000000E-03 0.  1.
    9900012    2    1    2    0    0  0.15571267488E+02 -0.27720973235E+02 -0.29541608772E+02  0.47787269855E+02  0.19999994575E+02 0.  0.
         12    1    1    2    0    0 -0.15571267488E+02  0.27720973235E+02  0.29541608772E+02  0.43400730145E+02  0.00000000000E+00 0. -1.
         11    1    3    3    0    0 -0.23498333768E+01 -0.62030496588E+00 -0.62928796013E+00  0.25104777926E+01  0.51100000000E-03 0. -1.
        -11    1    3    3    0    0  0.24024097194E+01  0.10095664592E+00  0.33323734025E+00  0.24275115016E+01  0.51100000000E-03 0.  1.
        -12    1    3    3    0    0  0.15518691146E+02 -0.27201624915E+02 -0.29245558152E+02  0.42849280560E+02  0.00000000000E+00 0.  1.
</event>
<event>
 7    1  0.1384886E-010  0.4778727E+02  0.7816164E-02  0.1312668E+00
        -11   -1    0    0    0    0  0.00000000000E+00  0.00000000000E+00  0.45593999997E+02  0.45594000000E+02  0.51100000000E-03 0.  1.
         11   -1    0    0    0    0 -0.00000000000E+00 -0.00000000000E+00 -0.45593999997E+02  0.45594000000E+02  0.51100000000E-03 0. -1.
    9900012    2    1    2    0    0  0.96204209031E+01  0.38684715431E+02  0.17162858831E+02  0.47787269250E+02  0.19999991820E+02 0.  0.
         12    1    1    2    0    0 -0.96204209031E+01 -0.38684715431E+02 -0.17162858831E+02  0.43400730750E+02  0.00000000000E+00 0. -1.
         11    1    3    3    0    0  0.24087037243E+01  0.17189400727E+01  0.44034604702E+01  0.53053815112E+01  0.51100000000E-03 0. -1.
        -11    1    3    3    0    0  0.83042983512E+01  0.36212109549E+02  0.14846312478E+02  0.40008639611E+02  0.51100000000E-03 0.  1.
         12    1    3    3    0    0 -0.10925811725E+01  0.75366580966E+00 -0.20869141169E+01  0.24732481279E+01  0.00000000000E+00 0. -1.
</event>
<event>
 7    1  0.1384886E-010  0.4778727E+02  0.7816164E-02  0.1312668E+00
        -11   -1    0    0    0    0  0.00000000000E+00  0.00000000000E+00  0.45593999997E+02  0.45594000000E+02  0.51100000000E-03 0.  1.
         11   -1    0    0    0    0 -0.00000000000E+00 -0.00000000000E+00 -0.45593999997E+02  0.45594000000E+02  0.51100000000E-03 0. -1.
    9900012    2    1    2    0    0 -0.42087107394E+02 -0.83012435311E+01 -0.65869533313E+01  0.47787271813E+02  0.20000003506E+02 0.  0.
         12    1    1    2    0    0  0.42087107394E+02  0.83012435311E+01  0.65869533313E+01  0.43400728187E+02  0.00000000000E+00 0. -1.
         11    1    3    3    0    0 -0.91237622497E+01 -0.76226718142E+01  0.40120656368E+01  0.12547702344E+02  0.51100000000E-03 0. -1.
        -11    1    3    3    0    0 -0.95547466946E+01 -0.17330610895E+01 -0.58316840204E+01  0.11327189586E+02  0.51100000000E-03 0.  1.
         12    1    3    3    0    0 -0.23408598449E+02  0.10544893726E+01 -0.47673349477E+01  0.23912379884E+02  0.00000000000E+00 0. -1.
</event>
<event>
 7    1  0.1384886E-010  0.4778727E+02  0.7816164E-02  0.1312668E+00
        -11   -1    0    0    0    0  0.00000000000E+00  0.00000000000E+00  0.45593999997E+02  0.45594000000E+02  0.51100000000E-03 0. -1.
         11   -1    0    0    0    0 -0.00000000000E+00 -0.00000000000E+00 -0.45593999997E+02  0.45594000000E+02  0.51100000000E-03 0.  1.
    9900012    2    1    2    0    0  0.30890487453E+02  0.24359048643E+02 -0.18331339970E+02  0.47787268544E+02  0.19999988597E+02 0.  0.
         12    1    1    2    0    0 -0.30890487453E+02 -0.24359048643E+02  0.18331339970E+02  0.43400731456E+02  0.00000000000E+00 0. -1.
         11    1    3    3    0    0  0.68645677430E+01  0.92797114062E+01  0.10197812641E+01  0.11587721440E+02  0.51100000000E-03 0. -1.
        -11    1    3    3    0    0  0.63214509999E+01  0.97340326009E+01 -0.10685017728E+02  0.15775986103E+02  0.51100000000E-03 0.  1.
         12    1    3    3    0    0  0.17704468710E+02  0.53453046355E+01 -0.86661035053E+01  0.20423561000E+02  0.00000000000E+00 0. -1.
</event>
<event>
 7    1  0.1384886E-010  0.4778727E+02  0.7816164E-02  0.1312668E+00
        -11   -1    0    0    0    0  0.00000000000E+00  0.00000000000E+00  0.45593999997E+02  0.45594000000E+02  0.51100000000E-03 0.  1.
         11   -1    0    0    0    0 -0.00000000000E+00 -0.00000000000E+00 -0.45593999997E+02  0.45594000000E+02  0.51100000000E-03 0. -1.
    9900012    2    1    2    0    0 -0.14187620524E+02  0.24126455115E+01  0.40945253992E+02  0.47787271216E+02  0.20000000784E+02 0.  0.
         12    1    1    2    0    0  0.14187620524E+02 -0.24126455115E+01 -0.40945253992E+02  0.43400728784E+02  0.00000000000E+00 0. -1.
         11    1    3    3    0    0 -0.13377582265E+01  0.44372045741E+01  0.17164971959E+01  0.49421396570E+01  0.51100000000E-03 0. -1.
        -11    1    3    3    0    0 -0.10795202843E+02 -0.17769146713E+01  0.15202551054E+02  0.18729959663E+02  0.51100000000E-03 0.  1.
         12    1    3    3    0    0 -0.20546594545E+01 -0.24764439129E+00  0.24026205742E+02  0.24115171896E+02  0.00000000000E+00 0. -1.
</event>
<event>
 7    1  0.1384886E-010  0.4778727E+02  0.7816164E-02  0.1312668E+00
        -11   -1    0    0    0    0  0.00000000000E+00  0.00000000000E+00  0.45593999997E+02  0.45594000000E+02  0.51100000000E-03 0.  1.
         11   -1    0    0    0    0 -0.00000000000E+00 -0.00000000000E+00 -0.45593999997E+02  0.45594000000E+02  0.51100000000E-03 0. -1.
    9900012    2    1    2    0    0  0.19283161492E+02  0.49237619869E+01  0.38568634364E+02  0.47787270675E+02  0.19999998315E+02 0.  0.
         12    1    1    2    0    0 -0.19283161492E+02 -0.49237619869E+01 -0.38568634364E+02  0.43400729325E+02  0.00000000000E+00 0. -1.
         11    1    3    3    0    0  0.89954861736E+01 -0.88174695861E+00  0.30189363297E+02  0.31513392483E+02  0.51100000000E-03 0. -1.
        -11    1    3    3    0    0  0.64821221138E+00  0.40695367270E+01  0.30200995928E+01  0.51090419900E+01  0.51100000000E-03 0.  1.
        -12    1    3    3    0    0  0.96394631071E+01  0.17359722185E+01  0.53591714740E+01  0.11164836202E+02  0.00000000000E+00 0.  1.
</event>
<event>
 7    1  0.1384886E-010  0.4778727E+02  0.7816164E-02  0.1312668E+00
        -11   -1    0    0    0    0  0.00000000000E+00  0.00000000000E+00  0.45593999997E+02  0.45594000000E+02  0.51100000000E-03 0.  1.
         11   -1    0    0    0    0 -0.00000000000E+00 -0.00000000000E+00 -0.45593999997E+02  0.45594000000E+02  0.51100000000E-03 0. -1.
    9900012    2    1    2    0    0 -0.32835357320E+02  0.26546719892E+02  0.10036655356E+02  0.47787268692E+02  0.19999989272E+02 0.  0.
         12    1    1    2    0    0  0.32835357320E+02 -0.26546719892E+02 -0.10036655356E+02  0.43400731308E+02  0.00000000000E+00 0. -1.
         11    1    3    3    0    0 -0.17055583464E+02  0.58168557535E+01  0.71484962630E+01  0.19386328617E+02  0.51100000000E-03 0. -1.
        -11    1    3    3    0    0 -0.11795173274E+02  0.96627457865E+01 -0.25200638860E+01  0.15454626846E+02  0.51100000000E-03 0.  1.
         12    1    3    3    0    0 -0.39846005816E+01  0.11067118352E+02  0.54082229793E+01  0.12946313228E+02  0.00000000000E+00 0. -1.
</event>
<event>
 7    1  0.1384886E-010  0.4778728E+02  0.7816164E-02  0.1312668E+00
        -11   -1    0    0    0    0  0.00000000000E+00  0.00000000000E+00  0.45593999997E+02  0.45594000000E+02  0.51100000000E-03 0.  1.
         11   -1    0    0    0    0 -0.00000000000E+00 -0.00000000000E+00 -0.45593999997E+02  0.45594000000E+02  0.51100000000E-03 0. -1.
    9900012    2    1    2    0    0  0.17689604226E+02  0.34125094044E+02  0.20153870137E+02  0.47787278547E+02  0.20000034205E+02 0.  0.
         12    1    1    2    0    0 -0.17689604226E+02 -0.34125094044E+02 -0.20153870137E+02  0.43400721453E+02  0.00000000000E+00 0. -1.
         11    1    3    3    0    0  0.77827233011E+01  0.10508653958E+02  0.12415229812E+02  0.18031653322E+02  0.51100000000E-03 0. -1.
        -11    1    3    3    0    0  0.11630893964E+02  0.20977435167E+02  0.31549581812E+01  0.24192648511E+02  0.51100000000E-03 0.  1.
         12    1    3    3    0    0 -0.17240130390E+01  0.26390049197E+01  0.45836821432E+01  0.55629767135E+01  0.00000000000E+00 0. -1.
</event>
<event>
 7    1  0.1384886E-010  0.4778728E+02  0.7816164E-02  0.1312668E+00
        -11   -1    0    0    0    0  0.00000000000E+00  0.00000000000E+00  0.45593999997E+02  0.45594000000E+02  0.51100000000E-03 0.  1.
         11   -1    0    0    0    0 -0.00000000000E+00 -0.00000000000E+00 -0.45593999997E+02  0.45594000000E+02  0.51100000000E-03 0. -1.
    9900012    2    1    2    0    0 -0.12067994668E+02  0.33668206178E+02  0.24585324930E+02  0.47787276453E+02  0.20000024658E+02 0.  0.
         12    1    1    2    0    0  0.12067994668E+02 -0.33668206178E+02 -0.24585324930E+02  0.43400723547E+02  0.00000000000E+00 0. -1.
         11    1    3    3    0    0 -0.93480353503E+00  0.11710136899E+01 -0.13637953942E+01  0.20260969497E+01  0.51100000000E-03 0. -1.
        -11    1    3    3    0    0 -0.96218804201E+00  0.14025554681E+02  0.18842336115E+02  0.23509054011E+02  0.51100000000E-03 0.  1.
        -12    1    3    3    0    0 -0.10171003091E+02  0.18471637806E+02  0.71067842091E+01  0.22252125492E+02  0.00000000000E+00 0.  1.
</event>
<event>
 7    1  0.1384886E-010  0.4778727E+02  0.7816164E-02  0.1312668E+00
        -11   -1    0    0    0    0  0.00000000000E+00  0.00000000000E+00  0.45593999997E+02  0.45594000000E+02  0.51100000000E-03 0.  1.
         11   -1    0    0    0    0 -0.00000000000E+00 -0.00000000000E+00 -0.45593999997E+02  0.45594000000E+02  0.51100000000E-03 0. -1.
    9900012    2    1    2    0    0  0.39427716473E+02  0.17753204105E+02  0.37286096918E+01  0.47787267143E+02  0.19999982211E+02 0.  0.
         12    1    1    2    0    0 -0.39427716473E+02 -0.17753204105E+02 -0.37286096918E+01  0.43400732857E+02  0.00000000000E+00 0. -1.
         11    1    3    3    0    0  0.14426381908E+02  0.13496838621E+02 -0.52854009549E+00  0.19762704840E+02  0.51100000000E-03 0. -1.
        -11    1    3    3    0    0  0.24840568957E+02  0.59794603917E+01  0.26925878762E+01  0.25691590889E+02  0.51100000000E-03 0.  1.
        -12    1    3    3    0    0  0.16076560798E+00 -0.17230949072E+01  0.15645619111E+01  0.23329714130E+01  0.00000000000E+00 0.  1.
</event>
<event>
 7    1  0.1384886E-010  0.4778729E+02  0.7816164E-02  0.1312668E+00
        -11   -1    0    0    0    0  0.00000000000E+00  0.00000000000E+00  0.45593999997E+02  0.45594000000E+02  0.51100000000E-03 0.  1.
         11   -1    0    0    0    0 -0.00000000000E+00 -0.00000000000E+00 -0.45593999997E+02  0.45594000000E+02  0.51100000000E-03 0. -1.
    9900012    2    1    2    0    0  0.35696949902E+02  0.15113917258E+02  0.19517144144E+02  0.47787289836E+02  0.20000085678E+02 0.  0.
         12    1    1    2    0    0 -0.35696949902E+02 -0.15113917258E+02 -0.19517144144E+02  0.43400710164E+02  0.00000000000E+00 0. -1.
         11    1    3    3    0    0  0.13853561634E+02 -0.35417510009E+01  0.82094304756E+01  0.16488175130E+02  0.51100000000E-03 0. -1.
        -11    1    3    3    0    0  0.91851999293E+01  0.62061210419E+01  0.67139917667E+01  0.12959996984E+02  0.51100000000E-03 0.  1.
         12    1    3    3    0    0  0.12658188338E+02  0.12449547217E+02  0.45937219020E+01  0.18339117722E+02  0.00000000000E+00 0. -1.
</event>
<event>
 7    1  0.1384886E-010  0.4778727E+02  0.7816164E-02  0.1312668E+00
        -11   -1    0    0    0    0  0.00000000000E+00  0.00000000000E+00  0.45593999997E+02  0.45594000000E+02  0.51100000000E-03 0. -1.
         11   -1    0    0    0    0 -0.00000000000E+00 -0.00000000000E+00 -0.45593999997E+02  0.45594000000E+02  0.51100000000E-03 0.  1.
    9900012    2    1    2    0    0  0.11454372241E+02 -0.38069113060E+02 -0.17411577158E+02  0.47787273835E+02  0.20000012721E+02 0.  0.
         12    1    1    2    0    0 -0.11454372241E+02  0.38069113060E+02  0.17411577158E+02  0.43400726165E+02  0.00000000000E+00 0. -1.
         11    1    3    3    0    0  0.20604364762E+01  0.11178545299E+01  0.32079480482E+00  0.23659896006E+01  0.51100000000E-03 0. -1.
        -11    1    3    3    0    0  0.88722168650E+01 -0.26190352712E+02 -0.69149474116E+01  0.28503812118E+02  0.51100000000E-03 0.  1.
         12    1    3    3    0    0  0.52171889948E+00 -0.12996614877E+02 -0.10817424551E+02  0.16917472116E+02  0.00000000000E+00 0. -1.
</event>
<event>
 7    1  0.1384886E-010  0.4778727E+02  0.7816164E-02  0.1312668E+00
        -11   -1    0    0    0    0  0.00000000000E+00  0.00000000000E+00  0.45593999997E+02  0.45594000000E+02  0.51100000000E-03 0.  1.
         11   -1    0    0    0    0 -0.00000000000E+00 -0.00000000000E+00 -0.45593999997E+02  0.45594000000E+02  0.51100000000E-03 0. -1.
    9900012    2    1    2    0    0 -0.25166390344E+02  0.34846287690E+02 -0.60010163320E+01  0.47787272290E+02  0.20000005679E+02 0.  0.
         12    1    1    2    0    0  0.25166390344E+02 -0.34846287690E+02  0.60010163320E+01  0.43400727710E+02  0.00000000000E+00 0. -1.
         11    1    3    3    0    0 -0.14505393832E+01 -0.86481398475E+00  0.48534148163E+00  0.17571352667E+01  0.51100000000E-03 0. -1.
        -11    1    3    3    0    0 -0.67755626402E+01  0.23907297661E+02 -0.22289000779E+01  0.24948649790E+02  0.51100000000E-03 0.  1.
        -12    1    3    3    0    0 -0.16940288321E+02  0.11803804014E+02 -0.42574577357E+01  0.21081487233E+02  0.00000000000E+00 0.  1.
</event>
<event>
 7    1  0.1384886E-010  0.4778728E+02  0.7816164E-02  0.1312668E+00
        -11   -1    0    0    0    0  0.00000000000E+00  0.00000000000E+00  0.45593999997E+02  0.45594000000E+02  0.51100000000E-03 0.  1.
         11   -1    0    0    0    0 -0.00000000000E+00 -0.00000000000E+00 -0.45593999997E+02  0.45594000000E+02  0.51100000000E-03 0. -1.
    9900012    2    1    2    0    0  0.36674086408E+02 -0.59183445673E+01  0.22441195407E+02  0.47787278029E+02  0.20000031846E+02 0.  0.
         12    1    1    2    0    0 -0.36674086408E+02  0.59183445673E+01 -0.22441195407E+02  0.43400721971E+02  0.00000000000E+00 0. -1.
         11    1    3    3    0    0 -0.11866100851E+01 -0.16258459924E+01  0.43626863992E+01  0.48046281400E+01  0.51100000000E-03 0. -1.
        -11    1    3    3    0    0  0.23570339444E+02 -0.20948158207E+01  0.15522426890E+02  0.28300086425E+02  0.51100000000E-03 0.  1.
        -12    1    3    3    0    0  0.14290357049E+02 -0.21976827541E+01  0.25560821170E+01  0.14682563464E+02  0.00000000000E+00 0.  1.
</event>
<event>
 7    1  0.1384886E-010  0.4778727E+02  0.7816164E-02  0.1312668E+00
        -11   -1    0    0    0    0  0.00000000000E+00  0.00000000000E+00  0.45593999997E+02  0.45594000000E+02  0.51100000000E-03 0.  1.
         11   -1    0    0    0    0 -0.00000000000E+00 -0.00000000000E+00 -0.45593999997E+02  0.45594000000E+02  0.51100000000E-03 0. -1.
    9900012    2    1    2    0    0  0.21975052125E+02 -0.18419506335E+02  0.32579777674E+02  0.47787273707E+02  0.20000012138E+02 0.  0.
         12    1    1    2    0    0 -0.21975052125E+02  0.18419506335E+02 -0.32579777674E+02  0.43400726293E+02  0.00000000000E+00 0. -1.
         11    1    3    3    0    0  0.13193098502E+02 -0.95696021082E+01  0.22720322218E+02  0.27961548142E+02  0.51100000000E-03 0. -1.
        -11    1    3    3    0    0  0.74284558080E+01  0.62389647438E+00  0.29271155265E+01  0.80086957783E+01  0.51100000000E-03 0.  1.
         12    1    3    3    0    0  0.13534978155E+01 -0.94738007011E+01  0.69323399296E+01  0.11817029786E+02  0.00000000000E+00 0. -1.
</event>
<event>
 7    1  0.1384886E-010  0.4778731E+02  0.7816164E-02  0.1312668E+00
        -11   -1    0    0    0    0  0.00000000000E+00  0.00000000000E+00  0.45593999997E+02  0.45594000000E+02  0.51100000000E-03 0. -1.
         11   -1    0    0    0    0 -0.00000000000E+00 -0.00000000000E+00 -0.45593999997E+02  0.45594000000E+02  0.51100000000E-03 0.  1.
    9900012    2    1    2    0    0 -0.30855844751E+02 -0.21306757945E+02 -0.21853112871E+02  0.47787313006E+02  0.20000191319E+02 0.  0.
         12    1    1    2    0    0  0.30855844751E+02  0.21306757945E+02  0.21853112871E+02  0.43400686994E+02  0.00000000000E+00 0. -1.
         11    1    3    3    0    0 -0.60299899836E+01 -0.80538278825E+01 -0.11792444676E+01  0.10129932899E+02  0.51100000000E-03 0. -1.
        -11    1    3    3    0    0 -0.42248075953E+01 -0.44397409429E+01 -0.12289823295E+02  0.13733173549E+02  0.51100000000E-03 0.  1.
        -12    1    3    3    0    0 -0.20601047172E+02 -0.88131891191E+01 -0.83840451086E+01  0.23924206558E+02  0.00000000000E+00 0.  1.
</event>
<event>
 7    1  0.1384886E-010  0.4778727E+02  0.7816164E-02  0.1312668E+00
        -11   -1    0    0    0    0  0.00000000000E+00  0.00000000000E+00  0.45593999997E+02  0.45594000000E+02  0.51100000000E-03 0.  1.
         11   -1    0    0    0    0 -0.00000000000E+00 -0.00000000000E+00 -0.45593999997E+02  0.45594000000E+02  0.51100000000E-03 0. -1.
    9900012    2    1    2    0    0  0.37793577203E+02  0.20673997813E+02  0.52777578337E+01  0.47787269694E+02  0.19999993843E+02 0.  0.
         12    1    1    2    0    0 -0.37793577203E+02 -0.20673997813E+02 -0.52777578337E+01  0.43400730306E+02  0.00000000000E+00 0. -1.
         11    1    3    3    0    0  0.51890169914E+01  0.43366870096E+01 -0.29737255235E+01  0.73875432524E+01  0.51100000000E-03 0. -1.
        -11    1    3    3    0    0  0.33051497734E+02  0.18125057100E+02  0.80589312357E+01  0.38546926859E+02  0.51100000000E-03 0.  1.
        -12    1    3    3    0    0 -0.44693752276E+00 -0.17877462973E+01  0.19255212149E+00  0.18527995823E+01  0.00000000000E+00 0.  1.
</event>
<event>
 7    1  0.1384886E-010  0.4778727E+02  0.7816164E-02  0.1312668E+00
        -11   -1    0    0    0    0  0.00000000000E+00  0.00000000000E+00  0.45593999997E+02  0.45594000000E+02  0.51100000000E-03 0. -1.
         11   -1    0    0    0    0 -0.00000000000E+00 -0.00000000000E+00 -0.45593999997E+02  0.45594000000E+02  0.51100000000E-03 0.  1.
    9900012    2    1    2    0    0  0.28678830776E+02  0.30560584940E+02 -0.11278234706E+02  0.47787271151E+02  0.20000000485E+02 0.  0.
         12    1    1    2    0    0 -0.28678830776E+02 -0.30560584940E+02  0.11278234706E+02  0.43400728849E+02  0.00000000000E+00 0. -1.
         11    1    3    3    0    0  0.12405620743E+02  0.13225901557E+02 -0.81540044662E+01  0.19882446709E+02  0.51100000000E-03 0.  1.
        -11    1    3    3    0    0  0.13092419065E+02  0.16715265771E+02 -0.74486384898E+01  0.22500972476E+02  0.51100000000E-03 0. -1.
         12    1    3    3    0    0  0.31807909681E+01  0.61941761190E+00  0.43244082499E+01  0.54038519661E+01  0.00000000000E+00 0. -1.
</event>
<event>
 7    1  0.1384886E-010  0.4778729E+02  0.7816164E-02  0.1312668E+00
        -11   -1    0    0    0    0  0.00000000000E+00  0.00000000000E+00  0.45593999997E+02  0.45594000000E+02  0.51100000000E-03 0.  1.
         11   -1    0    0    0    0 -0.00000000000E+00 -0.00000000000E+00 -0.45593999997E+02  0.45594000000E+02  0.51100000000E-03 0. -1.
    9900012    2    1    2    0    0 -0.43280953034E+02 -0.56733732210E+00  0.31716360730E+01  0.47787285230E+02  0.20000064677E+02 0.  0.
         12    1    1    2    0    0  0.43280953034E+02  0.56733732210E+00 -0.31716360730E+01  0.43400714770E+02  0.00000000000E+00 0. -1.
         11    1    3    3    0    0 -0.40180161709E+02  0.43094836309E+01  0.52441394113E+00  0.40414008145E+02  0.51100000000E-03 0.  1.
        -11    1    3    3    0    0  0.79969390087E+00 -0.33884131489E+00  0.57106382806E+00  0.10394411617E+01  0.51100000000E-03 0. -1.
        -12    1    3    3    0    0 -0.39004852262E+01 -0.45379796381E+01  0.20761583039E+01  0.63338359229E+01  0.00000000000E+00 0.  1.
</event>
<event>
 7    1  0.1384886E-010  0.4778727E+02  0.7816164E-02  0.1312668E+00
        -11   -1    0    0    0    0  0.00000000000E+00  0.00000000000E+00  0.45593999997E+02  0.45594000000E+02  0.51100000000E-03 0. -1.
         11   -1    0    0    0    0 -0.00000000000E+00 -0.00000000000E+00 -0.45593999997E+02  0.45594000000E+02  0.51100000000E-03 0.  1.
    9900012    2    1    2    0    0  0.39235240958E+00  0.74619844547E+01 -0.42752637932E+02  0.47787271866E+02  0.20000003746E+02 0.  0.
         12    1    1    2    0    0 -0.39235240958E+00 -0.74619844547E+01  0.42752637932E+02  0.43400728134E+02  0.00000000000E+00 0. -1.
         11    1    3    3    0    0 -0.36010107625E+01 -0.99571441245E+00 -0.13827568954E+01  0.39838100602E+01  0.51100000000E-03 0. -1.
        -11    1    3    3    0    0  0.14408229237E+00  0.98843048321E+01 -0.24021607870E+02  0.25976102222E+02  0.51100000000E-03 0.  1.
         12    1    3    3    0    0  0.38492808797E+01 -0.14266059649E+01 -0.17348273167E+02  0.17827359584E+02  0.00000000000E+00 0. -1.
</event>
<event>
 7    1  0.1384886E-010  0.4778727E+02  0.7816164E-02  0.1312668E+00
        -11   -1    0    0    0    0  0.00000000000E+00  0.00000000000E+00  0.45593999997E+02  0.45594000000E+02  0.51100000000E-03 0.  1.
         11   -1    0    0    0    0 -0.00000000000E+00 -0.00000000000E+00 -0.45593999997E+02  0.45594000000E+02  0.51100000000E-03 0. -1.
    9900012    2    1    2    0    0  0.38997018628E+02 -0.11716121983E+02  0.15019590848E+02  0.47787273216E+02  0.20000009899E+02 0.  0.
         12    1    1    2    0    0 -0.38997018628E+02  0.11716121983E+02 -0.15019590848E+02  0.43400726784E+02  0.00000000000E+00 0. -1.
         11    1    3    3    0    0  0.20995879329E+02 -0.89489218466E+01  0.15260805935E+02  0.27455461188E+02  0.51100000000E-03 0.  1.
        -11    1    3    3    0    0  0.63981234744E+01  0.29185643636E+01  0.17783322803E+01  0.72537209692E+01  0.51100000000E-03 0. -1.
        -12    1    3    3    0    0  0.11603015825E+02 -0.56857644997E+01 -0.20195473667E+01  0.13078091059E+02  0.00000000000E+00 0.  1.
</event>
<event>
 7    1  0.1384886E-010  0.4778728E+02  0.7816164E-02  0.1312668E+00
        -11   -1    0    0    0    0  0.00000000000E+00  0.00000000000E+00  0.45593999997E+02  0.45594000000E+02  0.51100000000E-03 0.  1.
         11   -1    0    0    0    0 -0.00000000000E+00 -0.00000000000E+00 -0.45593999997E+02  0.45594000000E+02  0.51100000000E-03 0. -1.
    9900012    2    1    2    0    0 -0.10957691041E+02  0.24683741766E+02  0.33974471310E+02  0.47787276489E+02  0.20000024822E+02 0.  0.
         12    1    1    2    0    0  0.10957691041E+02 -0.24683741766E+02 -0.33974471310E+02  0.43400723511E+02  0.00000000000E+00 0. -1.
         11    1    3    3    0    0 -0.32776533719E+01  0.16000590296E+01  0.15283059871E+01  0.39546074364E+01  0.51100000000E-03 0.  1.
        -11    1    3    3    0    0 -0.19381599830E+01  0.23466283699E+02  0.27836187386E+02  0.36459241122E+02  0.51100000000E-03 0. -1.
         12    1    3    3    0    0 -0.57418776860E+01 -0.38260096263E+00  0.46099779367E+01  0.73734279297E+01  0.00000000000E+00 0. -1.
</event>
<event>
 7    1  0.1384886E-010  0.4778728E+02  0.7816164E-02  0.1312668E+00
        -11   -1    0    0    0    0  0.00000000000E+00  0.00000000000E+00  0.45593999997E+02  0.45594000000E+02  0.51100000000E-03 0.  1.
         11   -1    0    0    0    0 -0.00000000000E+00 -0.00000000000E+00 -0.45593999997E+02  0.45594000000E+02  0.51100000000E-03 0. -1.
    9900012    2    1    2    0    0  0.31294175821E+02 -0.18232206839E+02  0.23914098183E+02  0.47787275370E+02  0.20000019720E+02 0.  0.
         12    1    1    2    0    0 -0.31294175821E+02  0.18232206839E+02 -0.23914098183E+02  0.43400724630E+02  0.00000000000E+00 0. -1.
         11    1    3    3    0    0 -0.66197153616E+00 -0.73319650613E+01  0.43831999887E+01  0.85678679015E+01  0.51100000000E-03 0. -1.
        -11    1    3    3    0    0  0.16881955391E+02 -0.72632244946E+01  0.12264097825E+02  0.22094409782E+02  0.51100000000E-03 0.  1.
         12    1    3    3    0    0  0.15074191966E+02 -0.36370172831E+01  0.72668003696E+01  0.17124997686E+02  0.00000000000E+00 0. -1.
</event>
<event>
 7    1  0.1384886E-010  0.4778727E+02  0.7816164E-02  0.1312668E+00
        -11   -1    0    0    0    0  0.00000000000E+00  0.00000000000E+00  0.45593999997E+02  0.45594000000E+02  0.51100000000E-03 0. -1.
         11   -1    0    0    0    0 -0.00000000000E+00 -0.00000000000E+00 -0.45593999997E+02  0.45594000000E+02  0.51100000000E-03 0.  1.
    9900012    2    1    2    0    0 -0.33001406693E+02  0.27257303527E+02 -0.71812315844E+01  0.47787268136E+02  0.19999986738E+02 0.  0.
         12    1    1    2    0    0  0.33001406693E+02 -0.27257303527E+02  0.71812315844E+01  0.43400731864E+02  0.00000000000E+00 0. -1.
         11    1    3    3    0    0 -0.45809730229E+01 -0.21454785570E+01 -0.25286613022E+01  0.56553090382E+01  0.51100000000E-03 0. -1.
        -11    1    3    3    0    0 -0.53281456131E+01  0.10724977149E+02 -0.32015128694E+01  0.12396126630E+02  0.51100000000E-03 0.  1.
         12    1    3    3    0    0 -0.23092288057E+02  0.18677804935E+02 -0.14510574129E+01  0.29735832467E+02  0.00000000000E+00 0. -1.
</event>
<event>
 7    1  0.1384886E-010  0.4778727E+02  0.7816164E-02  0.1312668E+00
        -11   -1    0    0    0    0  0.00000000000E+00  0.00000000000E+00  0.45593999997E+02  0.45594000000E+02  0.51100000000E-03 0.  1.
         11   -1    0    0    0    0 -0.00000000000E+00 -0.00000000000E+00 -0.45593999997E+02  0.45594000000E+02  0.51100000000E-03 0. -1.
    9900012    2    1    2    0    0  0.29942366741E+02 -0.18635696763E+02  0.25294044133E+02  0.47787272028E+02  0.20000004483E+02 0.  0.
         12    1    1    2    0    0 -0.29942366741E+02  0.18635696763E+02 -0.25294044133E+02  0.43400727972E+02  0.00000000000E+00 0. -1.
         11    1    3    3    0    0  0.11921933907E+02 -0.34882435623E+01  0.27039916841E+01  0.12712667797E+02  0.51100000000E-03 0. -1.
        -11    1    3    3    0    0  0.14454014058E+02 -0.79403668107E+01  0.21288135820E+02  0.26928658979E+02  0.51100000000E-03 0.  1.
         12    1    3    3    0    0  0.35664187767E+01 -0.72070863903E+01  0.13019166288E+01  0.81459452512E+01  0.00000000000E+00 0. -1.
</event>
<event>
 7    1  0.1384886E-010  0.4778727E+02  0.7816164E-02  0.1312668E+00
        -11   -1    0    0    0    0  0.00000000000E+00  0.00000000000E+00  0.45593999997E+02  0.45594000000E+02  0.51100000000E-03 0.  1.
         11   -1    0    0    0    0 -0.00000000000E+00 -0.00000000000E+00 -0.45593999997E+02  0.45594000000E+02  0.51100000000E-03 0. -1.
    9900012    2    1    2    0    0 -0.17127444334E+02 -0.24269834648E+02  0.31642520442E+02  0.47787270476E+02  0.19999997410E+02 0.  0.
         12    1    1    2    0    0  0.17127444334E+02  0.24269834648E+02 -0.31642520442E+02  0.43400729524E+02  0.00000000000E+00 0. -1.
         11    1    3    3    0    0 -0.10938108505E+02 -0.23013736374E+01  0.11951823232E+02  0.16364125919E+02  0.51100000000E-03 0. -1.
        -11    1    3    3    0    0  0.22563070845E+01 -0.37496248165E+01  0.29307340325E+01  0.52668596103E+01  0.51100000000E-03 0.  1.
        -12    1    3    3    0    0 -0.84456429138E+01 -0.18218836194E+02  0.16759963178E+02  0.26156284947E+02  0.00000000000E+00 0.  1.
</event>
<event>
 7    1  0.1384886E-010  0.4778726E+02  0.7816164E-02  0.1312668E+00
        -11   -1    0    0    0    0  0.00000000000E+00  0.00000000000E+00  0.45593999997E+02  0.45594000000E+02  0.51100000000E-03 0.  1.
         11   -1    0    0    0    0 -0.00000000000E+00 -0.00000000000E+00 -0.45593999997E+02  0.45594000000E+02  0.51100000000E-03 0. -1.
    9900012    2    1    2    0    0  0.11765088338E+02 -0.26954242374E+02  0.31916706346E+02  0.47787255426E+02  0.19999928790E+02 0.  0.
         12    1    1    2    0    0 -0.11765088338E+02  0.26954242374E+02 -0.31916706346E+02  0.43400744574E+02  0.00000000000E+00 0. -1.
         11    1    3    3    0    0  0.53462396319E+01 -0.11995434108E+02  0.47828936473E+01  0.13976723133E+02  0.51100000000E-03 0. -1.
        -11    1    3    3    0    0  0.97053341246E+01 -0.84558857439E+01  0.16727781733E+02  0.21107207208E+02  0.51100000000E-03 0.  1.
         12    1    3    3    0    0 -0.32864854187E+01 -0.65029225228E+01  0.10406030966E+02  0.12703325085E+02  0.00000000000E+00 0. -1.
</event>
<event>
 7    1  0.1384886E-010  0.4778727E+02  0.7816164E-02  0.1312668E+00
        -11   -1    0    0    0    0  0.00000000000E+00  0.00000000000E+00  0.45593999997E+02  0.45594000000E+02  0.51100000000E-03 0.  1.
         11   -1    0    0    0    0 -0.00000000000E+00 -0.00000000000E+00 -0.45593999997E+02  0.45594000000E+02  0.51100000000E-03 0. -1.
    9900012    2    1    2    0    0  0.18614276414E+02 -0.10925408796E+01  0.39191049018E+02  0.47787271261E+02  0.20000000985E+02 0.  0.
         12    1    1    2    0    0 -0.18614276414E+02  0.10925408796E+01 -0.39191049018E+02  0.43400728739E+02  0.00000000000E+00 0. -1.
         11    1    3    3    0    0 -0.15403864894E+01 -0.43856464059E+01  0.77166426101E+01  0.90085103301E+01  0.51100000000E-03 0. -1.
        -11    1    3    3    0    0  0.11914675220E+02  0.77726644897E+00  0.25892965097E+02  0.28513317424E+02  0.51100000000E-03 0.  1.
        -12    1    3    3    0    0  0.82399876832E+01  0.25158390773E+01  0.55814413108E+01  0.10265443507E+02  0.00000000000E+00 0.  1.
</event>
<event>
 7    1  0.1617369E-010  0.4778726E+02  0.7816164E-02  0.1312668E+00
        -11   -1    0    0    0    0  0.00000000000E+00  0.00000000000E+00  0.45593999997E+02  0.45594000000E+02  0.51100000000E-03 0.  1.
         11   -1    0    0    0    0 -0.00000000000E+00 -0.00000000000E+00 -0.45593999997E+02  0.45594000000E+02  0.51100000000E-03 0. -1.
    9900012    2    1    2    0    0 -0.15937246678E+02  0.40257945985E+02 -0.29876658227E+01  0.47787260448E+02  0.19999951687E+02 0.  0.
         12    1    1    2    0    0  0.15937246678E+02 -0.40257945985E+02  0.29876658227E+01  0.43400739552E+02  0.00000000000E+00 0. -1.
         11    1    3    3    0    0 -0.31418830468E+01  0.79031961661E+01 -0.65752704558E+01  0.10750168396E+02  0.51100000000E-03 0. -1.
        -11    1    3    3    0    0 -0.27395383285E+01  0.22645497209E+02  0.10829179678E+01  0.22836294045E+02  0.51100000000E-03 0.  1.
        -12    1    3    3    0    0 -0.10055825303E+02  0.97092526091E+01  0.25046866653E+01  0.14200798007E+02  0.00000000000E+00 0.  1.
</event>
<event>
 7    1  0.1384886E-010  0.4778727E+02  0.7816164E-02  0.1312668E+00
        -11   -1    0    0    0    0  0.00000000000E+00  0.00000000000E+00  0.45593999997E+02  0.45594000000E+02  0.51100000000E-03 0.  1.
         11   -1    0    0    0    0 -0.00000000000E+00 -0.00000000000E+00 -0.45593999997E+02  0.45594000000E+02  0.51100000000E-03 0. -1.
    9900012    2    1    2    0    0 -0.36048060317E+02 -0.22891450387E+02  0.77551198459E+01  0.47787273770E+02  0.20000012428E+02 0.  0.
         12    1    1    2    0    0  0.36048060317E+02  0.22891450387E+02 -0.77551198459E+01  0.43400726230E+02  0.00000000000E+00 0. -1.
         11    1    3    3    0    0 -0.22231816706E+02 -0.19941386879E+02  0.63495689971E+01  0.30532435400E+02  0.51100000000E-03 0. -1.
        -11    1    3    3    0    0 -0.10587358510E+02 -0.63080059216E+01  0.22292769921E+01  0.12524087795E+02  0.51100000000E-03 0.  1.
        -12    1    3    3    0    0 -0.32288851010E+01  0.33579424138E+01 -0.82372614329E+00  0.47307505756E+01  0.00000000000E+00 0.  1.
</event>
<event>
 7    1  0.1384886E-010  0.4778728E+02  0.7816164E-02  0.1312668E+00
        -11   -1    0    0    0    0  0.00000000000E+00  0.00000000000E+00  0.45593999997E+02  0.45594000000E+02  0.51100000000E-03 0.  1.
         11   -1    0    0    0    0 -0.00000000000E+00 -0.00000000000E+00 -0.45593999997E+02  0.45594000000E+02  0.51100000000E-03 0. -1.
    9900012    2    1    2    0    0 -0.22450042806E+02 -0.27990349399E+02  0.24416360799E+02  0.47787277009E+02  0.20000027193E+02 0.  0.
         12    1    1    2    0    0  0.22450042806E+02  0.27990349399E+02 -0.24416360799E+02  0.43400722991E+02  0.00000000000E+00 0. -1.
         11    1    3    3    0    0  0.19125551602E+01 -0.21367393837E+01 -0.15795576027E+00  0.28720154453E+01  0.51100000000E-03 0. -1.
        -11    1    3    3    0    0 -0.84979400266E+00 -0.66553310073E+01  0.75954090752E+01  0.10134387991E+02  0.51100000000E-03 0.  1.
         12    1    3    3    0    0 -0.23512803964E+02 -0.19198279008E+02  0.16978907484E+02  0.34780873573E+02  0.00000000000E+00 0. -1.
</event>
<event>
 7    1  0.1384886E-010  0.4778727E+02  0.7816164E-02  0.1312668E+00
        -11   -1    0    0    0    0  0.00000000000E+00  0.00000000000E+00  0.45593999997E+02  0.45594000000E+02  0.51100000000E-03 0.  1.
         11   -1    0    0    0    0 -0.00000000000E+00 -0.00000000000E+00 -0.45593999997E+02  0.45594000000E+02  0.51100000000E-03 0. -1.
    9900012    2    1    2    0    0 -0.28341328398E+02 -0.26576715753E+02  0.19340908868E+02  0.47787268769E+02  0.19999989624E+02 0.  0.
         12    1    1    2    0    0  0.28341328398E+02  0.26576715753E+02 -0.19340908868E+02  0.43400731231E+02  0.00000000000E+00 0. -1.
         11    1    3    3    0    0  0.67975983797E+00  0.88894007398E-01 -0.61274519669E+00  0.91947404479E+00  0.51100000000E-03 0. -1.
        -11    1    3    3    0    0 -0.26290089992E+02 -0.18536827840E+02  0.20711686966E+02  0.38259074680E+02  0.51100000000E-03 0.  1.
        -12    1    3    3    0    0 -0.27309982439E+01 -0.81287819199E+01 -0.75803290089E+00  0.86087200436E+01  0.00000000000E+00 0.  1.
</event>
<event>
 7    1  0.1384886E-010  0.4778727E+02  0.7816164E-02  0.1312668E+00
        -11   -1    0    0    0    0  0.00000000000E+00  0.00000000000E+00  0.45593999997E+02  0.45594000000E+02  0.51100000000E-03 0.  1.
         11   -1    0    0    0    0 -0.00000000000E+00 -0.00000000000E+00 -0.45593999997E+02  0.45594000000E+02  0.51100000000E-03 0. -1.
    9900012    2    1    2    0    0 -0.34707158859E+02  0.82406144437E+01  0.24721021048E+02  0.47787268622E+02  0.19999988955E+02 0.  0.
         12    1    1    2    0    0  0.34707158859E+02 -0.82406144437E+01 -0.24721021048E+02  0.43400731378E+02  0.00000000000E+00 0. -1.
         11    1    3    3    0    0 -0.67248535946E+01  0.56716334633E+01  0.61480280780E+01  0.10732629292E+02  0.51100000000E-03 0. -1.
        -11    1    3    3    0    0 -0.23743290836E+02 -0.31864320368E+01  0.10177602900E+02  0.26028461535E+02  0.51100000000E-03 0.  1.
        -12    1    3    3    0    0 -0.42390144285E+01  0.57554130172E+01  0.83953900702E+01  0.11026177794E+02  0.00000000000E+00 0.  1.
</event>
<event>
 7    1  0.1384886E-010  0.4778721E+02  0.7816164E-02  0.1312668E+00
        -11   -1    0    0    0    0  0.00000000000E+00  0.00000000000E+00  0.45593999997E+02  0.45594000000E+02  0.51100000000E-03 0.  1.
         11   -1    0    0    0    0 -0.00000000000E+00 -0.00000000000E+00 -0.45593999997E+02  0.45594000000E+02  0.51100000000E-03 0. -1.
    9900012    2    1    2    0    0  0.30989513055E+02  0.70620659000E+00  0.30377287808E+02  0.47787213582E+02  0.19999738005E+02 0.  0.
         12    1    1    2    0    0 -0.30989513055E+02 -0.70620659000E+00 -0.30377287808E+02  0.43400786418E+02  0.00000000000E+00 0. -1.
         11    1    3    3    0    0  0.20884591940E+01  0.39376599820E+01  0.30744263274E+01  0.54146953232E+01  0.51100000000E-03 0. -1.
        -11    1    3    3    0    0  0.21542648509E+01 -0.27702529621E+01  0.97876341715E+01  0.10397737324E+02  0.51100000000E-03 0.  1.
        -12    1    3    3    0    0  0.26746789010E+02 -0.46120042990E+00  0.17515227309E+02  0.31974780935E+02  0.00000000000E+00 0.  1.
</event>
<event>
 7    1  0.1384886E-010  0.4778727E+02  0.7816164E-02  0.1312668E+00
        -11   -1    0    0    0    0  0.00000000000E+00  0.00000000000E+00  0.45593999997E+02  0.45594000000E+02  0.51100000000E-03 0.  1.
         11   -1    0    0    0    0 -0.00000000000E+00 -0.00000000000E+00 -0.45593999997E+02  0.45594000000E+02  0.51100000000E-03 0. -1.
    9900012    2    1    2    0    0 -0.20208918592E+01  0.29506708438E+02  0.31763078677E+02  0.47787274040E+02  0.20000013660E+02 0.  0.
         12    1    1    2    0    0  0.20208918592E+01 -0.29506708438E+02 -0.31763078677E+02  0.43400725960E+02  0.00000000000E+00 0. -1.
         11    1    3    3    0    0  0.36660309641E+01  0.14019657426E+01 -0.41257711222E+00  0.39465822059E+01  0.51100000000E-03 0.  1.
        -11    1    3    3    0    0 -0.42974066431E+01  0.13191547693E+02  0.10088605578E+02  0.17154142274E+02  0.51100000000E-03 0. -1.
        -12    1    3    3    0    0 -0.13895161803E+01  0.14913195003E+02  0.22087050211E+02  0.26686549560E+02  0.00000000000E+00 0.  1.
</event>
<event>
 7    1  0.1384886E-010  0.4778727E+02  0.7816164E-02  0.1312668E+00
        -11   -1    0    0    0    0  0.00000000000E+00  0.00000000000E+00  0.45593999997E+02  0.45594000000E+02  0.51100000000E-03 0.  1.
         11   -1    0    0    0    0 -0.00000000000E+00 -0.00000000000E+00 -0.45593999997E+02  0.45594000000E+02  0.51100000000E-03 0. -1.
    9900012    2    1    2    0    0  0.19675031978E+02 -0.10137091527E+02  0.37333037243E+02  0.47787272152E+02  0.20000005049E+02 0.  0.
         12    1    1    2    0    0 -0.19675031978E+02  0.10137091527E+02 -0.37333037243E+02  0.43400727848E+02  0.00000000000E+00 0. -1.
         11    1    3    3    0    0  0.10971128640E+01  0.28940963673E+01  0.76145294270E+01  0.82195200027E+01  0.51100000000E-03 0. -1.
        -11    1    3    3    0    0  0.35762176735E+01 -0.96898459610E+01  0.85510204126E+01  0.13409041649E+02  0.51100000000E-03 0.  1.
        -12    1    3    3    0    0  0.15001701440E+02 -0.33413419330E+01  0.21167487404E+02  0.26158710500E+02  0.00000000000E+00 0.  1.
</event>
<event>
 7    1  0.1384886E-010  0.4778728E+02  0.7816164E-02  0.1312668E+00
        -11   -1    0    0    0    0  0.00000000000E+00  0.00000000000E+00  0.45593999997E+02  0.45594000000E+02  0.51100000000E-03 0.  1.
         11   -1    0    0    0    0 -0.00000000000E+00 -0.00000000000E+00 -0.45593999997E+02  0.45594000000E+02  0.51100000000E-03 0. -1.
    9900012    2    1    2    0    0 -0.26285638645E+02  0.10908118289E+02  0.32767370993E+02  0.47787280589E+02  0.20000043519E+02 0.  0.
         12    1    1    2    0    0  0.26285638645E+02 -0.10908118289E+02 -0.32767370993E+02  0.43400719411E+02  0.00000000000E+00 0. -1.
         11    1    3    3    0    0 -0.56636717744E+01  0.64259161163E+01  0.20685808954E+01  0.88118444769E+01  0.51100000000E-03 0. -1.
        -11    1    3    3    0    0 -0.77883953759E+01 -0.36622591135E+01  0.87122309213E+01  0.12246395887E+02  0.51100000000E-03 0.  1.
        -12    1    3    3    0    0 -0.12833571494E+02  0.81444612862E+01  0.21986559176E+02  0.26729040225E+02  0.00000000000E+00 0.  1.
</event>
<event>
 7    1  0.1384886E-010  0.4778727E+02  0.7816164E-02  0.1312668E+00
        -11   -1    0    0    0    0  0.00000000000E+00  0.00000000000E+00  0.45593999997E+02  0.45594000000E+02  0.51100000000E-03 0.  1.
         11   -1    0    0    0    0 -0.00000000000E+00 -0.00000000000E+00 -0.45593999997E+02  0.45594000000E+02  0.51100000000E-03 0. -1.
    9900012    2    1    2    0    0  0.28611681684E+02  0.20829724061E+02  0.25122053813E+02  0.47787270501E+02  0.19999997524E+02 0.  0.
         12    1    1    2    0    0 -0.28611681684E+02 -0.20829724061E+02 -0.25122053813E+02  0.43400729499E+02  0.00000000000E+00 0. -1.
         11    1    3    3    0    0  0.18188516320E+02  0.10770463810E+02  0.82049594122E+01  0.22674796048E+02  0.51100000000E-03 0. -1.
        -11    1    3    3    0    0 -0.77163136563E+00 -0.19704934936E+01  0.22031644108E+01  0.30548638685E+01  0.51100000000E-03 0.  1.
         12    1    3    3    0    0  0.11194796730E+02  0.12029753744E+02  0.14713929990E+02  0.22057610585E+02  0.00000000000E+00 0. -1.
</event>
<event>
 7    1  0.1384886E-010  0.4778727E+02  0.7816164E-02  0.1312668E+00
        -11   -1    0    0    0    0  0.00000000000E+00  0.00000000000E+00  0.45593999997E+02  0.45594000000E+02  0.51100000000E-03 0.  1.
         11   -1    0    0    0    0 -0.00000000000E+00 -0.00000000000E+00 -0.45593999997E+02  0.45594000000E+02  0.51100000000E-03 0. -1.
    9900012    2    1    2    0    0  0.18499216803E+02  0.22021816968E+02  0.32502949619E+02  0.47787272139E+02  0.20000004991E+02 0.  0.
         12    1    1    2    0    0 -0.18499216803E+02 -0.22021816968E+02 -0.32502949619E+02  0.43400727861E+02  0.00000000000E+00 0. -1.
         11    1    3    3    0    0 -0.13976647967E+01  0.93150229959E+00  0.10082272097E+02  0.10221221762E+02  0.51100000000E-03 0. -1.
        -11    1    3    3    0    0  0.96443803499E+01  0.11008525219E+02  0.16390262117E+02  0.21973674985E+02  0.51100000000E-03 0.  1.
         12    1    3    3    0    0  0.10252501250E+02  0.10081789450E+02  0.60304154053E+01  0.15592375392E+02  0.00000000000E+00 0. -1.
</event>
<event>
 7    1  0.1384886E-010  0.4778726E+02  0.7816164E-02  0.1312668E+00
        -11   -1    0    0    0    0  0.00000000000E+00  0.00000000000E+00  0.45593999997E+02  0.45594000000E+02  0.51100000000E-03 0.  1.
         11   -1    0    0    0    0 -0.00000000000E+00 -0.00000000000E+00 -0.45593999997E+02  0.45594000000E+02  0.51100000000E-03 0. -1.
    9900012    2    1    2    0    0 -0.12828505839E+02  0.36194217284E+02  0.20224537219E+02  0.47787264608E+02  0.19999970655E+02 0.  0.
         12    1    1    2    0    0  0.12828505839E+02 -0.36194217284E+02 -0.20224537219E+02  0.43400735392E+02  0.00000000000E+00 0. -1.
         11    1    3    3    0    0  0.11520815952E+01  0.24032865589E+00 -0.12658243464E+01  0.17283985079E+01  0.51100000000E-03 0. -1.
        -11    1    3    3    0    0  0.22480465761E+00  0.14423280154E+02  0.42678480639E+01  0.15043140460E+02  0.51100000000E-03 0.  1.
        -12    1    3    3    0    0 -0.14205392092E+02  0.21530608474E+02  0.17222513501E+02  0.31015725641E+02  0.00000000000E+00 0.  1.
</event>
<event>
 7    1  0.1384886E-010  0.4778727E+02  0.7816164E-02  0.1312668E+00
        -11   -1    0    0    0    0  0.00000000000E+00  0.00000000000E+00  0.45593999997E+02  0.45594000000E+02  0.51100000000E-03 0.  1.
         11   -1    0    0    0    0 -0.00000000000E+00 -0.00000000000E+00 -0.45593999997E+02  0.45594000000E+02  0.51100000000E-03 0. -1.
    9900012    2    1    2    0    0  0.19096445730E+02  0.18293432340E+02  0.34413648636E+02  0.47787272832E+02  0.20000008150E+02 0.  0.
         12    1    1    2    0    0 -0.19096445730E+02 -0.18293432340E+02 -0.34413648636E+02  0.43400727168E+02  0.00000000000E+00 0. -1.
         11    1    3    3    0    0  0.39366425257E+01  0.51214941213E-01  0.11027624895E+02  0.11709324849E+02  0.51100000000E-03 0. -1.
        -11    1    3    3    0    0  0.54218663275E+01 -0.12255169831E+01  0.33312470793E+01  0.64804115389E+01  0.51100000000E-03 0.  1.
        -12    1    3    3    0    0  0.97379368766E+01  0.19467734382E+02  0.20054776662E+02  0.29597536443E+02  0.00000000000E+00 0.  1.
</event>
<event>
 7    1  0.1384886E-010  0.4778727E+02  0.7816164E-02  0.1312668E+00
        -11   -1    0    0    0    0  0.00000000000E+00  0.00000000000E+00  0.45593999997E+02  0.45594000000E+02  0.51100000000E-03 0.  1.
         11   -1    0    0    0    0 -0.00000000000E+00 -0.00000000000E+00 -0.45593999997E+02  0.45594000000E+02  0.51100000000E-03 0. -1.
    9900012    2    1    2    0    0  0.13154733937E+02  0.51637885584E+01  0.41035487913E+02  0.47787274137E+02  0.20000014099E+02 0.  0.
         12    1    1    2    0    0 -0.13154733937E+02 -0.51637885584E+01 -0.41035487913E+02  0.43400725863E+02  0.00000000000E+00 0. -1.
         11    1    3    3    0    0  0.25679349717E+00  0.34743171724E+01  0.28586671335E+01  0.45065286814E+01  0.51100000000E-03 0. -1.
        -11    1    3    3    0    0  0.16527518480E+02  0.21571672204E+01  0.32534964100E+02  0.36555931486E+02  0.51100000000E-03 0.  1.
        -12    1    3    3    0    0 -0.36295780401E+01 -0.46769583448E+00  0.56418566790E+01  0.67248139699E+01  0.00000000000E+00 0.  1.
</event>
<event>
 7    1  0.1384886E-010  0.4778727E+02  0.7816164E-02  0.1312668E+00
        -11   -1    0    0    0    0  0.00000000000E+00  0.00000000000E+00  0.45593999997E+02  0.45594000000E+02  0.51100000000E-03 0. -1.
         11   -1    0    0    0    0 -0.00000000000E+00 -0.00000000000E+00 -0.45593999997E+02  0.45594000000E+02  0.51100000000E-03 0.  1.
    9900012    2    1    2    0    0 -0.32549442121E+02 -0.22280883465E+02 -0.18103022058E+02  0.47787270075E+02  0.19999995581E+02 0.  0.
         12    1    1    2    0    0  0.32549442121E+02  0.22280883465E+02  0.18103022058E+02  0.43400729925E+02  0.00000000000E+00 0. -1.
         11    1    3    3    0    0 -0.94684363571E+01 -0.76442166230E+01 -0.21911539144E+01  0.12364727679E+02  0.51100000000E-03 0. -1.
        -11    1    3    3    0    0 -0.10085195204E+02 -0.50516814587E+01 -0.15626059092E+02  0.19271854370E+02  0.51100000000E-03 0.  1.
        -12    1    3    3    0    0 -0.12995810560E+02 -0.95849853834E+01 -0.28580905146E+00  0.16150688026E+02  0.00000000000E+00 0.  1.
</event>
<event>
 7    1  0.1384886E-010  0.4778727E+02  0.7816164E-02  0.1312668E+00
        -11   -1    0    0    0    0  0.00000000000E+00  0.00000000000E+00  0.45593999997E+02  0.45594000000E+02  0.51100000000E-03 0.  1.
         11   -1    0    0    0    0 -0.00000000000E+00 -0.00000000000E+00 -0.45593999997E+02  0.45594000000E+02  0.51100000000E-03 0. -1.
    9900012    2    1    2    0    0  0.36096123894E+02  0.15871238395E+02  0.18132759244E+02  0.47787270443E+02  0.19999997256E+02 0.  0.
         12    1    1    2    0    0 -0.36096123894E+02 -0.15871238395E+02 -0.18132759244E+02  0.43400729557E+02  0.00000000000E+00 0. -1.
         11    1    3    3    0    0  0.88795761694E+00  0.92234528039E+00  0.31272101440E+01  0.33791467993E+01  0.51100000000E-03 0.  1.
        -11    1    3    3    0    0  0.10438191346E+02 -0.39100464978E-01 -0.22863223231E+01  0.10685721195E+02  0.51100000000E-03 0. -1.
         12    1    3    3    0    0  0.24769974931E+02  0.14987993580E+02  0.17291871423E+02  0.33722402449E+02  0.00000000000E+00 0. -1.
</event>
<event>
 7    1  0.1384886E-010  0.4778723E+02  0.7816164E-02  0.1312668E+00
        -11   -1    0    0    0    0  0.00000000000E+00  0.00000000000E+00  0.45593999997E+02  0.45594000000E+02  0.51100000000E-03 0. -1.
         11   -1    0    0    0    0 -0.00000000000E+00 -0.00000000000E+00 -0.45593999997E+02  0.45594000000E+02  0.51100000000E-03 0.  1.
    9900012    2    1    2    0    0  0.16833922752E+02  0.16786862282E+02 -0.36310430529E+02  0.47787227360E+02  0.19999800826E+02 0.  0.
         12    1    1    2    0    0 -0.16833922752E+02 -0.16786862282E+02  0.36310430529E+02  0.43400772640E+02  0.00000000000E+00 0. -1.
         11    1    3    3    0    0  0.41401767996E+01  0.13105569940E+02 -0.19906173731E+02  0.24189931382E+02  0.51100000000E-03 0. -1.
        -11    1    3    3    0    0  0.42571165250E+01  0.28451396104E+01  0.12853609677E-01  0.51203540880E+01  0.51100000000E-03 0.  1.
         12    1    3    3    0    0  0.84366294271E+01  0.83615273190E+00 -0.16417110408E+02  0.18476941891E+02  0.00000000000E+00 0. -1.
</event>
<event>
 7    1  0.1384886E-010  0.4778726E+02  0.7816164E-02  0.1312668E+00
        -11   -1    0    0    0    0  0.00000000000E+00  0.00000000000E+00  0.45593999997E+02  0.45594000000E+02  0.51100000000E-03 0. -1.
         11   -1    0    0    0    0 -0.00000000000E+00 -0.00000000000E+00 -0.45593999997E+02  0.45594000000E+02  0.51100000000E-03 0.  1.
    9900012    2    1    2    0    0  0.34212510336E+02  0.39843470764E+01 -0.26405557948E+02  0.47787258351E+02  0.19999942127E+02 0.  0.
         12    1    1    2    0    0 -0.34212510336E+02 -0.39843470764E+01  0.26405557948E+02  0.43400741649E+02  0.00000000000E+00 0. -1.
         11    1    3    3    0    0  0.60298633853E+01 -0.38552284244E+01 -0.44570284554E+01  0.84313190880E+01  0.51100000000E-03 0. -1.
        -11    1    3    3    0    0  0.27896758254E+02  0.61096813983E+01 -0.15135483468E+02  0.32320893984E+02  0.51100000000E-03 0.  1.
         12    1    3    3    0    0  0.28588869713E+00  0.17298941025E+01 -0.68130460244E+01  0.70350452794E+01  0.00000000000E+00 0. -1.
</event>
<event>
 7    1  0.1384886E-010  0.4778727E+02  0.7816164E-02  0.1312668E+00
        -11   -1    0    0    0    0  0.00000000000E+00  0.00000000000E+00  0.45593999997E+02  0.45594000000E+02  0.51100000000E-03 0.  1.
         11   -1    0    0    0    0 -0.00000000000E+00 -0.00000000000E+00 -0.45593999997E+02  0.45594000000E+02  0.51100000000E-03 0. -1.
    9900012    2    1    2    0    0 -0.23722268538E+02 -0.11928247968E+02  0.34330660794E+02  0.47787269652E+02  0.19999993653E+02 0.  0.
         12    1    1    2    0    0  0.23722268538E+02  0.11928247968E+02 -0.34330660794E+02  0.43400730348E+02  0.00000000000E+00 0. -1.
         11    1    3    3    0    0 -0.36432679488E+01 -0.33216075387E+01 -0.84901483898E+00  0.50027296995E+01  0.51100000000E-03 0. -1.
        -11    1    3    3    0    0 -0.75564402650E+01  0.20141122814E+01  0.13301155976E+02  0.15429750105E+02  0.51100000000E-03 0.  1.
         12    1    3    3    0    0 -0.12522560324E+02 -0.10620752711E+02  0.21878519657E+02  0.27354789848E+02  0.00000000000E+00 0. -1.
</event>
<event>
 7    1  0.1384886E-010  0.4778728E+02  0.7816164E-02  0.1312668E+00
        -11   -1    0    0    0    0  0.00000000000E+00  0.00000000000E+00  0.45593999997E+02  0.45594000000E+02  0.51100000000E-03 0. -1.
         11   -1    0    0    0    0 -0.00000000000E+00 -0.00000000000E+00 -0.45593999997E+02  0.45594000000E+02  0.51100000000E-03 0.  1.
    9900012    2    1    2    0    0 -0.42374148012E+02  0.36757540985E+01 -0.86338441775E+01  0.47787275891E+02  0.20000022095E+02 0.  0.
         12    1    1    2    0    0  0.42374148012E+02 -0.36757540985E+01  0.86338441775E+01  0.43400724109E+02  0.00000000000E+00 0. -1.
         11    1    3    3    0    0 -0.90272805660E+01  0.19277514701E+01  0.35031805662E+01  0.98732109513E+01  0.51100000000E-03 0. -1.
        -11    1    3    3    0    0 -0.14398590260E+01  0.30070041221E+01  0.85265608823E+00  0.34412629181E+01  0.51100000000E-03 0.  1.
        -12    1    3    3    0    0 -0.31907008420E+02 -0.12590014937E+01 -0.12989680832E+02  0.34472802021E+02  0.00000000000E+00 0.  1.
</event>
<event>
 7    1  0.2080554E-010  0.4778727E+02  0.7816164E-02  0.1312668E+00
        -11   -1    0    0    0    0  0.00000000000E+00  0.00000000000E+00  0.45593999997E+02  0.45594000000E+02  0.51100000000E-03 0. -1.
         11   -1    0    0    0    0 -0.00000000000E+00 -0.00000000000E+00 -0.45593999997E+02  0.45594000000E+02  0.51100000000E-03 0.  1.
    9900012    2    1    2    0    0  0.36329899893E+01 -0.85540150510E+01 -0.42394027262E+02  0.47787270314E+02  0.19999996672E+02 0.  0.
         12    1    1    2    0    0 -0.36329899893E+01  0.85540150510E+01  0.42394027262E+02  0.43400729686E+02  0.00000000000E+00 0. -1.
         11    1    3    3    0    0 -0.21357178639E+01  0.16784447424E+01 -0.56362512997E+01  0.62566601731E+01  0.51100000000E-03 0. -1.
        -11    1    3    3    0    0  0.35040540416E+01 -0.12498390455E+02 -0.35957364660E+02  0.38228526420E+02  0.51100000000E-03 0.  1.
        -12    1    3    3    0    0  0.22646538116E+01  0.22659306617E+01 -0.80041130209E+00  0.33020837213E+01  0.00000000000E+00 0.  1.
</event>
<event>
 7    1  0.1384886E-010  0.4778727E+02  0.7816164E-02  0.1312668E+00
        -11   -1    0    0    0    0  0.00000000000E+00  0.00000000000E+00  0.45593999997E+02  0.45594000000E+02  0.51100000000E-03 0.  1.
         11   -1    0    0    0    0 -0.00000000000E+00 -0.00000000000E+00 -0.45593999997E+02  0.45594000000E+02  0.51100000000E-03 0. -1.
    9900012    2    1    2    0    0 -0.38126344616E+01  0.28374714662E+02  0.32618441833E+02  0.47787270037E+02  0.19999995406E+02 0.  0.
         12    1    1    2    0    0  0.38126344616E+01 -0.28374714662E+02 -0.32618441833E+02  0.43400729963E+02  0.00000000000E+00 0. -1.
         11    1    3    3    0    0 -0.13268258822E+01  0.48928074871E+01  0.10111912647E+02  0.11311534364E+02  0.51100000000E-03 0. -1.
        -11    1    3    3    0    0  0.18141375293E+01  0.21017568103E+02  0.23328126901E+02  0.31452039185E+02  0.51100000000E-03 0.  1.
         12    1    3    3    0    0 -0.42999461087E+01  0.24643390721E+01 -0.82159771395E+00  0.50236964880E+01  0.00000000000E+00 0. -1.
</event>
<event>
 7    1  0.1384886E-010  0.4778727E+02  0.7816164E-02  0.1312668E+00
        -11   -1    0    0    0    0  0.00000000000E+00  0.00000000000E+00  0.45593999997E+02  0.45594000000E+02  0.51100000000E-03 0.  1.
         11   -1    0    0    0    0 -0.00000000000E+00 -0.00000000000E+00 -0.45593999997E+02  0.45594000000E+02  0.51100000000E-03 0. -1.
    9900012    2    1    2    0    0 -0.18293386411E+02 -0.26435714525E+01  0.39268143910E+02  0.47787267489E+02  0.19999983788E+02 0.  0.
         12    1    1    2    0    0  0.18293386411E+02  0.26435714525E+01 -0.39268143910E+02  0.43400732511E+02  0.00000000000E+00 0. -1.
         11    1    3    3    0    0 -0.11326785918E+00  0.31304234581E+01  0.13562054068E+00  0.31354064851E+01  0.51100000000E-03 0. -1.
        -11    1    3    3    0    0 -0.12783421399E+02 -0.36907490202E+01  0.16012745733E+02  0.20819354389E+02  0.51100000000E-03 0.  1.
        -12    1    3    3    0    0 -0.53966971527E+01 -0.20832458904E+01  0.23119777636E+02  0.23832506614E+02  0.00000000000E+00 0.  1.
</event>
<event>
 7    1  0.1384886E-010  0.4778728E+02  0.7816164E-02  0.1312668E+00
        -11   -1    0    0    0    0  0.00000000000E+00  0.00000000000E+00  0.45593999997E+02  0.45594000000E+02  0.51100000000E-03 0.  1.
         11   -1    0    0    0    0 -0.00000000000E+00 -0.00000000000E+00 -0.45593999997E+02  0.45594000000E+02  0.51100000000E-03 0. -1.
    9900012    2    1    2    0    0  0.60153072607E+01  0.23833271975E+02  0.35768898261E+02  0.47787275843E+02  0.20000021881E+02 0.  0.
         12    1    1    2    0    0 -0.60153072607E+01 -0.23833271975E+02 -0.35768898261E+02  0.43400724157E+02  0.00000000000E+00 0. -1.
         11    1    3    3    0    0  0.67121808763E+01  0.26170006128E+01  0.16439274987E+02  0.17948588431E+02  0.51100000000E-03 0. -1.
        -11    1    3    3    0    0  0.15900018558E+01  0.13838661978E+02  0.16545154993E+02  0.21628195145E+02  0.51100000000E-03 0.  1.
         12    1    3    3    0    0 -0.22868754714E+01  0.73776093849E+01  0.27844682815E+01  0.82104922671E+01  0.00000000000E+00 0. -1.
</event>
<event>
 7    1  0.1384886E-010  0.4778726E+02  0.7816164E-02  0.1312668E+00
        -11   -1    0    0    0    0  0.00000000000E+00  0.00000000000E+00  0.45593999997E+02  0.45594000000E+02  0.51100000000E-03 0.  1.
         11   -1    0    0    0    0 -0.00000000000E+00 -0.00000000000E+00 -0.45593999997E+02  0.45594000000E+02  0.51100000000E-03 0. -1.
    9900012    2    1    2    0    0  0.32000753966E+02 -0.25262666063E+02  0.14878618308E+02  0.47787264594E+02  0.19999970590E+02 0.  0.
         12    1    1    2    0    0 -0.32000753966E+02  0.25262666063E+02 -0.14878618308E+02  0.43400735406E+02  0.00000000000E+00 0. -1.
         11    1    3    3    0    0  0.64723456446E+01  0.33399992497E+00  0.38865765294E+01  0.75570028102E+01  0.51100000000E-03 0. -1.
        -11    1    3    3    0    0  0.24147981365E+02 -0.24937838812E+02  0.13538229650E+02  0.37259958011E+02  0.51100000000E-03 0.  1.
        -12    1    3    3    0    0  0.13804269567E+01 -0.65882717533E+00 -0.25461878712E+01  0.29703037732E+01  0.00000000000E+00 0.  1.
</event>
<event>
 7    1  0.1384886E-010  0.4778727E+02  0.7816164E-02  0.1312668E+00
        -11   -1    0    0    0    0  0.00000000000E+00  0.00000000000E+00  0.45593999997E+02  0.45594000000E+02  0.51100000000E-03 0.  1.
         11   -1    0    0    0    0 -0.00000000000E+00 -0.00000000000E+00 -0.45593999997E+02  0.45594000000E+02  0.51100000000E-03 0. -1.
    9900012    2    1    2    0    0  0.36805740620E+02 -0.27813377635E+01  0.22830353564E+02  0.47787269289E+02  0.19999991998E+02 0.  0.
         12    1    1    2    0    0 -0.36805740620E+02  0.27813377635E+01 -0.22830353564E+02  0.43400730711E+02  0.00000000000E+00 0. -1.
         11    1    3    3    0    0  0.31199408651E+01 -0.73499087692E+00 -0.13712828745E+01  0.34863533347E+01  0.51100000000E-03 0. -1.
        -11    1    3    3    0    0  0.21381603134E+02 -0.18748386494E+01  0.23715199262E+02  0.31985913287E+02  0.51100000000E-03 0.  1.
        -12    1    3    3    0    0  0.12304196621E+02 -0.17150823715E+00  0.48643717682E+00  0.12315002667E+02  0.00000000000E+00 0.  1.
</event>
<event>
 7    1  0.1384886E-010  0.4778727E+02  0.7816164E-02  0.1312668E+00
        -11   -1    0    0    0    0  0.00000000000E+00  0.00000000000E+00  0.45593999997E+02  0.45594000000E+02  0.51100000000E-03 0.  1.
         11   -1    0    0    0    0 -0.00000000000E+00 -0.00000000000E+00 -0.45593999997E+02  0.45594000000E+02  0.51100000000E-03 0. -1.
    9900012    2    1    2    0    0  0.28935268012E+02  0.16586061572E+02  0.27771855719E+02  0.47787272547E+02  0.20000006850E+02 0.  0.
         12    1    1    2    0    0 -0.28935268012E+02 -0.16586061572E+02 -0.27771855719E+02  0.43400727453E+02  0.00000000000E+00 0. -1.
         11    1    3    3    0    0  0.15468631654E+02  0.13119525540E+02  0.19216690886E+02  0.27940682248E+02  0.51100000000E-03 0. -1.
        -11    1    3    3    0    0  0.90675541027E+01  0.62265970945E+01  0.95405607810E+01  0.14560678180E+02  0.51100000000E-03 0.  1.
         12    1    3    3    0    0  0.43990822553E+01 -0.27600610626E+01 -0.98539594728E+00  0.52859121191E+01  0.00000000000E+00 0. -1.
</event>
<event>
 7    1  0.1384886E-010  0.4778729E+02  0.7816164E-02  0.1312668E+00
        -11   -1    0    0    0    0  0.00000000000E+00  0.00000000000E+00  0.45593999997E+02  0.45594000000E+02  0.51100000000E-03 0. -1.
         11   -1    0    0    0    0 -0.00000000000E+00 -0.00000000000E+00 -0.45593999997E+02  0.45594000000E+02  0.51100000000E-03 0.  1.
    9900012    2    1    2    0    0  0.18301096458E+02 -0.37537860793E+02 -0.11815284039E+02  0.47787285013E+02  0.20000063689E+02 0.  0.
         12    1    1    2    0    0 -0.18301096458E+02  0.37537860793E+02  0.11815284039E+02  0.43400714987E+02  0.00000000000E+00 0. -1.
         11    1    3    3    0    0  0.17016076564E+01 -0.17393966879E+02 -0.89491754570E+01  0.19635001758E+02  0.51100000000E-03 0. -1.
        -11    1    3    3    0    0  0.43946892993E+01 -0.10570006107E+02  0.25396170626E+01  0.11725526778E+02  0.51100000000E-03 0.  1.
         12    1    3    3    0    0  0.12204799502E+02 -0.95738878067E+01 -0.54057256442E+01  0.16426756477E+02  0.00000000000E+00 0. -1.
</event>
<event>
 7    1  0.1384886E-010  0.4778728E+02  0.7816164E-02  0.1312668E+00
        -11   -1    0    0    0    0  0.00000000000E+00  0.00000000000E+00  0.45593999997E+02  0.45594000000E+02  0.51100000000E-03 0. -1.
         11   -1    0    0    0    0 -0.00000000000E+00 -0.00000000000E+00 -0.45593999997E+02  0.45594000000E+02  0.51100000000E-03 0.  1.
    9900012    2    1    2    0    0  0.35074196137E+02 -0.40616808768E+01 -0.25237397055E+02  0.47787277699E+02  0.20000030339E+02 0.  0.
         12    1    1    2    0    0 -0.35074196137E+02  0.40616808768E+01  0.25237397055E+02  0.43400722301E+02  0.00000000000E+00 0. -1.
         11    1    3    3    0    0  0.10390610584E+02 -0.73727546135E+00 -0.82859074215E+00  0.10449637615E+02  0.51100000000E-03 0. -1.
        -11    1    3    3    0    0  0.21018302387E+02 -0.77750877414E+01 -0.20497222288E+02  0.30370333327E+02  0.51100000000E-03 0.  1.
         12    1    3    3    0    0  0.36652831659E+01  0.44506823259E+01 -0.39115840250E+01  0.69673067563E+01  0.00000000000E+00 0. -1.
</event>
<event>
 7    1  0.1384886E-010  0.4778727E+02  0.7816164E-02  0.1312668E+00
        -11   -1    0    0    0    0  0.00000000000E+00  0.00000000000E+00  0.45593999997E+02  0.45594000000E+02  0.51100000000E-03 0.  1.
         11   -1    0    0    0    0 -0.00000000000E+00 -0.00000000000E+00 -0.45593999997E+02  0.45594000000E+02  0.51100000000E-03 0. -1.
    9900012    2    1    2    0    0 -0.11154173805E+02 -0.35976785888E+02  0.21561044860E+02  0.47787269919E+02  0.19999994867E+02 0.  0.
         12    1    1    2    0    0  0.11154173805E+02  0.35976785888E+02 -0.21561044860E+02  0.43400730081E+02  0.00000000000E+00 0. -1.
         11    1    3    3    0    0 -0.40766588779E+01 -0.11612144128E+02  0.12128923058E+01  0.12366573772E+02  0.51100000000E-03 0. -1.
        -11    1    3    3    0    0 -0.75029494568E+01 -0.79433877254E+01  0.14117365424E+02  0.17851937315E+02  0.51100000000E-03 0.  1.
         12    1    3    3    0    0  0.42543452941E+00 -0.16421254035E+02  0.62307871300E+01  0.17568758831E+02  0.00000000000E+00 0. -1.
</event>
<event>
 7    1  0.1384886E-010  0.4778727E+02  0.7816164E-02  0.1312668E+00
        -11   -1    0    0    0    0  0.00000000000E+00  0.00000000000E+00  0.45593999997E+02  0.45594000000E+02  0.51100000000E-03 0.  1.
         11   -1    0    0    0    0 -0.00000000000E+00 -0.00000000000E+00 -0.45593999997E+02  0.45594000000E+02  0.51100000000E-03 0. -1.
    9900012    2    1    2    0    0  0.26808919641E+02  0.18043995062E+02  0.28971008393E+02  0.47787271234E+02  0.20000000866E+02 0.  0.
         12    1    1    2    0    0 -0.26808919641E+02 -0.18043995062E+02 -0.28971008393E+02  0.43400728766E+02  0.00000000000E+00 0. -1.
         11    1    3    3    0    0  0.44987998417E+01  0.21972146364E+01 -0.69380173083E+00  0.50545339327E+01  0.51100000000E-03 0.  1.
        -11    1    3    3    0    0 -0.13655167188E+01  0.23151672040E+01  0.37554858681E+00  0.27139771727E+01  0.51100000000E-03 0. -1.
        -12    1    3    3    0    0  0.23675636518E+02  0.13531613221E+02  0.29289261537E+02  0.40018760129E+02  0.00000000000E+00 0.  1.
</event>
<event>
 7    1  0.1384886E-010  0.4778728E+02  0.7816164E-02  0.1312668E+00
        -11   -1    0    0    0    0  0.00000000000E+00  0.00000000000E+00  0.45593999997E+02  0.45594000000E+02  0.51100000000E-03 0. -1.
         11   -1    0    0    0    0 -0.00000000000E+00 -0.00000000000E+00 -0.45593999997E+02  0.45594000000E+02  0.51100000000E-03 0.  1.
    9900012    2    1    2    0    0 -0.37875201015E+02  0.20287383995E+02 -0.61248645133E+01  0.47787276888E+02  0.20000026643E+02 0.  0.
         12    1    1    2    0    0  0.37875201015E+02 -0.20287383995E+02  0.61248645133E+01  0.43400723112E+02  0.00000000000E+00 0. -1.
         11    1    3    3    0    0 -0.36017023505E+02  0.17723995521E+02 -0.57043522227E+01  0.40545106165E+02  0.51100000000E-03 0.  1.
        -11    1    3    3    0    0 -0.27052691866E+01 -0.11815453592E+01  0.10463118328E+01  0.31319801277E+01  0.51100000000E-03 0. -1.
         12    1    3    3    0    0  0.84709167585E+00  0.37449338330E+01 -0.14668241234E+01  0.41101905954E+01  0.00000000000E+00 0. -1.
</event>
<event>
 7    1  0.1384886E-010  0.4778727E+02  0.7816164E-02  0.1312668E+00
        -11   -1    0    0    0    0  0.00000000000E+00  0.00000000000E+00  0.45593999997E+02  0.45594000000E+02  0.51100000000E-03 0. -1.
         11   -1    0    0    0    0 -0.00000000000E+00 -0.00000000000E+00 -0.45593999997E+02  0.45594000000E+02  0.51100000000E-03 0.  1.
    9900012    2    1    2    0    0 -0.79516042056E+01 -0.27764222230E+02 -0.32396652978E+02  0.47787272245E+02  0.20000005474E+02 0.  0.
         12    1    1    2    0    0  0.79516042056E+01  0.27764222230E+02  0.32396652978E+02  0.43400727755E+02  0.00000000000E+00 0. -1.
         11    1    3    3    0    0 -0.30727941090E+01 -0.11116060718E+02 -0.40655198956E+01  0.12228545368E+02  0.51100000000E-03 0. -1.
        -11    1    3    3    0    0  0.42455117481E+01 -0.70248308104E+01 -0.11572812666E+02  0.14188115138E+02  0.51100000000E-03 0.  1.
         12    1    3    3    0    0 -0.91243218447E+01 -0.96233307014E+01 -0.16758320417E+02  0.21370611739E+02  0.00000000000E+00 0. -1.
</event>
<event>
 7    1  0.1384886E-010  0.4778727E+02  0.7816164E-02  0.1312668E+00
        -11   -1    0    0    0    0  0.00000000000E+00  0.00000000000E+00  0.45593999997E+02  0.45594000000E+02  0.51100000000E-03 0. -1.
         11   -1    0    0    0    0 -0.00000000000E+00 -0.00000000000E+00 -0.45593999997E+02  0.45594000000E+02  0.51100000000E-03 0.  1.
    9900012    2    1    2    0    0 -0.82008521808E+01  0.32949175855E+02 -0.27031855364E+02  0.47787269932E+02  0.19999994927E+02 0.  0.
         12    1    1    2    0    0  0.82008521808E+01 -0.32949175855E+02  0.27031855364E+02  0.43400730068E+02  0.00000000000E+00 0. -1.
         11    1    3    3    0    0 -0.64339350306E+01  0.56794609709E+01 -0.14110568043E+02  0.16515445124E+02  0.51100000000E-03 0. -1.
        -11    1    3    3    0    0  0.22174383411E+01  0.11175717947E+02 -0.81846994742E+01  0.14028649621E+02  0.51100000000E-03 0.  1.
        -12    1    3    3    0    0 -0.39843554913E+01  0.16093996937E+02 -0.47365878468E+01  0.17243175187E+02  0.00000000000E+00 0.  1.
</event>
<event>
 7    1  0.1384886E-010  0.4778727E+02  0.7816164E-02  0.1312668E+00
        -11   -1    0    0    0    0  0.00000000000E+00  0.00000000000E+00  0.45593999997E+02  0.45594000000E+02  0.51100000000E-03 0.  1.
         11   -1    0    0    0    0 -0.00000000000E+00 -0.00000000000E+00 -0.45593999997E+02  0.45594000000E+02  0.51100000000E-03 0. -1.
    9900012    2    1    2    0    0 -0.24471583920E+02 -0.14103325450E+02  0.32952405978E+02  0.47787271112E+02  0.20000000307E+02 0.  0.
         12    1    1    2    0    0  0.24471583920E+02  0.14103325450E+02 -0.32952405978E+02  0.43400728888E+02  0.00000000000E+00 0. -1.
         11    1    3    3    0    0 -0.42150724636E+01  0.11684876907E+01  0.67614523220E+00  0.44259882504E+01  0.51100000000E-03 0. -1.
        -11    1    3    3    0    0 -0.40612760318E+01  0.23228929531E+01  0.29921232168E+01  0.55536111030E+01  0.51100000000E-03 0.  1.
        -12    1    3    3    0    0 -0.16195235425E+02 -0.17594706094E+02  0.29284137529E+02  0.37807671758E+02  0.00000000000E+00 0.  1.
</event>
<event>
 7    1  0.1384886E-010  0.4778728E+02  0.7816164E-02  0.1312668E+00
        -11   -1    0    0    0    0  0.00000000000E+00  0.00000000000E+00  0.45593999997E+02  0.45594000000E+02  0.51100000000E-03 0.  1.
         11   -1    0    0    0    0 -0.00000000000E+00 -0.00000000000E+00 -0.45593999997E+02  0.45594000000E+02  0.51100000000E-03 0. -1.
    9900012    2    1    2    0    0  0.34863242305E+02  0.12188180384E+02  0.22795291605E+02  0.47787277374E+02  0.20000028859E+02 0.  0.
         12    1    1    2    0    0 -0.34863242305E+02 -0.12188180384E+02 -0.22795291605E+02  0.43400722626E+02  0.00000000000E+00 0. -1.
         11    1    3    3    0    0  0.89535350667E+01 -0.35502162585E+01  0.55491956225E+01  0.11115907430E+02  0.51100000000E-03 0. -1.
        -11    1    3    3    0    0  0.48608447532E+01 -0.88714017113E+00  0.31345236794E+00  0.49510687782E+01  0.51100000000E-03 0.  1.
        -12    1    3    3    0    0  0.21048862485E+02  0.16625536814E+02  0.16932643615E+02  0.31720301166E+02  0.00000000000E+00 0.  1.
</event>
<event>
 7    1  0.1384886E-010  0.4778727E+02  0.7816164E-02  0.1312668E+00
        -11   -1    0    0    0    0  0.00000000000E+00  0.00000000000E+00  0.45593999997E+02  0.45594000000E+02  0.51100000000E-03 0.  1.
         11   -1    0    0    0    0 -0.00000000000E+00 -0.00000000000E+00 -0.45593999997E+02  0.45594000000E+02  0.51100000000E-03 0. -1.
    9900012    2    1    2    0    0  0.86459429814E+01 -0.42518082290E+02  0.10408286390E+01  0.47787274477E+02  0.20000015653E+02 0.  0.
         12    1    1    2    0    0 -0.86459429814E+01  0.42518082290E+02 -0.10408286390E+01  0.43400725523E+02  0.00000000000E+00 0. -1.
         11    1    3    3    0    0  0.91915966911E+00  0.10759345228E+01 -0.31150778090E+00  0.14489744488E+01  0.51100000000E-03 0. -1.
        -11    1    3    3    0    0  0.62663492752E+01 -0.60782214214E+01  0.10500948935E+01  0.87928725928E+01  0.51100000000E-03 0.  1.
        -12    1    3    3    0    0  0.14604340370E+01 -0.37515795391E+02  0.30224152641E+00  0.37545427436E+02  0.00000000000E+00 0.  1.
</event>
<event>
 7    1  0.1703489E-010  0.4778727E+02  0.7816164E-02  0.1312668E+00
        -11   -1    0    0    0    0  0.00000000000E+00  0.00000000000E+00  0.45593999997E+02  0.45594000000E+02  0.51100000000E-03 0.  1.
         11   -1    0    0    0    0 -0.00000000000E+00 -0.00000000000E+00 -0.45593999997E+02  0.45594000000E+02  0.51100000000E-03 0. -1.
    9900012    2    1    2    0    0  0.24902588918E+02  0.32257555751E+02  0.14930988426E+02  0.47787271282E+02  0.20000001084E+02 0.  0.
         12    1    1    2    0    0 -0.24902588918E+02 -0.32257555751E+02 -0.14930988426E+02  0.43400728718E+02  0.00000000000E+00 0. -1.
         11    1    3    3    0    0  0.37654247099E+01  0.24532090545E+01 -0.15411679245E+01  0.47509848183E+01  0.51100000000E-03 0. -1.
        -11    1    3    3    0    0  0.66177018974E+01  0.18739009231E+02  0.14651718549E+02  0.24690429362E+02  0.51100000000E-03 0.  1.
        -12    1    3    3    0    0  0.14519462311E+02  0.11065337466E+02  0.18204378015E+01  0.18345857102E+02  0.00000000000E+00 0.  1.
</event>
<event>
 7    1  0.1384886E-010  0.4778727E+02  0.7816164E-02  0.1312668E+00
        -11   -1    0    0    0    0  0.00000000000E+00  0.00000000000E+00  0.45593999997E+02  0.45594000000E+02  0.51100000000E-03 0.  1.
         11   -1    0    0    0    0 -0.00000000000E+00 -0.00000000000E+00 -0.45593999997E+02  0.45594000000E+02  0.51100000000E-03 0. -1.
    9900012    2    1    2    0    0 -0.41403804578E+02  0.41514807067E+01  0.12333425923E+02  0.47787271658E+02  0.20000002798E+02 0.  0.
         12    1    1    2    0    0  0.41403804578E+02 -0.41514807067E+01 -0.12333425923E+02  0.43400728342E+02  0.00000000000E+00 0. -1.
         11    1    3    3    0    0 -0.54021073375E+01  0.17660599719E+01  0.50919474909E+01  0.76308361941E+01  0.51100000000E-03 0. -1.
        -11    1    3    3    0    0 -0.22861266988E+02  0.15097265656E+01 -0.34807704118E+01  0.23173963095E+02  0.51100000000E-03 0.  1.
         12    1    3    3    0    0 -0.13140430253E+02  0.87569416924E+00  0.10722248844E+02  0.16982472369E+02  0.00000000000E+00 0. -1.
</event>
<event>
 7    1  0.1384886E-010  0.4778727E+02  0.7816164E-02  0.1312668E+00
        -11   -1    0    0    0    0  0.00000000000E+00  0.00000000000E+00  0.45593999997E+02  0.45594000000E+02  0.51100000000E-03 0.  1.
         11   -1    0    0    0    0 -0.00000000000E+00 -0.00000000000E+00 -0.45593999997E+02  0.45594000000E+02  0.51100000000E-03 0. -1.
    9900012    2    1    2    0    0  0.21342586254E+02 -0.30337328580E+02  0.22533609167E+02  0.47787273791E+02  0.20000012521E+02 0.  0.
         12    1    1    2    0    0 -0.21342586254E+02  0.30337328580E+02 -0.22533609167E+02  0.43400726209E+02  0.00000000000E+00 0. -1.
         11    1    3    3    0    0 -0.15876078577E+01 -0.67372082875E+01  0.52338493881E+01  0.86777677947E+01  0.51100000000E-03 0. -1.
        -11    1    3    3    0    0  0.10236101058E+02 -0.94818453883E+01  0.14135105079E+02  0.19861630162E+02  0.51100000000E-03 0.  1.
        -12    1    3    3    0    0  0.12694093054E+02 -0.14118274905E+02  0.31646546997E+01  0.19247875834E+02  0.00000000000E+00 0.  1.
</event>
<event>
 7    1  0.1384886E-010  0.4778727E+02  0.7816164E-02  0.1312668E+00
        -11   -1    0    0    0    0  0.00000000000E+00  0.00000000000E+00  0.45593999997E+02  0.45594000000E+02  0.51100000000E-03 0.  1.
         11   -1    0    0    0    0 -0.00000000000E+00 -0.00000000000E+00 -0.45593999997E+02  0.45594000000E+02  0.51100000000E-03 0. -1.
    9900012    2    1    2    0    0  0.84901363867E+01 -0.30200520790E+02  0.29991155759E+02  0.47787270794E+02  0.19999998859E+02 0.  0.
         12    1    1    2    0    0 -0.84901363867E+01  0.30200520790E+02 -0.29991155759E+02  0.43400729206E+02  0.00000000000E+00 0. -1.
         11    1    3    3    0    0 -0.34482762136E+01 -0.13910678239E+02  0.10607368884E+02  0.17830138889E+02  0.51100000000E-03 0. -1.
        -11    1    3    3    0    0  0.22445248594E+01  0.13738349507E+01  0.15807608114E+01  0.30698728508E+01  0.51100000000E-03 0.  1.
        -12    1    3    3    0    0  0.96938877409E+01 -0.17663677502E+02  0.17803026064E+02  0.26887259054E+02  0.00000000000E+00 0.  1.
</event>
<event>
 7    1  0.1384886E-010  0.4778727E+02  0.7816164E-02  0.1312668E+00
        -11   -1    0    0    0    0  0.00000000000E+00  0.00000000000E+00  0.45593999997E+02  0.45594000000E+02  0.51100000000E-03 0.  1.
         11   -1    0    0    0    0 -0.00000000000E+00 -0.00000000000E+00 -0.45593999997E+02  0.45594000000E+02  0.51100000000E-03 0. -1.
    9900012    2    1    2    0    0  0.98133518035E+01 -0.41521733458E+02 -0.79540474760E+01  0.47787273114E+02  0.20000009435E+02 0.  0.
         12    1    1    2    0    0 -0.98133518035E+01  0.41521733458E+02  0.79540474760E+01  0.43400726886E+02  0.00000000000E+00 0. -1.
         11    1    3    3    0    0 -0.26857241938E+01 -0.86522559221E+01 -0.23143143669E+01  0.93504383981E+01  0.51100000000E-03 0. -1.
        -11    1    3    3    0    0  0.15226050996E+01 -0.22529865623E+02 -0.78406497337E+00  0.22594865112E+02  0.51100000000E-03 0.  1.
        -12    1    3    3    0    0  0.10976470898E+02 -0.10339611913E+02 -0.48556681358E+01  0.15841969604E+02  0.00000000000E+00 0.  1.
</event>
<event>
 7    1  0.1384886E-010  0.4778727E+02  0.7816164E-02  0.1312668E+00
        -11   -1    0    0    0    0  0.00000000000E+00  0.00000000000E+00  0.45593999997E+02  0.45594000000E+02  0.51100000000E-03 0. -1.
         11   -1    0    0    0    0 -0.00000000000E+00 -0.00000000000E+00 -0.45593999997E+02  0.45594000000E+02  0.51100000000E-03 0.  1.
    9900012    2    1    2    0    0 -0.25525358793E+02  0.31723370625E+01 -0.34957341500E+02  0.47787269722E+02  0.19999993969E+02 0.  0.
         12    1    1    2    0    0  0.25525358793E+02 -0.31723370625E+01  0.34957341500E+02  0.43400730278E+02  0.00000000000E+00 0. -1.
         11    1    3    3    0    0  0.12931072702E+01 -0.36522311730E+00 -0.74800718727E+01  0.75998019593E+01  0.51100000000E-03 0. -1.
        -11    1    3    3    0    0 -0.15362258453E+02 -0.29292717755E+01 -0.18676873504E+02  0.24359910141E+02  0.51100000000E-03 0.  1.
        -12    1    3    3    0    0 -0.11456207610E+02  0.64668319553E+01 -0.88003961228E+01  0.15827557621E+02  0.00000000000E+00 0.  1.
</event>
<event>
 7    1  0.1384886E-010  0.4778727E+02  0.7816164E-02  0.1312668E+00
        -11   -1    0    0    0    0  0.00000000000E+00  0.00000000000E+00  0.45593999997E+02  0.45594000000E+02  0.51100000000E-03 0.  1.
         11   -1    0    0    0    0 -0.00000000000E+00 -0.00000000000E+00 -0.45593999997E+02  0.45594000000E+02  0.51100000000E-03 0. -1.
    9900012    2    1    2    0    0  0.36977327944E+02 -0.21101578640E+02  0.84275546390E+01  0.47787273276E+02  0.20000010176E+02 0.  0.
         12    1    1    2    0    0 -0.36977327944E+02  0.21101578640E+02 -0.84275546390E+01  0.43400726724E+02  0.00000000000E+00 0. -1.
         11    1    3    3    0    0  0.31087561529E+02 -0.21530975677E+02  0.48441511512E+01  0.38124600930E+02  0.51100000000E-03 0.  1.
        -11    1    3    3    0    0  0.31575859435E+00 -0.23801845549E-01 -0.18431852029E+01  0.18701876834E+01  0.51100000000E-03 0. -1.
        -12    1    3    3    0    0  0.55740078202E+01  0.45319888268E+00  0.54265886907E+01  0.77924846631E+01  0.00000000000E+00 0.  1.
</event>
<event>
 7    1  0.1384886E-010  0.4778728E+02  0.7816164E-02  0.1312668E+00
        -11   -1    0    0    0    0  0.00000000000E+00  0.00000000000E+00  0.45593999997E+02  0.45594000000E+02  0.51100000000E-03 0. -1.
         11   -1    0    0    0    0 -0.00000000000E+00 -0.00000000000E+00 -0.45593999997E+02  0.45594000000E+02  0.51100000000E-03 0.  1.
    9900012    2    1    2    0    0 -0.38953286935E+02 -0.11635185279E+02 -0.15194944465E+02  0.47787280688E+02  0.20000043968E+02 0.  0.
         12    1    1    2    0    0  0.38953286935E+02  0.11635185279E+02  0.15194944465E+02  0.43400719312E+02  0.00000000000E+00 0. -1.
         11    1    3    3    0    0 -0.22845384366E+02 -0.19240018510E+01 -0.51602837138E+01  0.23499827621E+02  0.51100000000E-03 0. -1.
        -11    1    3    3    0    0 -0.16595598197E+02 -0.10938178461E+02 -0.71640388116E+01  0.21127732485E+02  0.51100000000E-03 0.  1.
        -12    1    3    3    0    0  0.48769562792E+00  0.12269950337E+01 -0.28706219397E+01  0.31597205825E+01  0.00000000000E+00 0.  1.
</event>
<event>
 7    1  0.1384886E-010  0.4778726E+02  0.7816164E-02  0.1312668E+00
        -11   -1    0    0    0    0  0.00000000000E+00  0.00000000000E+00  0.45593999997E+02  0.45594000000E+02  0.51100000000E-03 0.  1.
         11   -1    0    0    0    0 -0.00000000000E+00 -0.00000000000E+00 -0.45593999997E+02  0.45594000000E+02  0.51100000000E-03 0. -1.
    9900012    2    1    2    0    0  0.85920594928E+01 -0.31693177055E+02  0.28378566078E+02  0.47787263016E+02  0.19999963394E+02 0.  0.
         12    1    1    2    0    0 -0.85920594928E+01  0.31693177055E+02 -0.28378566078E+02  0.43400736984E+02  0.00000000000E+00 0. -1.
         11    1    3    3    0    0  0.47808944311E+01 -0.40458567499E+01  0.21471242094E+01  0.66208799289E+01  0.51100000000E-03 0. -1.
        -11    1    3    3    0    0  0.35066742202E+01 -0.29462156254E+02  0.25694370906E+02  0.39249409062E+02  0.51100000000E-03 0.  1.
        -12    1    3    3    0    0  0.30449084151E+00  0.18148359488E+01  0.53707096216E+00  0.19169740248E+01  0.00000000000E+00 0.  1.
</event>
<event>
 7    1  0.1384886E-010  0.4778727E+02  0.7816164E-02  0.1312668E+00
        -11   -1    0    0    0    0  0.00000000000E+00  0.00000000000E+00  0.45593999997E+02  0.45594000000E+02  0.51100000000E-03 0.  1.
         11   -1    0    0    0    0 -0.00000000000E+00 -0.00000000000E+00 -0.45593999997E+02  0.45594000000E+02  0.51100000000E-03 0. -1.
    9900012    2    1    2    0    0  0.56162319672E+01  0.87022622121E+01  0.42146788684E+02  0.47787271602E+02  0.20000002541E+02 0.  0.
         12    1    1    2    0    0 -0.56162319672E+01 -0.87022622121E+01 -0.42146788684E+02  0.43400728398E+02  0.00000000000E+00 0. -1.
         11    1    3    3    0    0  0.10400556890E+02  0.95744637012E+01  0.35656392425E+02  0.38356489149E+02  0.51100000000E-03 0.  1.
        -11    1    3    3    0    0 -0.76270617197E+00  0.89635128537E+00 -0.41359548107E+00  0.12474886030E+01  0.51100000000E-03 0. -1.
         12    1    3    3    0    0 -0.40216187504E+01 -0.17685527744E+01  0.69039917398E+01  0.81832938498E+01  0.00000000000E+00 0. -1.
</event>
<event>
 7    1  0.1384886E-010  0.4778727E+02  0.7816164E-02  0.1312668E+00
        -11   -1    0    0    0    0  0.00000000000E+00  0.00000000000E+00  0.45593999997E+02  0.45594000000E+02  0.51100000000E-03 0.  1.
         11   -1    0    0    0    0 -0.00000000000E+00 -0.00000000000E+00 -0.45593999997E+02  0.45594000000E+02  0.51100000000E-03 0. -1.
    9900012    2    1    2    0    0 -0.15494490326E+02 -0.78268845477E+01  0.39777934872E+02  0.47787268959E+02  0.19999990492E+02 0.  0.
         12    1    1    2    0    0  0.15494490326E+02  0.78268845477E+01 -0.39777934872E+02  0.43400731041E+02  0.00000000000E+00 0. -1.
         11    1    3    3    0    0 -0.10011301600E+02 -0.40656459405E+01  0.13876669148E+02  0.17587426859E+02  0.51100000000E-03 0.  1.
        -11    1    3    3    0    0  0.36771492499E+01 -0.11915419756E+01  0.17516775126E+01  0.42437687561E+01  0.51100000000E-03 0. -1.
         12    1    3    3    0    0 -0.91603379766E+01 -0.25696966317E+01  0.24149588212E+02  0.25956073344E+02  0.00000000000E+00 0. -1.
</event>
<event>
 7    1  0.1384886E-010  0.4778727E+02  0.7816164E-02  0.1312668E+00
        -11   -1    0    0    0    0  0.00000000000E+00  0.00000000000E+00  0.45593999997E+02  0.45594000000E+02  0.51100000000E-03 0.  1.
         11   -1    0    0    0    0 -0.00000000000E+00 -0.00000000000E+00 -0.45593999997E+02  0.45594000000E+02  0.51100000000E-03 0. -1.
    9900012    2    1    2    0    0  0.16483619084E+02  0.37874086583E+02  0.13321677401E+02  0.47787271649E+02  0.20000002757E+02 0.  0.
         12    1    1    2    0    0 -0.16483619084E+02 -0.37874086583E+02 -0.13321677401E+02  0.43400728351E+02  0.00000000000E+00 0. -1.
         11    1    3    3    0    0 -0.17736536491E+01  0.54108646570E+01  0.10064988793E+01  0.57824167835E+01  0.51100000000E-03 0. -1.
        -11    1    3    3    0    0  0.14247838185E+02  0.28886142958E+02  0.15515193871E+02  0.35750963470E+02  0.51100000000E-03 0.  1.
        -12    1    3    3    0    0  0.40094345486E+01  0.35770789681E+01 -0.32000153498E+01  0.62538913951E+01  0.00000000000E+00 0.  1.
</event>
<event>
 7    1  0.1384886E-010  0.4778727E+02  0.7816164E-02  0.1312668E+00
        -11   -1    0    0    0    0  0.00000000000E+00  0.00000000000E+00  0.45593999997E+02  0.45594000000E+02  0.51100000000E-03 0. -1.
         11   -1    0    0    0    0 -0.00000000000E+00 -0.00000000000E+00 -0.45593999997E+02  0.45594000000E+02  0.51100000000E-03 0.  1.
    9900012    2    1    2    0    0 -0.14470725948E+02  0.28028985485E+02 -0.29809350989E+02  0.47787270246E+02  0.19999996360E+02 0.  0.
         12    1    1    2    0    0  0.14470725948E+02 -0.28028985485E+02  0.29809350989E+02  0.43400729754E+02  0.00000000000E+00 0. -1.
         11    1    3    3    0    0 -0.21438539121E+01  0.50567138496E+01 -0.11491841578E+02  0.12736910445E+02  0.51100000000E-03 0. -1.
        -11    1    3    3    0    0 -0.15691629452E+02  0.18749335849E+02 -0.14343755631E+02  0.28346219422E+02  0.51100000000E-03 0.  1.
        -12    1    3    3    0    0  0.33647574166E+01  0.42229357860E+01 -0.39737537802E+01  0.67041403797E+01  0.00000000000E+00 0.  1.
</event>
<event>
 7    1  0.1384886E-010  0.4778727E+02  0.7816164E-02  0.1312668E+00
        -11   -1    0    0    0    0  0.00000000000E+00  0.00000000000E+00  0.45593999997E+02  0.45594000000E+02  0.51100000000E-03 0. -1.
         11   -1    0    0    0    0 -0.00000000000E+00 -0.00000000000E+00 -0.45593999997E+02  0.45594000000E+02  0.51100000000E-03 0.  1.
    9900012    2    1    2    0    0  0.25228187169E+02 -0.34357786604E+02 -0.81672899285E+01  0.47787267830E+02  0.19999985342E+02 0.  0.
         12    1    1    2    0    0 -0.25228187169E+02  0.34357786604E+02  0.81672899285E+01  0.43400732170E+02  0.00000000000E+00 0. -1.
         11    1    3    3    0    0  0.17406651471E+00 -0.21198542782E+01 -0.45606226987E+01  0.50322322058E+01  0.51100000000E-03 0. -1.
        -11    1    3    3    0    0  0.17347238735E+02 -0.22709716432E+02 -0.80989317958E+01  0.29702703726E+02  0.51100000000E-03 0.  1.
        -12    1    3    3    0    0  0.77068819192E+01 -0.95282158942E+01  0.44922645660E+01  0.13052331898E+02  0.00000000000E+00 0.  1.
</event>
<event>
 7    1  0.1384886E-010  0.4778726E+02  0.7816164E-02  0.1312668E+00
        -11   -1    0    0    0    0  0.00000000000E+00  0.00000000000E+00  0.45593999997E+02  0.45594000000E+02  0.51100000000E-03 0. -1.
         11   -1    0    0    0    0 -0.00000000000E+00 -0.00000000000E+00 -0.45593999997E+02  0.45594000000E+02  0.51100000000E-03 0.  1.
    9900012    2    1    2    0    0  0.97203216190E+01 -0.56295891481E+01 -0.41921915526E+02  0.47787263512E+02  0.19999965657E+02 0.  0.
         12    1    1    2    0    0 -0.97203216190E+01  0.56295891481E+01  0.41921915526E+02  0.43400736488E+02  0.00000000000E+00 0. -1.
         11    1    3    3    0    0  0.27733595205E+01 -0.17136794920E+01 -0.12803103814E+02  0.13211649706E+02  0.51100000000E-03 0. -1.
        -11    1    3    3    0    0  0.12145861872E+02 -0.27838821917E+01 -0.24676604361E+02  0.27644289893E+02  0.51100000000E-03 0.  1.
         12    1    3    3    0    0 -0.51988997733E+01 -0.11320274643E+01 -0.44422073512E+01  0.69313239128E+01  0.00000000000E+00 0. -1.
</event>
<event>
 7    1  0.1384886E-010  0.4778727E+02  0.7816164E-02  0.1312668E+00
        -11   -1    0    0    0    0  0.00000000000E+00  0.00000000000E+00  0.45593999997E+02  0.45594000000E+02  0.51100000000E-03 0.  1.
         11   -1    0    0    0    0 -0.00000000000E+00 -0.00000000000E+00 -0.45593999997E+02  0.45594000000E+02  0.51100000000E-03 0. -1.
    9900012    2    1    2    0    0 -0.21247183615E+02  0.37793073367E+02 -0.19657252714E+01  0.47787270952E+02  0.19999999578E+02 0.  0.
         12    1    1    2    0    0  0.21247183615E+02 -0.37793073367E+02  0.19657252714E+01  0.43400729048E+02  0.00000000000E+00 0. -1.
         11    1    3    3    0    0 -0.82844996121E+01  0.50690303936E+01 -0.22315460739E+01  0.99653299542E+01  0.51100000000E-03 0. -1.
        -11    1    3    3    0    0 -0.15196740691E+02  0.27281606107E+02  0.29258797784E+01  0.31365390674E+02  0.51100000000E-03 0.  1.
         12    1    3    3    0    0  0.22340566879E+01  0.54424368657E+01 -0.26600589759E+01  0.64565503233E+01  0.00000000000E+00 0. -1.
</event>
<event>
 7    1  0.1384886E-010  0.4778728E+02  0.7816164E-02  0.1312668E+00
        -11   -1    0    0    0    0  0.00000000000E+00  0.00000000000E+00  0.45593999997E+02  0.45594000000E+02  0.51100000000E-03 0.  1.
         11   -1    0    0    0    0 -0.00000000000E+00 -0.00000000000E+00 -0.45593999997E+02  0.45594000000E+02  0.51100000000E-03 0. -1.
    9900012    2    1    2    0    0 -0.74658418378E+01  0.39154975255E+02  0.17168918549E+02  0.47787278281E+02  0.20000032994E+02 0.  0.
         12    1    1    2    0    0  0.74658418378E+01 -0.39154975255E+02 -0.17168918549E+02  0.43400721719E+02  0.00000000000E+00 0. -1.
         11    1    3    3    0    0 -0.69815805737E+01  0.41400247903E+01  0.35967707748E+01  0.88780083824E+01  0.51100000000E-03 0. -1.
        -11    1    3    3    0    0 -0.42815314612E+01  0.14314355034E+02  0.25679563025E+01  0.15160035341E+02  0.51100000000E-03 0.  1.
        -12    1    3    3    0    0  0.37972701970E+01  0.20700595431E+02  0.11004191471E+02  0.23749234558E+02  0.00000000000E+00 0.  1.
</event>
<event>
 7    1  0.1384886E-010  0.4778727E+02  0.7816164E-02  0.1312668E+00
        -11   -1    0    0    0    0  0.00000000000E+00  0.00000000000E+00  0.45593999997E+02  0.45594000000E+02  0.51100000000E-03 0.  1.
         11   -1    0    0    0    0 -0.00000000000E+00 -0.00000000000E+00 -0.45593999997E+02  0.45594000000E+02  0.51100000000E-03 0. -1.
    9900012    2    1    2    0    0 -0.34766878292E+02 -0.11344588891E+02  0.23370663473E+02  0.47787269195E+02  0.19999991565E+02 0.  0.
         12    1    1    2    0    0  0.34766878292E+02  0.11344588891E+02 -0.23370663473E+02  0.43400730805E+02  0.00000000000E+00 0. -1.
         11    1    3    3    0    0 -0.45523658803E+01 -0.47568452431E+01  0.33575444528E+00  0.65927492811E+01  0.51100000000E-03 0. -1.
        -11    1    3    3    0    0 -0.27559585152E+02 -0.67503984784E+00  0.17349342197E+02  0.32572781389E+02  0.51100000000E-03 0.  1.
         12    1    3    3    0    0 -0.26549272602E+01 -0.59127038003E+01  0.56855668309E+01  0.86217385240E+01  0.00000000000E+00 0. -1.
</event>
<event>
 7    1  0.1384886E-010  0.4778727E+02  0.7816164E-02  0.1312668E+00
        -11   -1    0    0    0    0  0.00000000000E+00  0.00000000000E+00  0.45593999997E+02  0.45594000000E+02  0.51100000000E-03 0. -1.
         11   -1    0    0    0    0 -0.00000000000E+00 -0.00000000000E+00 -0.45593999997E+02  0.45594000000E+02  0.51100000000E-03 0.  1.
    9900012    2    1    2    0    0  0.83036144653E+01  0.39683087583E+02 -0.15489547321E+02  0.47787268099E+02  0.19999986571E+02 0.  0.
         12    1    1    2    0    0 -0.83036144653E+01 -0.39683087583E+02  0.15489547321E+02  0.43400731901E+02  0.00000000000E+00 0. -1.
         11    1    3    3    0    0 -0.34003009703E+01  0.99303249538E+00  0.19563104228E-02  0.35423388197E+01  0.51100000000E-03 0. -1.
        -11    1    3    3    0    0  0.74997024653E+01  0.16088550882E+02 -0.27546168588E+01  0.17963154535E+02  0.51100000000E-03 0.  1.
        -12    1    3    3    0    0  0.42042129703E+01  0.22601504206E+02 -0.12736886772E+02  0.26281774744E+02  0.00000000000E+00 0.  1.
</event>
<event>
 7    1  0.1384886E-010  0.4778727E+02  0.7816164E-02  0.1312668E+00
        -11   -1    0    0    0    0  0.00000000000E+00  0.00000000000E+00  0.45593999997E+02  0.45594000000E+02  0.51100000000E-03 0.  1.
         11   -1    0    0    0    0 -0.00000000000E+00 -0.00000000000E+00 -0.45593999997E+02  0.45594000000E+02  0.51100000000E-03 0. -1.
    9900012    2    1    2    0    0 -0.21190902443E+02 -0.19947711113E+02  0.32197165043E+02  0.47787274639E+02  0.20000016390E+02 0.  0.
         12    1    1    2    0    0  0.21190902443E+02  0.19947711113E+02 -0.32197165043E+02  0.43400725361E+02  0.00000000000E+00 0. -1.
         11    1    3    3    0    0 -0.20939339621E+01 -0.16739575540E+00  0.10188073753E+02  0.10402376066E+02  0.51100000000E-03 0. -1.
        -11    1    3    3    0    0 -0.20001972993E+02 -0.17712963806E+02  0.22663513328E+02  0.35035165863E+02  0.51100000000E-03 0.  1.
         12    1    3    3    0    0  0.90500451159E+00 -0.20673515518E+01 -0.65442203785E+00  0.23497327100E+01  0.00000000000E+00 0. -1.
</event>
<event>
 7    1  0.1384886E-010  0.4778727E+02  0.7816164E-02  0.1312668E+00
        -11   -1    0    0    0    0  0.00000000000E+00  0.00000000000E+00  0.45593999997E+02  0.45594000000E+02  0.51100000000E-03 0.  1.
         11   -1    0    0    0    0 -0.00000000000E+00 -0.00000000000E+00 -0.45593999997E+02  0.45594000000E+02  0.51100000000E-03 0. -1.
    9900012    2    1    2    0    0 -0.18330371365E+02  0.39335176322E+02 -0.60379127348E+00  0.47787272188E+02  0.20000005215E+02 0.  0.
         12    1    1    2    0    0  0.18330371365E+02 -0.39335176322E+02  0.60379127348E+00  0.43400727812E+02  0.00000000000E+00 0. -1.
         11    1    3    3    0    0 -0.62557849824E+01  0.98895928093E+01 -0.44200402364E+01  0.12509022649E+02  0.51100000000E-03 0. -1.
        -11    1    3    3    0    0 -0.35027438504E-01  0.50792103411E+01  0.61772631349E+01  0.79973861173E+01  0.51100000000E-03 0.  1.
        -12    1    3    3    0    0 -0.12039558945E+02  0.24366373172E+02 -0.23610141719E+01  0.27280863422E+02  0.00000000000E+00 0.  1.
</event>
<event>
 7    1  0.1384886E-010  0.4778727E+02  0.7816164E-02  0.1312668E+00
        -11   -1    0    0    0    0  0.00000000000E+00  0.00000000000E+00  0.45593999997E+02  0.45594000000E+02  0.51100000000E-03 0.  1.
         11   -1    0    0    0    0 -0.00000000000E+00 -0.00000000000E+00 -0.45593999997E+02  0.45594000000E+02  0.51100000000E-03 0. -1.
    9900012    2    1    2    0    0  0.19872723135E+02 -0.30957430352E+02  0.23029020165E+02  0.47787269723E+02  0.19999993976E+02 0.  0.
         12    1    1    2    0    0 -0.19872723135E+02  0.30957430352E+02 -0.23029020165E+02  0.43400730277E+02  0.00000000000E+00 0. -1.
         11    1    3    3    0    0  0.15887369919E+02 -0.18960069128E+02  0.16180846165E+02  0.29558628641E+02  0.51100000000E-03 0.  1.
        -11    1    3    3    0    0  0.51934592295E+01 -0.92738687534E+01 -0.14199550188E+00  0.10629996397E+02  0.51100000000E-03 0. -1.
        -12    1    3    3    0    0 -0.12081060129E+01 -0.27234924704E+01  0.69901695022E+01  0.75986446847E+01  0.00000000000E+00 0.  1.
</event>
<event>
 7    1  0.1384886E-010  0.4778727E+02  0.7816164E-02  0.1312668E+00
        -11   -1    0    0    0    0  0.00000000000E+00  0.00000000000E+00  0.45593999997E+02  0.45594000000E+02  0.51100000000E-03 0. -1.
         11   -1    0    0    0    0 -0.00000000000E+00 -0.00000000000E+00 -0.45593999997E+02  0.45594000000E+02  0.51100000000E-03 0.  1.
    9900012    2    1    2    0    0 -0.33004864043E+02  0.33455135007E+01 -0.27984101235E+02  0.47787269211E+02  0.19999991640E+02 0.  0.
         12    1    1    2    0    0  0.33004864043E+02 -0.33455135007E+01  0.27984101235E+02  0.43400730789E+02  0.00000000000E+00 0. -1.
         11    1    3    3    0    0 -0.17559621146E+01 -0.31295195835E+01 -0.15679855054E+01  0.39161045156E+01  0.51100000000E-03 0. -1.
        -11    1    3    3    0    0 -0.14521058186E+02  0.10190441602E+02 -0.15470833037E+02  0.23538328446E+02  0.51100000000E-03 0.  1.
         12    1    3    3    0    0 -0.16727843742E+02 -0.37154085182E+01 -0.10945282693E+02  0.20332836250E+02  0.00000000000E+00 0. -1.
</event>
<event>
 7    1  0.1384886E-010  0.4778727E+02  0.7816164E-02  0.1312668E+00
        -11   -1    0    0    0    0  0.00000000000E+00  0.00000000000E+00  0.45593999997E+02  0.45594000000E+02  0.51100000000E-03 0.  1.
         11   -1    0    0    0    0 -0.00000000000E+00 -0.00000000000E+00 -0.45593999997E+02  0.45594000000E+02  0.51100000000E-03 0. -1.
    9900012    2    1    2    0    0  0.37313177554E+02 -0.72262794817E+01  0.20955450571E+02  0.47787271401E+02  0.20000001626E+02 0.  0.
         12    1    1    2    0    0 -0.37313177554E+02  0.72262794817E+01 -0.20955450571E+02  0.43400728599E+02  0.00000000000E+00 0. -1.
         11    1    3    3    0    0  0.15096301600E+02 -0.59418087320E+01  0.23699732192E+01  0.16395736834E+02  0.51100000000E-03 0. -1.
        -11    1    3    3    0    0  0.23483789474E+02 -0.11545723087E+01  0.18794752664E+02  0.30100899209E+02  0.51100000000E-03 0.  1.
         12    1    3    3    0    0 -0.12669135195E+01 -0.12989844094E+00 -0.20927531239E+00  0.12906353579E+01  0.00000000000E+00 0. -1.
</event>
<event>
 7    1  0.1384886E-010  0.4778726E+02  0.7816164E-02  0.1312668E+00
        -11   -1    0    0    0    0  0.00000000000E+00  0.00000000000E+00  0.45593999997E+02  0.45594000000E+02  0.51100000000E-03 0. -1.
         11   -1    0    0    0    0 -0.00000000000E+00 -0.00000000000E+00 -0.45593999997E+02  0.45594000000E+02  0.51100000000E-03 0.  1.
    9900012    2    1    2    0    0 -0.63659693764E+01 -0.10908408816E+02 -0.41522343795E+02  0.47787262872E+02  0.19999962739E+02 0.  0.
         12    1    1    2    0    0  0.63659693764E+01  0.10908408816E+02  0.41522343795E+02  0.43400737128E+02  0.00000000000E+00 0. -1.
         11    1    3    3    0    0  0.25346773992E+01  0.39353995739E+01 -0.13449976395E+02  0.14241271875E+02  0.51100000000E-03 0. -1.
        -11    1    3    3    0    0 -0.50023776250E+01 -0.28904110493E+01 -0.82236230076E+01  0.10050185748E+02  0.51100000000E-03 0.  1.
        -12    1    3    3    0    0 -0.38982691506E+01 -0.11953397340E+02 -0.19848744393E+02  0.23495805249E+02  0.00000000000E+00 0.  1.
</event>
<event>
 7    1  0.1384886E-010  0.4778727E+02  0.7816164E-02  0.1312668E+00
        -11   -1    0    0    0    0  0.00000000000E+00  0.00000000000E+00  0.45593999997E+02  0.45594000000E+02  0.51100000000E-03 0.  1.
         11   -1    0    0    0    0 -0.00000000000E+00 -0.00000000000E+00 -0.45593999997E+02  0.45594000000E+02  0.51100000000E-03 0. -1.
    9900012    2    1    2    0    0  0.90266621673E+01 -0.37066020406E+02  0.20694271902E+02  0.47787269728E+02  0.19999993997E+02 0.  0.
         12    1    1    2    0    0 -0.90266621673E+01  0.37066020406E+02 -0.20694271902E+02  0.43400730272E+02  0.00000000000E+00 0. -1.
         11    1    3    3    0    0  0.36699339594E+01 -0.12075737609E+01  0.15365451103E+01  0.41578384758E+01  0.51100000000E-03 0. -1.
        -11    1    3    3    0    0  0.19243746989E+01 -0.31970001258E+02  0.20799640159E+02  0.38189124492E+02  0.51100000000E-03 0.  1.
         12    1    3    3    0    0  0.34323535089E+01 -0.38884453870E+01 -0.16419133680E+01  0.54403067603E+01  0.00000000000E+00 0. -1.
</event>
<event>
 7    1  0.1384886E-010  0.4778727E+02  0.7816164E-02  0.1312668E+00
        -11   -1    0    0    0    0  0.00000000000E+00  0.00000000000E+00  0.45593999997E+02  0.45594000000E+02  0.51100000000E-03 0.  1.
         11   -1    0    0    0    0 -0.00000000000E+00 -0.00000000000E+00 -0.45593999997E+02  0.45594000000E+02  0.51100000000E-03 0. -1.
    9900012    2    1    2    0    0 -0.42458740128E+02  0.72320548604E+01 -0.53456834105E+01  0.47787267726E+02  0.19999984870E+02 0.  0.
         12    1    1    2    0    0  0.42458740128E+02 -0.72320548604E+01  0.53456834105E+01  0.43400732274E+02  0.00000000000E+00 0. -1.
         11    1    3    3    0    0 -0.10296221555E+02 -0.36029057528E+01  0.39936729580E+01  0.11616476752E+02  0.51100000000E-03 0. -1.
        -11    1    3    3    0    0 -0.20224140034E+02  0.26959198827E+01 -0.41680907991E+01  0.20824428090E+02  0.51100000000E-03 0.  1.
         12    1    3    3    0    0 -0.11938378540E+02  0.81390407305E+01 -0.51712655694E+01  0.15346362884E+02  0.00000000000E+00 0. -1.
</event>
<event>
 7    1  0.1384886E-010  0.4778727E+02  0.7816164E-02  0.1312668E+00
        -11   -1    0    0    0    0  0.00000000000E+00  0.00000000000E+00  0.45593999997E+02  0.45594000000E+02  0.51100000000E-03 0. -1.
         11   -1    0    0    0    0 -0.00000000000E+00 -0.00000000000E+00 -0.45593999997E+02  0.45594000000E+02  0.51100000000E-03 0.  1.
    9900012    2    1    2    0    0 -0.70396003322E+01 -0.34898866881E+02  0.24822100760E+02  0.47787267650E+02  0.19999984522E+02 0.  0.
         12    1    1    2    0    0  0.70396003322E+01  0.34898866881E+02 -0.24822100760E+02  0.43400732350E+02  0.00000000000E+00 0. -1.
         11    1    3    3    0    0  0.46165884267E+01 -0.72543877216E+00  0.29508471506E+01  0.55269023223E+01  0.51100000000E-03 0. -1.
        -11    1    3    3    0    0 -0.31503900333E+01 -0.11692716074E+02  0.79018685630E+01  0.14459740440E+02  0.51100000000E-03 0.  1.
         12    1    3    3    0    0 -0.85057987256E+01 -0.22480712035E+02  0.13969385046E+02  0.27800624887E+02  0.00000000000E+00 0. -1.
</event>
<event>
 7    1  0.1384886E-010  0.4778727E+02  0.7816164E-02  0.1312668E+00
        -11   -1    0    0    0    0  0.00000000000E+00  0.00000000000E+00  0.45593999997E+02  0.45594000000E+02  0.51100000000E-03 0.  1.
         11   -1    0    0    0    0 -0.00000000000E+00 -0.00000000000E+00 -0.45593999997E+02  0.45594000000E+02  0.51100000000E-03 0. -1.
    9900012    2    1    2    0    0  0.36954273617E+01 -0.37928817044E+02  0.20769490333E+02  0.47787273342E+02  0.20000010474E+02 0.  0.
         12    1    1    2    0    0 -0.36954273617E+01  0.37928817044E+02 -0.20769490333E+02  0.43400726658E+02  0.00000000000E+00 0. -1.
         11    1    3    3    0    0  0.20939741028E+01  0.76127339806E+00  0.39093786351E+01  0.44997229141E+01  0.51100000000E-03 0. -1.
        -11    1    3    3    0    0  0.28462973043E+00 -0.24627698053E+01 -0.12364776179E+01  0.27704018405E+01  0.51100000000E-03 0.  1.
        -12    1    3    3    0    0  0.13168235284E+01 -0.36227320637E+02  0.18096589316E+02  0.40517148587E+02  0.00000000000E+00 0.  1.
</event>
<event>
 7    1  0.1384886E-010  0.4778727E+02  0.7816164E-02  0.1312668E+00
        -11   -1    0    0    0    0  0.00000000000E+00  0.00000000000E+00  0.45593999997E+02  0.45594000000E+02  0.51100000000E-03 0.  1.
         11   -1    0    0    0    0 -0.00000000000E+00 -0.00000000000E+00 -0.45593999997E+02  0.45594000000E+02  0.51100000000E-03 0. -1.
    9900012    2    1    2    0    0  0.35170883923E+02 -0.15259536279E+02 -0.20341556331E+02  0.47787269161E+02  0.19999991414E+02 0.  0.
         12    1    1    2    0    0 -0.35170883923E+02  0.15259536279E+02  0.20341556331E+02  0.43400730839E+02  0.00000000000E+00 0. -1.
         11    1    3    3    0    0  0.96593207444E+01 -0.53234757368E+00 -0.11088075341E+02  0.14715002080E+02  0.51100000000E-03 0. -1.
        -11    1    3    3    0    0  0.11228590363E+02 -0.15879862936E+01 -0.74780338834E+01  0.13583958665E+02  0.51100000000E-03 0.  1.
        -12    1    3    3    0    0  0.14282972816E+02 -0.13139202412E+02 -0.17754471062E+01  0.19488308416E+02  0.00000000000E+00 0.  1.
</event>
<event>
 7    1  0.1384886E-010  0.4778726E+02  0.7816164E-02  0.1312668E+00
        -11   -1    0    0    0    0  0.00000000000E+00  0.00000000000E+00  0.45593999997E+02  0.45594000000E+02  0.51100000000E-03 0.  1.
         11   -1    0    0    0    0 -0.00000000000E+00 -0.00000000000E+00 -0.45593999997E+02  0.45594000000E+02  0.51100000000E-03 0. -1.
    9900012    2    1    2    0    0 -0.25431067527E+02  0.27481124684E+02  0.21947044802E+02  0.47787260548E+02  0.19999952143E+02 0.  0.
         12    1    1    2    0    0  0.25431067527E+02 -0.27481124684E+02 -0.21947044802E+02  0.43400739452E+02  0.00000000000E+00 0. -1.
         11    1    3    3    0    0 -0.63662060199E+01  0.18466291317E+02  0.14881250397E+02  0.24555734722E+02  0.51100000000E-03 0.  1.
        -11    1    3    3    0    0 -0.10655924216E+02  0.53678869562E+01  0.74347286005E+01  0.14058382584E+02  0.51100000000E-03 0. -1.
        -12    1    3    3    0    0 -0.84089372914E+01  0.36469464100E+01 -0.36893419567E+00  0.91731432415E+01  0.00000000000E+00 0.  1.
</event>
<event>
 7    1  0.1384886E-010  0.4778730E+02  0.7816164E-02  0.1312668E+00
        -11   -1    0    0    0    0  0.00000000000E+00  0.00000000000E+00  0.45593999997E+02  0.45594000000E+02  0.51100000000E-03 0. -1.
         11   -1    0    0    0    0 -0.00000000000E+00 -0.00000000000E+00 -0.45593999997E+02  0.45594000000E+02  0.51100000000E-03 0.  1.
    9900012    2    1    2    0    0 -0.98961777527E+01 -0.38707854567E+02  0.16952538239E+02  0.47787298485E+02  0.20000125110E+02 0.  0.
         12    1    1    2    0    0  0.98961777527E+01  0.38707854567E+02 -0.16952538239E+02  0.43400701515E+02  0.00000000000E+00 0. -1.
         11    1    3    3    0    0 -0.60336771165E+01 -0.54556421717E+01  0.43862178529E+01  0.92416556074E+01  0.51100000000E-03 0. -1.
        -11    1    3    3    0    0 -0.35414247173E+01 -0.13390684175E+01  0.39861006502E+01  0.54976169301E+01  0.51100000000E-03 0.  1.
        -12    1    3    3    0    0 -0.32107591883E+00 -0.31913143978E+02  0.85802197357E+01  0.33048025947E+02  0.00000000000E+00 0.  1.
</event>
<event>
 7    1  0.1384886E-010  0.4778727E+02  0.7816164E-02  0.1312668E+00
        -11   -1    0    0    0    0  0.00000000000E+00  0.00000000000E+00  0.45593999997E+02  0.45594000000E+02  0.51100000000E-03 0.  1.
         11   -1    0    0    0    0 -0.00000000000E+00 -0.00000000000E+00 -0.45593999997E+02  0.45594000000E+02  0.51100000000E-03 0. -1.
    9900012    2    1    2    0    0  0.40881377408E+02 -0.87025012965E+00  0.14545755168E+02  0.47787270196E+02  0.19999996133E+02 0.  0.
         12    1    1    2    0    0 -0.40881377408E+02  0.87025012965E+00 -0.14545755168E+02  0.43400729804E+02  0.00000000000E+00 0. -1.
         11    1    3    3    0    0  0.19748875820E+02 -0.39369294550E+01  0.30427180374E+01  0.20366041417E+02  0.51100000000E-03 0.  1.
        -11    1    3    3    0    0  0.89232551869E+01  0.13774118094E+01  0.12080934770E+02  0.15082132860E+02  0.51100000000E-03 0. -1.
         12    1    3    3    0    0  0.12209246401E+02  0.16892675160E+01 -0.57789763891E+00  0.12339095919E+02  0.00000000000E+00 0. -1.
</event>
<event>
 7    1  0.1384886E-010  0.4778727E+02  0.7816164E-02  0.1312668E+00
        -11   -1    0    0    0    0  0.00000000000E+00  0.00000000000E+00  0.45593999997E+02  0.45594000000E+02  0.51100000000E-03 0.  1.
         11   -1    0    0    0    0 -0.00000000000E+00 -0.00000000000E+00 -0.45593999997E+02  0.45594000000E+02  0.51100000000E-03 0. -1.
    9900012    2    1    2    0    0 -0.36217781305E+02 -0.16774329368E+02  0.17044570615E+02  0.47787271944E+02  0.20000004100E+02 0.  0.
         12    1    1    2    0    0  0.36217781305E+02  0.16774329368E+02 -0.17044570615E+02  0.43400728056E+02  0.00000000000E+00 0. -1.
         11    1    3    3    0    0 -0.17523471681E+01 -0.74247462383E+01  0.40614110045E+00  0.76395371689E+01  0.51100000000E-03 0.  1.
        -11    1    3    3    0    0 -0.65894294700E+01 -0.43223443175E+00  0.25924674695E+00  0.66086773625E+01  0.51100000000E-03 0. -1.
        -12    1    3    3    0    0 -0.27876004666E+02 -0.89173486980E+01  0.16379182768E+02  0.33539057412E+02  0.00000000000E+00 0.  1.
</event>
<event>
 7    1  0.1384886E-010  0.4778727E+02  0.7816164E-02  0.1312668E+00
        -11   -1    0    0    0    0  0.00000000000E+00  0.00000000000E+00  0.45593999997E+02  0.45594000000E+02  0.51100000000E-03 0.  1.
         11   -1    0    0    0    0 -0.00000000000E+00 -0.00000000000E+00 -0.45593999997E+02  0.45594000000E+02  0.51100000000E-03 0. -1.
    9900012    2    1    2    0    0 -0.15474947188E+02 -0.21341606171E+02  0.34477308868E+02  0.47787274532E+02  0.20000015900E+02 0.  0.
         12    1    1    2    0    0  0.15474947188E+02  0.21341606171E+02 -0.34477308868E+02  0.43400725468E+02  0.00000000000E+00 0. -1.
         11    1    3    3    0    0 -0.88498333070E+00 -0.89516219094E+01  0.67076704458E+01  0.11220854396E+02  0.51100000000E-03 0. -1.
        -11    1    3    3    0    0 -0.16608722392E+02 -0.92318660657E+01  0.18296709283E+02  0.26378904097E+02  0.51100000000E-03 0.  1.
         12    1    3    3    0    0  0.20187585347E+01 -0.31581181956E+01  0.94729291393E+01  0.10187516039E+02  0.00000000000E+00 0. -1.
</event>
<event>
 7    1  0.1384886E-010  0.4778726E+02  0.7816164E-02  0.1312668E+00
        -11   -1    0    0    0    0  0.00000000000E+00  0.00000000000E+00  0.45593999997E+02  0.45594000000E+02  0.51100000000E-03 0.  1.
         11   -1    0    0    0    0 -0.00000000000E+00 -0.00000000000E+00 -0.45593999997E+02  0.45594000000E+02  0.51100000000E-03 0. -1.
    9900012    2    1    2    0    0  0.32580806737E+02 -0.15298191286E+02  0.24250378221E+02  0.47787257287E+02  0.19999937273E+02 0.  0.
         12    1    1    2    0    0 -0.32580806737E+02  0.15298191286E+02 -0.24250378221E+02  0.43400742713E+02  0.00000000000E+00 0. -1.
         11    1    3    3    0    0  0.13198160840E+02 -0.10649404039E+02  0.61191342215E+01  0.18029006068E+02  0.51100000000E-03 0.  1.
        -11    1    3    3    0    0  0.17726410595E+01 -0.36470596199E+01  0.90551350702E+01  0.99216314988E+01  0.51100000000E-03 0. -1.
         12    1    3    3    0    0  0.17610004837E+02 -0.10017276270E+01  0.90761089290E+01  0.19836619719E+02  0.00000000000E+00 0. -1.
</event>
<event>
 7    1  0.1384886E-010  0.4778727E+02  0.7816164E-02  0.1312668E+00
        -11   -1    0    0    0    0  0.00000000000E+00  0.00000000000E+00  0.45593999997E+02  0.45594000000E+02  0.51100000000E-03 0. -1.
         11   -1    0    0    0    0 -0.00000000000E+00 -0.00000000000E+00 -0.45593999997E+02  0.45594000000E+02  0.51100000000E-03 0.  1.
    9900012    2    1    2    0    0  0.21634746481E+02 -0.35163704150E+02 -0.13381888287E+02  0.47787270986E+02  0.19999999733E+02 0.  0.
         12    1    1    2    0    0 -0.21634746481E+02  0.35163704150E+02  0.13381888287E+02  0.43400729014E+02  0.00000000000E+00 0. -1.
         11    1    3    3    0    0  0.21915304469E+01 -0.10663091702E+02 -0.37205605511E+01  0.11504212334E+02  0.51100000000E-03 0. -1.
        -11    1    3    3    0    0  0.95122921638E+01 -0.20260276937E+02 -0.11758621007E+02  0.25282952597E+02  0.51100000000E-03 0.  1.
         12    1    3    3    0    0  0.99309238698E+01 -0.42403355112E+01  0.20972932719E+01  0.11000106055E+02  0.00000000000E+00 0. -1.
</event>
<event>
 7    1  0.1384886E-010  0.4778727E+02  0.7816164E-02  0.1312668E+00
        -11   -1    0    0    0    0  0.00000000000E+00  0.00000000000E+00  0.45593999997E+02  0.45594000000E+02  0.51100000000E-03 0.  1.
         11   -1    0    0    0    0 -0.00000000000E+00 -0.00000000000E+00 -0.45593999997E+02  0.45594000000E+02  0.51100000000E-03 0. -1.
    9900012    2    1    2    0    0  0.39294941164E+02 -0.18415347095E+02  0.63706268695E+00  0.47787271221E+02  0.20000000804E+02 0.  0.
         12    1    1    2    0    0 -0.39294941164E+02  0.18415347095E+02 -0.63706268695E+00  0.43400728779E+02  0.00000000000E+00 0. -1.
         11    1    3    3    0    0  0.17721892527E+02  0.11869966936E+01 -0.25340062820E+01  0.17941449885E+02  0.51100000000E-03 0. -1.
        -11    1    3    3    0    0  0.80571665021E+01 -0.74776563160E+01  0.39269722509E+01  0.11672805462E+02  0.51100000000E-03 0.  1.
         12    1    3    3    0    0  0.13515882135E+02 -0.12124687472E+02 -0.75590328193E+00  0.18173015874E+02  0.00000000000E+00 0. -1.
</event>
<event>
 7    1  0.1384886E-010  0.4778727E+02  0.7816164E-02  0.1312668E+00
        -11   -1    0    0    0    0  0.00000000000E+00  0.00000000000E+00  0.45593999997E+02  0.45594000000E+02  0.51100000000E-03 0.  1.
         11   -1    0    0    0    0 -0.00000000000E+00 -0.00000000000E+00 -0.45593999997E+02  0.45594000000E+02  0.51100000000E-03 0. -1.
    9900012    2    1    2    0    0  0.81741772017E+00 -0.36769282343E+02 -0.23042894826E+02  0.47787270770E+02  0.19999998747E+02 0.  0.
         12    1    1    2    0    0 -0.81741772017E+00  0.36769282343E+02  0.23042894826E+02  0.43400729230E+02  0.00000000000E+00 0. -1.
         11    1    3    3    0    0 -0.23998594951E+01 -0.50080981466E+00 -0.46570483449E+01  0.52629113249E+01  0.51100000000E-03 0. -1.
        -11    1    3    3    0    0  0.42074949476E+01 -0.32705033655E+01 -0.23937094008E+01  0.58420074422E+01  0.51100000000E-03 0.  1.
        -12    1    3    3    0    0 -0.99021773236E+00 -0.32997969163E+02 -0.15992137080E+02  0.36682352003E+02  0.00000000000E+00 0.  1.
</event>
<event>
 7    1  0.1384886E-010  0.4778727E+02  0.7816164E-02  0.1312668E+00
        -11   -1    0    0    0    0  0.00000000000E+00  0.00000000000E+00  0.45593999997E+02  0.45594000000E+02  0.51100000000E-03 0.  1.
         11   -1    0    0    0    0 -0.00000000000E+00 -0.00000000000E+00 -0.45593999997E+02  0.45594000000E+02  0.51100000000E-03 0. -1.
    9900012    2    1    2    0    0  0.23468921364E+02  0.16127277145E+02  0.32752767539E+02  0.47787272822E+02  0.20000008105E+02 0.  0.
         12    1    1    2    0    0 -0.23468921364E+02 -0.16127277145E+02 -0.32752767539E+02  0.43400727178E+02  0.00000000000E+00 0. -1.
         11    1    3    3    0    0  0.35469398804E+01  0.46031213120E+01  0.20720779276E+02  0.21520227750E+02  0.51100000000E-03 0.  1.
        -11    1    3    3    0    0  0.10335998239E+02  0.73189391199E+01  0.83535678125E+01  0.15171744293E+02  0.51100000000E-03 0. -1.
        -12    1    3    3    0    0  0.95859832442E+01  0.42052167131E+01  0.36784204506E+01  0.11095300779E+02  0.00000000000E+00 0.  1.
</event>
<event>
 7    1  0.1384886E-010  0.4778727E+02  0.7816164E-02  0.1312668E+00
        -11   -1    0    0    0    0  0.00000000000E+00  0.00000000000E+00  0.45593999997E+02  0.45594000000E+02  0.51100000000E-03 0. -1.
         11   -1    0    0    0    0 -0.00000000000E+00 -0.00000000000E+00 -0.45593999997E+02  0.45594000000E+02  0.51100000000E-03 0.  1.
    9900012    2    1    2    0    0  0.40275975753E+01 -0.24531044427E+02 -0.35575684579E+02  0.47787274013E+02  0.20000013536E+02 0.  0.
         12    1    1    2    0    0 -0.40275975753E+01  0.24531044427E+02  0.35575684579E+02  0.43400725987E+02  0.00000000000E+00 0. -1.
         11    1    3    3    0    0 -0.33758192635E+01 -0.19677260571E+01 -0.18360196353E+00  0.39117529929E+01  0.51100000000E-03 0. -1.
        -11    1    3    3    0    0 -0.49984874304E+00 -0.14801397967E+02 -0.21511714821E+02  0.26116759090E+02  0.51100000000E-03 0.  1.
        -12    1    3    3    0    0  0.79032655818E+01 -0.77619204030E+01 -0.13880367794E+02  0.17758761931E+02  0.00000000000E+00 0.  1.
</event>
<event>
 7    1  0.1384886E-010  0.4778727E+02  0.7816164E-02  0.1312668E+00
        -11   -1    0    0    0    0  0.00000000000E+00  0.00000000000E+00  0.45593999997E+02  0.45594000000E+02  0.51100000000E-03 0.  1.
         11   -1    0    0    0    0 -0.00000000000E+00 -0.00000000000E+00 -0.45593999997E+02  0.45594000000E+02  0.51100000000E-03 0. -1.
    9900012    2    1    2    0    0  0.22107946247E+02  0.12956224559E+02  0.35028536988E+02  0.47787269066E+02  0.19999990979E+02 0.  0.
         12    1    1    2    0    0 -0.22107946247E+02 -0.12956224559E+02 -0.35028536988E+02  0.43400730934E+02  0.00000000000E+00 0. -1.
         11    1    3    3    0    0  0.19016101469E+01 -0.39587060916E+01  0.11247637538E+02  0.12074635627E+02  0.51100000000E-03 0. -1.
        -11    1    3    3    0    0  0.70997288240E+01  0.65914730218E+01  0.11252821289E+02  0.14848557277E+02  0.51100000000E-03 0.  1.
         12    1    3    3    0    0  0.13106607276E+02  0.10323457629E+02  0.12528078161E+02  0.20864076163E+02  0.00000000000E+00 0. -1.
</event>
<event>
 7    1  0.1384886E-010  0.4778727E+02  0.7816164E-02  0.1312668E+00
        -11   -1    0    0    0    0  0.00000000000E+00  0.00000000000E+00  0.45593999997E+02  0.45594000000E+02  0.51100000000E-03 0.  1.
         11   -1    0    0    0    0 -0.00000000000E+00 -0.00000000000E+00 -0.45593999997E+02  0.45594000000E+02  0.51100000000E-03 0. -1.
    9900012    2    1    2    0    0  0.21999507672E+02  0.30236231725E+01  0.37289440732E+02  0.47787273911E+02  0.20000013072E+02 0.  0.
         12    1    1    2    0    0 -0.21999507672E+02 -0.30236231725E+01 -0.37289440732E+02  0.43400726089E+02  0.00000000000E+00 0. -1.
         11    1    3    3    0    0  0.25181698436E+00 -0.23960450956E+01  0.99951271447E+01  0.10281391481E+02  0.51100000000E-03 0. -1.
        -11    1    3    3    0    0  0.16453475304E+02  0.42438971233E+01  0.27212704207E+02  0.32082063258E+02  0.51100000000E-03 0.  1.
         12    1    3    3    0    0  0.52942153842E+01  0.11757711448E+01  0.81609380151E-01  0.54238191719E+01  0.00000000000E+00 0. -1.
</event>
<event>
 7    1  0.1384886E-010  0.4778728E+02  0.7816164E-02  0.1312668E+00
        -11   -1    0    0    0    0  0.00000000000E+00  0.00000000000E+00  0.45593999997E+02  0.45594000000E+02  0.51100000000E-03 0. -1.
         11   -1    0    0    0    0 -0.00000000000E+00 -0.00000000000E+00 -0.45593999997E+02  0.45594000000E+02  0.51100000000E-03 0.  1.
    9900012    2    1    2    0    0 -0.28147360297E+02  0.32992778986E+02  0.16808045035E+01  0.47787280412E+02  0.20000042711E+02 0.  0.
         12    1    1    2    0    0  0.28147360297E+02 -0.32992778986E+02 -0.16808045035E+01  0.43400719588E+02  0.00000000000E+00 0. -1.
         11    1    3    3    0    0 -0.30563309154E+01  0.65860804597E+01  0.26800381594E+01  0.77395231948E+01  0.51100000000E-03 0. -1.
        -11    1    3    3    0    0 -0.13569668754E+02  0.10373063864E+02 -0.83091390870E+01  0.18994161120E+02  0.51100000000E-03 0.  1.
        -12    1    3    3    0    0 -0.11521360628E+02  0.16033634663E+02  0.73099054311E+01  0.21053596098E+02  0.00000000000E+00 0.  1.
</event>
<event>
 7    1  0.1384886E-010  0.4778727E+02  0.7816164E-02  0.1312668E+00
        -11   -1    0    0    0    0  0.00000000000E+00  0.00000000000E+00  0.45593999997E+02  0.45594000000E+02  0.51100000000E-03 0. -1.
         11   -1    0    0    0    0 -0.00000000000E+00 -0.00000000000E+00 -0.45593999997E+02  0.45594000000E+02  0.51100000000E-03 0.  1.
    9900012    2    1    2    0    0  0.29800017555E+02 -0.18459064914E+02 -0.25589945125E+02  0.47787269416E+02  0.19999992573E+02 0.  0.
         12    1    1    2    0    0 -0.29800017555E+02  0.18459064914E+02  0.25589945125E+02  0.43400730584E+02  0.00000000000E+00 0. -1.
         11    1    3    3    0    0  0.20191768333E+02 -0.45762100614E+01 -0.13468699110E+02  0.24699292761E+02  0.51100000000E-03 0. -1.
        -11    1    3    3    0    0  0.36680896645E+01 -0.47632633713E+01 -0.10479119904E+02  0.12081204988E+02  0.51100000000E-03 0.  1.
        -12    1    3    3    0    0  0.59401595573E+01 -0.91195914811E+01 -0.16421261112E+01  0.11006771666E+02  0.00000000000E+00 0.  1.
</event>
<event>
 7    1  0.1384886E-010  0.4778725E+02  0.7816164E-02  0.1312668E+00
        -11   -1    0    0    0    0  0.00000000000E+00  0.00000000000E+00  0.45593999997E+02  0.45594000000E+02  0.51100000000E-03 0.  1.
         11   -1    0    0    0    0 -0.00000000000E+00 -0.00000000000E+00 -0.45593999997E+02  0.45594000000E+02  0.51100000000E-03 0. -1.
    9900012    2    1    2    0    0 -0.30856943830E+01 -0.67494461381E+01  0.42761526440E+02  0.47787254886E+02  0.19999926327E+02 0.  0.
         12    1    1    2    0    0  0.30856943830E+01  0.67494461381E+01 -0.42761526440E+02  0.43400745114E+02  0.00000000000E+00 0. -1.
         11    1    3    3    0    0 -0.18224252421E+01 -0.11711360155E+02  0.24779851177E+02  0.27468494955E+02  0.51100000000E-03 0. -1.
        -11    1    3    3    0    0  0.32670508840E+01  0.28290589702E+01  0.66614197106E+01  0.79405106232E+01  0.51100000000E-03 0.  1.
        -12    1    3    3    0    0 -0.45303200249E+01  0.21328550466E+01  0.11320255552E+02  0.12378249308E+02  0.00000000000E+00 0.  1.
</event>
<event>
 7    1  0.1384886E-010  0.4778727E+02  0.7816164E-02  0.1312668E+00
        -11   -1    0    0    0    0  0.00000000000E+00  0.00000000000E+00  0.45593999997E+02  0.45594000000E+02  0.51100000000E-03 0.  1.
         11   -1    0    0    0    0 -0.00000000000E+00 -0.00000000000E+00 -0.45593999997E+02  0.45594000000E+02  0.51100000000E-03 0. -1.
    9900012    2    1    2    0    0  0.13045774505E+02  0.28643532704E+02  0.29882757183E+02  0.47787269878E+02  0.19999994683E+02 0.  0.
         12    1    1    2    0    0 -0.13045774505E+02 -0.28643532704E+02 -0.29882757183E+02  0.43400730122E+02  0.00000000000E+00 0. -1.
         11    1    3    3    0    0  0.89645067384E+01  0.13414215309E+02  0.12719734903E+02  0.20544955821E+02  0.51100000000E-03 0. -1.
        -11    1    3    3    0    0  0.75121273298E+01  0.83822648698E+01  0.15899192841E+02  0.19480214440E+02  0.51100000000E-03 0.  1.
         12    1    3    3    0    0 -0.34308595627E+01  0.68470525253E+01  0.12638294395E+01  0.77620996177E+01  0.00000000000E+00 0. -1.
</event>
<event>
 7    1  0.1494518E-010  0.4778727E+02  0.7816164E-02  0.1312668E+00
        -11   -1    0    0    0    0  0.00000000000E+00  0.00000000000E+00  0.45593999997E+02  0.45594000000E+02  0.51100000000E-03 0.  1.
         11   -1    0    0    0    0 -0.00000000000E+00 -0.00000000000E+00 -0.45593999997E+02  0.45594000000E+02  0.51100000000E-03 0. -1.
    9900012    2    1    2    0    0 -0.71819966324E+01  0.40450363451E+02  0.13993218904E+02  0.47787272423E+02  0.20000006286E+02 0.  0.
         12    1    1    2    0    0  0.71819966324E+01 -0.40450363451E+02 -0.13993218904E+02  0.43400727577E+02  0.00000000000E+00 0. -1.
         11    1    3    3    0    0  0.10335183907E+01  0.21483346493E+01  0.51302898163E+01  0.56571526309E+01  0.51100000000E-03 0. -1.
        -11    1    3    3    0    0 -0.23525155258E+01  0.29151640099E+02  0.10632982724E+02  0.31119331156E+02  0.51100000000E-03 0.  1.
        -12    1    3    3    0    0 -0.58629994972E+01  0.91503887028E+01 -0.17700536361E+01  0.11010788636E+02  0.00000000000E+00 0.  1.
</event>
<event>
 7    1  0.1384886E-010  0.4778727E+02  0.7816164E-02  0.1312668E+00
        -11   -1    0    0    0    0  0.00000000000E+00  0.00000000000E+00  0.45593999997E+02  0.45594000000E+02  0.51100000000E-03 0. -1.
         11   -1    0    0    0    0 -0.00000000000E+00 -0.00000000000E+00 -0.45593999997E+02  0.45594000000E+02  0.51100000000E-03 0.  1.
    9900012    2    1    2    0    0  0.28610338227E+02 -0.79999769245E+01 -0.31639720373E+02  0.47787274320E+02  0.20000014934E+02 0.  0.
         12    1    1    2    0    0 -0.28610338227E+02  0.79999769245E+01  0.31639720373E+02  0.43400725680E+02  0.00000000000E+00 0. -1.
         11    1    3    3    0    0  0.50238453970E+01 -0.15879438196E+01  0.10305346963E+01  0.53686674481E+01  0.51100000000E-03 0. -1.
        -11    1    3    3    0    0  0.19816261788E+02 -0.58294109295E+01 -0.18451674608E+02  0.27697121857E+02  0.51100000000E-03 0.  1.
        -12    1    3    3    0    0  0.37702310419E+01 -0.58262217547E+00 -0.14218580462E+02  0.14721485015E+02  0.00000000000E+00 0.  1.
</event>
<event>
 7    1  0.1384886E-010  0.4778727E+02  0.7816164E-02  0.1312668E+00
        -11   -1    0    0    0    0  0.00000000000E+00  0.00000000000E+00  0.45593999997E+02  0.45594000000E+02  0.51100000000E-03 0. -1.
         11   -1    0    0    0    0 -0.00000000000E+00 -0.00000000000E+00 -0.45593999997E+02  0.45594000000E+02  0.51100000000E-03 0.  1.
    9900012    2    1    2    0    0 -0.19540450420E+02  0.34282862235E+02 -0.18068749719E+02  0.47787267725E+02  0.19999984863E+02 0.  0.
         12    1    1    2    0    0  0.19540450420E+02 -0.34282862235E+02  0.18068749719E+02  0.43400732275E+02  0.00000000000E+00 0. -1.
         11    1    3    3    0    0 -0.10143060930E+02  0.81487544627E+01 -0.14407194357E+01  0.13090437620E+02  0.51100000000E-03 0. -1.
        -11    1    3    3    0    0 -0.45240081728E+01  0.20440841312E+02 -0.61603998384E+01  0.21823042178E+02  0.51100000000E-03 0.  1.
        -12    1    3    3    0    0 -0.48733813174E+01  0.56932664606E+01 -0.10467630445E+02  0.12873787927E+02  0.00000000000E+00 0.  1.
</event>
<event>
 7    1  0.1384886E-010  0.4778727E+02  0.7816164E-02  0.1312668E+00
        -11   -1    0    0    0    0  0.00000000000E+00  0.00000000000E+00  0.45593999997E+02  0.45594000000E+02  0.51100000000E-03 0.  1.
         11   -1    0    0    0    0 -0.00000000000E+00 -0.00000000000E+00 -0.45593999997E+02  0.45594000000E+02  0.51100000000E-03 0. -1.
    9900012    2    1    2    0    0  0.26207776127E+02 -0.34470148111E+02  0.29299601608E+01  0.47787270664E+02  0.19999998267E+02 0.  0.
         12    1    1    2    0    0 -0.26207776127E+02  0.34470148111E+02 -0.29299601608E+01  0.43400729336E+02  0.00000000000E+00 0. -1.
         11    1    3    3    0    0  0.56543546308E+01  0.10514882176E+01  0.15915162737E+01  0.59674347983E+01  0.51100000000E-03 0. -1.
        -11    1    3    3    0    0  0.13419494234E+02 -0.18132430187E+02 -0.23006431880E+01  0.22675114317E+02  0.51100000000E-03 0.  1.
        -12    1    3    3    0    0  0.71339272624E+01 -0.17389206142E+02  0.36390870752E+01  0.19144721549E+02  0.00000000000E+00 0.  1.
</event>
<event>
 7    1  0.1384886E-010  0.4778727E+02  0.7816164E-02  0.1312668E+00
        -11   -1    0    0    0    0  0.00000000000E+00  0.00000000000E+00  0.45593999997E+02  0.45594000000E+02  0.51100000000E-03 0. -1.
         11   -1    0    0    0    0 -0.00000000000E+00 -0.00000000000E+00 -0.45593999997E+02  0.45594000000E+02  0.51100000000E-03 0.  1.
    9900012    2    1    2    0    0 -0.38922072316E+02  0.11829228808E+02  0.15124971109E+02  0.47787272833E+02  0.20000008154E+02 0.  0.
         12    1    1    2    0    0  0.38922072316E+02 -0.11829228808E+02 -0.15124971109E+02  0.43400727167E+02  0.00000000000E+00 0. -1.
         11    1    3    3    0    0 -0.14159386029E+02  0.52370432828E+01  0.51076581897E+01  0.15937471804E+02  0.51100000000E-03 0. -1.
        -11    1    3    3    0    0 -0.13853752694E+02  0.11727974781E+02  0.66478769224E+01  0.19330445519E+02  0.51100000000E-03 0.  1.
        -12    1    3    3    0    0 -0.10908933594E+02 -0.51357892555E+01  0.33694359973E+01  0.12519355510E+02  0.00000000000E+00 0.  1.
</event>
<event>
 7    1  0.1384886E-010  0.4778728E+02  0.7816164E-02  0.1312668E+00
        -11   -1    0    0    0    0  0.00000000000E+00  0.00000000000E+00  0.45593999997E+02  0.45594000000E+02  0.51100000000E-03 0.  1.
         11   -1    0    0    0    0 -0.00000000000E+00 -0.00000000000E+00 -0.45593999997E+02  0.45594000000E+02  0.51100000000E-03 0. -1.
    9900012    2    1    2    0    0  0.11887857826E+02  0.39412544452E+02  0.13746020589E+02  0.47787275284E+02  0.20000019329E+02 0.  0.
         12    1    1    2    0    0 -0.11887857826E+02 -0.39412544452E+02 -0.13746020589E+02  0.43400724716E+02  0.00000000000E+00 0. -1.
         11    1    3    3    0    0  0.32227878265E+01  0.57015971338E+00  0.65224797987E+01  0.72975466055E+01  0.51100000000E-03 0. -1.
        -11    1    3    3    0    0  0.37926882772E+01  0.14772298217E+02  0.35385324525E+01  0.15656515933E+02  0.51100000000E-03 0.  1.
        -12    1    3    3    0    0  0.48723817221E+01  0.24070086522E+02  0.36850083374E+01  0.24833212746E+02  0.00000000000E+00 0.  1.
</event>
<event>
 7    1  0.1384886E-010  0.4778728E+02  0.7816164E-02  0.1312668E+00
        -11   -1    0    0    0    0  0.00000000000E+00  0.00000000000E+00  0.45593999997E+02  0.45594000000E+02  0.51100000000E-03 0.  1.
         11   -1    0    0    0    0 -0.00000000000E+00 -0.00000000000E+00 -0.45593999997E+02  0.45594000000E+02  0.51100000000E-03 0. -1.
    9900012    2    1    2    0    0 -0.11189070190E+02 -0.40508309114E+02  0.10839935003E+02  0.47787278925E+02  0.20000035930E+02 0.  0.
         12    1    1    2    0    0  0.11189070190E+02  0.40508309114E+02 -0.10839935003E+02  0.43400721075E+02  0.00000000000E+00 0. -1.
         11    1    3    3    0    0  0.30265423987E+01 -0.23533826712E+01  0.23460166295E+01  0.44946816545E+01  0.51100000000E-03 0. -1.
        -11    1    3    3    0    0 -0.90519127647E+01 -0.34153182869E+02  0.97216110221E+01  0.36645419167E+02  0.51100000000E-03 0.  1.
         12    1    3    3    0    0 -0.51636998241E+01 -0.40017435737E+01 -0.12276926485E+01  0.66471781037E+01  0.00000000000E+00 0. -1.
</event>
<event>
 7    1  0.1384886E-010  0.4778730E+02  0.7816164E-02  0.1312668E+00
        -11   -1    0    0    0    0  0.00000000000E+00  0.00000000000E+00  0.45593999997E+02  0.45594000000E+02  0.51100000000E-03 0.  1.
         11   -1    0    0    0    0 -0.00000000000E+00 -0.00000000000E+00 -0.45593999997E+02  0.45594000000E+02  0.51100000000E-03 0. -1.
    9900012    2    1    2    0    0 -0.21715253785E+02 -0.31827856970E+02 -0.19976396541E+02  0.47787295570E+02  0.20000111823E+02 0.  0.
         12    1    1    2    0    0  0.21715253785E+02  0.31827856970E+02  0.19976396541E+02  0.43400704430E+02  0.00000000000E+00 0. -1.
         11    1    3    3    0    0 -0.46294710514E+01 -0.16572424708E+01 -0.91585453603E+01  0.10395066532E+02  0.51100000000E-03 0. -1.
        -11    1    3    3    0    0  0.16601838520E+00 -0.13493757080E+01  0.11018758088E+01  0.17500021328E+01  0.51100000000E-03 0.  1.
        -12    1    3    3    0    0 -0.17251801119E+02 -0.28821238791E+02 -0.11919726989E+02  0.35642226906E+02  0.00000000000E+00 0.  1.
</event>
<event>
 7    1  0.1384886E-010  0.4778727E+02  0.7816164E-02  0.1312668E+00
        -11   -1    0    0    0    0  0.00000000000E+00  0.00000000000E+00  0.45593999997E+02  0.45594000000E+02  0.51100000000E-03 0.  1.
         11   -1    0    0    0    0 -0.00000000000E+00 -0.00000000000E+00 -0.45593999997E+02  0.45594000000E+02  0.51100000000E-03 0. -1.
    9900012    2    1    2    0    0  0.16949237048E+02  0.13326360504E+02  0.37666361893E+02  0.47787270293E+02  0.19999996575E+02 0.  0.
         12    1    1    2    0    0 -0.16949237048E+02 -0.13326360504E+02 -0.37666361893E+02  0.43400729707E+02  0.00000000000E+00 0. -1.
         11    1    3    3    0    0  0.11819658394E+02  0.37599979388E+01  0.78596297338E+01  0.14683858106E+02  0.51100000000E-03 0. -1.
        -11    1    3    3    0    0  0.10744287211E+01  0.85112318479E+01  0.11640388670E+02  0.14460086904E+02  0.51100000000E-03 0.  1.
        -12    1    3    3    0    0  0.40551499326E+01  0.10551307174E+01  0.18166343490E+02  0.18643325283E+02  0.00000000000E+00 0.  1.
</event>
<event>
 7    1  0.1384886E-010  0.4778725E+02  0.7816164E-02  0.1312668E+00
        -11   -1    0    0    0    0  0.00000000000E+00  0.00000000000E+00  0.45593999997E+02  0.45594000000E+02  0.51100000000E-03 0.  1.
         11   -1    0    0    0    0 -0.00000000000E+00 -0.00000000000E+00 -0.45593999997E+02  0.45594000000E+02  0.51100000000E-03 0. -1.
    9900012    2    1    2    0    0  0.39404591596E+02 -0.21834142719E+01  0.18059233805E+02  0.47787250440E+02  0.19999906056E+02 0.  0.
         12    1    1    2    0    0 -0.39404591596E+02  0.21834142719E+01 -0.18059233805E+02  0.43400749560E+02  0.00000000000E+00 0. -1.
         11    1    3    3    0    0  0.34140170457E+01  0.36078155689E+01  0.79299335789E+01  0.93571198771E+01  0.51100000000E-03 0. -1.
        -11    1    3    3    0    0  0.16392680229E+02 -0.33953361533E+01  0.80548564293E+01  0.18577647457E+02  0.51100000000E-03 0.  1.
         12    1    3    3    0    0  0.19597894322E+02 -0.23958936875E+01  0.20744437971E+01  0.19852483106E+02  0.00000000000E+00 0. -1.
</event>
<event>
 7    1  0.1384886E-010  0.4778728E+02  0.7816164E-02  0.1312668E+00
        -11   -1    0    0    0    0  0.00000000000E+00  0.00000000000E+00  0.45593999997E+02  0.45594000000E+02  0.51100000000E-03 0.  1.
         11   -1    0    0    0    0 -0.00000000000E+00 -0.00000000000E+00 -0.45593999997E+02  0.45594000000E+02  0.51100000000E-03 0. -1.
    9900012    2    1    2    0    0  0.37164543790E+02  0.68237967058E+01  0.21350765185E+02  0.47787277765E+02  0.20000030640E+02 0.  0.
         12    1    1    2    0    0 -0.37164543790E+02 -0.68237967058E+01 -0.21350765185E+02  0.43400722235E+02  0.00000000000E+00 0. -1.
         11    1    3    3    0    0  0.80450543682E+01  0.13376444844E+01  0.38841658422E-01  0.81555932641E+01  0.51100000000E-03 0. -1.
        -11    1    3    3    0    0  0.52454719134E+01 -0.30952370356E+01  0.10320216297E+02  0.11983419069E+02  0.51100000000E-03 0.  1.
        -12    1    3    3    0    0  0.23874017508E+02  0.85813892570E+01  0.10991707230E+02  0.27648265431E+02  0.00000000000E+00 0.  1.
</event>
<event>
 7    1  0.1384886E-010  0.4778727E+02  0.7816164E-02  0.1312668E+00
        -11   -1    0    0    0    0  0.00000000000E+00  0.00000000000E+00  0.45593999997E+02  0.45594000000E+02  0.51100000000E-03 0.  1.
         11   -1    0    0    0    0 -0.00000000000E+00 -0.00000000000E+00 -0.45593999997E+02  0.45594000000E+02  0.51100000000E-03 0. -1.
    9900012    2    1    2    0    0 -0.39917378821E+02  0.16846849017E+02  0.25317405668E+01  0.47787272310E+02  0.20000005769E+02 0.  0.
         12    1    1    2    0    0  0.39917378821E+02 -0.16846849017E+02 -0.25317405668E+01  0.43400727690E+02  0.00000000000E+00 0. -1.
         11    1    3    3    0    0 -0.66362439429E+01  0.39546066362E+01 -0.39682863580E+01  0.86848111204E+01  0.51100000000E-03 0. -1.
        -11    1    3    3    0    0 -0.31114430486E+01  0.48935218165E+00  0.56536710988E+01  0.64718266785E+01  0.51100000000E-03 0.  1.
         12    1    3    3    0    0 -0.30169691830E+02  0.12402890199E+02  0.84635582597E+00  0.32630634511E+02  0.00000000000E+00 0. -1.
</event>
<event>
 7    1  0.1645966E-010  0.4778727E+02  0.7816164E-02  0.1312668E+00
        -11   -1    0    0    0    0  0.00000000000E+00  0.00000000000E+00  0.45593999997E+02  0.45594000000E+02  0.51100000000E-03 0.  1.
         11   -1    0    0    0    0 -0.00000000000E+00 -0.00000000000E+00 -0.45593999997E+02  0.45594000000E+02  0.51100000000E-03 0. -1.
    9900012    2    1    2    0    0  0.21058697143E+02  0.32818187585E+02  0.19055737505E+02  0.47787270818E+02  0.19999998967E+02 0.  0.
         12    1    1    2    0    0 -0.21058697143E+02 -0.32818187585E+02 -0.19055737505E+02  0.43400729182E+02  0.00000000000E+00 0. -1.
         11    1    3    3    0    0  0.74113801159E+01  0.82844676287E+01  0.12488513236E+02  0.16718968934E+02  0.51100000000E-03 0. -1.
        -11    1    3    3    0    0  0.73056453846E+01  0.20799576676E+02  0.82159150926E+01  0.23526497943E+02  0.51100000000E-03 0.  1.
         12    1    3    3    0    0  0.63416716421E+01  0.37341432794E+01 -0.16486908231E+01  0.75418039405E+01  0.00000000000E+00 0. -1.
</event>
<event>
 7    1  0.1436708E-010  0.4778727E+02  0.7816164E-02  0.1312668E+00
        -11   -1    0    0    0    0  0.00000000000E+00  0.00000000000E+00  0.45593999997E+02  0.45594000000E+02  0.51100000000E-03 0. -1.
         11   -1    0    0    0    0 -0.00000000000E+00 -0.00000000000E+00 -0.45593999997E+02  0.45594000000E+02  0.51100000000E-03 0.  1.
    9900012    2    1    2    0    0  0.10604355714E+02  0.39924761286E+02 -0.13311058385E+02  0.47787271905E+02  0.20000003922E+02 0.  0.
         12    1    1    2    0    0 -0.10604355714E+02 -0.39924761286E+02  0.13311058385E+02  0.43400728095E+02  0.00000000000E+00 0. -1.
         11    1    3    3    0    0 -0.40793812912E+01  0.62523916998E+01 -0.63591600043E+01  0.98067665368E+01  0.51100000000E-03 0. -1.
        -11    1    3    3    0    0  0.86340757940E+01  0.12280883305E+02 -0.41418741410E+01  0.15573133315E+02  0.51100000000E-03 0.  1.
        -12    1    3    3    0    0  0.60496612116E+01  0.21391486281E+02 -0.28100242395E+01  0.22407372053E+02  0.00000000000E+00 0.  1.
</event>
<event>
 7    1  0.1384886E-010  0.4778727E+02  0.7816164E-02  0.1312668E+00
        -11   -1    0    0    0    0  0.00000000000E+00  0.00000000000E+00  0.45593999997E+02  0.45594000000E+02  0.51100000000E-03 0.  1.
         11   -1    0    0    0    0 -0.00000000000E+00 -0.00000000000E+00 -0.45593999997E+02  0.45594000000E+02  0.51100000000E-03 0. -1.
    9900012    2    1    2    0    0 -0.39814989476E+02 -0.24991170537E+01 -0.17092227417E+02  0.47787271768E+02  0.20000003299E+02 0.  0.
         12    1    1    2    0    0  0.39814989476E+02  0.24991170537E+01  0.17092227417E+02  0.43400728232E+02  0.00000000000E+00 0. -1.
         11    1    3    3    0    0 -0.21080473571E+01 -0.59250421710E+01 -0.19991077261E+01  0.65989711584E+01  0.51100000000E-03 0. -1.
        -11    1    3    3    0    0 -0.17721322549E+02 -0.11169429348E+01 -0.57552118964E+01  0.18665885959E+02  0.51100000000E-03 0.  1.
        -12    1    3    3    0    0 -0.19985619569E+02  0.45428680521E+01 -0.93379077942E+01  0.22522414650E+02  0.00000000000E+00 0.  1.
</event>
<event>
 7    1  0.1384886E-010  0.4778727E+02  0.7816164E-02  0.1312668E+00
        -11   -1    0    0    0    0  0.00000000000E+00  0.00000000000E+00  0.45593999997E+02  0.45594000000E+02  0.51100000000E-03 0.  1.
         11   -1    0    0    0    0 -0.00000000000E+00 -0.00000000000E+00 -0.45593999997E+02  0.45594000000E+02  0.51100000000E-03 0. -1.
    9900012    2    1    2    0    0 -0.27612803939E+02 -0.32370547840E+02  0.85617840799E+01  0.47787268952E+02  0.19999990461E+02 0.  0.
         12    1    1    2    0    0  0.27612803939E+02  0.32370547840E+02 -0.85617840799E+01  0.43400731048E+02  0.00000000000E+00 0. -1.
         11    1    3    3    0    0 -0.15120216664E+02 -0.60327678232E+01  0.59614844817E+01  0.17336508791E+02  0.51100000000E-03 0. -1.
        -11    1    3    3    0    0 -0.81222504272E+01 -0.13258759987E+02 -0.24988161053E+01  0.15748325326E+02  0.51100000000E-03 0.  1.
        -12    1    3    3    0    0 -0.43703368469E+01 -0.13079020031E+02  0.50991157035E+01  0.14702434835E+02  0.00000000000E+00 0.  1.
</event>
<event>
 7    1  0.1384886E-010  0.4778727E+02  0.7816164E-02  0.1312668E+00
        -11   -1    0    0    0    0  0.00000000000E+00  0.00000000000E+00  0.45593999997E+02  0.45594000000E+02  0.51100000000E-03 0.  1.
         11   -1    0    0    0    0 -0.00000000000E+00 -0.00000000000E+00 -0.45593999997E+02  0.45594000000E+02  0.51100000000E-03 0. -1.
    9900012    2    1    2    0    0  0.22731861471E+02 -0.70664539913E+01  0.36289823314E+02  0.47787267585E+02  0.19999984229E+02 0.  0.
         12    1    1    2    0    0 -0.22731861471E+02  0.70664539913E+01 -0.36289823314E+02  0.43400732415E+02  0.00000000000E+00 0. -1.
         11    1    3    3    0    0  0.14869340692E+01 -0.41127713239E+01  0.84875623521E+01  0.95480142349E+01  0.51100000000E-03 0. -1.
        -11    1    3    3    0    0  0.11107921287E+02  0.60040825993E+01  0.15088092346E+02  0.19674487391E+02  0.51100000000E-03 0.  1.
        -12    1    3    3    0    0  0.10137006115E+02 -0.89577652668E+01  0.12714168616E+02  0.18564765960E+02  0.00000000000E+00 0.  1.
</event>
<event>
 7    1  0.1384886E-010  0.4778727E+02  0.7816164E-02  0.1312668E+00
        -11   -1    0    0    0    0  0.00000000000E+00  0.00000000000E+00  0.45593999997E+02  0.45594000000E+02  0.51100000000E-03 0.  1.
         11   -1    0    0    0    0 -0.00000000000E+00 -0.00000000000E+00 -0.45593999997E+02  0.45594000000E+02  0.51100000000E-03 0. -1.
    9900012    2    1    2    0    0  0.33731726716E+02  0.14568308185E+02  0.23098875301E+02  0.47787273846E+02  0.20000012771E+02 0.  0.
         12    1    1    2    0    0 -0.33731726716E+02 -0.14568308185E+02 -0.23098875301E+02  0.43400726154E+02  0.00000000000E+00 0. -1.
         11    1    3    3    0    0  0.80633043335E+01  0.87173818324E+01  0.10934713430E+02  0.16142415583E+02  0.51100000000E-03 0.  1.
        -11    1    3    3    0    0  0.70142335489E+01 -0.32714868490E+01  0.65363750138E+01  0.10130463813E+02  0.51100000000E-03 0. -1.
         12    1    3    3    0    0  0.18654188833E+02  0.91224132013E+01  0.56277868567E+01  0.21514394450E+02  0.00000000000E+00 0. -1.
</event>
<event>
 7    1  0.1387218E-010  0.4778727E+02  0.7816164E-02  0.1312668E+00
        -11   -1    0    0    0    0  0.00000000000E+00  0.00000000000E+00  0.45593999997E+02  0.45594000000E+02  0.51100000000E-03 0. -1.
         11   -1    0    0    0    0 -0.00000000000E+00 -0.00000000000E+00 -0.45593999997E+02  0.45594000000E+02  0.51100000000E-03 0.  1.
    9900012    2    1    2    0    0  0.13093494311E+02  0.27974096936E+02 -0.30489896755E+02  0.47787268477E+02  0.19999988293E+02 0.  0.
         12    1    1    2    0    0 -0.13093494311E+02 -0.27974096936E+02  0.30489896755E+02  0.43400731523E+02  0.00000000000E+00 0. -1.
         11    1    3    3    0    0  0.80423552539E+00 -0.24765865626E+01 -0.42403184016E+01  0.49760000191E+01  0.51100000000E-03 0. -1.
        -11    1    3    3    0    0  0.77872983736E+01  0.13870601846E+02 -0.82147800516E+01  0.17903022736E+02  0.51100000000E-03 0.  1.
        -12    1    3    3    0    0  0.45019604123E+01  0.16580081652E+02 -0.18034798302E+02  0.24908245722E+02  0.00000000000E+00 0.  1.
</event>
<event>
 7    1  0.1384886E-010  0.4778727E+02  0.7816164E-02  0.1312668E+00
        -11   -1    0    0    0    0  0.00000000000E+00  0.00000000000E+00  0.45593999997E+02  0.45594000000E+02  0.51100000000E-03 0. -1.
         11   -1    0    0    0    0 -0.00000000000E+00 -0.00000000000E+00 -0.45593999997E+02  0.45594000000E+02  0.51100000000E-03 0.  1.
    9900012    2    1    2    0    0  0.39899218227E+02  0.16459011648E+02 -0.45581506459E+01  0.47787269397E+02  0.19999992490E+02 0.  0.
         12    1    1    2    0    0 -0.39899218227E+02 -0.16459011648E+02  0.45581506459E+01  0.43400730603E+02  0.00000000000E+00 0. -1.
         11    1    3    3    0    0  0.10268961457E+01  0.34611332241E+01 -0.30420577885E+01  0.47210247551E+01  0.51100000000E-03 0. -1.
        -11    1    3    3    0    0  0.11210450770E+02  0.81899874416E+01 -0.50387439653E+01  0.14769530858E+02  0.51100000000E-03 0.  1.
        -12    1    3    3    0    0  0.27661871312E+02  0.48078909821E+01  0.35226511079E+01  0.28296713784E+02  0.00000000000E+00 0.  1.
</event>
<event>
 7    1  0.1384886E-010  0.4778727E+02  0.7816164E-02  0.1312668E+00
        -11   -1    0    0    0    0  0.00000000000E+00  0.00000000000E+00  0.45593999997E+02  0.45594000000E+02  0.51100000000E-03 0.  1.
         11   -1    0    0    0    0 -0.00000000000E+00 -0.00000000000E+00 -0.45593999997E+02  0.45594000000E+02  0.51100000000E-03 0. -1.
    9900012    2    1    2    0    0 -0.16742068773E+02  0.24148440251E+02  0.31940246146E+02  0.47787270085E+02  0.19999995624E+02 0.  0.
         12    1    1    2    0    0  0.16742068773E+02 -0.24148440251E+02 -0.31940246146E+02  0.43400729915E+02  0.00000000000E+00 0. -1.
         11    1    3    3    0    0 -0.28698915676E+01  0.71056860897E+01  0.13561455682E+02  0.15576910248E+02  0.51100000000E-03 0.  1.
        -11    1    3    3    0    0  0.24216378861E+01  0.61004773612E+01  0.66612889523E+01  0.93516268560E+01  0.51100000000E-03 0. -1.
        -12    1    3    3    0    0 -0.16293815091E+02  0.10942276800E+02  0.11717501512E+02  0.22858732980E+02  0.00000000000E+00 0.  1.
</event>
<event>
 7    1  0.1384886E-010  0.4778727E+02  0.7816164E-02  0.1312668E+00
        -11   -1    0    0    0    0  0.00000000000E+00  0.00000000000E+00  0.45593999997E+02  0.45594000000E+02  0.51100000000E-03 0.  1.
         11   -1    0    0    0    0 -0.00000000000E+00 -0.00000000000E+00 -0.45593999997E+02  0.45594000000E+02  0.51100000000E-03 0. -1.
    9900012    2    1    2    0    0 -0.41681752016E+02 -0.29867189196E+01  0.11718982665E+02  0.47787268489E+02  0.19999988347E+02 0.  0.
         12    1    1    2    0    0  0.41681752016E+02  0.29867189196E+01 -0.11718982665E+02  0.43400731511E+02  0.00000000000E+00 0. -1.
         11    1    3    3    0    0 -0.84312344660E+01  0.49494979339E+01 -0.10002722231E+01  0.98277051848E+01  0.51100000000E-03 0. -1.
        -11    1    3    3    0    0 -0.24650177319E+02 -0.41551620239E+01  0.43419542463E+01  0.25372212758E+02  0.51100000000E-03 0.  1.
        -12    1    3    3    0    0 -0.86003402312E+01 -0.37810548296E+01  0.83773006420E+01  0.12587350546E+02  0.00000000000E+00 0.  1.
</event>
<event>
 7    1 -0.1384886E-010  0.4778727E+02  0.7816164E-02  0.1312668E+00
        -11   -1    0    0    0    0  0.00000000000E+00  0.00000000000E+00  0.45593999997E+02  0.45594000000E+02  0.51100000000E-03 0. -1.
         11   -1    0    0    0    0 -0.00000000000E+00 -0.00000000000E+00 -0.45593999997E+02  0.45594000000E+02  0.51100000000E-03 0.  1.
    9900012    2    1    2    0    0  0.19331366889E+01  0.43266742769E+02 -0.28063346711E+01  0.47787267730E+02  0.19999984886E+02 0.  0.
         12    1    1    2    0    0 -0.19331366889E+01 -0.43266742769E+02  0.28063346711E+01  0.43400732270E+02  0.00000000000E+00 0. -1.
         11    1    3    3    0    0 -0.98442544384E+00 -0.86675139086E+00 -0.68970200113E+00  0.14819043625E+01  0.51100000000E-03 0. -1.
        -11    1    3    3    0    0  0.10437317057E+01  0.26506341388E+02  0.53662591509E+01  0.27064224489E+02  0.51100000000E-03 0.  1.
        -12    1    3    3    0    0  0.18738304270E+01  0.17627152772E+02 -0.74828918209E+01  0.19241138878E+02  0.00000000000E+00 0.  1.
</event>
<event>
 7    1  0.1384886E-010  0.4778726E+02  0.7816164E-02  0.1312668E+00
        -11   -1    0    0    0    0  0.00000000000E+00  0.00000000000E+00  0.45593999997E+02  0.45594000000E+02  0.51100000000E-03 0.  1.
         11   -1    0    0    0    0 -0.00000000000E+00 -0.00000000000E+00 -0.45593999997E+02  0.45594000000E+02  0.51100000000E-03 0. -1.
    9900012    2    1    2    0    0 -0.30294928751E+02  0.24318414498E+02 -0.19350862602E+02  0.47787264117E+02  0.19999968415E+02 0.  0.
         12    1    1    2    0    0  0.30294928751E+02 -0.24318414498E+02  0.19350862602E+02  0.43400735883E+02  0.00000000000E+00 0. -1.
         11    1    3    3    0    0 -0.40661148086E+01  0.44592217294E+01 -0.86469002267E+01  0.10544516673E+02  0.51100000000E-03 0. -1.
        -11    1    3    3    0    0 -0.27406727550E+02  0.16491535762E+02 -0.86879477500E+01  0.33144832224E+02  0.51100000000E-03 0.  1.
         12    1    3    3    0    0  0.11779136076E+01  0.33676570072E+01 -0.20160146252E+01  0.40979152205E+01  0.00000000000E+00 0. -1.
</event>
<event>
 7    1  0.1384886E-010  0.4778727E+02  0.7816164E-02  0.1312668E+00
        -11   -1    0    0    0    0  0.00000000000E+00  0.00000000000E+00  0.45593999997E+02  0.45594000000E+02  0.51100000000E-03 0.  1.
         11   -1    0    0    0    0 -0.00000000000E+00 -0.00000000000E+00 -0.45593999997E+02  0.45594000000E+02  0.51100000000E-03 0. -1.
    9900012    2    1    2    0    0  0.14133213360E+01  0.42438625418E+02  0.89771231926E+01  0.47787272524E+02  0.20000006747E+02 0.  0.
         12    1    1    2    0    0 -0.14133213360E+01 -0.42438625418E+02 -0.89771231926E+01  0.43400727476E+02  0.00000000000E+00 0. -1.
         11    1    3    3    0    0  0.29759421309E+01  0.15723149391E+01 -0.11944242010E+01  0.35714220232E+01  0.51100000000E-03 0. -1.
        -11    1    3    3    0    0  0.12732590731E+01 -0.47332195686E+00  0.12142322873E+01  0.18219721872E+01  0.51100000000E-03 0.  1.
         12    1    3    3    0    0 -0.28358798681E+01  0.41339632436E+02  0.89573151063E+01  0.42393878314E+02  0.00000000000E+00 0. -1.
</event>
<event>
 7    1  0.1384886E-010  0.4778727E+02  0.7816164E-02  0.1312668E+00
        -11   -1    0    0    0    0  0.00000000000E+00  0.00000000000E+00  0.45593999997E+02  0.45594000000E+02  0.51100000000E-03 0.  1.
         11   -1    0    0    0    0 -0.00000000000E+00 -0.00000000000E+00 -0.45593999997E+02  0.45594000000E+02  0.51100000000E-03 0. -1.
    9900012    2    1    2    0    0 -0.26873249909E+02 -0.32261216003E+02  0.10984788027E+02  0.47787272049E+02  0.20000004581E+02 0.  0.
         12    1    1    2    0    0  0.26873249909E+02  0.32261216003E+02 -0.10984788027E+02  0.43400727951E+02  0.00000000000E+00 0. -1.
         11    1    3    3    0    0 -0.86328720099E+00  0.86441475615E+00 -0.19060796123E+01  0.22639826438E+01  0.51100000000E-03 0. -1.
        -11    1    3    3    0    0 -0.84667186045E+01 -0.19497843221E+02  0.41909509908E+01  0.21665993738E+02  0.51100000000E-03 0.  1.
        -12    1    3    3    0    0 -0.17543244103E+02 -0.13627787539E+02  0.86999166480E+01  0.23857295667E+02  0.00000000000E+00 0.  1.
</event>
<event>
 7    1  0.1384886E-010  0.4778727E+02  0.7816164E-02  0.1312668E+00
        -11   -1    0    0    0    0  0.00000000000E+00  0.00000000000E+00  0.45593999997E+02  0.45594000000E+02  0.51100000000E-03 0.  1.
         11   -1    0    0    0    0 -0.00000000000E+00 -0.00000000000E+00 -0.45593999997E+02  0.45594000000E+02  0.51100000000E-03 0. -1.
    9900012    2    1    2    0    0 -0.14674595088E+02 -0.34434880656E+02  0.21966303073E+02  0.47787271694E+02  0.20000002961E+02 0.  0.
         12    1    1    2    0    0  0.14674595088E+02  0.34434880656E+02 -0.21966303073E+02  0.43400728306E+02  0.00000000000E+00 0. -1.
         11    1    3    3    0    0 -0.11038184761E+02 -0.56344953356E+01  0.10876489005E+02  0.16488998571E+02  0.51100000000E-03 0. -1.
        -11    1    3    3    0    0 -0.22722686428E+01 -0.13673360687E+02  0.72015450287E+01  0.15620059165E+02  0.51100000000E-03 0.  1.
        -12    1    3    3    0    0 -0.13641416838E+01 -0.15127024634E+02  0.38882690390E+01  0.15678213958E+02  0.00000000000E+00 0.  1.
</event>
<event>
 7    1  0.1384886E-010  0.4778727E+02  0.7816164E-02  0.1312668E+00
        -11   -1    0    0    0    0  0.00000000000E+00  0.00000000000E+00  0.45593999997E+02  0.45594000000E+02  0.51100000000E-03 0.  1.
         11   -1    0    0    0    0 -0.00000000000E+00 -0.00000000000E+00 -0.45593999997E+02  0.45594000000E+02  0.51100000000E-03 0. -1.
    9900012    2    1    2    0    0 -0.77108448290E+01 -0.41054404260E+02  0.11777188929E+02  0.47787269405E+02  0.19999992526E+02 0.  0.
         12    1    1    2    0    0  0.77108448290E+01  0.41054404260E+02 -0.11777188929E+02  0.43400730595E+02  0.00000000000E+00 0. -1.
         11    1    3    3    0    0  0.74477346917E+00 -0.37342287084E+00  0.22093108584E+01  0.23611833666E+01  0.51100000000E-03 0. -1.
        -11    1    3    3    0    0 -0.39171711309E+01 -0.33742436396E+02  0.17242418969E+01  0.34012780745E+02  0.51100000000E-03 0.  1.
        -12    1    3    3    0    0 -0.45384471673E+01 -0.69385449925E+01  0.78436361735E+01  0.11413305294E+02  0.00000000000E+00 0.  1.
</event>
<event>
 7    1  0.1384886E-010  0.4778728E+02  0.7816164E-02  0.1312668E+00
        -11   -1    0    0    0    0  0.00000000000E+00  0.00000000000E+00  0.45593999997E+02  0.45594000000E+02  0.51100000000E-03 0.  1.
         11   -1    0    0    0    0 -0.00000000000E+00 -0.00000000000E+00 -0.45593999997E+02  0.45594000000E+02  0.51100000000E-03 0. -1.
    9900012    2    1    2    0    0 -0.33659439363E+02 -0.16359623216E+02  0.21977884375E+02  0.47787279596E+02  0.20000038992E+02 0.  0.
         12    1    1    2    0    0  0.33659439363E+02  0.16359623216E+02 -0.21977884375E+02  0.43400720404E+02  0.00000000000E+00 0. -1.
         11    1    3    3    0    0 -0.16391740455E+02  0.77354725208E-01  0.14144944523E+02  0.21651203078E+02  0.51100000000E-03 0. -1.
        -11    1    3    3    0    0 -0.16148528196E+02 -0.11472322120E+02  0.56533488383E+01  0.20599744927E+02  0.51100000000E-03 0.  1.
        -12    1    3    3    0    0 -0.11191707115E+01 -0.49646558206E+01  0.21795910131E+01  0.55363315907E+01  0.00000000000E+00 0.  1.
</event>
<event>
 7    1  0.1384886E-010  0.4778727E+02  0.7816164E-02  0.1312668E+00
        -11   -1    0    0    0    0  0.00000000000E+00  0.00000000000E+00  0.45593999997E+02  0.45594000000E+02  0.51100000000E-03 0. -1.
         11   -1    0    0    0    0 -0.00000000000E+00 -0.00000000000E+00 -0.45593999997E+02  0.45594000000E+02  0.51100000000E-03 0.  1.
    9900012    2    1    2    0    0  0.67602027154E+01 -0.29659240501E+01 -0.42768284027E+02  0.47787272301E+02  0.20000005729E+02 0.  0.
         12    1    1    2    0    0 -0.67602027154E+01  0.29659240501E+01  0.42768284027E+02  0.43400727699E+02  0.00000000000E+00 0. -1.
         11    1    3    3    0    0 -0.13617541146E+01 -0.51374996435E+01 -0.13949005333E+02  0.14927257849E+02  0.51100000000E-03 0. -1.
        -11    1    3    3    0    0  0.84617031934E+01 -0.23649584843E+01 -0.26147671559E+02  0.27584310356E+02  0.51100000000E-03 0.  1.
         12    1    3    3    0    0 -0.33974636351E+00  0.45365340777E+01 -0.26716071349E+01  0.52757040964E+01  0.00000000000E+00 0. -1.
</event>
<event>
 7    1  0.1494422E-010  0.4778727E+02  0.7816164E-02  0.1312668E+00
        -11   -1    0    0    0    0  0.00000000000E+00  0.00000000000E+00  0.45593999997E+02  0.45594000000E+02  0.51100000000E-03 0. -1.
         11   -1    0    0    0    0 -0.00000000000E+00 -0.00000000000E+00 -0.45593999997E+02  0.45594000000E+02  0.51100000000E-03 0.  1.
    9900012    2    1    2    0    0  0.22497971970E+02  0.63371154232E+01 -0.36569186877E+02  0.47787271856E+02  0.20000003698E+02 0.  0.
         12    1    1    2    0    0 -0.22497971970E+02 -0.63371154232E+01  0.36569186877E+02  0.43400728144E+02  0.00000000000E+00 0. -1.
         11    1    3    3    0    0  0.37961211785E+00  0.19667712264E+01  0.42872313164E+00  0.20484379907E+01  0.51100000000E-03 0. -1.
        -11    1    3    3    0    0  0.37838864643E+01  0.71828868715E+01 -0.14103541703E+02  0.16273338607E+02  0.51100000000E-03 0.  1.
        -12    1    3    3    0    0  0.18334473388E+02 -0.28125426747E+01 -0.22894368305E+02  0.29465495258E+02  0.00000000000E+00 0.  1.
</event>
<event>
 7    1  0.1384886E-010  0.4778727E+02  0.7816164E-02  0.1312668E+00
        -11   -1    0    0    0    0  0.00000000000E+00  0.00000000000E+00  0.45593999997E+02  0.45594000000E+02  0.51100000000E-03 0.  1.
         11   -1    0    0    0    0 -0.00000000000E+00 -0.00000000000E+00 -0.45593999997E+02  0.45594000000E+02  0.51100000000E-03 0. -1.
    9900012    2    1    2    0    0 -0.75278992075E+01  0.92827124790E+01  0.41722720871E+02  0.47787268966E+02  0.19999990521E+02 0.  0.
         12    1    1    2    0    0  0.75278992075E+01 -0.92827124790E+01 -0.41722720871E+02  0.43400731034E+02  0.00000000000E+00 0. -1.
         11    1    3    3    0    0 -0.48090337021E+00  0.47585863896E+01  0.13589978856E+00  0.47847551131E+01  0.51100000000E-03 0. -1.
        -11    1    3    3    0    0 -0.16914861570E+01 -0.19109046486E+01  0.10829480344E+02  0.11126110136E+02  0.51100000000E-03 0.  1.
         12    1    3    3    0    0 -0.53555096803E+01  0.64350307380E+01  0.30757340739E+02  0.31876403716E+02  0.00000000000E+00 0. -1.
</event>
<event>
 7    1  0.1384886E-010  0.4778728E+02  0.7816164E-02  0.1312668E+00
        -11   -1    0    0    0    0  0.00000000000E+00  0.00000000000E+00  0.45593999997E+02  0.45594000000E+02  0.51100000000E-03 0.  1.
         11   -1    0    0    0    0 -0.00000000000E+00 -0.00000000000E+00 -0.45593999997E+02  0.45594000000E+02  0.51100000000E-03 0. -1.
    9900012    2    1    2    0    0  0.33478233876E+02 -0.17573967857E+02  0.21306955809E+02  0.47787275864E+02  0.20000021974E+02 0.  0.
         12    1    1    2    0    0 -0.33478233876E+02  0.17573967857E+02 -0.21306955809E+02  0.43400724136E+02  0.00000000000E+00 0. -1.
         11    1    3    3    0    0  0.10561110354E+02 -0.12498740056E+02  0.94810943407E+01  0.18911549514E+02  0.51100000000E-03 0. -1.
        -11    1    3    3    0    0  0.11088023989E+02 -0.16534585667E+01  0.12183536357E+02  0.16556471836E+02  0.51100000000E-03 0.  1.
         12    1    3    3    0    0  0.11829099533E+02 -0.34217692350E+01 -0.35767488881E+00  0.12319254514E+02  0.00000000000E+00 0. -1.
</event>
<event>
 7    1  0.1384886E-010  0.4778727E+02  0.7816164E-02  0.1312668E+00
        -11   -1    0    0    0    0  0.00000000000E+00  0.00000000000E+00  0.45593999997E+02  0.45594000000E+02  0.51100000000E-03 0.  1.
         11   -1    0    0    0    0 -0.00000000000E+00 -0.00000000000E+00 -0.45593999997E+02  0.45594000000E+02  0.51100000000E-03 0. -1.
    9900012    2    1    2    0    0 -0.11328344781E+02  0.14773342660E+02  0.39205107004E+02  0.47787268854E+02  0.19999990011E+02 0.  0.
         12    1    1    2    0    0  0.11328344781E+02 -0.14773342660E+02 -0.39205107004E+02  0.43400731146E+02  0.00000000000E+00 0. -1.
         11    1    3    3    0    0 -0.40894799454E+01 -0.21852879837E+01  0.85424829435E+01  0.97197399603E+01  0.51100000000E-03 0. -1.
        -11    1    3    3    0    0  0.30220936567E+01  0.53052656951E+01  0.42849603981E+01  0.74592077354E+01  0.51100000000E-03 0.  1.
        -12    1    3    3    0    0 -0.10260958492E+02  0.11653364949E+02  0.26377663662E+02  0.30608321158E+02  0.00000000000E+00 0.  1.
</event>
<event>
 7    1  0.1384886E-010  0.4778727E+02  0.7816164E-02  0.1312668E+00
        -11   -1    0    0    0    0  0.00000000000E+00  0.00000000000E+00  0.45593999997E+02  0.45594000000E+02  0.51100000000E-03 0. -1.
         11   -1    0    0    0    0 -0.00000000000E+00 -0.00000000000E+00 -0.45593999997E+02  0.45594000000E+02  0.51100000000E-03 0.  1.
    9900012    2    1    2    0    0  0.44071054984E+01 -0.40749750190E+02  0.14270897202E+02  0.47787271592E+02  0.20000002495E+02 0.  0.
         12    1    1    2    0    0 -0.44071054984E+01  0.40749750190E+02 -0.14270897202E+02  0.43400728408E+02  0.00000000000E+00 0. -1.
         11    1    3    3    0    0 -0.80895873230E+00  0.12770815383E+01 -0.94091346868E-01  0.15146633054E+01  0.51100000000E-03 0. -1.
        -11    1    3    3    0    0 -0.35567534062E+00 -0.22451167268E+02  0.12831596410E+02  0.25861772626E+02  0.51100000000E-03 0.  1.
         12    1    3    3    0    0  0.55717395713E+01 -0.19575664460E+02  0.15333921385E+01  0.20410835660E+02  0.00000000000E+00 0. -1.
</event>
<event>
 7    1  0.1384886E-010  0.4778727E+02  0.7816164E-02  0.1312668E+00
        -11   -1    0    0    0    0  0.00000000000E+00  0.00000000000E+00  0.45593999997E+02  0.45594000000E+02  0.51100000000E-03 0.  1.
         11   -1    0    0    0    0 -0.00000000000E+00 -0.00000000000E+00 -0.45593999997E+02  0.45594000000E+02  0.51100000000E-03 0. -1.
    9900012    2    1    2    0    0 -0.39625296753E+02 -0.19374175066E+01  0.17598452545E+02  0.47787271189E+02  0.20000000658E+02 0.  0.
         12    1    1    2    0    0  0.39625296753E+02  0.19374175066E+01 -0.17598452545E+02  0.43400728811E+02  0.00000000000E+00 0. -1.
         11    1    3    3    0    0  0.16658593490E+00  0.20128131664E+01  0.17996877988E+01  0.27051883762E+01  0.51100000000E-03 0. -1.
        -11    1    3    3    0    0 -0.24731401330E+02  0.40912738963E+01  0.80074238320E+01  0.26315386574E+02  0.51100000000E-03 0.  1.
         12    1    3    3    0    0 -0.15060481358E+02 -0.80415045694E+01  0.77913409143E+01  0.18766696239E+02  0.00000000000E+00 0. -1.
</event>
<event>
 7    1  0.1384886E-010  0.4778727E+02  0.7816164E-02  0.1312668E+00
        -11   -1    0    0    0    0  0.00000000000E+00  0.00000000000E+00  0.45593999997E+02  0.45594000000E+02  0.51100000000E-03 0.  1.
         11   -1    0    0    0    0 -0.00000000000E+00 -0.00000000000E+00 -0.45593999997E+02  0.45594000000E+02  0.51100000000E-03 0. -1.
    9900012    2    1    2    0    0  0.42062977095E+02 -0.83433724438E+01  0.66870942153E+01  0.47787272645E+02  0.20000007299E+02 0.  0.
         12    1    1    2    0    0 -0.42062977095E+02  0.83433724438E+01 -0.66870942153E+01  0.43400727355E+02  0.00000000000E+00 0. -1.
         11    1    3    3    0    0 -0.48179386643E-01 -0.23725219692E+01 -0.24698158232E+00  0.23858293969E+01  0.51100000000E-03 0. -1.
        -11    1    3    3    0    0  0.38471334194E+01 -0.33418717648E+01  0.47797753443E+01  0.69867585505E+01  0.51100000000E-03 0.  1.
         12    1    3    3    0    0  0.38264023063E+02 -0.26289787097E+01  0.21543004533E+01  0.38414684698E+02  0.00000000000E+00 0. -1.
</event>
<event>
 7    1  0.1384886E-010  0.4778727E+02  0.7816164E-02  0.1312668E+00
        -11   -1    0    0    0    0  0.00000000000E+00  0.00000000000E+00  0.45593999997E+02  0.45594000000E+02  0.51100000000E-03 0.  1.
         11   -1    0    0    0    0 -0.00000000000E+00 -0.00000000000E+00 -0.45593999997E+02  0.45594000000E+02  0.51100000000E-03 0. -1.
    9900012    2    1    2    0    0 -0.11256526991E+02 -0.22115116854E+02  0.35606682309E+02  0.47787267075E+02  0.19999981901E+02 0.  0.
         12    1    1    2    0    0  0.11256526991E+02  0.22115116854E+02 -0.35606682309E+02  0.43400732925E+02  0.00000000000E+00 0. -1.
         11    1    3    3    0    0 -0.67750521891E+00 -0.10335570461E+02  0.59554470132E+01  0.11947819025E+02  0.51100000000E-03 0.  1.
        -11    1    3    3    0    0 -0.46190109454E+01 -0.95042626533E+01  0.79607789192E+01  0.13230278605E+02  0.51100000000E-03 0. -1.
        -12    1    3    3    0    0 -0.59600108270E+01 -0.22752837402E+01  0.21690456377E+02  0.22609169445E+02  0.00000000000E+00 0.  1.
</event>
<event>
 7    1  0.1672059E-010  0.4778727E+02  0.7816164E-02  0.1312668E+00
        -11   -1    0    0    0    0  0.00000000000E+00  0.00000000000E+00  0.45593999997E+02  0.45594000000E+02  0.51100000000E-03 0. -1.
         11   -1    0    0    0    0 -0.00000000000E+00 -0.00000000000E+00 -0.45593999997E+02  0.45594000000E+02  0.51100000000E-03 0.  1.
    9900012    2    1    2    0    0  0.13424507648E+02  0.39262292933E+02 -0.12723145222E+02  0.47787268713E+02  0.19999989370E+02 0.  0.
         12    1    1    2    0    0 -0.13424507648E+02 -0.39262292933E+02  0.12723145222E+02  0.43400731287E+02  0.00000000000E+00 0. -1.
         11    1    3    3    0    0 -0.38800929602E+01  0.68468685224E+01 -0.27671417303E+01  0.83421701948E+01  0.51100000000E-03 0. -1.
        -11    1    3    3    0    0  0.88290716460E+01  0.15932947073E+02 -0.10264416901E+02  0.20908600220E+02  0.51100000000E-03 0.  1.
        -12    1    3    3    0    0  0.84755289617E+01  0.16482477337E+02  0.30841340838E+00  0.18536498299E+02  0.00000000000E+00 0.  1.
</event>
<event>
 7    1  0.1384886E-010  0.4778728E+02  0.7816164E-02  0.1312668E+00
        -11   -1    0    0    0    0  0.00000000000E+00  0.00000000000E+00  0.45593999997E+02  0.45594000000E+02  0.51100000000E-03 0.  1.
         11   -1    0    0    0    0 -0.00000000000E+00 -0.00000000000E+00 -0.45593999997E+02  0.45594000000E+02  0.51100000000E-03 0. -1.
    9900012    2    1    2    0    0 -0.16958118492E+02  0.29590777725E+02  0.26840832139E+02  0.47787283657E+02  0.20000057508E+02 0.  0.
         12    1    1    2    0    0  0.16958118492E+02 -0.29590777725E+02 -0.26840832139E+02  0.43400716343E+02  0.00000000000E+00 0. -1.
         11    1    3    3    0    0 -0.54157906965E+01  0.14830414083E+02  0.49024046914E+01  0.16531955201E+02  0.51100000000E-03 0. -1.
        -11    1    3    3    0    0 -0.12279776428E+02  0.16344058662E+02  0.19469807419E+02  0.28231092148E+02  0.51100000000E-03 0.  1.
         12    1    3    3    0    0  0.73744863185E+00 -0.15836950212E+01  0.24686200283E+01  0.30242363083E+01  0.00000000000E+00 0. -1.
</event>
<event>
 7    1  0.1384886E-010  0.4778725E+02  0.7816164E-02  0.1312668E+00
        -11   -1    0    0    0    0  0.00000000000E+00  0.00000000000E+00  0.45593999997E+02  0.45594000000E+02  0.51100000000E-03 0.  1.
         11   -1    0    0    0    0 -0.00000000000E+00 -0.00000000000E+00 -0.45593999997E+02  0.45594000000E+02  0.51100000000E-03 0. -1.
    9900012    2    1    2    0    0  0.17731845991E+01  0.41306463215E+02  0.13200655696E+02  0.47787246576E+02  0.19999888439E+02 0.  0.
         12    1    1    2    0    0 -0.17731845991E+01 -0.41306463215E+02 -0.13200655696E+02  0.43400753424E+02  0.00000000000E+00 0. -1.
         11    1    3    3    0    0  0.50805178103E+01  0.12879981011E+02  0.48693904830E+00  0.13854338020E+02  0.51100000000E-03 0. -1.
        -11    1    3    3    0    0  0.49450941236E+01  0.80632587476E+01  0.45152020069E+01  0.10481276017E+02  0.51100000000E-03 0.  1.
        -12    1    3    3    0    0 -0.82524273348E+01  0.20363223456E+02  0.81985146404E+01  0.23451632539E+02  0.00000000000E+00 0.  1.
</event>
<event>
 7    1  0.1384886E-010  0.4778727E+02  0.7816164E-02  0.1312668E+00
        -11   -1    0    0    0    0  0.00000000000E+00  0.00000000000E+00  0.45593999997E+02  0.45594000000E+02  0.51100000000E-03 0.  1.
         11   -1    0    0    0    0 -0.00000000000E+00 -0.00000000000E+00 -0.45593999997E+02  0.45594000000E+02  0.51100000000E-03 0. -1.
    9900012    2    1    2    0    0 -0.19288554416E+01 -0.35517151696E+02  0.24868357899E+02  0.47787265300E+02  0.19999973807E+02 0.  0.
         12    1    1    2    0    0  0.19288554416E+01  0.35517151696E+02 -0.24868357899E+02  0.43400734700E+02  0.00000000000E+00 0. -1.
         11    1    3    3    0    0  0.24739253998E+01 -0.17972479777E+02  0.59269563535E+01  0.19085574345E+02  0.51100000000E-03 0. -1.
        -11    1    3    3    0    0 -0.14561422088E+01 -0.14931272132E+02  0.19626974040E+02  0.24703873134E+02  0.51100000000E-03 0.  1.
         12    1    3    3    0    0 -0.29466386326E+01 -0.26133997871E+01 -0.68557249390E+00  0.39978178201E+01  0.00000000000E+00 0. -1.
</event>
<event>
 7    1  0.1384886E-010  0.4778727E+02  0.7816164E-02  0.1312668E+00
        -11   -1    0    0    0    0  0.00000000000E+00  0.00000000000E+00  0.45593999997E+02  0.45594000000E+02  0.51100000000E-03 0.  1.
         11   -1    0    0    0    0 -0.00000000000E+00 -0.00000000000E+00 -0.45593999997E+02  0.45594000000E+02  0.51100000000E-03 0. -1.
    9900012    2    1    2    0    0 -0.20383802980E+02  0.22378228273E+02  0.31102069152E+02  0.47787271549E+02  0.20000002300E+02 0.  0.
         12    1    1    2    0    0  0.20383802980E+02 -0.22378228273E+02 -0.31102069152E+02  0.43400728451E+02  0.00000000000E+00 0. -1.
         11    1    3    3    0    0 -0.26478965466E+01 -0.15020779674E+01 -0.13989707050E+01  0.33503303772E+01  0.51100000000E-03 0. -1.
        -11    1    3    3    0    0 -0.27365741448E+01  0.79493317578E+01  0.83877283287E+01  0.11875803140E+02  0.51100000000E-03 0.  1.
         12    1    3    3    0    0 -0.14999332289E+02  0.15930974483E+02  0.24113311528E+02  0.32561138032E+02  0.00000000000E+00 0. -1.
</event>
<event>
 7    1  0.1384886E-010  0.4778727E+02  0.7816164E-02  0.1312668E+00
        -11   -1    0    0    0    0  0.00000000000E+00  0.00000000000E+00  0.45593999997E+02  0.45594000000E+02  0.51100000000E-03 0.  1.
         11   -1    0    0    0    0 -0.00000000000E+00 -0.00000000000E+00 -0.45593999997E+02  0.45594000000E+02  0.51100000000E-03 0. -1.
    9900012    2    1    2    0    0  0.53809156911E+01  0.42260150198E+02  0.82914888022E+01  0.47787270341E+02  0.19999996791E+02 0.  0.
         12    1    1    2    0    0 -0.53809156911E+01 -0.42260150198E+02 -0.82914888022E+01  0.43400729659E+02  0.00000000000E+00 0. -1.
         11    1    3    3    0    0  0.10495976069E+02  0.24998141569E+02  0.82162382209E+01  0.28329828209E+02  0.51100000000E-03 0.  1.
        -11    1    3    3    0    0 -0.60121827086E+00  0.89501816507E+01 -0.30835144247E+01  0.94855298459E+01  0.51100000000E-03 0. -1.
        -12    1    3    3    0    0 -0.45138421073E+01  0.83118269779E+01  0.31587650060E+01  0.99719122862E+01  0.00000000000E+00 0.  1.
</event>
<event>
 7    1  0.1384886E-010  0.4778727E+02  0.7816164E-02  0.1312668E+00
        -11   -1    0    0    0    0  0.00000000000E+00  0.00000000000E+00  0.45593999997E+02  0.45594000000E+02  0.51100000000E-03 0.  1.
         11   -1    0    0    0    0 -0.00000000000E+00 -0.00000000000E+00 -0.45593999997E+02  0.45594000000E+02  0.51100000000E-03 0. -1.
    9900012    2    1    2    0    0  0.29544424079E+02  0.25679021199E+02  0.18744018960E+02  0.47787269930E+02  0.19999994917E+02 0.  0.
         12    1    1    2    0    0 -0.29544424079E+02 -0.25679021199E+02 -0.18744018960E+02  0.43400730070E+02  0.00000000000E+00 0. -1.
         11    1    3    3    0    0  0.36856832093E+01  0.77784921482E+01  0.11929806432E+02  0.14710862741E+02  0.51100000000E-03 0. -1.
        -11    1    3    3    0    0  0.51434286125E+01  0.58016645049E+01 -0.10644499719E+01  0.78260604983E+01  0.51100000000E-03 0.  1.
         12    1    3    3    0    0  0.20715312257E+02  0.12098864546E+02  0.78786625003E+01  0.25250346690E+02  0.00000000000E+00 0. -1.
</event>
<event>
 7    1  0.1384886E-010  0.4778729E+02  0.7816164E-02  0.1312668E+00
        -11   -1    0    0    0    0  0.00000000000E+00  0.00000000000E+00  0.45593999997E+02  0.45594000000E+02  0.51100000000E-03 0.  1.
         11   -1    0    0    0    0 -0.00000000000E+00 -0.00000000000E+00 -0.45593999997E+02  0.45594000000E+02  0.51100000000E-03 0. -1.
    9900012    2    1    2    0    0  0.21257057806E+02  0.27551545518E+01  0.37738153180E+02  0.47787290459E+02  0.20000088520E+02 0.  0.
         12    1    1    2    0    0 -0.21257057806E+02 -0.27551545518E+01 -0.37738153180E+02  0.43400709541E+02  0.00000000000E+00 0. -1.
         11    1    3    3    0    0  0.90066559022E+01  0.69848315737E+01  0.20026849624E+02  0.23043055978E+02  0.51100000000E-03 0. -1.
        -11    1    3    3    0    0  0.47449639544E+01 -0.59267526193E+01  0.14576686774E+02  0.16435354487E+02  0.51100000000E-03 0.  1.
         12    1    3    3    0    0  0.75054379499E+01  0.16970755973E+01  0.31346167821E+01  0.83088799951E+01  0.00000000000E+00 0. -1.
</event>
<event>
 7    1  0.1384886E-010  0.4778727E+02  0.7816164E-02  0.1312668E+00
        -11   -1    0    0    0    0  0.00000000000E+00  0.00000000000E+00  0.45593999997E+02  0.45594000000E+02  0.51100000000E-03 0.  1.
         11   -1    0    0    0    0 -0.00000000000E+00 -0.00000000000E+00 -0.45593999997E+02  0.45594000000E+02  0.51100000000E-03 0. -1.
    9900012    2    1    2    0    0 -0.21339505342E+02 -0.21057880619E+02  0.31381755040E+02  0.47787269894E+02  0.19999994752E+02 0.  0.
         12    1    1    2    0    0  0.21339505342E+02  0.21057880619E+02 -0.31381755040E+02  0.43400730106E+02  0.00000000000E+00 0. -1.
         11    1    3    3    0    0 -0.13547048809E+02 -0.22341976494E+01  0.17883269166E+02  0.22546074756E+02  0.51100000000E-03 0. -1.
        -11    1    3    3    0    0 -0.76558380839E+00 -0.21440818007E+01  0.44668529362E+01  0.50135796344E+01  0.51100000000E-03 0.  1.
        -12    1    3    3    0    0 -0.70268727246E+01 -0.16679601168E+02  0.90316329379E+01  0.20227615503E+02  0.00000000000E+00 0.  1.
</event>
<event>
 7    1  0.1384886E-010  0.4778727E+02  0.7816164E-02  0.1312668E+00
        -11   -1    0    0    0    0  0.00000000000E+00  0.00000000000E+00  0.45593999997E+02  0.45594000000E+02  0.51100000000E-03 0.  1.
         11   -1    0    0    0    0 -0.00000000000E+00 -0.00000000000E+00 -0.45593999997E+02  0.45594000000E+02  0.51100000000E-03 0. -1.
    9900012    2    1    2    0    0 -0.37410913596E+02 -0.14104424758E+02  0.16885262755E+02  0.47787270143E+02  0.19999995888E+02 0.  0.
         12    1    1    2    0    0  0.37410913596E+02  0.14104424758E+02 -0.16885262755E+02  0.43400729857E+02  0.00000000000E+00 0. -1.
         11    1    3    3    0    0 -0.10983509688E+02  0.20145171040E+01  0.18159981169E+01  0.11313426256E+02  0.51100000000E-03 0. -1.
        -11    1    3    3    0    0 -0.11510696149E+02 -0.50382030062E+01  0.12484772513E+02  0.17712965882E+02  0.51100000000E-03 0.  1.
         12    1    3    3    0    0 -0.14916707759E+02 -0.11080738856E+02  0.25844921250E+01  0.18760878005E+02  0.00000000000E+00 0. -1.
</event>
<event>
 7    1  0.1384886E-010  0.4778727E+02  0.7816164E-02  0.1312668E+00
        -11   -1    0    0    0    0  0.00000000000E+00  0.00000000000E+00  0.45593999997E+02  0.45594000000E+02  0.51100000000E-03 0.  1.
         11   -1    0    0    0    0 -0.00000000000E+00 -0.00000000000E+00 -0.45593999997E+02  0.45594000000E+02  0.51100000000E-03 0. -1.
    9900012    2    1    2    0    0  0.73346679406E+01  0.28453900718E+02  0.31940591177E+02  0.47787272073E+02  0.20000004690E+02 0.  0.
         12    1    1    2    0    0 -0.73346679406E+01 -0.28453900718E+02 -0.31940591177E+02  0.43400727927E+02  0.00000000000E+00 0. -1.
         11    1    3    3    0    0  0.91673624929E+00 -0.18397489015E+01  0.36681057958E+00  0.20879730922E+01  0.51100000000E-03 0. -1.
        -11    1    3    3    0    0  0.59002553125E+01  0.77118095123E+01  0.53415592636E+01  0.11082295535E+02  0.51100000000E-03 0.  1.
         12    1    3    3    0    0  0.51767637881E+00  0.22581840107E+02  0.26232221334E+02  0.34617003446E+02  0.00000000000E+00 0. -1.
</event>
<event>
 7    1  0.1384886E-010  0.4778727E+02  0.7816164E-02  0.1312668E+00
        -11   -1    0    0    0    0  0.00000000000E+00  0.00000000000E+00  0.45593999997E+02  0.45594000000E+02  0.51100000000E-03 0.  1.
         11   -1    0    0    0    0 -0.00000000000E+00 -0.00000000000E+00 -0.45593999997E+02  0.45594000000E+02  0.51100000000E-03 0. -1.
    9900012    2    1    2    0    0  0.18033469584E+02  0.14722822828E+02  0.36628617037E+02  0.47787272779E+02  0.20000007910E+02 0.  0.
         12    1    1    2    0    0 -0.18033469584E+02 -0.14722822828E+02 -0.36628617037E+02  0.43400727221E+02  0.00000000000E+00 0. -1.
         11    1    3    3    0    0  0.22115141549E+01  0.69428379071E+01  0.77372026204E+01  0.10628174712E+02  0.51100000000E-03 0. -1.
        -11    1    3    3    0    0  0.18879950187E+02  0.69479615585E+01  0.25953532362E+02  0.32837669394E+02  0.51100000000E-03 0.  1.
        -12    1    3    3    0    0 -0.30579947579E+01  0.83202336214E+00  0.29378820542E+01  0.43214286734E+01  0.00000000000E+00 0.  1.
</event>
<event>
 7    1  0.1384886E-010  0.4778727E+02  0.7816164E-02  0.1312668E+00
        -11   -1    0    0    0    0  0.00000000000E+00  0.00000000000E+00  0.45593999997E+02  0.45594000000E+02  0.51100000000E-03 0. -1.
         11   -1    0    0    0    0 -0.00000000000E+00 -0.00000000000E+00 -0.45593999997E+02  0.45594000000E+02  0.51100000000E-03 0.  1.
    9900012    2    1    2    0    0 -0.30395158010E+02 -0.16296255085E+02 -0.26347483784E+02  0.47787268877E+02  0.19999990118E+02 0.  0.
         12    1    1    2    0    0  0.30395158010E+02  0.16296255085E+02  0.26347483784E+02  0.43400731123E+02  0.00000000000E+00 0. -1.
         11    1    3    3    0    0 -0.59258513643E+01 -0.16588691916E+01  0.64706414628E+00  0.61875886787E+01  0.51100000000E-03 0. -1.
        -11    1    3    3    0    0 -0.34194831173E+01  0.19125474355E-01 -0.10648764889E+02  0.11184338358E+02  0.51100000000E-03 0.  1.
        -12    1    3    3    0    0 -0.21049823528E+02 -0.14656511368E+02 -0.16345783041E+02  0.30415341841E+02  0.00000000000E+00 0.  1.
</event>
<event>
 7    1  0.1384886E-010  0.4778727E+02  0.7816164E-02  0.1312668E+00
        -11   -1    0    0    0    0  0.00000000000E+00  0.00000000000E+00  0.45593999997E+02  0.45594000000E+02  0.51100000000E-03 0.  1.
         11   -1    0    0    0    0 -0.00000000000E+00 -0.00000000000E+00 -0.45593999997E+02  0.45594000000E+02  0.51100000000E-03 0. -1.
    9900012    2    1    2    0    0 -0.17345157001E+02 -0.10730907664E+02  0.38309480988E+02  0.47787272077E+02  0.20000004708E+02 0.  0.
         12    1    1    2    0    0  0.17345157001E+02  0.10730907664E+02 -0.38309480988E+02  0.43400727923E+02  0.00000000000E+00 0. -1.
         11    1    3    3    0    0  0.19194706645E+01  0.18121537560E+01  0.75080034541E+01  0.79585416374E+01  0.51100000000E-03 0.  1.
        -11    1    3    3    0    0 -0.74312040507E+01 -0.11059200044E+02  0.16389569721E+02  0.21122184905E+02  0.51100000000E-03 0. -1.
        -12    1    3    3    0    0 -0.11833423615E+02 -0.14838613752E+01  0.14411907812E+02  0.18706545534E+02  0.00000000000E+00 0.  1.
</event>
<event>
 7    1  0.1521631E-010  0.4778726E+02  0.7816164E-02  0.1312668E+00
        -11   -1    0    0    0    0  0.00000000000E+00  0.00000000000E+00  0.45593999997E+02  0.45594000000E+02  0.51100000000E-03 0.  1.
         11   -1    0    0    0    0 -0.00000000000E+00 -0.00000000000E+00 -0.45593999997E+02  0.45594000000E+02  0.51100000000E-03 0. -1.
    9900012    2    1    2    0    0 -0.28600440265E+02  0.32287552888E+02  0.48117421645E+01  0.47787261326E+02  0.19999955688E+02 0.  0.
         12    1    1    2    0    0  0.28600440265E+02 -0.32287552888E+02 -0.48117421645E+01  0.43400738674E+02  0.00000000000E+00 0. -1.
         11    1    3    3    0    0 -0.87890690728E+01  0.23297268943E+01 -0.38138679373E+01  0.98600685329E+01  0.51100000000E-03 0. -1.
        -11    1    3    3    0    0 -0.12969741723E+02  0.13600325303E+02  0.72504959287E+01  0.20143305096E+02  0.51100000000E-03 0.  1.
        -12    1    3    3    0    0 -0.68416294691E+01  0.16357500690E+02  0.13751141732E+01  0.17783887697E+02  0.00000000000E+00 0.  1.
</event>
<event>
 7    1  0.1384886E-010  0.4778727E+02  0.7816164E-02  0.1312668E+00
        -11   -1    0    0    0    0  0.00000000000E+00  0.00000000000E+00  0.45593999997E+02  0.45594000000E+02  0.51100000000E-03 0.  1.
         11   -1    0    0    0    0 -0.00000000000E+00 -0.00000000000E+00 -0.45593999997E+02  0.45594000000E+02  0.51100000000E-03 0. -1.
    9900012    2    1    2    0    0  0.12119756970E+01  0.10053368075E+02  0.42202897548E+02  0.47787266640E+02  0.19999979919E+02 0.  0.
         12    1    1    2    0    0 -0.12119756970E+01 -0.10053368075E+02 -0.42202897548E+02  0.43400733360E+02  0.00000000000E+00 0. -1.
         11    1    3    3    0    0  0.40663234104E+01  0.31557309392E+01  0.84763689163E+01  0.99167763968E+01  0.51100000000E-03 0. -1.
        -11    1    3    3    0    0  0.42120169340E+01  0.86947101134E+01  0.15824847868E+02  0.18540897522E+02  0.51100000000E-03 0.  1.
         12    1    3    3    0    0 -0.70663646474E+01 -0.17970729778E+01  0.17901680763E+02  0.19329592721E+02  0.00000000000E+00 0. -1.
</event>
<event>
 7    1  0.1384886E-010  0.4778727E+02  0.7816164E-02  0.1312668E+00
        -11   -1    0    0    0    0  0.00000000000E+00  0.00000000000E+00  0.45593999997E+02  0.45594000000E+02  0.51100000000E-03 0.  1.
         11   -1    0    0    0    0 -0.00000000000E+00 -0.00000000000E+00 -0.45593999997E+02  0.45594000000E+02  0.51100000000E-03 0. -1.
    9900012    2    1    2    0    0  0.62964803380E+01  0.28993294694E+02  0.31675961139E+02  0.47787270560E+02  0.19999997790E+02 0.  0.
         12    1    1    2    0    0 -0.62964803380E+01 -0.28993294694E+02 -0.31675961139E+02  0.43400729440E+02  0.00000000000E+00 0. -1.
         11    1    3    3    0    0 -0.59577858993E+01  0.77100194042E+01  0.40631454432E+01  0.10556929629E+02  0.51100000000E-03 0. -1.
        -11    1    3    3    0    0  0.30000636408E+01  0.96458347765E+01  0.11432764500E+02  0.15256166450E+02  0.51100000000E-03 0.  1.
         12    1    3    3    0    0  0.92542025965E+01  0.11637440513E+02  0.16180051196E+02  0.21974174480E+02  0.00000000000E+00 0. -1.
</event>
<event>
 7    1  0.1384886E-010  0.4778727E+02  0.7816164E-02  0.1312668E+00
        -11   -1    0    0    0    0  0.00000000000E+00  0.00000000000E+00  0.45593999997E+02  0.45594000000E+02  0.51100000000E-03 0.  1.
         11   -1    0    0    0    0 -0.00000000000E+00 -0.00000000000E+00 -0.45593999997E+02  0.45594000000E+02  0.51100000000E-03 0. -1.
    9900012    2    1    2    0    0  0.26287825657E+02  0.29307274391E+02 -0.18266283063E+02  0.47787271816E+02  0.20000003516E+02 0.  0.
         12    1    1    2    0    0 -0.26287825657E+02 -0.29307274391E+02  0.18266283063E+02  0.43400728184E+02  0.00000000000E+00 0. -1.
         11    1    3    3    0    0  0.71150738459E+00  0.57099668745E+01 -0.77462130146E+01  0.96495482172E+01  0.51100000000E-03 0. -1.
        -11    1    3    3    0    0 -0.40263659745E+00  0.41332439555E+01 -0.61179194028E+00  0.41976316495E+01  0.51100000000E-03 0.  1.
        -12    1    3    3    0    0  0.25978954870E+02  0.19464063561E+02 -0.99082781080E+01  0.33940091949E+02  0.00000000000E+00 0.  1.
</event>
<event>
 7    1  0.1384886E-010  0.4778726E+02  0.7816164E-02  0.1312668E+00
        -11   -1    0    0    0    0  0.00000000000E+00  0.00000000000E+00  0.45593999997E+02  0.45594000000E+02  0.51100000000E-03 0. -1.
         11   -1    0    0    0    0 -0.00000000000E+00 -0.00000000000E+00 -0.45593999997E+02  0.45594000000E+02  0.51100000000E-03 0.  1.
    9900012    2    1    2    0    0 -0.30193911615E+02  0.30265584307E+02  0.74797091255E+01  0.47787263362E+02  0.19999964974E+02 0.  0.
         12    1    1    2    0    0  0.30193911615E+02 -0.30265584307E+02 -0.74797091255E+01  0.43400736638E+02  0.00000000000E+00 0. -1.
         11    1    3    3    0    0 -0.57321388662E+01  0.43308614275E+01 -0.41274810659E+01  0.82855221258E+01  0.51100000000E-03 0. -1.
        -11    1    3    3    0    0 -0.16525317896E+02  0.21821374175E+02  0.38033930108E+01  0.27635562255E+02  0.51100000000E-03 0.  1.
         12    1    3    3    0    0 -0.79364548528E+01  0.41133487045E+01  0.78037971807E+01  0.11866178982E+02  0.00000000000E+00 0. -1.
</event>
<event>
 7    1  0.1762522E-010  0.4778727E+02  0.7816164E-02  0.1312668E+00
        -11   -1    0    0    0    0  0.00000000000E+00  0.00000000000E+00  0.45593999997E+02  0.45594000000E+02  0.51100000000E-03 0. -1.
         11   -1    0    0    0    0 -0.00000000000E+00 -0.00000000000E+00 -0.45593999997E+02  0.45594000000E+02  0.51100000000E-03 0.  1.
    9900012    2    1    2    0    0  0.22062665522E+02  0.20162281689E+02 -0.31469737506E+02  0.47787271993E+02  0.20000004326E+02 0.  0.
         12    1    1    2    0    0 -0.22062665522E+02 -0.20162281689E+02  0.31469737506E+02  0.43400728007E+02  0.00000000000E+00 0. -1.
         11    1    3    3    0    0  0.28408904776E+01  0.12116726797E+02 -0.73123755458E+01  0.14434561419E+02  0.51100000000E-03 0. -1.
        -11    1    3    3    0    0  0.45251944338E+01 -0.20037709472E+01 -0.33919495600E+01  0.59998170598E+01  0.51100000000E-03 0.  1.
        -12    1    3    3    0    0  0.14696580610E+02  0.10049325839E+02 -0.20765412400E+02  0.27352893514E+02  0.00000000000E+00 0.  1.
</event>
<event>
 7    1  0.1384886E-010  0.4778728E+02  0.7816164E-02  0.1312668E+00
        -11   -1    0    0    0    0  0.00000000000E+00  0.00000000000E+00  0.45593999997E+02  0.45594000000E+02  0.51100000000E-03 0.  1.
         11   -1    0    0    0    0 -0.00000000000E+00 -0.00000000000E+00 -0.45593999997E+02  0.45594000000E+02  0.51100000000E-03 0. -1.
    9900012    2    1    2    0    0  0.31442318795E+02 -0.63605512984E+01  0.29232633352E+02  0.47787275620E+02  0.20000020861E+02 0.  0.
         12    1    1    2    0    0 -0.31442318795E+02  0.63605512984E+01 -0.29232633352E+02  0.43400724380E+02  0.00000000000E+00 0. -1.
         11    1    3    3    0    0  0.86556959228E+01 -0.82310691977E+00  0.29566689712E+01  0.91837066904E+01  0.51100000000E-03 0. -1.
        -11    1    3    3    0    0  0.12412180417E+02  0.66776553966E+00  0.22894067261E+02  0.26050843547E+02  0.51100000000E-03 0.  1.
        -12    1    3    3    0    0  0.10374442455E+02 -0.62052099183E+01  0.33818971200E+01  0.12552725382E+02  0.00000000000E+00 0.  1.
</event>
<event>
 7    1  0.1384886E-010  0.4778727E+02  0.7816164E-02  0.1312668E+00
        -11   -1    0    0    0    0  0.00000000000E+00  0.00000000000E+00  0.45593999997E+02  0.45594000000E+02  0.51100000000E-03 0. -1.
         11   -1    0    0    0    0 -0.00000000000E+00 -0.00000000000E+00 -0.45593999997E+02  0.45594000000E+02  0.51100000000E-03 0.  1.
    9900012    2    1    2    0    0 -0.23422284286E+02 -0.34131499137E+02 -0.13040725646E+02  0.47787272358E+02  0.20000005989E+02 0.  0.
         12    1    1    2    0    0  0.23422284286E+02  0.34131499137E+02  0.13040725646E+02  0.43400727642E+02  0.00000000000E+00 0. -1.
         11    1    3    3    0    0  0.12873687312E+01 -0.75725486682E+01 -0.13565261784E+00  0.76823963368E+01  0.51100000000E-03 0. -1.
        -11    1    3    3    0    0 -0.23030181201E+02 -0.18539756059E+02 -0.83096644695E+01  0.30710947962E+02  0.51100000000E-03 0.  1.
         12    1    3    3    0    0 -0.16794718164E+01 -0.80191944092E+01 -0.45954085589E+01  0.93939280590E+01  0.00000000000E+00 0. -1.
</event>
<event>
 7    1  0.1384886E-010  0.4778728E+02  0.7816164E-02  0.1312668E+00
        -11   -1    0    0    0    0  0.00000000000E+00  0.00000000000E+00  0.45593999997E+02  0.45594000000E+02  0.51100000000E-03 0.  1.
         11   -1    0    0    0    0 -0.00000000000E+00 -0.00000000000E+00 -0.45593999997E+02  0.45594000000E+02  0.51100000000E-03 0. -1.
    9900012    2    1    2    0    0 -0.17470117836E+02 -0.87606855649E+01  0.38751364882E+02  0.47787275249E+02  0.20000019168E+02 0.  0.
         12    1    1    2    0    0  0.17470117836E+02  0.87606855649E+01 -0.38751364882E+02  0.43400724751E+02  0.00000000000E+00 0. -1.
         11    1    3    3    0    0 -0.54428701768E+01 -0.57143431504E+01  0.32186055910E+01  0.85227915388E+01  0.51100000000E-03 0. -1.
        -11    1    3    3    0    0  0.94554282686E+00  0.24270944903E+01  0.63113767592E+01  0.68277606695E+01  0.51100000000E-03 0.  1.
        -12    1    3    3    0    0 -0.12972790486E+02 -0.54734369048E+01  0.29221382531E+02  0.32436723040E+02  0.00000000000E+00 0.  1.
</event>
<event>
 7    1  0.1384886E-010  0.4778727E+02  0.7816164E-02  0.1312668E+00
        -11   -1    0    0    0    0  0.00000000000E+00  0.00000000000E+00  0.45593999997E+02  0.45594000000E+02  0.51100000000E-03 0.  1.
         11   -1    0    0    0    0 -0.00000000000E+00 -0.00000000000E+00 -0.45593999997E+02  0.45594000000E+02  0.51100000000E-03 0. -1.
    9900012    2    1    2    0    0 -0.59252254143E+01  0.36219733355E+02  0.23165622319E+02  0.47787269154E+02  0.19999991383E+02 0.  0.
         12    1    1    2    0    0  0.59252254143E+01 -0.36219733355E+02 -0.23165622319E+02  0.43400730846E+02  0.00000000000E+00 0. -1.
         11    1    3    3    0    0 -0.58998440815E+01  0.70818729994E+01 -0.60153267039E+00  0.92370410403E+01  0.51100000000E-03 0. -1.
        -11    1    3    3    0    0 -0.37348004147E+01  0.21782617053E+02  0.16791428805E+02  0.27755778162E+02  0.51100000000E-03 0.  1.
        -12    1    3    3    0    0  0.37094190819E+01  0.73552433022E+01  0.69757261850E+01  0.10794449952E+02  0.00000000000E+00 0.  1.
</event>
<event>
 7    1  0.1384886E-010  0.4778727E+02  0.7816164E-02  0.1312668E+00
        -11   -1    0    0    0    0  0.00000000000E+00  0.00000000000E+00  0.45593999997E+02  0.45594000000E+02  0.51100000000E-03 0.  1.
         11   -1    0    0    0    0 -0.00000000000E+00 -0.00000000000E+00 -0.45593999997E+02  0.45594000000E+02  0.51100000000E-03 0. -1.
    9900012    2    1    2    0    0 -0.25490036810E+02  0.13853085723E+01  0.35099317259E+02  0.47787272719E+02  0.20000007636E+02 0.  0.
         12    1    1    2    0    0  0.25490036810E+02 -0.13853085723E+01 -0.35099317259E+02  0.43400727281E+02  0.00000000000E+00 0. -1.
         11    1    3    3    0    0 -0.40282938229E+01 -0.18429307701E+01  0.61869085943E+01  0.76092958388E+01  0.51100000000E-03 0. -1.
        -11    1    3    3    0    0 -0.21504629067E+02  0.43707493480E+01  0.30891459768E+02  0.37892410956E+02  0.51100000000E-03 0.  1.
         12    1    3    3    0    0  0.42886079864E-01 -0.11425100056E+01 -0.19790511030E+01  0.22855659248E+01  0.00000000000E+00 0. -1.
</event>
<event>
 7    1  0.1384886E-010  0.4778725E+02  0.7816164E-02  0.1312668E+00
        -11   -1    0    0    0    0  0.00000000000E+00  0.00000000000E+00  0.45593999997E+02  0.45594000000E+02  0.51100000000E-03 0.  1.
         11   -1    0    0    0    0 -0.00000000000E+00 -0.00000000000E+00 -0.45593999997E+02  0.45594000000E+02  0.51100000000E-03 0. -1.
    9900012    2    1    2    0    0  0.11211228645E+02 -0.41044033147E+02  0.85627328429E+01  0.47787254632E+02  0.19999925170E+02 0.  0.
         12    1    1    2    0    0 -0.11211228645E+02  0.41044033147E+02 -0.85627328429E+01  0.43400745368E+02  0.00000000000E+00 0. -1.
         11    1    3    3    0    0 -0.33550242865E+01 -0.21490287806E+01  0.32385006950E+00  0.39974231439E+01  0.51100000000E-03 0. -1.
        -11    1    3    3    0    0  0.96988243706E+01 -0.10936405456E+02  0.23297278898E+01  0.14802019821E+02  0.51100000000E-03 0.  1.
         12    1    3    3    0    0  0.48674285613E+01 -0.27958598910E+02  0.59091548836E+01  0.28987811668E+02  0.00000000000E+00 0. -1.
</event>
<event>
 7    1  0.1384886E-010  0.4778727E+02  0.7816164E-02  0.1312668E+00
        -11   -1    0    0    0    0  0.00000000000E+00  0.00000000000E+00  0.45593999997E+02  0.45594000000E+02  0.51100000000E-03 0. -1.
         11   -1    0    0    0    0 -0.00000000000E+00 -0.00000000000E+00 -0.45593999997E+02  0.45594000000E+02  0.51100000000E-03 0.  1.
    9900012    2    1    2    0    0  0.29644355087E+02 -0.31371681971E+02  0.45445512455E+01  0.47787272308E+02  0.20000005760E+02 0.  0.
         12    1    1    2    0    0 -0.29644355087E+02  0.31371681971E+02 -0.45445512455E+01  0.43400727692E+02  0.00000000000E+00 0. -1.
         11    1    3    3    0    0  0.56537912235E+01 -0.56627918274E+01  0.63623277966E+01  0.10223100397E+02  0.51100000000E-03 0. -1.
        -11    1    3    3    0    0  0.23917069982E+02 -0.26862099451E+02 -0.72528816349E+00  0.35973944274E+02  0.51100000000E-03 0.  1.
        -12    1    3    3    0    0  0.73493881269E-01  0.11532093080E+01 -0.10924883876E+01  0.15902276364E+01  0.00000000000E+00 0.  1.
</event>
<event>
 7    1  0.1384886E-010  0.4778727E+02  0.7816164E-02  0.1312668E+00
        -11   -1    0    0    0    0  0.00000000000E+00  0.00000000000E+00  0.45593999997E+02  0.45594000000E+02  0.51100000000E-03 0.  1.
         11   -1    0    0    0    0 -0.00000000000E+00 -0.00000000000E+00 -0.45593999997E+02  0.45594000000E+02  0.51100000000E-03 0. -1.
    9900012    2    1    2    0    0  0.16612111386E+02  0.24915729383E+02  0.31414445205E+02  0.47787272092E+02  0.20000004776E+02 0.  0.
         12    1    1    2    0    0 -0.16612111386E+02 -0.24915729383E+02 -0.31414445205E+02  0.43400727908E+02  0.00000000000E+00 0. -1.
         11    1    3    3    0    0  0.21502369243E+01  0.42539772848E+01 -0.14158329255E+00  0.47686358280E+01  0.51100000000E-03 0. -1.
        -11    1    3    3    0    0  0.93242834860E+01  0.21957564748E+02  0.27018893369E+02  0.36042995316E+02  0.51100000000E-03 0.  1.
         12    1    3    3    0    0  0.51375909759E+01 -0.12958126499E+01  0.45371351281E+01  0.69756409476E+01  0.00000000000E+00 0. -1.
</event>
<event>
 7    1  0.1384886E-010  0.4778728E+02  0.7816164E-02  0.1312668E+00
        -11   -1    0    0    0    0  0.00000000000E+00  0.00000000000E+00  0.45593999997E+02  0.45594000000E+02  0.51100000000E-03 0.  1.
         11   -1    0    0    0    0 -0.00000000000E+00 -0.00000000000E+00 -0.45593999997E+02  0.45594000000E+02  0.51100000000E-03 0. -1.
    9900012    2    1    2    0    0 -0.18448281012E+02 -0.57063281839E+01  0.38868002461E+02  0.47787275709E+02  0.20000021268E+02 0.  0.
         12    1    1    2    0    0  0.18448281012E+02  0.57063281839E+01 -0.38868002461E+02  0.43400724291E+02  0.00000000000E+00 0. -1.
         11    1    3    3    0    0 -0.34850670024E+00  0.38862640322E+01  0.14597461020E+02  0.15109942871E+02  0.51100000000E-03 0. -1.
        -11    1    3    3    0    0 -0.69653753765E+01 -0.94197313295E+00  0.43303865051E+01  0.82556656342E+01  0.51100000000E-03 0.  1.
        -12    1    3    3    0    0 -0.11134398935E+02 -0.86506190831E+01  0.19940154936E+02  0.24421667204E+02  0.00000000000E+00 0.  1.
</event>
<event>
 7    1  0.1384886E-010  0.4778727E+02  0.7816164E-02  0.1312668E+00
        -11   -1    0    0    0    0  0.00000000000E+00  0.00000000000E+00  0.45593999997E+02  0.45594000000E+02  0.51100000000E-03 0.  1.
         11   -1    0    0    0    0 -0.00000000000E+00 -0.00000000000E+00 -0.45593999997E+02  0.45594000000E+02  0.51100000000E-03 0. -1.
    9900012    2    1    2    0    0 -0.17034690495E+02  0.36387048427E+02  0.16414178100E+02  0.47787271709E+02  0.20000003029E+02 0.  0.
         12    1    1    2    0    0  0.17034690495E+02 -0.36387048427E+02 -0.16414178100E+02  0.43400728291E+02  0.00000000000E+00 0. -1.
         11    1    3    3    0    0 -0.56652332941E+01  0.16471899434E+02  0.67395253062E+01  0.18677246608E+02  0.51100000000E-03 0.  1.
        -11    1    3    3    0    0 -0.10697305272E+02  0.62183629653E+01  0.80224361968E-01  0.12373633834E+02  0.51100000000E-03 0. -1.
         12    1    3    3    0    0 -0.67215192890E+00  0.13696786029E+02  0.95944284319E+01  0.16736391268E+02  0.00000000000E+00 0. -1.
</event>
<event>
 7    1  0.1384886E-010  0.4778727E+02  0.7816164E-02  0.1312668E+00
        -11   -1    0    0    0    0  0.00000000000E+00  0.00000000000E+00  0.45593999997E+02  0.45594000000E+02  0.51100000000E-03 0. -1.
         11   -1    0    0    0    0 -0.00000000000E+00 -0.00000000000E+00 -0.45593999997E+02  0.45594000000E+02  0.51100000000E-03 0.  1.
    9900012    2    1    2    0    0 -0.29893273573E+02  0.24743177982E+02 -0.19436835513E+02  0.47787271477E+02  0.20000001971E+02 0.  0.
         12    1    1    2    0    0  0.29893273573E+02 -0.24743177982E+02  0.19436835513E+02  0.43400728523E+02  0.00000000000E+00 0. -1.
         11    1    3    3    0    0 -0.87023896829E+01  0.74117967055E+01 -0.82350525267E+00  0.11460561843E+02  0.51100000000E-03 0. -1.
        -11    1    3    3    0    0 -0.28018190901E-01  0.59761524438E+01 -0.82068951751E+01  0.10152256484E+02  0.51100000000E-03 0.  1.
        -12    1    3    3    0    0 -0.21162865700E+02  0.11355228833E+02 -0.10406435085E+02  0.26174453149E+02  0.00000000000E+00 0.  1.
</event>
<event>
 7    1  0.1384886E-010  0.4778727E+02  0.7816164E-02  0.1312668E+00
        -11   -1    0    0    0    0  0.00000000000E+00  0.00000000000E+00  0.45593999997E+02  0.45594000000E+02  0.51100000000E-03 0. -1.
         11   -1    0    0    0    0 -0.00000000000E+00 -0.00000000000E+00 -0.45593999997E+02  0.45594000000E+02  0.51100000000E-03 0.  1.
    9900012    2    1    2    0    0  0.16868249423E+02  0.38998653802E+02  0.88425432930E+01  0.47787269490E+02  0.19999992912E+02 0.  0.
         12    1    1    2    0    0 -0.16868249423E+02 -0.38998653802E+02 -0.88425432930E+01  0.43400730510E+02  0.00000000000E+00 0. -1.
         11    1    3    3    0    0  0.87643036445E+01  0.69925488133E+01  0.16349079113E+01  0.11330564038E+02  0.51100000000E-03 0. -1.
        -11    1    3    3    0    0  0.37635786930E+01  0.18130028955E+02 -0.29098326976E+01  0.18743788333E+02  0.51100000000E-03 0.  1.
        -12    1    3    3    0    0  0.43403670853E+01  0.13876076033E+02  0.10117468079E+02  0.17712917118E+02  0.00000000000E+00 0.  1.
</event>
<event>
 7    1  0.1384886E-010  0.4778727E+02  0.7816164E-02  0.1312668E+00
        -11   -1    0    0    0    0  0.00000000000E+00  0.00000000000E+00  0.45593999997E+02  0.45594000000E+02  0.51100000000E-03 0.  1.
         11   -1    0    0    0    0 -0.00000000000E+00 -0.00000000000E+00 -0.45593999997E+02  0.45594000000E+02  0.51100000000E-03 0. -1.
    9900012    2    1    2    0    0  0.21234241762E+02  0.29738566088E+02  0.23416828980E+02  0.47787271715E+02  0.20000003056E+02 0.  0.
         12    1    1    2    0    0 -0.21234241762E+02 -0.29738566088E+02 -0.23416828980E+02  0.43400728285E+02  0.00000000000E+00 0. -1.
         11    1    3    3    0    0  0.26505146862E-01  0.65187050400E+00  0.46983682881E+01  0.47434483774E+01  0.51100000000E-03 0. -1.
        -11    1    3    3    0    0  0.12515237977E+01  0.25937597225E+01  0.74933198554E+01  0.80276860945E+01  0.51100000000E-03 0.  1.
        -12    1    3    3    0    0  0.19956212818E+02  0.26492935862E+02  0.11225140836E+02  0.35016137243E+02  0.00000000000E+00 0.  1.
</event>
<event>
 7    1  0.1384886E-010  0.4778727E+02  0.7816164E-02  0.1312668E+00
        -11   -1    0    0    0    0  0.00000000000E+00  0.00000000000E+00  0.45593999997E+02  0.45594000000E+02  0.51100000000E-03 0. -1.
         11   -1    0    0    0    0 -0.00000000000E+00 -0.00000000000E+00 -0.45593999997E+02  0.45594000000E+02  0.51100000000E-03 0.  1.
    9900012    2    1    2    0    0  0.28829357159E+02  0.31770727259E+02 -0.65659980548E+01  0.47787271029E+02  0.19999999929E+02 0.  0.
         12    1    1    2    0    0 -0.28829357159E+02 -0.31770727259E+02  0.65659980548E+01  0.43400728971E+02  0.00000000000E+00 0. -1.
         11    1    3    3    0    0 -0.18645670594E+01  0.56757744425E+01  0.11596875017E+01  0.60857128756E+01  0.51100000000E-03 0. -1.
        -11    1    3    3    0    0  0.12004685667E+02  0.14190898780E+02 -0.57438783135E+01  0.19454722422E+02  0.51100000000E-03 0.  1.
         12    1    3    3    0    0  0.18689238551E+02  0.11904054037E+02 -0.19818072430E+01  0.22246835732E+02  0.00000000000E+00 0. -1.
</event>
<event>
 7    1  0.1384886E-010  0.4778727E+02  0.7816164E-02  0.1312668E+00
        -11   -1    0    0    0    0  0.00000000000E+00  0.00000000000E+00  0.45593999997E+02  0.45594000000E+02  0.51100000000E-03 0.  1.
         11   -1    0    0    0    0 -0.00000000000E+00 -0.00000000000E+00 -0.45593999997E+02  0.45594000000E+02  0.51100000000E-03 0. -1.
    9900012    2    1    2    0    0  0.23232669355E+02  0.78785177924E+01  0.35802167296E+02  0.47787272459E+02  0.20000006452E+02 0.  0.
         12    1    1    2    0    0 -0.23232669355E+02 -0.78785177924E+01 -0.35802167296E+02  0.43400727541E+02  0.00000000000E+00 0. -1.
         11    1    3    3    0    0  0.16989843078E+02  0.90372441975E+00  0.10081945011E+02  0.19776680741E+02  0.51100000000E-03 0. -1.
        -11    1    3    3    0    0  0.66134455040E+01  0.50950193833E+01  0.15431837827E+02  0.17545327097E+02  0.51100000000E-03 0.  1.
         12    1    3    3    0    0 -0.37061922691E+00  0.18797739893E+01  0.10288384457E+02  0.10465264622E+02  0.00000000000E+00 0. -1.
</event>
<event>
 7    1  0.1384886E-010  0.4778727E+02  0.7816164E-02  0.1312668E+00
        -11   -1    0    0    0    0  0.00000000000E+00  0.00000000000E+00  0.45593999997E+02  0.45594000000E+02  0.51100000000E-03 0. -1.
         11   -1    0    0    0    0 -0.00000000000E+00 -0.00000000000E+00 -0.45593999997E+02  0.45594000000E+02  0.51100000000E-03 0.  1.
    9900012    2    1    2    0    0  0.66179640139E+01  0.43145103976E+01 -0.42675648925E+02  0.47787268914E+02  0.19999990284E+02 0.  0.
         12    1    1    2    0    0 -0.66179640139E+01 -0.43145103976E+01  0.42675648925E+02  0.43400731086E+02  0.00000000000E+00 0. -1.
         11    1    3    3    0    0  0.21967252525E+01  0.53184188971E+01 -0.95640956814E+01  0.11161680333E+02  0.51100000000E-03 0. -1.
        -11    1    3    3    0    0  0.19495358809E-01 -0.38670203975E+01 -0.30530723995E+02  0.30774654096E+02  0.51100000000E-03 0.  1.
         12    1    3    3    0    0  0.44017434026E+01  0.28631118979E+01 -0.25808292485E+01  0.58509344837E+01  0.00000000000E+00 0. -1.
</event>
<event>
 7    1  0.1384886E-010  0.4778727E+02  0.7816164E-02  0.1312668E+00
        -11   -1    0    0    0    0  0.00000000000E+00  0.00000000000E+00  0.45593999997E+02  0.45594000000E+02  0.51100000000E-03 0.  1.
         11   -1    0    0    0    0 -0.00000000000E+00 -0.00000000000E+00 -0.45593999997E+02  0.45594000000E+02  0.51100000000E-03 0. -1.
    9900012    2    1    2    0    0 -0.18810581730E+02  0.37289201866E+02  0.11802582881E+02  0.47787268169E+02  0.19999986889E+02 0.  0.
         12    1    1    2    0    0  0.18810581730E+02 -0.37289201866E+02 -0.11802582881E+02  0.43400731831E+02  0.00000000000E+00 0. -1.
         11    1    3    3    0    0  0.16548720373E+01  0.60722983807E+01  0.25230299105E+01  0.67806407717E+01  0.51100000000E-03 0. -1.
        -11    1    3    3    0    0 -0.17076629365E+02  0.15453633417E+02  0.94190085724E+01  0.24882599924E+02  0.51100000000E-03 0.  1.
        -12    1    3    3    0    0 -0.33888244021E+01  0.15763270069E+02 -0.13945560170E+00  0.16124027473E+02  0.00000000000E+00 0.  1.
</event>
<event>
 7    1  0.1384886E-010  0.4778728E+02  0.7816164E-02  0.1312668E+00
        -11   -1    0    0    0    0  0.00000000000E+00  0.00000000000E+00  0.45593999997E+02  0.45594000000E+02  0.51100000000E-03 0.  1.
         11   -1    0    0    0    0 -0.00000000000E+00 -0.00000000000E+00 -0.45593999997E+02  0.45594000000E+02  0.51100000000E-03 0. -1.
    9900012    2    1    2    0    0  0.14070038158E+02  0.20426764505E+02  0.35614652714E+02  0.47787283763E+02  0.20000057991E+02 0.  0.
         12    1    1    2    0    0 -0.14070038158E+02 -0.20426764505E+02 -0.35614652714E+02  0.43400716237E+02  0.00000000000E+00 0. -1.
         11    1    3    3    0    0 -0.15425215734E+01  0.55980408027E+01  0.84692190599E+01  0.10268646716E+02  0.51100000000E-03 0.  1.
        -11    1    3    3    0    0  0.84201514072E+00  0.10390721703E+02  0.97968068702E+01  0.14305716065E+02  0.51100000000E-03 0. -1.
         12    1    3    3    0    0  0.14770544591E+02  0.44380019991E+01  0.17348626784E+02  0.23212920982E+02  0.00000000000E+00 0. -1.
</event>
<event>
 7    1  0.1384886E-010  0.4778727E+02  0.7816164E-02  0.1312668E+00
        -11   -1    0    0    0    0  0.00000000000E+00  0.00000000000E+00  0.45593999997E+02  0.45594000000E+02  0.51100000000E-03 0.  1.
         11   -1    0    0    0    0 -0.00000000000E+00 -0.00000000000E+00 -0.45593999997E+02  0.45594000000E+02  0.51100000000E-03 0. -1.
    9900012    2    1    2    0    0 -0.89956455466E+01 -0.14603824385E+02  0.39867655563E+02  0.47787270909E+02  0.19999999385E+02 0.  0.
         12    1    1    2    0    0  0.89956455466E+01  0.14603824385E+02 -0.39867655563E+02  0.43400729091E+02  0.00000000000E+00 0. -1.
         11    1    3    3    0    0  0.20591943362E+01 -0.75778503757E+01  0.92521891052E+01  0.12135365719E+02  0.51100000000E-03 0. -1.
        -11    1    3    3    0    0 -0.97830612811E+01 -0.10623188906E+02  0.24727643830E+02  0.28635935470E+02  0.51100000000E-03 0.  1.
        -12    1    3    3    0    0 -0.12717786018E+01  0.35972148970E+01  0.58878226282E+01  0.70159697211E+01  0.00000000000E+00 0.  1.
</event>
<event>
 7    1  0.1384886E-010  0.4778727E+02  0.7816164E-02  0.1312668E+00
        -11   -1    0    0    0    0  0.00000000000E+00  0.00000000000E+00  0.45593999997E+02  0.45594000000E+02  0.51100000000E-03 0.  1.
         11   -1    0    0    0    0 -0.00000000000E+00 -0.00000000000E+00 -0.45593999997E+02  0.45594000000E+02  0.51100000000E-03 0. -1.
    9900012    2    1    2    0    0 -0.82630923800E+01  0.12572426684E+02  0.40709692005E+02  0.47787266924E+02  0.19999981213E+02 0.  0.
         12    1    1    2    0    0  0.82630923800E+01 -0.12572426684E+02 -0.40709692005E+02  0.43400733076E+02  0.00000000000E+00 0. -1.
         11    1    3    3    0    0 -0.19782988394E+00  0.13026564603E+02  0.18149662390E+02  0.22341458483E+02  0.51100000000E-03 0. -1.
        -11    1    3    3    0    0  0.86083838999E+00 -0.20527497124E+01  0.20736444520E+01  0.30421745003E+01  0.51100000000E-03 0.  1.
        -12    1    3    3    0    0 -0.89261008861E+01  0.15986117930E+01  0.20486385163E+02  0.22403633940E+02  0.00000000000E+00 0.  1.
</event>
<event>
 7    1  0.1384886E-010  0.4778726E+02  0.7816164E-02  0.1312668E+00
        -11   -1    0    0    0    0  0.00000000000E+00  0.00000000000E+00  0.45593999997E+02  0.45594000000E+02  0.51100000000E-03 0.  1.
         11   -1    0    0    0    0 -0.00000000000E+00 -0.00000000000E+00 -0.45593999997E+02  0.45594000000E+02  0.51100000000E-03 0. -1.
    9900012    2    1    2    0    0  0.13901299447E+02 -0.41042616972E+02 -0.24252311921E+01  0.47787259447E+02  0.19999947121E+02 0.  0.
         12    1    1    2    0    0 -0.13901299447E+02  0.41042616972E+02  0.24252311921E+01  0.43400740553E+02  0.00000000000E+00 0. -1.
         11    1    3    3    0    0  0.24296008333E+01 -0.96383270442E+01  0.71012404012E+01  0.12215888176E+02  0.51100000000E-03 0. -1.
        -11    1    3    3    0    0  0.63532626998E+01 -0.13360766303E+02 -0.61682390557E+00  0.14807244684E+02  0.51100000000E-03 0.  1.
         12    1    3    3    0    0  0.51184359142E+01 -0.18043523624E+02 -0.89096476878E+01  0.20764126587E+02  0.00000000000E+00 0. -1.
</event>
<event>
 7    1  0.1384886E-010  0.4778727E+02  0.7816164E-02  0.1312668E+00
        -11   -1    0    0    0    0  0.00000000000E+00  0.00000000000E+00  0.45593999997E+02  0.45594000000E+02  0.51100000000E-03 0. -1.
         11   -1    0    0    0    0 -0.00000000000E+00 -0.00000000000E+00 -0.45593999997E+02  0.45594000000E+02  0.51100000000E-03 0.  1.
    9900012    2    1    2    0    0 -0.56472726817E+01  0.41856188098E+02 -0.99895410472E+01  0.47787273034E+02  0.20000009070E+02 0.  0.
         12    1    1    2    0    0  0.56472726817E+01 -0.41856188098E+02  0.99895410472E+01  0.43400726966E+02  0.00000000000E+00 0. -1.
         11    1    3    3    0    0  0.23959506973E+01  0.13102388993E+02  0.33445210230E+01  0.13733135046E+02  0.51100000000E-03 0. -1.
        -11    1    3    3    0    0 -0.77261479451E+01  0.14025252565E+02 -0.36468736740E+01  0.16422568600E+02  0.51100000000E-03 0.  1.
        -12    1    3    3    0    0 -0.31707543386E+00  0.14728546541E+02 -0.96871883962E+01  0.17631569387E+02  0.00000000000E+00 0.  1.
</event>
<event>
 7    1  0.1384886E-010  0.4778727E+02  0.7816164E-02  0.1312668E+00
        -11   -1    0    0    0    0  0.00000000000E+00  0.00000000000E+00  0.45593999997E+02  0.45594000000E+02  0.51100000000E-03 0. -1.
         11   -1    0    0    0    0 -0.00000000000E+00 -0.00000000000E+00 -0.45593999997E+02  0.45594000000E+02  0.51100000000E-03 0.  1.
    9900012    2    1    2    0    0  0.24783809586E+02  0.24830187482E+02 -0.25550897339E+02  0.47787265182E+02  0.19999973269E+02 0.  0.
         12    1    1    2    0    0 -0.24783809586E+02 -0.24830187482E+02  0.25550897339E+02  0.43400734818E+02  0.00000000000E+00 0. -1.
         11    1    3    3    0    0  0.23453706687E+02  0.14172654286E+02 -0.11675730317E+02  0.29786963014E+02  0.51100000000E-03 0. -1.
        -11    1    3    3    0    0  0.15228994638E+01  0.64313605982E+01 -0.54261389382E+01  0.85512926484E+01  0.51100000000E-03 0.  1.
         12    1    3    3    0    0 -0.19279656534E+00  0.42261725973E+01 -0.84490280836E+01  0.94490095192E+01  0.00000000000E+00 0. -1.
</event>
<event>
 7    1  0.1384886E-010  0.4778726E+02  0.7816164E-02  0.1312668E+00
        -11   -1    0    0    0    0  0.00000000000E+00  0.00000000000E+00  0.45593999997E+02  0.45594000000E+02  0.51100000000E-03 0.  1.
         11   -1    0    0    0    0 -0.00000000000E+00 -0.00000000000E+00 -0.45593999997E+02  0.45594000000E+02  0.51100000000E-03 0. -1.
    9900012    2    1    2    0    0  0.22773290687E+02  0.36833769988E+02  0.28766716763E+01  0.47787255534E+02  0.19999929283E+02 0.  0.
         12    1    1    2    0    0 -0.22773290687E+02 -0.36833769988E+02 -0.28766716763E+01  0.43400744466E+02  0.00000000000E+00 0. -1.
         11    1    3    3    0    0  0.16673871194E+02  0.10633387351E+02  0.13959570572E+01  0.19825125561E+02  0.51100000000E-03 0. -1.
        -11    1    3    3    0    0  0.57621348308E+01  0.17128488825E+02  0.40650555955E+01  0.18523282768E+02  0.51100000000E-03 0.  1.
         12    1    3    3    0    0  0.33728466224E+00  0.90718938121E+01 -0.25843409764E+01  0.94388472052E+01  0.00000000000E+00 0. -1.
</event>
<event>
 7    1  0.1384886E-010  0.4778727E+02  0.7816164E-02  0.1312668E+00
        -11   -1    0    0    0    0  0.00000000000E+00  0.00000000000E+00  0.45593999997E+02  0.45594000000E+02  0.51100000000E-03 0.  1.
         11   -1    0    0    0    0 -0.00000000000E+00 -0.00000000000E+00 -0.45593999997E+02  0.45594000000E+02  0.51100000000E-03 0. -1.
    9900012    2    1    2    0    0 -0.13165775913E+02 -0.53056468090E+01  0.41013847392E+02  0.47787271649E+02  0.20000002758E+02 0.  0.
         12    1    1    2    0    0  0.13165775913E+02  0.53056468090E+01 -0.41013847392E+02  0.43400728351E+02  0.00000000000E+00 0. -1.
         11    1    3    3    0    0 -0.40441986240E+01 -0.53576485536E+01  0.44634878360E+01  0.80611825720E+01  0.51100000000E-03 0. -1.
        -11    1    3    3    0    0  0.16068670536E+01  0.38503404620E+01  0.91645297143E+01  0.10069545598E+02  0.51100000000E-03 0.  1.
        -12    1    3    3    0    0 -0.10728444342E+02 -0.37983387173E+01  0.27385829842E+02  0.29656543480E+02  0.00000000000E+00 0.  1.
</event>
<event>
 7    1  0.1384886E-010  0.4778727E+02  0.7816164E-02  0.1312668E+00
        -11   -1    0    0    0    0  0.00000000000E+00  0.00000000000E+00  0.45593999997E+02  0.45594000000E+02  0.51100000000E-03 0. -1.
         11   -1    0    0    0    0 -0.00000000000E+00 -0.00000000000E+00 -0.45593999997E+02  0.45594000000E+02  0.51100000000E-03 0.  1.
    9900012    2    1    2    0    0  0.10793348891E+02 -0.41994488373E+02  0.18947051848E+01  0.47787270262E+02  0.19999996434E+02 0.  0.
         12    1    1    2    0    0 -0.10793348891E+02  0.41994488373E+02 -0.18947051848E+01  0.43400729738E+02  0.00000000000E+00 0. -1.
         11    1    3    3    0    0 -0.99306147780E+00 -0.34133896306E+01  0.41256919867E+01  0.54459833363E+01  0.51100000000E-03 0. -1.
        -11    1    3    3    0    0  0.12067311719E+01 -0.25178088744E+02 -0.12979015994E+01  0.25240382361E+02  0.51100000000E-03 0.  1.
         12    1    3    3    0    0  0.10579679197E+02 -0.13403009999E+02 -0.93308520246E+00  0.17100904565E+02  0.00000000000E+00 0. -1.
</event>
<event>
 7    1  0.1384886E-010  0.4778727E+02  0.7816164E-02  0.1312668E+00
        -11   -1    0    0    0    0  0.00000000000E+00  0.00000000000E+00  0.45593999997E+02  0.45594000000E+02  0.51100000000E-03 0.  1.
         11   -1    0    0    0    0 -0.00000000000E+00 -0.00000000000E+00 -0.45593999997E+02  0.45594000000E+02  0.51100000000E-03 0. -1.
    9900012    2    1    2    0    0  0.20128460955E+02  0.14648471045E+02  0.35551241370E+02  0.47787269507E+02  0.19999992990E+02 0.  0.
         12    1    1    2    0    0 -0.20128460955E+02 -0.14648471045E+02 -0.35551241370E+02  0.43400730493E+02  0.00000000000E+00 0. -1.
         11    1    3    3    0    0 -0.15319548199E+01  0.45065572312E+01  0.71888725542E+01  0.86218230386E+01  0.51100000000E-03 0. -1.
        -11    1    3    3    0    0 -0.81541081346E+00  0.27294356942E+01  0.58265242459E+01  0.64856070689E+01  0.51100000000E-03 0.  1.
        -12    1    3    3    0    0  0.22475826588E+02  0.74124781197E+01  0.22535844570E+02  0.32679839399E+02  0.00000000000E+00 0.  1.
</event>
<event>
 7    1  0.1384886E-010  0.4778727E+02  0.7816164E-02  0.1312668E+00
        -11   -1    0    0    0    0  0.00000000000E+00  0.00000000000E+00  0.45593999997E+02  0.45594000000E+02  0.51100000000E-03 0. -1.
         11   -1    0    0    0    0 -0.00000000000E+00 -0.00000000000E+00 -0.45593999997E+02  0.45594000000E+02  0.51100000000E-03 0.  1.
    9900012    2    1    2    0    0  0.15360215532E+02 -0.15845336858E+02 -0.37371280029E+02  0.47787268528E+02  0.19999988525E+02 0.  0.
         12    1    1    2    0    0 -0.15360215532E+02  0.15845336858E+02  0.37371280029E+02  0.43400731472E+02  0.00000000000E+00 0. -1.
         11    1    3    3    0    0  0.67787837147E+01 -0.12295232859E+02 -0.15339508107E+02  0.20794835151E+02  0.51100000000E-03 0. -1.
        -11    1    3    3    0    0  0.11822154723E+02 -0.32861054513E+01 -0.16294317831E+02  0.20397711273E+02  0.51100000000E-03 0.  1.
        -12    1    3    3    0    0 -0.32407229063E+01 -0.26399854816E+00 -0.57374540907E+01  0.65947221042E+01  0.00000000000E+00 0.  1.
</event>
<event>
 7    1  0.1384886E-010  0.4778726E+02  0.7816164E-02  0.1312668E+00
        -11   -1    0    0    0    0  0.00000000000E+00  0.00000000000E+00  0.45593999997E+02  0.45594000000E+02  0.51100000000E-03 0.  1.
         11   -1    0    0    0    0 -0.00000000000E+00 -0.00000000000E+00 -0.45593999997E+02  0.45594000000E+02  0.51100000000E-03 0. -1.
    9900012    2    1    2    0    0  0.18295610476E+02  0.19586905656E+02  0.34135726451E+02  0.47787262032E+02  0.19999958907E+02 0.  0.
         12    1    1    2    0    0 -0.18295610476E+02 -0.19586905656E+02 -0.34135726451E+02  0.43400737968E+02  0.00000000000E+00 0. -1.
         11    1    3    3    0    0 -0.18172154405E+00  0.12136203289E+02  0.17764709773E+02  0.21515235685E+02  0.51100000000E-03 0. -1.
        -11    1    3    3    0    0  0.86404952735E+01  0.51807710923E+01  0.10684601730E+02  0.14685341742E+02  0.51100000000E-03 0.  1.
         12    1    3    3    0    0  0.98368367470E+01  0.22699312745E+01  0.56864149473E+01  0.11586684605E+02  0.00000000000E+00 0. -1.
</event>
<event>
 7    1  0.1384886E-010  0.4778727E+02  0.7816164E-02  0.1312668E+00
        -11   -1    0    0    0    0  0.00000000000E+00  0.00000000000E+00  0.45593999997E+02  0.45594000000E+02  0.51100000000E-03 0.  1.
         11   -1    0    0    0    0 -0.00000000000E+00 -0.00000000000E+00 -0.45593999997E+02  0.45594000000E+02  0.51100000000E-03 0. -1.
    9900012    2    1    2    0    0 -0.42448890206E+02  0.57106697834E+01  0.70073884663E+01  0.47787268184E+02  0.19999986956E+02 0.  0.
         12    1    1    2    0    0  0.42448890206E+02 -0.57106697834E+01 -0.70073884663E+01  0.43400731816E+02  0.00000000000E+00 0. -1.
         11    1    3    3    0    0 -0.80317578649E+01  0.42728765963E+01 -0.29172120936E+01  0.95538858831E+01  0.51100000000E-03 0. -1.
        -11    1    3    3    0    0 -0.21052285469E+02 -0.56394647389E+01  0.55429678952E+01  0.22488369869E+02  0.51100000000E-03 0.  1.
        -12    1    3    3    0    0 -0.13364846872E+02  0.70772579260E+01  0.43816326648E+01  0.15745012432E+02  0.00000000000E+00 0.  1.
</event>
<event>
 7    1  0.1384886E-010  0.4778727E+02  0.7816164E-02  0.1312668E+00
        -11   -1    0    0    0    0  0.00000000000E+00  0.00000000000E+00  0.45593999997E+02  0.45594000000E+02  0.51100000000E-03 0.  1.
         11   -1    0    0    0    0 -0.00000000000E+00 -0.00000000000E+00 -0.45593999997E+02  0.45594000000E+02  0.51100000000E-03 0. -1.
    9900012    2    1    2    0    0 -0.20732312670E+02 -0.21088654410E+02  0.31765754679E+02  0.47787270700E+02  0.19999998427E+02 0.  0.
         12    1    1    2    0    0  0.20732312670E+02  0.21088654410E+02 -0.31765754679E+02  0.43400729300E+02  0.00000000000E+00 0. -1.
         11    1    3    3    0    0 -0.17567923267E+02 -0.12951372503E+02  0.13787864634E+02  0.25816180761E+02  0.51100000000E-03 0. -1.
        -11    1    3    3    0    0 -0.32600854273E+01 -0.35297967175E+01  0.17697444502E+01  0.51205095001E+01  0.51100000000E-03 0.  1.
        -12    1    3    3    0    0  0.95696024591E-01 -0.46074851890E+01  0.16208145595E+02  0.16850580438E+02  0.00000000000E+00 0.  1.
</event>
<event>
 7    1  0.1384886E-010  0.4778727E+02  0.7816164E-02  0.1312668E+00
        -11   -1    0    0    0    0  0.00000000000E+00  0.00000000000E+00  0.45593999997E+02  0.45594000000E+02  0.51100000000E-03 0.  1.
         11   -1    0    0    0    0 -0.00000000000E+00 -0.00000000000E+00 -0.45593999997E+02  0.45594000000E+02  0.51100000000E-03 0. -1.
    9900012    2    1    2    0    0  0.13513238342E+02 -0.41115973062E+02 -0.32391995292E+01  0.47787271148E+02  0.20000000470E+02 0.  0.
         12    1    1    2    0    0 -0.13513238342E+02  0.41115973062E+02  0.32391995292E+01  0.43400728852E+02  0.00000000000E+00 0. -1.
         11    1    3    3    0    0  0.10850310434E+02 -0.11408342907E+02 -0.20645123401E+01  0.15878971499E+02  0.51100000000E-03 0.  1.
        -11    1    3    3    0    0 -0.21515915738E+01 -0.35629232515E+01  0.28171772639E+01  0.50259582563E+01  0.51100000000E-03 0. -1.
         12    1    3    3    0    0  0.48145194820E+01 -0.26144706904E+02 -0.39918644530E+01  0.26882341393E+02  0.00000000000E+00 0. -1.
</event>
<event>
 7    1  0.1384886E-010  0.4778727E+02  0.7816164E-02  0.1312668E+00
        -11   -1    0    0    0    0  0.00000000000E+00  0.00000000000E+00  0.45593999997E+02  0.45594000000E+02  0.51100000000E-03 0.  1.
         11   -1    0    0    0    0 -0.00000000000E+00 -0.00000000000E+00 -0.45593999997E+02  0.45594000000E+02  0.51100000000E-03 0. -1.
    9900012    2    1    2    0    0 -0.32965256325E+02  0.20792957505E+02  0.19093661088E+02  0.47787273046E+02  0.20000009126E+02 0.  0.
         12    1    1    2    0    0  0.32965256325E+02 -0.20792957505E+02 -0.19093661088E+02  0.43400726954E+02  0.00000000000E+00 0. -1.
         11    1    3    3    0    0 -0.23592008109E+01  0.74911774298E+01  0.43917485413E+01  0.89983900373E+01  0.51100000000E-03 0. -1.
        -11    1    3    3    0    0 -0.26600287858E+02  0.13130812392E+02  0.16976836799E+02  0.34179036501E+02  0.51100000000E-03 0.  1.
         12    1    3    3    0    0 -0.40057676569E+01  0.17096768289E+00 -0.22749242522E+01  0.46098465076E+01  0.00000000000E+00 0. -1.
</event>
<event>
 7    1  0.1384886E-010  0.4778727E+02  0.7816164E-02  0.1312668E+00
        -11   -1    0    0    0    0  0.00000000000E+00  0.00000000000E+00  0.45593999997E+02  0.45594000000E+02  0.51100000000E-03 0.  1.
         11   -1    0    0    0    0 -0.00000000000E+00 -0.00000000000E+00 -0.45593999997E+02  0.45594000000E+02  0.51100000000E-03 0. -1.
    9900012    2    1    2    0    0  0.12754443199E+02 -0.16122783376E+02  0.38223071742E+02  0.47787272143E+02  0.20000005008E+02 0.  0.
         12    1    1    2    0    0 -0.12754443199E+02  0.16122783376E+02 -0.38223071742E+02  0.43400727857E+02  0.00000000000E+00 0. -1.
         11    1    3    3    0    0 -0.19660710017E+01  0.27904932694E+00  0.23310397504E+01  0.30621969711E+01  0.51100000000E-03 0. -1.
        -11    1    3    3    0    0  0.13541188211E+02 -0.77659164522E+01  0.13291694622E+02  0.20502253113E+02  0.51100000000E-03 0.  1.
        -12    1    3    3    0    0  0.11793259902E+01 -0.86359162508E+01  0.22600337370E+02  0.24222822059E+02  0.00000000000E+00 0.  1.
</event>
<event>
 7    1  0.1384886E-010  0.4778727E+02  0.7816164E-02  0.1312668E+00
        -11   -1    0    0    0    0  0.00000000000E+00  0.00000000000E+00  0.45593999997E+02  0.45594000000E+02  0.51100000000E-03 0. -1.
         11   -1    0    0    0    0 -0.00000000000E+00 -0.00000000000E+00 -0.45593999997E+02  0.45594000000E+02  0.51100000000E-03 0.  1.
    9900012    2    1    2    0    0 -0.13586715513E+02  0.41208454465E+02 -0.94231702009E+00  0.47787268218E+02  0.19999987113E+02 0.  0.
         12    1    1    2    0    0  0.13586715513E+02 -0.41208454465E+02  0.94231702009E+00  0.43400731782E+02  0.00000000000E+00 0. -1.
         11    1    3    3    0    0 -0.46696379569E+01  0.53077675344E+01  0.66466137820E+01  0.97033700268E+01  0.51100000000E-03 0. -1.
        -11    1    3    3    0    0 -0.14919496184E+01  0.89137610614E+01 -0.39327700657E+01  0.98563548320E+01  0.51100000000E-03 0.  1.
         12    1    3    3    0    0 -0.74251279379E+01  0.26986925869E+02 -0.36561607365E+01  0.28227543359E+02  0.00000000000E+00 0. -1.
</event>
<event>
 7    1  0.1384886E-010  0.4778727E+02  0.7816164E-02  0.1312668E+00
        -11   -1    0    0    0    0  0.00000000000E+00  0.00000000000E+00  0.45593999997E+02  0.45594000000E+02  0.51100000000E-03 0.  1.
         11   -1    0    0    0    0 -0.00000000000E+00 -0.00000000000E+00 -0.45593999997E+02  0.45594000000E+02  0.51100000000E-03 0. -1.
    9900012    2    1    2    0    0 -0.28334724770E+01 -0.26653601712E+02  0.34134732088E+02  0.47787274370E+02  0.20000015163E+02 0.  0.
         12    1    1    2    0    0  0.28334724770E+01  0.26653601712E+02 -0.34134732088E+02  0.43400725630E+02  0.00000000000E+00 0. -1.
         11    1    3    3    0    0  0.64599418681E+01 -0.12639703838E+02  0.17206880591E+02  0.22306270463E+02  0.51100000000E-03 0. -1.
        -11    1    3    3    0    0 -0.17647310806E+01 -0.94453567246E+00 -0.84342295569E+00  0.21720464928E+01  0.51100000000E-03 0.  1.
        -12    1    3    3    0    0 -0.75286832645E+01 -0.13069362202E+02  0.17771274452E+02  0.23308957414E+02  0.00000000000E+00 0.  1.
</event>
<event>
 7    1  0.1384886E-010  0.4778727E+02  0.7816164E-02  0.1312668E+00
        -11   -1    0    0    0    0  0.00000000000E+00  0.00000000000E+00  0.45593999997E+02  0.45594000000E+02  0.51100000000E-03 0.  1.
         11   -1    0    0    0    0 -0.00000000000E+00 -0.00000000000E+00 -0.45593999997E+02  0.45594000000E+02  0.51100000000E-03 0. -1.
    9900012    2    1    2    0    0 -0.79080663727E+01  0.26942170418E+02  0.33093884928E+02  0.47787270972E+02  0.19999999669E+02 0.  0.
         12    1    1    2    0    0  0.79080663727E+01 -0.26942170418E+02 -0.33093884928E+02  0.43400729028E+02  0.00000000000E+00 0. -1.
         11    1    3    3    0    0 -0.15355162852E+01 -0.19702118167E+01  0.34010145346E+01  0.42197683574E+01  0.51100000000E-03 0. -1.
        -11    1    3    3    0    0  0.95212631652E+00 -0.82234697735E+00  0.11360558415E+01  0.16951171670E+01  0.51100000000E-03 0.  1.
        -12    1    3    3    0    0 -0.73246764041E+01  0.29734729212E+02  0.28556814552E+02  0.41872385447E+02  0.00000000000E+00 0.  1.
</event>
<event>
 7    1  0.1384886E-010  0.4778727E+02  0.7816164E-02  0.1312668E+00
        -11   -1    0    0    0    0  0.00000000000E+00  0.00000000000E+00  0.45593999997E+02  0.45594000000E+02  0.51100000000E-03 0.  1.
         11   -1    0    0    0    0 -0.00000000000E+00 -0.00000000000E+00 -0.45593999997E+02  0.45594000000E+02  0.51100000000E-03 0. -1.
    9900012    2    1    2    0    0  0.53303825760E+01 -0.31243181917E+02  0.29649175216E+02  0.47787274364E+02  0.20000015135E+02 0.  0.
         12    1    1    2    0    0 -0.53303825760E+01  0.31243181917E+02 -0.29649175216E+02  0.43400725636E+02  0.00000000000E+00 0. -1.
         11    1    3    3    0    0  0.69801242852E+01 -0.16179468406E+02  0.24984088039E+02  0.30572896302E+02  0.51100000000E-03 0. -1.
        -11    1    3    3    0    0  0.24807921795E+01 -0.77325910773E+01  0.17342631956E+01  0.83039125537E+01  0.51100000000E-03 0.  1.
         12    1    3    3    0    0 -0.41305338886E+01 -0.73311224345E+01  0.29308239818E+01  0.89104655079E+01  0.00000000000E+00 0. -1.
</event>
<event>
 7    1  0.1384886E-010  0.4778727E+02  0.7816164E-02  0.1312668E+00
        -11   -1    0    0    0    0  0.00000000000E+00  0.00000000000E+00  0.45593999997E+02  0.45594000000E+02  0.51100000000E-03 0. -1.
         11   -1    0    0    0    0 -0.00000000000E+00 -0.00000000000E+00 -0.45593999997E+02  0.45594000000E+02  0.51100000000E-03 0.  1.
    9900012    2    1    2    0    0 -0.39207305975E+02 -0.16433393582E+02 -0.87380931694E+01  0.47787267994E+02  0.19999986090E+02 0.  0.
         12    1    1    2    0    0  0.39207305975E+02  0.16433393582E+02  0.87380931694E+01  0.43400732006E+02  0.00000000000E+00 0. -1.
         11    1    3    3    0    0 -0.22467548586E+02 -0.11037813762E+02 -0.44090638942E+01  0.25417787409E+02  0.51100000000E-03 0.  1.
        -11    1    3    3    0    0 -0.10699505651E+02 -0.85439656911E+01  0.98878654220E+00  0.13727944857E+02  0.51100000000E-03 0. -1.
        -12    1    3    3    0    0 -0.60402517388E+01  0.31483858714E+01 -0.53178158173E+01  0.86415357276E+01  0.00000000000E+00 0.  1.
</event>
<event>
 7    1  0.1384886E-010  0.4778727E+02  0.7816164E-02  0.1312668E+00
        -11   -1    0    0    0    0  0.00000000000E+00  0.00000000000E+00  0.45593999997E+02  0.45594000000E+02  0.51100000000E-03 0.  1.
         11   -1    0    0    0    0 -0.00000000000E+00 -0.00000000000E+00 -0.45593999997E+02  0.45594000000E+02  0.51100000000E-03 0. -1.
    9900012    2    1    2    0    0 -0.17624934649E+02  0.16194964307E+02  0.36203707331E+02  0.47787267117E+02  0.19999982092E+02 0.  0.
         12    1    1    2    0    0  0.17624934649E+02 -0.16194964307E+02 -0.36203707331E+02  0.43400732883E+02  0.00000000000E+00 0. -1.
         11    1    3    3    0    0 -0.98827392444E+01  0.31846717261E-01  0.14905160254E+02  0.17883885250E+02  0.51100000000E-03 0. -1.
        -11    1    3    3    0    0 -0.55095272719E+01  0.11716973956E+02  0.21301875413E+02  0.24928142045E+02  0.51100000000E-03 0.  1.
        -12    1    3    3    0    0 -0.22326681325E+01  0.44461436341E+01 -0.33283359381E-02  0.49752398216E+01  0.00000000000E+00 0.  1.
</event>
<event>
 7    1  0.1384886E-010  0.4778727E+02  0.7816164E-02  0.1312668E+00
        -11   -1    0    0    0    0  0.00000000000E+00  0.00000000000E+00  0.45593999997E+02  0.45594000000E+02  0.51100000000E-03 0.  1.
         11   -1    0    0    0    0 -0.00000000000E+00 -0.00000000000E+00 -0.45593999997E+02  0.45594000000E+02  0.51100000000E-03 0. -1.
    9900012    2    1    2    0    0  0.85963581208E+00  0.43019140105E+01  0.43178442485E+02  0.47787270360E+02  0.19999996880E+02 0.  0.
         12    1    1    2    0    0 -0.85963581208E+00 -0.43019140105E+01 -0.43178442485E+02  0.43400729640E+02  0.00000000000E+00 0. -1.
         11    1    3    3    0    0  0.10657245067E+01 -0.70583028363E+01  0.19284559374E+02  0.20563308055E+02  0.51100000000E-03 0. -1.
        -11    1    3    3    0    0  0.11849887396E+01  0.50136646025E+01  0.16944672237E+02  0.17710532136E+02  0.51100000000E-03 0.  1.
         12    1    3    3    0    0 -0.13910774342E+01  0.63465522443E+01  0.69492108740E+01  0.95134301694E+01  0.00000000000E+00 0. -1.
</event>
<event>
 7    1  0.1384886E-010  0.4778727E+02  0.7816164E-02  0.1312668E+00
        -11   -1    0    0    0    0  0.00000000000E+00  0.00000000000E+00  0.45593999997E+02  0.45594000000E+02  0.51100000000E-03 0. -1.
         11   -1    0    0    0    0 -0.00000000000E+00 -0.00000000000E+00 -0.45593999997E+02  0.45594000000E+02  0.51100000000E-03 0.  1.
    9900012    2    1    2    0    0  0.28380425665E+02  0.12364273886E+02 -0.30418738459E+02  0.47787268680E+02  0.19999989220E+02 0.  0.
         12    1    1    2    0    0 -0.28380425665E+02 -0.12364273886E+02  0.30418738459E+02  0.43400731320E+02  0.00000000000E+00 0. -1.
         11    1    3    3    0    0  0.11481427491E+02  0.67114797923E+01 -0.18221868392E+02  0.22558892397E+02  0.51100000000E-03 0. -1.
        -11    1    3    3    0    0 -0.13397861172E+01  0.33816606585E+01 -0.13084312594E+01  0.38655721790E+01  0.51100000000E-03 0.  1.
         12    1    3    3    0    0  0.18238784292E+02  0.22711334353E+01 -0.10888438808E+02  0.21362804104E+02  0.00000000000E+00 0. -1.
</event>
<event>
 7    1  0.1384886E-010  0.4778728E+02  0.7816164E-02  0.1312668E+00
        -11   -1    0    0    0    0  0.00000000000E+00  0.00000000000E+00  0.45593999997E+02  0.45594000000E+02  0.51100000000E-03 0.  1.
         11   -1    0    0    0    0 -0.00000000000E+00 -0.00000000000E+00 -0.45593999997E+02  0.45594000000E+02  0.51100000000E-03 0. -1.
    9900012    2    1    2    0    0 -0.48019367936E+01  0.28758869176E+02  0.32147962343E+02  0.47787278392E+02  0.20000033502E+02 0.  0.
         12    1    1    2    0    0  0.48019367936E+01 -0.28758869176E+02 -0.32147962343E+02  0.43400721608E+02  0.00000000000E+00 0. -1.
         11    1    3    3    0    0 -0.40820628210E+01  0.14514115599E+02  0.20662099583E+02  0.25578216277E+02  0.51100000000E-03 0. -1.
        -11    1    3    3    0    0  0.54873729938E-01  0.38592135063E+01  0.11139189000E+02  0.11788896126E+02  0.51100000000E-03 0.  1.
         12    1    3    3    0    0 -0.77474770260E+00  0.10385540070E+02  0.34667376011E+00  0.10420165989E+02  0.00000000000E+00 0. -1.
</event>
<event>
 7    1  0.1384886E-010  0.4778728E+02  0.7816164E-02  0.1312668E+00
        -11   -1    0    0    0    0  0.00000000000E+00  0.00000000000E+00  0.45593999997E+02  0.45594000000E+02  0.51100000000E-03 0.  1.
         11   -1    0    0    0    0 -0.00000000000E+00 -0.00000000000E+00 -0.45593999997E+02  0.45594000000E+02  0.51100000000E-03 0. -1.
    9900012    2    1    2    0    0 -0.33648446764E+02  0.27065718086E+02  0.43418099481E+01  0.47787281357E+02  0.20000047017E+02 0.  0.
         12    1    1    2    0    0  0.33648446764E+02 -0.27065718086E+02 -0.43418099481E+01  0.43400718643E+02  0.00000000000E+00 0. -1.
         11    1    3    3    0    0 -0.19821192645E+01  0.43432755522E+01  0.55491224352E+01  0.73202185325E+01  0.51100000000E-03 0. -1.
        -11    1    3    3    0    0 -0.16276476651E+02  0.56873365003E+01  0.17053139969E+01  0.17325633747E+02  0.51100000000E-03 0.  1.
         12    1    3    3    0    0 -0.15389850848E+02  0.17035106034E+02 -0.29126264841E+01  0.23141429077E+02  0.00000000000E+00 0. -1.
</event>
<event>
 7    1  0.1384886E-010  0.4778727E+02  0.7816164E-02  0.1312668E+00
        -11   -1    0    0    0    0  0.00000000000E+00  0.00000000000E+00  0.45593999997E+02  0.45594000000E+02  0.51100000000E-03 0.  1.
         11   -1    0    0    0    0 -0.00000000000E+00 -0.00000000000E+00 -0.45593999997E+02  0.45594000000E+02  0.51100000000E-03 0. -1.
    9900012    2    1    2    0    0 -0.62711139703E+01 -0.27021882071E+02  0.33378351132E+02  0.47787270682E+02  0.19999998348E+02 0.  0.
         12    1    1    2    0    0  0.62711139703E+01  0.27021882071E+02 -0.33378351132E+02  0.43400729318E+02  0.00000000000E+00 0. -1.
         11    1    3    3    0    0  0.10027313133E+01 -0.12267744844E+02  0.67835528953E+01  0.14054167488E+02  0.51100000000E-03 0. -1.
        -11    1    3    3    0    0 -0.89529906795E+01 -0.12650908049E+02  0.26878709651E+02  0.31026868184E+02  0.51100000000E-03 0.  1.
         12    1    3    3    0    0  0.16791453959E+01 -0.21032291783E+01 -0.28391141469E+00  0.27062350098E+01  0.00000000000E+00 0. -1.
</event>
<event>
 7    1  0.1384886E-010  0.4778727E+02  0.7816164E-02  0.1312668E+00
        -11   -1    0    0    0    0  0.00000000000E+00  0.00000000000E+00  0.45593999997E+02  0.45594000000E+02  0.51100000000E-03 0.  1.
         11   -1    0    0    0    0 -0.00000000000E+00 -0.00000000000E+00 -0.45593999997E+02  0.45594000000E+02  0.51100000000E-03 0. -1.
    9900012    2    1    2    0    0 -0.25404762342E+02  0.64806634228E+00  0.35182402414E+02  0.47787269830E+02  0.19999994464E+02 0.  0.
         12    1    1    2    0    0  0.25404762342E+02 -0.64806634228E+00 -0.35182402414E+02  0.43400730170E+02  0.00000000000E+00 0. -1.
         11    1    3    3    0    0 -0.12268573644E+02 -0.44592512400E+01  0.13114441276E+02  0.18503820987E+02  0.51100000000E-03 0. -1.
        -11    1    3    3    0    0 -0.14573522761E+02  0.71352165744E+01  0.16285942534E+02  0.22989797862E+02  0.51100000000E-03 0.  1.
        -12    1    3    3    0    0  0.14373340638E+01 -0.20278989922E+01  0.57820186050E+01  0.62936509819E+01  0.00000000000E+00 0.  1.
</event>
<event>
 7    1  0.1384886E-010  0.4778727E+02  0.7816164E-02  0.1312668E+00
        -11   -1    0    0    0    0  0.00000000000E+00  0.00000000000E+00  0.45593999997E+02  0.45594000000E+02  0.51100000000E-03 0.  1.
         11   -1    0    0    0    0 -0.00000000000E+00 -0.00000000000E+00 -0.45593999997E+02  0.45594000000E+02  0.51100000000E-03 0. -1.
    9900012    2    1    2    0    0  0.74600886873E+01  0.41858676139E+02  0.87075511988E+01  0.47787272596E+02  0.20000007073E+02 0.  0.
         12    1    1    2    0    0 -0.74600886873E+01 -0.41858676139E+02 -0.87075511988E+01  0.43400727404E+02  0.00000000000E+00 0. -1.
         11    1    3    3    0    0  0.31867730972E+01  0.92522416816E+01 -0.19162634927E+01  0.99715377422E+01  0.51100000000E-03 0.  1.
        -11    1    3    3    0    0 -0.31448702808E+01  0.13186165321E+02 -0.16784791138E+01  0.13659518929E+02  0.51100000000E-03 0. -1.
        -12    1    3    3    0    0  0.74181858708E+01  0.19420269136E+02  0.12302293805E+02  0.24156215925E+02  0.00000000000E+00 0.  1.
</event>
<event>
 7    1  0.1384886E-010  0.4778724E+02  0.7816164E-02  0.1312668E+00
        -11   -1    0    0    0    0  0.00000000000E+00  0.00000000000E+00  0.45593999997E+02  0.45594000000E+02  0.51100000000E-03 0.  1.
         11   -1    0    0    0    0 -0.00000000000E+00 -0.00000000000E+00 -0.45593999997E+02  0.45594000000E+02  0.51100000000E-03 0. -1.
    9900012    2    1    2    0    0 -0.18664192118E+02 -0.21341513587E+02  0.32860513407E+02  0.47787244119E+02  0.19999877238E+02 0.  0.
         12    1    1    2    0    0  0.18664192118E+02  0.21341513587E+02 -0.32860513407E+02  0.43400755881E+02  0.00000000000E+00 0. -1.
         11    1    3    3    0    0 -0.17033193010E+01  0.25458180556E+01  0.52523951040E+01  0.60803076241E+01  0.51100000000E-03 0. -1.
        -11    1    3    3    0    0 -0.63987421459E+01 -0.98517439638E+01  0.42752713881E+01  0.12501148182E+02  0.51100000000E-03 0.  1.
        -12    1    3    3    0    0 -0.10562130671E+02 -0.14035587679E+02  0.23332846915E+02  0.29205788313E+02  0.00000000000E+00 0.  1.
</event>
<event>
 7    1  0.1479609E-010  0.4778726E+02  0.7816164E-02  0.1312668E+00
        -11   -1    0    0    0    0  0.00000000000E+00  0.00000000000E+00  0.45593999997E+02  0.45594000000E+02  0.51100000000E-03 0.  1.
         11   -1    0    0    0    0 -0.00000000000E+00 -0.00000000000E+00 -0.45593999997E+02  0.45594000000E+02  0.51100000000E-03 0. -1.
    9900012    2    1    2    0    0  0.94696919798E+01  0.42345376598E+02  0.90464991713E+00  0.47787258337E+02  0.19999942063E+02 0.  0.
         12    1    1    2    0    0 -0.94696919798E+01 -0.42345376598E+02 -0.90464991713E+00  0.43400741663E+02  0.00000000000E+00 0. -1.
         11    1    3    3    0    0 -0.58891771198E+01  0.11322819289E+02 -0.15575401573E+01  0.12857471579E+02  0.51100000000E-03 0. -1.
        -11    1    3    3    0    0  0.46365387314E+01  0.13546734148E+02  0.40644490821E+00  0.14323990199E+02  0.51100000000E-03 0.  1.
         12    1    3    3    0    0  0.10722330368E+02  0.17475823161E+02  0.20557451663E+01  0.20605796560E+02  0.00000000000E+00 0. -1.
</event>
<event>
 7    1  0.1384886E-010  0.4778727E+02  0.7816164E-02  0.1312668E+00
        -11   -1    0    0    0    0  0.00000000000E+00  0.00000000000E+00  0.45593999997E+02  0.45594000000E+02  0.51100000000E-03 0.  1.
         11   -1    0    0    0    0 -0.00000000000E+00 -0.00000000000E+00 -0.45593999997E+02  0.45594000000E+02  0.51100000000E-03 0. -1.
    9900012    2    1    2    0    0 -0.38319769913E+02 -0.10782827276E+02  0.17290146611E+02  0.47787270743E+02  0.19999998626E+02 0.  0.
         12    1    1    2    0    0  0.38319769913E+02  0.10782827276E+02 -0.17290146611E+02  0.43400729257E+02  0.00000000000E+00 0. -1.
         11    1    3    3    0    0 -0.11431972345E+01 -0.43507875599E+01  0.44740941926E+01  0.63445859924E+01  0.51100000000E-03 0. -1.
        -11    1    3    3    0    0 -0.92362811562E-01  0.13202973382E+01  0.12755416320E+01  0.18381302092E+01  0.51100000000E-03 0.  1.
        -12    1    3    3    0    0 -0.37084209867E+02 -0.77523370542E+01  0.11540510786E+02  0.39604554541E+02  0.00000000000E+00 0.  1.
</event>
<event>
 7    1  0.1384886E-010  0.4778727E+02  0.7816164E-02  0.1312668E+00
        -11   -1    0    0    0    0  0.00000000000E+00  0.00000000000E+00  0.45593999997E+02  0.45594000000E+02  0.51100000000E-03 0.  1.
         11   -1    0    0    0    0 -0.00000000000E+00 -0.00000000000E+00 -0.45593999997E+02  0.45594000000E+02  0.51100000000E-03 0. -1.
    9900012    2    1    2    0    0 -0.18214864195E+02 -0.87305913923E+01  0.38413781040E+02  0.47787273307E+02  0.20000010316E+02 0.  0.
         12    1    1    2    0    0  0.18214864195E+02  0.87305913923E+01 -0.38413781040E+02  0.43400726693E+02  0.00000000000E+00 0. -1.
         11    1    3    3    0    0 -0.16165085908E+02 -0.79094866354E+01  0.40338701439E+02  0.44171040459E+02  0.51100000000E-03 0.  1.
        -11    1    3    3    0    0 -0.14823590534E+01 -0.15299727243E+01 -0.11408516586E+01  0.24165569864E+01  0.51100000000E-03 0. -1.
        -12    1    3    3    0    0 -0.56741923412E+00  0.70886796737E+00 -0.78406874048E+00  0.11996758613E+01  0.00000000000E+00 0.  1.
</event>
<event>
 7    1  0.1384886E-010  0.4778726E+02  0.7816164E-02  0.1312668E+00
        -11   -1    0    0    0    0  0.00000000000E+00  0.00000000000E+00  0.45593999997E+02  0.45594000000E+02  0.51100000000E-03 0. -1.
         11   -1    0    0    0    0 -0.00000000000E+00 -0.00000000000E+00 -0.45593999997E+02  0.45594000000E+02  0.51100000000E-03 0.  1.
    9900012    2    1    2    0    0  0.53080203705E+01  0.36987443796E+02  0.22076638143E+02  0.47787262328E+02  0.19999960258E+02 0.  0.
         12    1    1    2    0    0 -0.53080203705E+01 -0.36987443796E+02 -0.22076638143E+02  0.43400737672E+02  0.00000000000E+00 0. -1.
         11    1    3    3    0    0  0.80208847639E-01  0.14992897835E+02  0.82722605166E+01  0.17123776256E+02  0.51100000000E-03 0. -1.
        -11    1    3    3    0    0  0.10735474881E+02  0.13546260745E+02  0.82975183191E+01  0.19172908272E+02  0.51100000000E-03 0.  1.
         12    1    3    3    0    0 -0.55076633578E+01  0.84482852161E+01  0.55068593071E+01  0.11490577800E+02  0.00000000000E+00 0. -1.
</event>
<event>
 7    1  0.1384886E-010  0.4778727E+02  0.7816164E-02  0.1312668E+00
        -11   -1    0    0    0    0  0.00000000000E+00  0.00000000000E+00  0.45593999997E+02  0.45594000000E+02  0.51100000000E-03 0. -1.
         11   -1    0    0    0    0 -0.00000000000E+00 -0.00000000000E+00 -0.45593999997E+02  0.45594000000E+02  0.51100000000E-03 0.  1.
    9900012    2    1    2    0    0 -0.32271336569E+02 -0.12909029363E+02 -0.25991177313E+02  0.47787268426E+02  0.19999988062E+02 0.  0.
         12    1    1    2    0    0  0.32271336569E+02  0.12909029363E+02  0.25991177313E+02  0.43400731574E+02  0.00000000000E+00 0. -1.
         11    1    3    3    0    0  0.33350656651E+00  0.16008417196E+01  0.13398465001E+01  0.21140269029E+01  0.51100000000E-03 0. -1.
        -11    1    3    3    0    0 -0.14237773060E+02 -0.10738455462E+02 -0.13844396422E+02  0.22576446133E+02  0.51100000000E-03 0.  1.
         12    1    3    3    0    0 -0.18367070075E+02 -0.37714156199E+01 -0.13486627391E+02  0.23096795390E+02  0.00000000000E+00 0. -1.
</event>
<event>
 7    1  0.1384886E-010  0.4778727E+02  0.7816164E-02  0.1312668E+00
        -11   -1    0    0    0    0  0.00000000000E+00  0.00000000000E+00  0.45593999997E+02  0.45594000000E+02  0.51100000000E-03 0. -1.
         11   -1    0    0    0    0 -0.00000000000E+00 -0.00000000000E+00 -0.45593999997E+02  0.45594000000E+02  0.51100000000E-03 0.  1.
    9900012    2    1    2    0    0  0.34219268920E+02 -0.88997880954E+00  0.26680948189E+02  0.47787269315E+02  0.19999992116E+02 0.  0.
         12    1    1    2    0    0 -0.34219268920E+02  0.88997880954E+00 -0.26680948189E+02  0.43400730685E+02  0.00000000000E+00 0. -1.
         11    1    3    3    0    0  0.65487985802E+01  0.52332059110E+01  0.47965481380E+01  0.96581613805E+01  0.51100000000E-03 0. -1.
        -11    1    3    3    0    0  0.67518626055E+01 -0.30773518330E+01  0.13466621822E+02  0.15375553535E+02  0.51100000000E-03 0.  1.
        -12    1    3    3    0    0  0.20918607734E+02 -0.30458328875E+01  0.84177782292E+01  0.22753554400E+02  0.00000000000E+00 0.  1.
</event>
<event>
 7    1  0.1384886E-010  0.4778728E+02  0.7816164E-02  0.1312668E+00
        -11   -1    0    0    0    0  0.00000000000E+00  0.00000000000E+00  0.45593999997E+02  0.45594000000E+02  0.51100000000E-03 0.  1.
         11   -1    0    0    0    0 -0.00000000000E+00 -0.00000000000E+00 -0.45593999997E+02  0.45594000000E+02  0.51100000000E-03 0. -1.
    9900012    2    1    2    0    0 -0.15122538863E+02  0.31696946639E+02  0.25499710620E+02  0.47787275932E+02  0.20000022286E+02 0.  0.
         12    1    1    2    0    0  0.15122538863E+02 -0.31696946639E+02 -0.25499710620E+02  0.43400724068E+02  0.00000000000E+00 0. -1.
         11    1    3    3    0    0 -0.39738224266E+01  0.47672087872E+01 -0.82734973989E+00  0.62611542189E+01  0.51100000000E-03 0. -1.
        -11    1    3    3    0    0 -0.13766159714E+02  0.24793093647E+02  0.21290063556E+02  0.35460843931E+02  0.51100000000E-03 0.  1.
         12    1    3    3    0    0  0.26174432777E+01  0.21366442049E+01  0.50369968039E+01  0.60652777820E+01  0.00000000000E+00 0. -1.
</event>
<event>
 7    1  0.1384886E-010  0.4778727E+02  0.7816164E-02  0.1312668E+00
        -11   -1    0    0    0    0  0.00000000000E+00  0.00000000000E+00  0.45593999997E+02  0.45594000000E+02  0.51100000000E-03 0. -1.
         11   -1    0    0    0    0 -0.00000000000E+00 -0.00000000000E+00 -0.45593999997E+02  0.45594000000E+02  0.51100000000E-03 0.  1.
    9900012    2    1    2    0    0  0.83251581549E+01  0.32691201651E+01 -0.42469140707E+02  0.47787270543E+02  0.19999997715E+02 0.  0.
         12    1    1    2    0    0 -0.83251581549E+01 -0.32691201651E+01  0.42469140707E+02  0.43400729457E+02  0.00000000000E+00 0. -1.
         11    1    3    3    0    0 -0.47303507033E+01 -0.33340650179E+01 -0.92145004270E+01  0.10881140827E+02  0.51100000000E-03 0. -1.
        -11    1    3    3    0    0  0.31202056596E+01  0.37123739950E+01 -0.16645355511E+02  0.17337394971E+02  0.51100000000E-03 0.  1.
        -12    1    3    3    0    0  0.99353031986E+01  0.28908111879E+01 -0.16609284770E+02  0.19568734745E+02  0.00000000000E+00 0.  1.
</event>
<event>
 7    1  0.1384886E-010  0.4778727E+02  0.7816164E-02  0.1312668E+00
        -11   -1    0    0    0    0  0.00000000000E+00  0.00000000000E+00  0.45593999997E+02  0.45594000000E+02  0.51100000000E-03 0. -1.
         11   -1    0    0    0    0 -0.00000000000E+00 -0.00000000000E+00 -0.45593999997E+02  0.45594000000E+02  0.51100000000E-03 0.  1.
    9900012    2    1    2    0    0 -0.18968830616E+02  0.38984481991E+02 -0.20041395030E+01  0.47787274819E+02  0.20000017211E+02 0.  0.
         12    1    1    2    0    0  0.18968830616E+02 -0.38984481991E+02  0.20041395030E+01  0.43400725181E+02  0.00000000000E+00 0. -1.
         11    1    3    3    0    0 -0.76058951302E+00  0.53241334626E+01  0.24407365815E+01  0.59061060655E+01  0.51100000000E-03 0. -1.
        -11    1    3    3    0    0  0.27768861346E+01  0.68255781889E+01  0.80699559660E+00  0.74128844839E+01  0.51100000000E-03 0.  1.
         12    1    3    3    0    0 -0.20985127238E+02  0.26834770340E+02 -0.52518716811E+01  0.34468284270E+02  0.00000000000E+00 0. -1.
</event>
<event>
 7    1  0.1384886E-010  0.4778727E+02  0.7816164E-02  0.1312668E+00
        -11   -1    0    0    0    0  0.00000000000E+00  0.00000000000E+00  0.45593999997E+02  0.45594000000E+02  0.51100000000E-03 0.  1.
         11   -1    0    0    0    0 -0.00000000000E+00 -0.00000000000E+00 -0.45593999997E+02  0.45594000000E+02  0.51100000000E-03 0. -1.
    9900012    2    1    2    0    0 -0.25030827386E+02 -0.23341070872E+02  0.26688497243E+02  0.47787265051E+02  0.19999972672E+02 0.  0.
         12    1    1    2    0    0  0.25030827386E+02  0.23341070872E+02 -0.26688497243E+02  0.43400734949E+02  0.00000000000E+00 0. -1.
         11    1    3    3    0    0 -0.92682903879E+01 -0.13272783598E+02  0.16994718139E+02  0.23471012676E+02  0.51100000000E-03 0. -1.
        -11    1    3    3    0    0 -0.80929811674E+01  0.14220781277E+01  0.18236932239E+01  0.84169179402E+01  0.51100000000E-03 0.  1.
        -12    1    3    3    0    0 -0.76695558306E+01 -0.11490365401E+02  0.78700858799E+01  0.15899334434E+02  0.00000000000E+00 0.  1.
</event>
<event>
 7    1  0.1384886E-010  0.4778724E+02  0.7816164E-02  0.1312668E+00
        -11   -1    0    0    0    0  0.00000000000E+00  0.00000000000E+00  0.45593999997E+02  0.45594000000E+02  0.51100000000E-03 0. -1.
         11   -1    0    0    0    0 -0.00000000000E+00 -0.00000000000E+00 -0.45593999997E+02  0.45594000000E+02  0.51100000000E-03 0.  1.
    9900012    2    1    2    0    0 -0.11803447086E+02 -0.23824729547E+02 -0.34302871474E+02  0.47787238573E+02  0.19999851950E+02 0.  0.
         12    1    1    2    0    0  0.11803447086E+02  0.23824729547E+02  0.34302871474E+02  0.43400761427E+02  0.00000000000E+00 0. -1.
         11    1    3    3    0    0 -0.43247756793E+01 -0.40941695246E+01  0.71664251582E-01  0.59557572817E+01  0.51100000000E-03 0. -1.
        -11    1    3    3    0    0 -0.22769997316E+01 -0.81463529146E+00 -0.11247004041E+02  0.11504062699E+02  0.51100000000E-03 0.  1.
        -12    1    3    3    0    0 -0.52016716751E+01 -0.18915924731E+02 -0.23127531684E+02  0.30327418592E+02  0.00000000000E+00 0.  1.
</event>
<event>
 7    1  0.1384886E-010  0.4778727E+02  0.7816164E-02  0.1312668E+00
        -11   -1    0    0    0    0  0.00000000000E+00  0.00000000000E+00  0.45593999997E+02  0.45594000000E+02  0.51100000000E-03 0. -1.
         11   -1    0    0    0    0 -0.00000000000E+00 -0.00000000000E+00 -0.45593999997E+02  0.45594000000E+02  0.51100000000E-03 0.  1.
    9900012    2    1    2    0    0  0.13872094826E+02 -0.35898554511E+01 -0.40967076403E+02  0.47787269292E+02  0.19999992008E+02 0.  0.
         12    1    1    2    0    0 -0.13872094826E+02  0.35898554511E+01  0.40967076403E+02  0.43400730708E+02  0.00000000000E+00 0. -1.
         11    1    3    3    0    0  0.30553470179E+01 -0.17514796750E+01 -0.42649356723E+01  0.55310489965E+01  0.51100000000E-03 0. -1.
        -11    1    3    3    0    0  0.14349373938E+02 -0.56873980347E+01 -0.24163899556E+02  0.28673072225E+02  0.51100000000E-03 0.  1.
         12    1    3    3    0    0 -0.35326261306E+01  0.38490222586E+01 -0.12538241175E+02  0.13583148070E+02  0.00000000000E+00 0. -1.
</event>
<event>
 7    1  0.1384886E-010  0.4778727E+02  0.7816164E-02  0.1312668E+00
        -11   -1    0    0    0    0  0.00000000000E+00  0.00000000000E+00  0.45593999997E+02  0.45594000000E+02  0.51100000000E-03 0.  1.
         11   -1    0    0    0    0 -0.00000000000E+00 -0.00000000000E+00 -0.45593999997E+02  0.45594000000E+02  0.51100000000E-03 0. -1.
    9900012    2    1    2    0    0 -0.22709836340E+00  0.28892591038E+01  0.43303859921E+02  0.47787266413E+02  0.19999978884E+02 0.  0.
         12    1    1    2    0    0  0.22709836340E+00 -0.28892591038E+01 -0.43303859921E+02  0.43400733587E+02  0.00000000000E+00 0. -1.
         11    1    3    3    0    0  0.22567611986E+01  0.74974775486E+01  0.33376818908E+02  0.34282899256E+02  0.51100000000E-03 0. -1.
        -11    1    3    3    0    0 -0.37805539906E+01  0.54267475531E+00  0.36694366919E+01  0.52963997454E+01  0.51100000000E-03 0.  1.
         12    1    3    3    0    0  0.12966944286E+01 -0.51508932000E+01  0.62576043208E+01  0.82079674119E+01  0.00000000000E+00 0. -1.
</event>
<event>
 7    1  0.1384886E-010  0.4778727E+02  0.7816164E-02  0.1312668E+00
        -11   -1    0    0    0    0  0.00000000000E+00  0.00000000000E+00  0.45593999997E+02  0.45594000000E+02  0.51100000000E-03 0. -1.
         11   -1    0    0    0    0 -0.00000000000E+00 -0.00000000000E+00 -0.45593999997E+02  0.45594000000E+02  0.51100000000E-03 0.  1.
    9900012    2    1    2    0    0 -0.53969040795E+01  0.24565595689E+02 -0.35369877151E+02  0.47787271032E+02  0.19999999945E+02 0.  0.
         12    1    1    2    0    0  0.53969040795E+01 -0.24565595689E+02  0.35369877151E+02  0.43400728968E+02  0.00000000000E+00 0. -1.
         11    1    3    3    0    0 -0.30598640355E+01  0.18273895305E+02 -0.11548284568E+02  0.21832564995E+02  0.51100000000E-03 0. -1.
        -11    1    3    3    0    0 -0.25607906035E+01  0.80185522003E+01 -0.17863779416E+02  0.19747643991E+02  0.51100000000E-03 0.  1.
        -12    1    3    3    0    0  0.22375055953E+00 -0.17268518162E+01 -0.59578131676E+01  0.62070620464E+01  0.00000000000E+00 0.  1.
</event>
<event>
 7    1  0.1384886E-010  0.4778727E+02  0.7816164E-02  0.1312668E+00
        -11   -1    0    0    0    0  0.00000000000E+00  0.00000000000E+00  0.45593999997E+02  0.45594000000E+02  0.51100000000E-03 0. -1.
         11   -1    0    0    0    0 -0.00000000000E+00 -0.00000000000E+00 -0.45593999997E+02  0.45594000000E+02  0.51100000000E-03 0.  1.
    9900012    2    1    2    0    0  0.36757402627E+02 -0.15615233685E+02  0.16990617287E+02  0.47787271357E+02  0.20000001425E+02 0.  0.
         12    1    1    2    0    0 -0.36757402627E+02  0.15615233685E+02 -0.16990617287E+02  0.43400728643E+02  0.00000000000E+00 0. -1.
         11    1    3    3    0    0  0.93923206997E+01 -0.47276034908E+01 -0.23959897277E+01  0.10784557938E+02  0.51100000000E-03 0.  1.
        -11    1    3    3    0    0  0.70191624115E+00 -0.97112854742E+00 -0.13458104205E+01  0.18019386822E+01  0.51100000000E-03 0. -1.
        -12    1    3    3    0    0  0.26663165687E+02 -0.99165016467E+01  0.20732417435E+02  0.35200774736E+02  0.00000000000E+00 0.  1.
</event>
<event>
 7    1  0.1384886E-010  0.4778729E+02  0.7816164E-02  0.1312668E+00
        -11   -1    0    0    0    0  0.00000000000E+00  0.00000000000E+00  0.45593999997E+02  0.45594000000E+02  0.51100000000E-03 0.  1.
         11   -1    0    0    0    0 -0.00000000000E+00 -0.00000000000E+00 -0.45593999997E+02  0.45594000000E+02  0.51100000000E-03 0. -1.
    9900012    2    1    2    0    0  0.55814180452E+01  0.33884155997E+02  0.26539285872E+02  0.47787286301E+02  0.20000069559E+02 0.  0.
         12    1    1    2    0    0 -0.55814180452E+01 -0.33884155997E+02 -0.26539285872E+02  0.43400713699E+02  0.00000000000E+00 0. -1.
         11    1    3    3    0    0 -0.19372781568E+01  0.25791083471E+01  0.32173022183E+01  0.45558621959E+01  0.51100000000E-03 0. -1.
        -11    1    3    3    0    0 -0.47946975976E+01  0.11498970464E+02  0.12034585654E+02  0.17321856105E+02  0.51100000000E-03 0.  1.
         12    1    3    3    0    0  0.12313393800E+02  0.19806077186E+02  0.11287398000E+02  0.25909568000E+02  0.00000000000E+00 0. -1.
</event>
<event>
 7    1  0.1384886E-010  0.4778727E+02  0.7816164E-02  0.1312668E+00
        -11   -1    0    0    0    0  0.00000000000E+00  0.00000000000E+00  0.45593999997E+02  0.45594000000E+02  0.51100000000E-03 0. -1.
         11   -1    0    0    0    0 -0.00000000000E+00 -0.00000000000E+00 -0.45593999997E+02  0.45594000000E+02  0.51100000000E-03 0.  1.
    9900012    2    1    2    0    0  0.28177964897E+02 -0.69780987532E+00 -0.33002102244E+02  0.47787269627E+02  0.19999993538E+02 0.  0.
         12    1    1    2    0    0 -0.28177964897E+02  0.69780987532E+00  0.33002102244E+02  0.43400730373E+02  0.00000000000E+00 0. -1.
         11    1    3    3    0    0  0.11287425799E+02 -0.41502768206E+01 -0.49013610154E+01  0.12986690068E+02  0.51100000000E-03 0. -1.
        -11    1    3    3    0    0  0.14043480307E+02 -0.18523829054E+01 -0.16623831699E+02  0.21840385578E+02  0.51100000000E-03 0.  1.
        -12    1    3    3    0    0  0.28470587921E+01  0.53048498507E+01 -0.11476909529E+02  0.12960193982E+02  0.00000000000E+00 0.  1.
</event>
<event>
 7    1  0.1384886E-010  0.4778729E+02  0.7816164E-02  0.1312668E+00
        -11   -1    0    0    0    0  0.00000000000E+00  0.00000000000E+00  0.45593999997E+02  0.45594000000E+02  0.51100000000E-03 0. -1.
         11   -1    0    0    0    0 -0.00000000000E+00 -0.00000000000E+00 -0.45593999997E+02  0.45594000000E+02  0.51100000000E-03 0.  1.
    9900012    2    1    2    0    0  0.27565565671E+02  0.41124334851E+01 -0.33269342980E+02  0.47787289151E+02  0.20000082553E+02 0.  0.
         12    1    1    2    0    0 -0.27565565671E+02 -0.41124334851E+01  0.33269342980E+02  0.43400710849E+02  0.00000000000E+00 0. -1.
         11    1    3    3    0    0  0.13493882745E+02  0.10350486261E+02 -0.20371956050E+02  0.26537408142E+02  0.51100000000E-03 0. -1.
        -11    1    3    3    0    0  0.10956230762E+02 -0.12907357952E+01 -0.80836796694E+01  0.13676654147E+02  0.51100000000E-03 0.  1.
         12    1    3    3    0    0  0.31154521644E+01 -0.49473169807E+01 -0.48137072609E+01  0.75732268611E+01  0.00000000000E+00 0. -1.
</event>
<event>
 7    1  0.1384886E-010  0.4778727E+02  0.7816164E-02  0.1312668E+00
        -11   -1    0    0    0    0  0.00000000000E+00  0.00000000000E+00  0.45593999997E+02  0.45594000000E+02  0.51100000000E-03 0. -1.
         11   -1    0    0    0    0 -0.00000000000E+00 -0.00000000000E+00 -0.45593999997E+02  0.45594000000E+02  0.51100000000E-03 0.  1.
    9900012    2    1    2    0    0  0.58854099448E+01 -0.23918253223E+02  0.35733768337E+02  0.47787273197E+02  0.20000009816E+02 0.  0.
         12    1    1    2    0    0 -0.58854099448E+01  0.23918253223E+02 -0.35733768337E+02  0.43400726803E+02  0.00000000000E+00 0. -1.
         11    1    3    3    0    0  0.29036729763E+01 -0.10348721623E+02  0.38191426236E+01  0.11406717609E+02  0.51100000000E-03 0. -1.
        -11    1    3    3    0    0  0.62463108832E+01 -0.45911995210E+01  0.11892472862E+02  0.14196000272E+02  0.51100000000E-03 0.  1.
         12    1    3    3    0    0 -0.32645739147E+01 -0.89783320789E+01  0.20022152851E+02  0.22184555316E+02  0.00000000000E+00 0. -1.
</event>
<event>
 7    1  0.1384886E-010  0.4778727E+02  0.7816164E-02  0.1312668E+00
        -11   -1    0    0    0    0  0.00000000000E+00  0.00000000000E+00  0.45593999997E+02  0.45594000000E+02  0.51100000000E-03 0.  1.
         11   -1    0    0    0    0 -0.00000000000E+00 -0.00000000000E+00 -0.45593999997E+02  0.45594000000E+02  0.51100000000E-03 0. -1.
    9900012    2    1    2    0    0 -0.41891874346E+01  0.14326211237E+02  0.40753329763E+02  0.47787268364E+02  0.19999987780E+02 0.  0.
         12    1    1    2    0    0  0.41891874346E+01 -0.14326211237E+02 -0.40753329763E+02  0.43400731636E+02  0.00000000000E+00 0. -1.
         11    1    3    3    0    0 -0.47522801742E+01 -0.11879429015E+01  0.30494517556E+01  0.57701413728E+01  0.51100000000E-03 0. -1.
        -11    1    3    3    0    0 -0.46304925775E+01  0.85718517552E+01  0.22421191637E+02  0.24446429979E+02  0.51100000000E-03 0.  1.
         12    1    3    3    0    0  0.51935853171E+01  0.69423023829E+01  0.15282686370E+02  0.17570697013E+02  0.00000000000E+00 0. -1.
</event>
<event>
 7    1  0.1384886E-010  0.4778728E+02  0.7816164E-02  0.1312668E+00
        -11   -1    0    0    0    0  0.00000000000E+00  0.00000000000E+00  0.45593999997E+02  0.45594000000E+02  0.51100000000E-03 0.  1.
         11   -1    0    0    0    0 -0.00000000000E+00 -0.00000000000E+00 -0.45593999997E+02  0.45594000000E+02  0.51100000000E-03 0. -1.
    9900012    2    1    2    0    0  0.32055486104E+02  0.23236067270E+02  0.17780715046E+02  0.47787276054E+02  0.20000022840E+02 0.  0.
         12    1    1    2    0    0 -0.32055486104E+02 -0.23236067270E+02 -0.17780715046E+02  0.43400723946E+02  0.00000000000E+00 0. -1.
         11    1    3    3    0    0  0.17963553383E+02  0.89827507944E+01  0.89593055259E+01  0.21992003495E+02  0.51100000000E-03 0.  1.
        -11    1    3    3    0    0  0.56474589870E+01  0.59876526631E+00 -0.24437027171E+01  0.61825557890E+01  0.51100000000E-03 0. -1.
         12    1    3    3    0    0  0.84444737338E+01  0.13654551209E+02  0.11265112237E+02  0.19612716769E+02  0.00000000000E+00 0. -1.
</event>
<event>
 7    1  0.1384886E-010  0.4778727E+02  0.7816164E-02  0.1312668E+00
        -11   -1    0    0    0    0  0.00000000000E+00  0.00000000000E+00  0.45593999997E+02  0.45594000000E+02  0.51100000000E-03 0.  1.
         11   -1    0    0    0    0 -0.00000000000E+00 -0.00000000000E+00 -0.45593999997E+02  0.45594000000E+02  0.51100000000E-03 0. -1.
    9900012    2    1    2    0    0 -0.18858178787E+02 -0.28307025875E+02  0.26957458830E+02  0.47787271808E+02  0.20000003479E+02 0.  0.
         12    1    1    2    0    0  0.18858178787E+02  0.28307025875E+02 -0.26957458830E+02  0.43400728192E+02  0.00000000000E+00 0. -1.
         11    1    3    3    0    0 -0.42906951460E+01 -0.18882368486E+02  0.90347899840E+01  0.21367763917E+02  0.51100000000E-03 0. -1.
        -11    1    3    3    0    0 -0.11892259430E+02 -0.97427577770E+01  0.10754625123E+02  0.18761906226E+02  0.51100000000E-03 0.  1.
        -12    1    3    3    0    0 -0.26752242107E+01  0.31810038788E+00  0.71680437231E+01  0.76576016644E+01  0.00000000000E+00 0.  1.
</event>
<event>
 7    1  0.1384886E-010  0.4778727E+02  0.7816164E-02  0.1312668E+00
        -11   -1    0    0    0    0  0.00000000000E+00  0.00000000000E+00  0.45593999997E+02  0.45594000000E+02  0.51100000000E-03 0.  1.
         11   -1    0    0    0    0 -0.00000000000E+00 -0.00000000000E+00 -0.45593999997E+02  0.45594000000E+02  0.51100000000E-03 0. -1.
    9900012    2    1    2    0    0  0.42204795733E+02  0.44637526106E+01 -0.90803892083E+01  0.47787270301E+02  0.19999996611E+02 0.  0.
         12    1    1    2    0    0 -0.42204795733E+02 -0.44637526106E+01  0.90803892083E+01  0.43400729699E+02  0.00000000000E+00 0. -1.
         11    1    3    3    0    0  0.18313612236E+02 -0.10273192327E+01 -0.81498338529E+01  0.20071461582E+02  0.51100000000E-03 0. -1.
        -11    1    3    3    0    0  0.19681044078E+02  0.84562913716E+01 -0.38977548031E+01  0.21772571105E+02  0.51100000000E-03 0.  1.
        -12    1    3    3    0    0  0.42101394187E+01 -0.29652195283E+01  0.29671994477E+01  0.59432376141E+01  0.00000000000E+00 0.  1.
</event>
<event>
 7    1  0.1384886E-010  0.4778726E+02  0.7816164E-02  0.1312668E+00
        -11   -1    0    0    0    0  0.00000000000E+00  0.00000000000E+00  0.45593999997E+02  0.45594000000E+02  0.51100000000E-03 0.  1.
         11   -1    0    0    0    0 -0.00000000000E+00 -0.00000000000E+00 -0.45593999997E+02  0.45594000000E+02  0.51100000000E-03 0. -1.
    9900012    2    1    2    0    0  0.32321488521E+02 -0.49873730303E+01  0.28531937715E+02  0.47787262913E+02  0.19999962924E+02 0.  0.
         12    1    1    2    0    0 -0.32321488521E+02  0.49873730303E+01 -0.28531937715E+02  0.43400737087E+02  0.00000000000E+00 0. -1.
         11    1    3    3    0    0  0.20739517163E+02 -0.45416661420E+01  0.17726593588E+02  0.27658387950E+02  0.51100000000E-03 0. -1.
        -11    1    3    3    0    0  0.11223540712E+02  0.20955838063E+00  0.13370029272E+02  0.17457647717E+02  0.51100000000E-03 0.  1.
         12    1    3    3    0    0  0.35843064530E+00 -0.65526526889E+00 -0.25646851450E+01  0.26712272448E+01  0.00000000000E+00 0. -1.
</event>
<event>
 7    1  0.1384886E-010  0.4778726E+02  0.7816164E-02  0.1312668E+00
        -11   -1    0    0    0    0  0.00000000000E+00  0.00000000000E+00  0.45593999997E+02  0.45594000000E+02  0.51100000000E-03 0.  1.
         11   -1    0    0    0    0 -0.00000000000E+00 -0.00000000000E+00 -0.45593999997E+02  0.45594000000E+02  0.51100000000E-03 0. -1.
    9900012    2    1    2    0    0  0.22502672183E+02 -0.25095472460E+02  0.27339914592E+02  0.47787263564E+02  0.19999965892E+02 0.  0.
         12    1    1    2    0    0 -0.22502672183E+02  0.25095472460E+02 -0.27339914592E+02  0.43400736436E+02  0.00000000000E+00 0. -1.
         11    1    3    3    0    0  0.19651690579E+02 -0.17105038818E+02  0.17083326740E+02  0.31154636065E+02  0.51100000000E-03 0.  1.
        -11    1    3    3    0    0  0.13540909216E+01 -0.43644858264E+01 -0.10294942512E+01  0.46842456625E+01  0.51100000000E-03 0. -1.
        -12    1    3    3    0    0  0.14968906824E+01 -0.36259478159E+01  0.11286082103E+02  0.11948381836E+02  0.00000000000E+00 0.  1.
</event>
<event>
 7    1  0.1384886E-010  0.4778728E+02  0.7816164E-02  0.1312668E+00
        -11   -1    0    0    0    0  0.00000000000E+00  0.00000000000E+00  0.45593999997E+02  0.45594000000E+02  0.51100000000E-03 0. -1.
         11   -1    0    0    0    0 -0.00000000000E+00 -0.00000000000E+00 -0.45593999997E+02  0.45594000000E+02  0.51100000000E-03 0.  1.
    9900012    2    1    2    0    0 -0.37929901188E+02 -0.14598892127E+02 -0.15225558182E+02  0.47787277916E+02  0.20000031332E+02 0.  0.
         12    1    1    2    0    0  0.37929901188E+02  0.14598892127E+02  0.15225558182E+02  0.43400722084E+02  0.00000000000E+00 0. -1.
         11    1    3    3    0    0 -0.57909401410E+00  0.11175263321E+01  0.58272780314E+00  0.13870064649E+01  0.51100000000E-03 0. -1.
        -11    1    3    3    0    0 -0.31762334734E+02 -0.10653337262E+02 -0.18648775093E+02  0.38342095865E+02  0.51100000000E-03 0.  1.
         12    1    3    3    0    0 -0.55884724393E+01 -0.50630811966E+01  0.28404891079E+01  0.80581755863E+01  0.00000000000E+00 0. -1.
</event>
<event>
 7    1  0.1384886E-010  0.4778727E+02  0.7816164E-02  0.1312668E+00
        -11   -1    0    0    0    0  0.00000000000E+00  0.00000000000E+00  0.45593999997E+02  0.45594000000E+02  0.51100000000E-03 0.  1.
         11   -1    0    0    0    0 -0.00000000000E+00 -0.00000000000E+00 -0.45593999997E+02  0.45594000000E+02  0.51100000000E-03 0. -1.
    9900012    2    1    2    0    0  0.15562483112E+02 -0.99028147639E+01  0.39285705598E+02  0.47787270914E+02  0.19999999404E+02 0.  0.
         12    1    1    2    0    0 -0.15562483112E+02  0.99028147639E+01 -0.39285705598E+02  0.43400729086E+02  0.00000000000E+00 0. -1.
         11    1    3    3    0    0  0.72272342329E+01 -0.48521413635E+01  0.57158479718E+01  0.10413794158E+02  0.51100000000E-03 0.  1.
        -11    1    3    3    0    0  0.47088784795E+00  0.11797626433E+01 -0.84516513241E+00  0.15257390413E+01  0.51100000000E-03 0. -1.
        -12    1    3    3    0    0  0.78643610311E+01 -0.62304360436E+01  0.34415022759E+02  0.35847737714E+02  0.00000000000E+00 0.  1.
</event>
<event>
 7    1  0.1384886E-010  0.4778727E+02  0.7816164E-02  0.1312668E+00
        -11   -1    0    0    0    0  0.00000000000E+00  0.00000000000E+00  0.45593999997E+02  0.45594000000E+02  0.51100000000E-03 0. -1.
         11   -1    0    0    0    0 -0.00000000000E+00 -0.00000000000E+00 -0.45593999997E+02  0.45594000000E+02  0.51100000000E-03 0.  1.
    9900012    2    1    2    0    0  0.11760667634E+02  0.25728490486E+02 -0.32914353877E+02  0.47787271699E+02  0.20000002985E+02 0.  0.
         12    1    1    2    0    0 -0.11760667634E+02 -0.25728490486E+02  0.32914353877E+02  0.43400728301E+02  0.00000000000E+00 0. -1.
         11    1    3    3    0    0  0.90252943372E+01  0.16292524257E+02 -0.13338725071E+02  0.22909034709E+02  0.51100000000E-03 0.  1.
        -11    1    3    3    0    0  0.17591874581E+01 -0.11400392646E+01  0.50995050198E+00  0.21574243470E+01  0.51100000000E-03 0. -1.
        -12    1    3    3    0    0  0.97618583907E+00  0.10576005494E+02 -0.20085579308E+02  0.22720812643E+02  0.00000000000E+00 0.  1.
</event>
<event>
 7    1  0.1384886E-010  0.4778726E+02  0.7816164E-02  0.1312668E+00
        -11   -1    0    0    0    0  0.00000000000E+00  0.00000000000E+00  0.45593999997E+02  0.45594000000E+02  0.51100000000E-03 0. -1.
         11   -1    0    0    0    0 -0.00000000000E+00 -0.00000000000E+00 -0.45593999997E+02  0.45594000000E+02  0.51100000000E-03 0.  1.
    9900012    2    1    2    0    0  0.21750800969E+02 -0.33339792924E+02 -0.17291175069E+02  0.47787264173E+02  0.19999968672E+02 0.  0.
         12    1    1    2    0    0 -0.21750800969E+02  0.33339792924E+02  0.17291175069E+02  0.43400735827E+02  0.00000000000E+00 0. -1.
         11    1    3    3    0    0 -0.20348520866E+01 -0.92253753753E+00  0.51762431624E+00  0.22933891332E+01  0.51100000000E-03 0. -1.
        -11    1    3    3    0    0  0.75416290417E+01 -0.13147911592E+02 -0.12709054807E+02  0.19780389839E+02  0.51100000000E-03 0.  1.
         12    1    3    3    0    0  0.16244024013E+02 -0.19269343795E+02 -0.50997445784E+01  0.25713485201E+02  0.00000000000E+00 0. -1.
</event>
<event>
 7    1  0.1384886E-010  0.4778731E+02  0.7816164E-02  0.1312668E+00
        -11   -1    0    0    0    0  0.00000000000E+00  0.00000000000E+00  0.45593999997E+02  0.45594000000E+02  0.51100000000E-03 0.  1.
         11   -1    0    0    0    0 -0.00000000000E+00 -0.00000000000E+00 -0.45593999997E+02  0.45594000000E+02  0.51100000000E-03 0. -1.
    9900012    2    1    2    0    0 -0.20698348619E+02 -0.20559034846E+02  0.32132922577E+02  0.47787305735E+02  0.20000158167E+02 0.  0.
         12    1    1    2    0    0  0.20698348619E+02  0.20559034846E+02 -0.32132922577E+02  0.43400694265E+02  0.00000000000E+00 0. -1.
         11    1    3    3    0    0 -0.96100875789E+00 -0.70319887654E+01  0.22678986060E+01  0.74508904286E+01  0.51100000000E-03 0. -1.
        -11    1    3    3    0    0 -0.75434905839E+01 -0.25925811113E+01  0.19201895424E+02  0.20792751505E+02  0.51100000000E-03 0.  1.
         12    1    3    3    0    0 -0.12193849277E+02 -0.10934464970E+02  0.10663128547E+02  0.19543663801E+02  0.00000000000E+00 0. -1.
</event>
<event>
 7    1  0.1384886E-010  0.4778727E+02  0.7816164E-02  0.1312668E+00
        -11   -1    0    0    0    0  0.00000000000E+00  0.00000000000E+00  0.45593999997E+02  0.45594000000E+02  0.51100000000E-03 0. -1.
         11   -1    0    0    0    0 -0.00000000000E+00 -0.00000000000E+00 -0.45593999997E+02  0.45594000000E+02  0.51100000000E-03 0.  1.
    9900012    2    1    2    0    0  0.13956784808E+02 -0.28721004267E+02 -0.29392781861E+02  0.47787267820E+02  0.19999985297E+02 0.  0.
         12    1    1    2    0    0 -0.13956784808E+02  0.28721004267E+02  0.29392781861E+02  0.43400732180E+02  0.00000000000E+00 0. -1.
         11    1    3    3    0    0  0.96007820107E+01 -0.50710515759E+01 -0.97749003009E+01  0.14609560413E+02  0.51100000000E-03 0.  1.
        -11    1    3    3    0    0 -0.27731470190E+01 -0.14614981110E+02 -0.13759342657E+02  0.20263453009E+02  0.51100000000E-03 0. -1.
         12    1    3    3    0    0  0.71291498160E+01 -0.90349715809E+01 -0.58585389027E+01  0.12914254397E+02  0.00000000000E+00 0. -1.
</event>
<event>
 7    1  0.1384886E-010  0.4778728E+02  0.7816164E-02  0.1312668E+00
        -11   -1    0    0    0    0  0.00000000000E+00  0.00000000000E+00  0.45593999997E+02  0.45594000000E+02  0.51100000000E-03 0.  1.
         11   -1    0    0    0    0 -0.00000000000E+00 -0.00000000000E+00 -0.45593999997E+02  0.45594000000E+02  0.51100000000E-03 0. -1.
    9900012    2    1    2    0    0 -0.36019138552E+02 -0.24180684517E+02  0.12403131567E+01  0.47787283157E+02  0.20000055227E+02 0.  0.
         12    1    1    2    0    0  0.36019138552E+02  0.24180684517E+02 -0.12403131567E+01  0.43400716843E+02  0.00000000000E+00 0. -1.
         11    1    3    3    0    0 -0.32575428513E-01 -0.19881179982E+01  0.11135006885E+01  0.22789379934E+01  0.51100000000E-03 0.  1.
        -11    1    3    3    0    0 -0.35538748237E+02 -0.16531096174E+02 -0.24500808004E+01  0.39271906793E+02  0.51100000000E-03 0. -1.
         12    1    3    3    0    0 -0.44781488652E+00 -0.56614703440E+01  0.25768932686E+01  0.62364383703E+01  0.00000000000E+00 0. -1.
</event>
<event>
 7    1  0.1384886E-010  0.4778727E+02  0.7816164E-02  0.1312668E+00
        -11   -1    0    0    0    0  0.00000000000E+00  0.00000000000E+00  0.45593999997E+02  0.45594000000E+02  0.51100000000E-03 0.  1.
         11   -1    0    0    0    0 -0.00000000000E+00 -0.00000000000E+00 -0.45593999997E+02  0.45594000000E+02  0.51100000000E-03 0. -1.
    9900012    2    1    2    0    0 -0.25099918185E+02  0.29024002974E+02  0.20278674045E+02  0.47787271174E+02  0.20000000591E+02 0.  0.
         12    1    1    2    0    0  0.25099918185E+02 -0.29024002974E+02 -0.20278674045E+02  0.43400728826E+02  0.00000000000E+00 0. -1.
         11    1    3    3    0    0 -0.13856185045E+02  0.13428680803E+02  0.12518473191E+02  0.23000771800E+02  0.51100000000E-03 0. -1.
        -11    1    3    3    0    0 -0.54361261969E+01  0.82017830985E+01  0.11077576328E+02  0.14816659934E+02  0.51100000000E-03 0.  1.
         12    1    3    3    0    0 -0.58076069437E+01  0.73935390733E+01 -0.33173754734E+01  0.99698394406E+01  0.00000000000E+00 0. -1.
</event>
<event>
 7    1  0.1384886E-010  0.4778727E+02  0.7816164E-02  0.1312668E+00
        -11   -1    0    0    0    0  0.00000000000E+00  0.00000000000E+00  0.45593999997E+02  0.45594000000E+02  0.51100000000E-03 0.  1.
         11   -1    0    0    0    0 -0.00000000000E+00 -0.00000000000E+00 -0.45593999997E+02  0.45594000000E+02  0.51100000000E-03 0. -1.
    9900012    2    1    2    0    0 -0.13901509706E+02  0.77292686762E+01  0.40381061518E+02  0.47787266185E+02  0.19999977843E+02 0.  0.
         12    1    1    2    0    0  0.13901509706E+02 -0.77292686762E+01 -0.40381061518E+02  0.43400733815E+02  0.00000000000E+00 0. -1.
         11    1    3    3    0    0 -0.69470852625E+01  0.13026381266E+01  0.11202876970E+02  0.13246256543E+02  0.51100000000E-03 0. -1.
        -11    1    3    3    0    0 -0.97211503077E+01  0.12128866562E+01  0.82851597500E+01  0.12830266158E+02  0.51100000000E-03 0.  1.
         12    1    3    3    0    0  0.27667258646E+01  0.52137438934E+01  0.20893024798E+02  0.21710743484E+02  0.00000000000E+00 0. -1.
</event>
<event>
 7    1  0.1384886E-010  0.4778727E+02  0.7816164E-02  0.1312668E+00
        -11   -1    0    0    0    0  0.00000000000E+00  0.00000000000E+00  0.45593999997E+02  0.45594000000E+02  0.51100000000E-03 0.  1.
         11   -1    0    0    0    0 -0.00000000000E+00 -0.00000000000E+00 -0.45593999997E+02  0.45594000000E+02  0.51100000000E-03 0. -1.
    9900012    2    1    2    0    0  0.29675823089E+01  0.40513350756E+02  0.15280219317E+02  0.47787271474E+02  0.20000001959E+02 0.  0.
         12    1    1    2    0    0 -0.29675823089E+01 -0.40513350756E+02 -0.15280219317E+02  0.43400728526E+02  0.00000000000E+00 0. -1.
         11    1    3    3    0    0  0.15740623824E+01  0.44684556919E+01  0.90410419724E+01  0.10207115600E+02  0.51100000000E-03 0. -1.
        -11    1    3    3    0    0 -0.19148671624E+01  0.23613694716E+02  0.69708178724E+01  0.24695457000E+02  0.51100000000E-03 0.  1.
        -12    1    3    3    0    0  0.33083870889E+01  0.12431200348E+02 -0.73164052802E+00  0.12884698874E+02  0.00000000000E+00 0.  1.
</event>
<event>
 7    1  0.1384886E-010  0.4778727E+02  0.7816164E-02  0.1312668E+00
        -11   -1    0    0    0    0  0.00000000000E+00  0.00000000000E+00  0.45593999997E+02  0.45594000000E+02  0.51100000000E-03 0. -1.
         11   -1    0    0    0    0 -0.00000000000E+00 -0.00000000000E+00 -0.45593999997E+02  0.45594000000E+02  0.51100000000E-03 0.  1.
    9900012    2    1    2    0    0 -0.47876217743E+01  0.35557828124E+02 -0.24420134420E+02  0.47787269266E+02  0.19999991892E+02 0.  0.
         12    1    1    2    0    0  0.47876217743E+01 -0.35557828124E+02  0.24420134420E+02  0.43400730734E+02  0.00000000000E+00 0. -1.
         11    1    3    3    0    0  0.30439032030E+01  0.79905388101E+00 -0.76456043851E+00  0.32385778884E+01  0.51100000000E-03 0. -1.
        -11    1    3    3    0    0 -0.56992120537E+00  0.26937031495E+02 -0.18594764236E+02  0.32736733698E+02  0.51100000000E-03 0.  1.
         12    1    3    3    0    0 -0.72616037719E+01  0.78217427476E+01 -0.50608097458E+01  0.11811957680E+02  0.00000000000E+00 0. -1.
</event>
<event>
 7    1  0.1384886E-010  0.4778727E+02  0.7816164E-02  0.1312668E+00
        -11   -1    0    0    0    0  0.00000000000E+00  0.00000000000E+00  0.45593999997E+02  0.45594000000E+02  0.51100000000E-03 0.  1.
         11   -1    0    0    0    0 -0.00000000000E+00 -0.00000000000E+00 -0.45593999997E+02  0.45594000000E+02  0.51100000000E-03 0. -1.
    9900012    2    1    2    0    0  0.26791436418E+02 -0.33022766264E+02 -0.86797930078E+01  0.47787274618E+02  0.20000016292E+02 0.  0.
         12    1    1    2    0    0 -0.26791436418E+02  0.33022766264E+02  0.86797930078E+01  0.43400725382E+02  0.00000000000E+00 0. -1.
         11    1    3    3    0    0  0.20123343387E+02 -0.34200331609E+02 -0.88080365768E+01  0.40647178744E+02  0.51100000000E-03 0. -1.
        -11    1    3    3    0    0  0.37787359940E+01 -0.47629862863E+00  0.13086046875E+00  0.38108832073E+01  0.51100000000E-03 0.  1.
         12    1    3    3    0    0  0.28893570366E+01  0.16538639740E+01 -0.26168998064E-02  0.33292126664E+01  0.00000000000E+00 0. -1.
</event>
<event>
 7    1  0.1384886E-010  0.4778727E+02  0.7816164E-02  0.1312668E+00
        -11   -1    0    0    0    0  0.00000000000E+00  0.00000000000E+00  0.45593999997E+02  0.45594000000E+02  0.51100000000E-03 0. -1.
         11   -1    0    0    0    0 -0.00000000000E+00 -0.00000000000E+00 -0.45593999997E+02  0.45594000000E+02  0.51100000000E-03 0.  1.
    9900012    2    1    2    0    0 -0.14185328806E+01 -0.37477919466E+02 -0.21840714379E+02  0.47787268582E+02  0.19999988771E+02 0.  0.
         12    1    1    2    0    0  0.14185328806E+01  0.37477919466E+02  0.21840714379E+02  0.43400731418E+02  0.00000000000E+00 0. -1.
         11    1    3    3    0    0  0.17116307224E+01 -0.20485752047E+01  0.31075668067E+01  0.40967440509E+01  0.51100000000E-03 0. -1.
        -11    1    3    3    0    0 -0.34616773798E+01 -0.15249143735E+02 -0.97862407069E+01  0.18446953743E+02  0.51100000000E-03 0.  1.
         12    1    3    3    0    0  0.33151377674E+00 -0.20180200526E+02 -0.15162040479E+02  0.25243570788E+02  0.00000000000E+00 0. -1.
</event>
<event>
 7    1  0.1384886E-010  0.4778728E+02  0.7816164E-02  0.1312668E+00
        -11   -1    0    0    0    0  0.00000000000E+00  0.00000000000E+00  0.45593999997E+02  0.45594000000E+02  0.51100000000E-03 0. -1.
         11   -1    0    0    0    0 -0.00000000000E+00 -0.00000000000E+00 -0.45593999997E+02  0.45594000000E+02  0.51100000000E-03 0.  1.
    9900012    2    1    2    0    0  0.42041361860E+02 -0.10569133963E+02  0.21071842907E+01  0.47787275059E+02  0.20000018304E+02 0.  0.
         12    1    1    2    0    0 -0.42041361860E+02  0.10569133963E+02 -0.21071842907E+01  0.43400724941E+02  0.00000000000E+00 0. -1.
         11    1    3    3    0    0  0.28993279021E+01  0.30962177302E+01 -0.94720393361E+00  0.43462468947E+01  0.51100000000E-03 0. -1.
        -11    1    3    3    0    0  0.29239258416E+02 -0.41152661571E+01  0.30399204623E+01  0.29683509983E+02  0.51100000000E-03 0.  1.
         12    1    3    3    0    0  0.99027755421E+01 -0.95500855363E+01  0.14467762068E-01  0.13757518181E+02  0.00000000000E+00 0. -1.
</event>
<event>
 7    1  0.1384886E-010  0.4778727E+02  0.7816164E-02  0.1312668E+00
        -11   -1    0    0    0    0  0.00000000000E+00  0.00000000000E+00  0.45593999997E+02  0.45594000000E+02  0.51100000000E-03 0.  1.
         11   -1    0    0    0    0 -0.00000000000E+00 -0.00000000000E+00 -0.45593999997E+02  0.45594000000E+02  0.51100000000E-03 0. -1.
    9900012    2    1    2    0    0 -0.23183163874E+01 -0.28286826907E+02  0.32834495426E+02  0.47787271236E+02  0.20000000874E+02 0.  0.
         12    1    1    2    0    0  0.23183163874E+01  0.28286826907E+02 -0.32834495426E+02  0.43400728764E+02  0.00000000000E+00 0. -1.
         11    1    3    3    0    0  0.58438010780E+01 -0.13091868647E+02  0.11347501939E+02  0.18284223697E+02  0.51100000000E-03 0. -1.
        -11    1    3    3    0    0 -0.53700323285E+01 -0.39012496682E+01  0.22252203763E+01  0.70006144135E+01  0.51100000000E-03 0.  1.
        -12    1    3    3    0    0 -0.27920851370E+01 -0.11293708592E+02  0.19261773111E+02  0.22502433125E+02  0.00000000000E+00 0.  1.
</event>
<event>
 7    1  0.1384886E-010  0.4778727E+02  0.7816164E-02  0.1312668E+00
        -11   -1    0    0    0    0  0.00000000000E+00  0.00000000000E+00  0.45593999997E+02  0.45594000000E+02  0.51100000000E-03 0. -1.
         11   -1    0    0    0    0 -0.00000000000E+00 -0.00000000000E+00 -0.45593999997E+02  0.45594000000E+02  0.51100000000E-03 0.  1.
    9900012    2    1    2    0    0  0.55396502655E+01 -0.38890735560E+02 -0.18451185044E+02  0.47787271124E+02  0.20000000362E+02 0.  0.
         12    1    1    2    0    0 -0.55396502655E+01  0.38890735560E+02  0.18451185044E+02  0.43400728876E+02  0.00000000000E+00 0. -1.
         11    1    3    3    0    0  0.54006846692E+01 -0.14907657375E+02 -0.40355133937E+01  0.16361265596E+02  0.51100000000E-03 0. -1.
        -11    1    3    3    0    0  0.10231128404E+01 -0.23039612596E+01 -0.86015821956E+01  0.89633818338E+01  0.51100000000E-03 0.  1.
         12    1    3    3    0    0 -0.88414724415E+00 -0.21679116926E+02 -0.58140894545E+01  0.22462623694E+02  0.00000000000E+00 0. -1.
</event>
<event>
 7    1  0.1384886E-010  0.4778727E+02  0.7816164E-02  0.1312668E+00
        -11   -1    0    0    0    0  0.00000000000E+00  0.00000000000E+00  0.45593999997E+02  0.45594000000E+02  0.51100000000E-03 0. -1.
         11   -1    0    0    0    0 -0.00000000000E+00 -0.00000000000E+00 -0.45593999997E+02  0.45594000000E+02  0.51100000000E-03 0.  1.
    9900012    2    1    2    0    0  0.58120307421E+01  0.42115726473E+02 -0.87240593437E+01  0.47787270408E+02  0.19999997096E+02 0.  0.
         12    1    1    2    0    0 -0.58120307421E+01 -0.42115726473E+02  0.87240593437E+01  0.43400729592E+02  0.00000000000E+00 0. -1.
         11    1    3    3    0    0  0.82240190885E+01  0.31354975683E+02 -0.29377958869E+01  0.32548419854E+02  0.51100000000E-03 0. -1.
        -11    1    3    3    0    0 -0.34786428335E+01  0.11981130777E+02 -0.50677239186E+01  0.13465893087E+02  0.51100000000E-03 0.  1.
        -12    1    3    3    0    0  0.10666544870E+01 -0.12203799873E+01 -0.71853953819E+00  0.17729574659E+01  0.00000000000E+00 0.  1.
</event>
<event>
 7    1  0.1384886E-010  0.4778728E+02  0.7816164E-02  0.1312668E+00
        -11   -1    0    0    0    0  0.00000000000E+00  0.00000000000E+00  0.45593999997E+02  0.45594000000E+02  0.51100000000E-03 0.  1.
         11   -1    0    0    0    0 -0.00000000000E+00 -0.00000000000E+00 -0.45593999997E+02  0.45594000000E+02  0.51100000000E-03 0. -1.
    9900012    2    1    2    0    0 -0.30777140526E+02 -0.19149157723E+02  0.23868379773E+02  0.47787283722E+02  0.20000057800E+02 0.  0.
         12    1    1    2    0    0  0.30777140526E+02  0.19149157723E+02 -0.23868379773E+02  0.43400716278E+02  0.00000000000E+00 0. -1.
         11    1    3    3    0    0 -0.50167596623E+00  0.22262541227E+00  0.46054155612E+01  0.46380053473E+01  0.51100000000E-03 0. -1.
        -11    1    3    3    0    0 -0.18153156174E+02 -0.18937157627E+02  0.10853668502E+02  0.28389349029E+02  0.51100000000E-03 0.  1.
        -12    1    3    3    0    0 -0.12122308386E+02 -0.43462550789E+00  0.84092957098E+01  0.14759929345E+02  0.00000000000E+00 0.  1.
</event>
<event>
 7    1  0.1384886E-010  0.4778727E+02  0.7816164E-02  0.1312668E+00
        -11   -1    0    0    0    0  0.00000000000E+00  0.00000000000E+00  0.45593999997E+02  0.45594000000E+02  0.51100000000E-03 0.  1.
         11   -1    0    0    0    0 -0.00000000000E+00 -0.00000000000E+00 -0.45593999997E+02  0.45594000000E+02  0.51100000000E-03 0. -1.
    9900012    2    1    2    0    0  0.24548716970E+02 -0.32375629303E+01  0.35644103801E+02  0.47787268965E+02  0.19999990518E+02 0.  0.
         12    1    1    2    0    0 -0.24548716970E+02  0.32375629303E+01 -0.35644103801E+02  0.43400731035E+02  0.00000000000E+00 0. -1.
         11    1    3    3    0    0  0.85566873308E+01 -0.56309695996E+01  0.52978758414E+01  0.11532224651E+02  0.51100000000E-03 0. -1.
        -11    1    3    3    0    0  0.80109836084E+01 -0.34615318631E+01  0.20561298577E+02  0.22336630467E+02  0.51100000000E-03 0.  1.
         12    1    3    3    0    0  0.79810460312E+01  0.58549385324E+01  0.97849293828E+01  0.13918413846E+02  0.00000000000E+00 0. -1.
</event>
<event>
 7    1  0.1384886E-010  0.4778727E+02  0.7816164E-02  0.1312668E+00
        -11   -1    0    0    0    0  0.00000000000E+00  0.00000000000E+00  0.45593999997E+02  0.45594000000E+02  0.51100000000E-03 0. -1.
         11   -1    0    0    0    0 -0.00000000000E+00 -0.00000000000E+00 -0.45593999997E+02  0.45594000000E+02  0.51100000000E-03 0.  1.
    9900012    2    1    2    0    0 -0.38222469599E+02 -0.66946820821E+01 -0.19438299739E+02  0.47787269048E+02  0.19999990896E+02 0.  0.
         12    1    1    2    0    0  0.38222469599E+02  0.66946820821E+01  0.19438299739E+02  0.43400730952E+02  0.00000000000E+00 0. -1.
         11    1    3    3    0    0 -0.54368514387E+00  0.23266889499E+01 -0.12609038925E+01  0.27016576194E+01  0.51100000000E-03 0. -1.
        -11    1    3    3    0    0 -0.24802625016E+02 -0.15369515566E+01 -0.53271017865E+01  0.25414768177E+02  0.51100000000E-03 0.  1.
         12    1    3    3    0    0 -0.12876159439E+02 -0.74844194753E+01 -0.12850294060E+02  0.19670843251E+02  0.00000000000E+00 0. -1.
</event>
<event>
 7    1  0.1384886E-010  0.4778727E+02  0.7816164E-02  0.1312668E+00
        -11   -1    0    0    0    0  0.00000000000E+00  0.00000000000E+00  0.45593999997E+02  0.45594000000E+02  0.51100000000E-03 0.  1.
         11   -1    0    0    0    0 -0.00000000000E+00 -0.00000000000E+00 -0.45593999997E+02  0.45594000000E+02  0.51100000000E-03 0. -1.
    9900012    2    1    2    0    0 -0.30609094716E+02  0.98561402720E+01  0.29147265218E+02  0.47787271318E+02  0.20000001249E+02 0.  0.
         12    1    1    2    0    0  0.30609094716E+02 -0.98561402720E+01 -0.29147265218E+02  0.43400728682E+02  0.00000000000E+00 0. -1.
         11    1    3    3    0    0 -0.13185620222E+02  0.98061153958E+01  0.10536688112E+02  0.19520304210E+02  0.51100000000E-03 0. -1.
        -11    1    3    3    0    0  0.13692526351E+01 -0.22588244824E+00  0.46552508502E+01  0.48576986731E+01  0.51100000000E-03 0.  1.
        -12    1    3    3    0    0 -0.18792727129E+02  0.27590732443E+00  0.13955326255E+02  0.23409268436E+02  0.00000000000E+00 0.  1.
</event>
<event>
 7    1  0.1384886E-010  0.4778726E+02  0.7816164E-02  0.1312668E+00
        -11   -1    0    0    0    0  0.00000000000E+00  0.00000000000E+00  0.45593999997E+02  0.45594000000E+02  0.51100000000E-03 0.  1.
         11   -1    0    0    0    0 -0.00000000000E+00 -0.00000000000E+00 -0.45593999997E+02  0.45594000000E+02  0.51100000000E-03 0. -1.
    9900012    2    1    2    0    0  0.98965274784E+01 -0.42174681342E+02  0.26417657646E+01  0.47787263499E+02  0.19999965598E+02 0.  0.
         12    1    1    2    0    0 -0.98965274784E+01  0.42174681342E+02 -0.26417657646E+01  0.43400736501E+02  0.00000000000E+00 0. -1.
         11    1    3    3    0    0 -0.30368194617E+01 -0.25535532422E+01  0.42783161054E+00  0.39907326084E+01  0.51100000000E-03 0. -1.
        -11    1    3    3    0    0 -0.27678973022E+01 -0.58057447813E+01 -0.20766711320E+00  0.64351420988E+01  0.51100000000E-03 0.  1.
        -12    1    3    3    0    0  0.15701244242E+02 -0.33815383319E+02  0.24216012673E+01  0.37361388792E+02  0.00000000000E+00 0.  1.
</event>
<event>
 7    1  0.1384886E-010  0.4778727E+02  0.7816164E-02  0.1312668E+00
        -11   -1    0    0    0    0  0.00000000000E+00  0.00000000000E+00  0.45593999997E+02  0.45594000000E+02  0.51100000000E-03 0. -1.
         11   -1    0    0    0    0 -0.00000000000E+00 -0.00000000000E+00 -0.45593999997E+02  0.45594000000E+02  0.51100000000E-03 0.  1.
    9900012    2    1    2    0    0  0.38007123911E+02 -0.13128122253E+02 -0.16332002388E+02  0.47787270007E+02  0.19999995270E+02 0.  0.
         12    1    1    2    0    0 -0.38007123911E+02  0.13128122253E+02  0.16332002388E+02  0.43400729993E+02  0.00000000000E+00 0. -1.
         11    1    3    3    0    0  0.20410522311E+02 -0.12092830730E+02 -0.11438465874E+02  0.26337510852E+02  0.51100000000E-03 0. -1.
        -11    1    3    3    0    0 -0.15049035926E+01 -0.89406443055E+00 -0.74522774987E+00  0.19024853979E+01  0.51100000000E-03 0.  1.
        -12    1    3    3    0    0  0.19101505193E+02 -0.14122709285E+00 -0.41483087641E+01  0.19547273757E+02  0.00000000000E+00 0.  1.
</event>
<event>
 7    1  0.1384886E-010  0.4778727E+02  0.7816164E-02  0.1312668E+00
        -11   -1    0    0    0    0  0.00000000000E+00  0.00000000000E+00  0.45593999997E+02  0.45594000000E+02  0.51100000000E-03 0. -1.
         11   -1    0    0    0    0 -0.00000000000E+00 -0.00000000000E+00 -0.45593999997E+02  0.45594000000E+02  0.51100000000E-03 0.  1.
    9900012    2    1    2    0    0  0.65099366459E+01 -0.25037849144E+02 -0.34847525579E+02  0.47787271851E+02  0.20000003677E+02 0.  0.
         12    1    1    2    0    0 -0.65099366459E+01  0.25037849144E+02  0.34847525579E+02  0.43400728149E+02  0.00000000000E+00 0. -1.
         11    1    3    3    0    0  0.13665344857E+01 -0.75977774930E+01 -0.20440964948E+02  0.21850095825E+02  0.51100000000E-03 0.  1.
        -11    1    3    3    0    0 -0.34364504875E+00 -0.61994217653E+01 -0.11540343420E+02  0.13104596471E+02  0.51100000000E-03 0. -1.
         12    1    3    3    0    0  0.54870472089E+01 -0.11240649886E+02 -0.28662172110E+01  0.12832579555E+02  0.00000000000E+00 0. -1.
</event>
<event>
 7    1  0.1384886E-010  0.4778727E+02  0.7816164E-02  0.1312668E+00
        -11   -1    0    0    0    0  0.00000000000E+00  0.00000000000E+00  0.45593999997E+02  0.45594000000E+02  0.51100000000E-03 0.  1.
         11   -1    0    0    0    0 -0.00000000000E+00 -0.00000000000E+00 -0.45593999997E+02  0.45594000000E+02  0.51100000000E-03 0. -1.
    9900012    2    1    2    0    0 -0.18554839328E+02 -0.28599143303E+02  0.26859451283E+02  0.47787272087E+02  0.20000004752E+02 0.  0.
         12    1    1    2    0    0  0.18554839328E+02  0.28599143303E+02 -0.26859451283E+02  0.43400727913E+02  0.00000000000E+00 0. -1.
         11    1    3    3    0    0 -0.24093421721E+01 -0.10054975917E+02  0.12971069854E+01  0.10420650517E+02  0.51100000000E-03 0. -1.
        -11    1    3    3    0    0 -0.26298995167E+01 -0.11857816670E+02  0.10537489527E+02  0.16079890343E+02  0.51100000000E-03 0.  1.
         12    1    3    3    0    0 -0.13515597640E+02 -0.66863507153E+01  0.15024854770E+02  0.21286731227E+02  0.00000000000E+00 0. -1.
</event>
<event>
 7    1  0.1384886E-010  0.4778733E+02  0.7816164E-02  0.1312668E+00
        -11   -1    0    0    0    0  0.00000000000E+00  0.00000000000E+00  0.45593999997E+02  0.45594000000E+02  0.51100000000E-03 0.  1.
         11   -1    0    0    0    0 -0.00000000000E+00 -0.00000000000E+00 -0.45593999997E+02  0.45594000000E+02  0.51100000000E-03 0. -1.
    9900012    2    1    2    0    0 -0.20716822279E+02 -0.56032814474E+01  0.37723135423E+02  0.47787326797E+02  0.20000254197E+02 0.  0.
         12    1    1    2    0    0  0.20716822279E+02  0.56032814474E+01 -0.37723135423E+02  0.43400673203E+02  0.00000000000E+00 0. -1.
         11    1    3    3    0    0 -0.19142830808E+02 -0.89626930415E+01  0.30138186273E+02  0.36811521430E+02  0.51100000000E-03 0.  1.
        -11    1    3    3    0    0  0.11600198514E+00 -0.21352510092E+01  0.15500881656E+01  0.26411222833E+01  0.51100000000E-03 0. -1.
         12    1    3    3    0    0 -0.16899934562E+01  0.54946626033E+01  0.60348609849E+01  0.83346830841E+01  0.00000000000E+00 0. -1.
</event>
<event>
 7    1  0.1384886E-010  0.4778727E+02  0.7816164E-02  0.1312668E+00
        -11   -1    0    0    0    0  0.00000000000E+00  0.00000000000E+00  0.45593999997E+02  0.45594000000E+02  0.51100000000E-03 0. -1.
         11   -1    0    0    0    0 -0.00000000000E+00 -0.00000000000E+00 -0.45593999997E+02  0.45594000000E+02  0.51100000000E-03 0.  1.
    9900012    2    1    2    0    0  0.28907490489E+01  0.37144460674E+02  0.22261087892E+02  0.47787269326E+02  0.19999992167E+02 0.  0.
         12    1    1    2    0    0 -0.28907490489E+01 -0.37144460674E+02 -0.22261087892E+02  0.43400730674E+02  0.00000000000E+00 0. -1.
         11    1    3    3    0    0  0.80824769316E+00  0.28793924186E+02  0.14589281164E+02  0.32289169384E+02  0.51100000000E-03 0.  1.
        -11    1    3    3    0    0  0.21518074716E+01  0.11453139838E+01  0.79216458351E+01  0.82882140727E+01  0.51100000000E-03 0. -1.
         12    1    3    3    0    0 -0.69306115861E-01  0.72052225043E+01 -0.24983910691E+00  0.72098858697E+01  0.00000000000E+00 0. -1.
</event>
<event>
 7    1  0.1384886E-010  0.4778732E+02  0.7816164E-02  0.1312668E+00
        -11   -1    0    0    0    0  0.00000000000E+00  0.00000000000E+00  0.45593999997E+02  0.45594000000E+02  0.51100000000E-03 0.  1.
         11   -1    0    0    0    0 -0.00000000000E+00 -0.00000000000E+00 -0.45593999997E+02  0.45594000000E+02  0.51100000000E-03 0. -1.
    9900012    2    1    2    0    0 -0.25271483588E+02  0.29574885297E+02 -0.19243109418E+02  0.47787320476E+02  0.20000225376E+02 0.  0.
         12    1    1    2    0    0  0.25271483588E+02 -0.29574885297E+02  0.19243109418E+02  0.43400679524E+02  0.00000000000E+00 0. -1.
         11    1    3    3    0    0 -0.14128501556E+01  0.41710387647E+01  0.22176183941E+01  0.49306735384E+01  0.51100000000E-03 0. -1.
        -11    1    3    3    0    0 -0.37513188808E+01  0.14788177374E+01  0.12526287362E+01  0.42223659550E+01  0.51100000000E-03 0.  1.
        -12    1    3    3    0    0 -0.20107314551E+02  0.23925028795E+02 -0.22713356549E+02  0.38634280982E+02  0.00000000000E+00 0.  1.
</event>
<event>
 7    1  0.1384886E-010  0.4778727E+02  0.7816164E-02  0.1312668E+00
        -11   -1    0    0    0    0  0.00000000000E+00  0.00000000000E+00  0.45593999997E+02  0.45594000000E+02  0.51100000000E-03 0.  1.
         11   -1    0    0    0    0 -0.00000000000E+00 -0.00000000000E+00 -0.45593999997E+02  0.45594000000E+02  0.51100000000E-03 0. -1.
    9900012    2    1    2    0    0 -0.19279692716E+02 -0.51272156847E+01  0.38543849784E+02  0.47787271342E+02  0.20000001357E+02 0.  0.
         12    1    1    2    0    0  0.19279692716E+02  0.51272156847E+01 -0.38543849784E+02  0.43400728658E+02  0.00000000000E+00 0. -1.
         11    1    3    3    0    0 -0.42992949250E+01 -0.91081786042E+01  0.21663328953E+02  0.23890221345E+02  0.51100000000E-03 0. -1.
        -11    1    3    3    0    0 -0.11939927430E+02  0.38134325607E+00  0.13871082223E+02  0.18306124987E+02  0.51100000000E-03 0.  1.
        -12    1    3    3    0    0 -0.30404703611E+01  0.35996196635E+01  0.30094386070E+01  0.55909250100E+01  0.00000000000E+00 0.  1.
</event>
<event>
 7    1  0.1384886E-010  0.4778727E+02  0.7816164E-02  0.1312668E+00
        -11   -1    0    0    0    0  0.00000000000E+00  0.00000000000E+00  0.45593999997E+02  0.45594000000E+02  0.51100000000E-03 0.  1.
         11   -1    0    0    0    0 -0.00000000000E+00 -0.00000000000E+00 -0.45593999997E+02  0.45594000000E+02  0.51100000000E-03 0. -1.
    9900012    2    1    2    0    0  0.15389390758E+01 -0.29193621865E+02  0.32077831324E+02  0.47787272431E+02  0.20000006322E+02 0.  0.
         12    1    1    2    0    0 -0.15389390758E+01  0.29193621865E+02 -0.32077831324E+02  0.43400727569E+02  0.00000000000E+00 0. -1.
         11    1    3    3    0    0 -0.36976840378E+01 -0.43861242807E+01  0.11227195823E+02  0.12607968899E+02  0.51100000000E-03 0. -1.
        -11    1    3    3    0    0 -0.15612066994E+01 -0.80684578345E+01  0.90514488584E+00  0.82678090030E+01  0.51100000000E-03 0.  1.
        -12    1    3    3    0    0  0.67978298130E+01 -0.16739039749E+02  0.19945490615E+02  0.26911494529E+02  0.00000000000E+00 0.  1.
</event>
<event>
 7    1  0.1384886E-010  0.4778727E+02  0.7816164E-02  0.1312668E+00
        -11   -1    0    0    0    0  0.00000000000E+00  0.00000000000E+00  0.45593999997E+02  0.45594000000E+02  0.51100000000E-03 0.  1.
         11   -1    0    0    0    0 -0.00000000000E+00 -0.00000000000E+00 -0.45593999997E+02  0.45594000000E+02  0.51100000000E-03 0. -1.
    9900012    2    1    2    0    0 -0.40534333092E+02 -0.15305736684E+02 -0.25150993463E+01  0.47787268907E+02  0.19999990257E+02 0.  0.
         12    1    1    2    0    0  0.40534333092E+02  0.15305736684E+02  0.25150993463E+01  0.43400731093E+02  0.00000000000E+00 0. -1.
         11    1    3    3    0    0 -0.51669837170E+01  0.51961601277E+00 -0.29114185841E+01  0.59534930894E+01  0.51100000000E-03 0. -1.
        -11    1    3    3    0    0 -0.27354352577E+02 -0.79044119948E+01  0.62282784626E+01  0.29146728577E+02  0.51100000000E-03 0.  1.
        -12    1    3    3    0    0 -0.80129967980E+01 -0.79209407023E+01 -0.58319592248E+01  0.12687047241E+02  0.00000000000E+00 0.  1.
</event>
<event>
 7    1  0.1384886E-010  0.4778726E+02  0.7816164E-02  0.1312668E+00
        -11   -1    0    0    0    0  0.00000000000E+00  0.00000000000E+00  0.45593999997E+02  0.45594000000E+02  0.51100000000E-03 0.  1.
         11   -1    0    0    0    0 -0.00000000000E+00 -0.00000000000E+00 -0.45593999997E+02  0.45594000000E+02  0.51100000000E-03 0. -1.
    9900012    2    1    2    0    0 -0.15043612847E+02 -0.27795437506E+02  0.29744370574E+02  0.47787260208E+02  0.19999950592E+02 0.  0.
         12    1    1    2    0    0  0.15043612847E+02  0.27795437506E+02 -0.29744370574E+02  0.43400739792E+02  0.00000000000E+00 0. -1.
         11    1    3    3    0    0 -0.28236874432E-01  0.19704858712E+01 -0.86371769533E+00  0.21516552717E+01  0.51100000000E-03 0.  1.
        -11    1    3    3    0    0 -0.12287109913E+01 -0.22040713811E+01  0.54191001286E+00  0.25809548769E+01  0.51100000000E-03 0. -1.
        -12    1    3    3    0    0 -0.13786664981E+02 -0.27561851996E+02  0.30066178257E+02  0.43054650059E+02  0.00000000000E+00 0.  1.
</event>
<event>
 7    1  0.1384886E-010  0.4778727E+02  0.7816164E-02  0.1312668E+00
        -11   -1    0    0    0    0  0.00000000000E+00  0.00000000000E+00  0.45593999997E+02  0.45594000000E+02  0.51100000000E-03 0. -1.
         11   -1    0    0    0    0 -0.00000000000E+00 -0.00000000000E+00 -0.45593999997E+02  0.45594000000E+02  0.51100000000E-03 0.  1.
    9900012    2    1    2    0    0  0.53736544661E+01 -0.20754391854E+02 -0.37735955579E+02  0.47787270893E+02  0.19999999309E+02 0.  0.
         12    1    1    2    0    0 -0.53736544661E+01  0.20754391854E+02  0.37735955579E+02  0.43400729107E+02  0.00000000000E+00 0. -1.
         11    1    3    3    0    0  0.44949107599E+00 -0.16135789611E+02 -0.19828501086E+02  0.25568246013E+02  0.51100000000E-03 0. -1.
        -11    1    3    3    0    0 -0.11173445745E+01 -0.66730510448E+01 -0.88790077310E+01  0.11163102064E+02  0.51100000000E-03 0.  1.
         12    1    3    3    0    0  0.60415079646E+01  0.20544488021E+01 -0.90284467620E+01  0.11055922815E+02  0.00000000000E+00 0. -1.
</event>
<event>
 7    1  0.1384886E-010  0.4778727E+02  0.7816164E-02  0.1312668E+00
        -11   -1    0    0    0    0  0.00000000000E+00  0.00000000000E+00  0.45593999997E+02  0.45594000000E+02  0.51100000000E-03 0. -1.
         11   -1    0    0    0    0 -0.00000000000E+00 -0.00000000000E+00 -0.45593999997E+02  0.45594000000E+02  0.51100000000E-03 0.  1.
    9900012    2    1    2    0    0  0.89480866511E+01 -0.24324204623E+02 -0.34812183547E+02  0.47787270645E+02  0.19999998180E+02 0.  0.
         12    1    1    2    0    0 -0.89480866511E+01  0.24324204623E+02  0.34812183547E+02  0.43400729355E+02  0.00000000000E+00 0. -1.
         11    1    3    3    0    0 -0.32785596008E+01 -0.48241955800E+01 -0.83914274049E+01  0.10219484831E+02  0.51100000000E-03 0. -1.
        -11    1    3    3    0    0  0.20663382632E+01  0.16523935778E+01 -0.56120674268E+01  0.62044709217E+01  0.51100000000E-03 0.  1.
         12    1    3    3    0    0  0.10160307989E+02 -0.21152402620E+02 -0.20808688715E+02  0.31363314893E+02  0.00000000000E+00 0. -1.
</event>
<event>
 7    1  0.1384886E-010  0.4778727E+02  0.7816164E-02  0.1312668E+00
        -11   -1    0    0    0    0  0.00000000000E+00  0.00000000000E+00  0.45593999997E+02  0.45594000000E+02  0.51100000000E-03 0. -1.
         11   -1    0    0    0    0 -0.00000000000E+00 -0.00000000000E+00 -0.45593999997E+02  0.45594000000E+02  0.51100000000E-03 0.  1.
    9900012    2    1    2    0    0 -0.20407073754E+01 -0.36052370621E+02 -0.24076656403E+02  0.47787270771E+02  0.19999998755E+02 0.  0.
         12    1    1    2    0    0  0.20407073754E+01  0.36052370621E+02  0.24076656403E+02  0.43400729229E+02  0.00000000000E+00 0. -1.
         11    1    3    3    0    0 -0.15821522306E+01 -0.19501397628E+02 -0.10579958697E+02  0.22242824493E+02  0.51100000000E-03 0.  1.
        -11    1    3    3    0    0 -0.19928854217E+01 -0.12085037299E+02 -0.11221909616E+01  0.12299554123E+02  0.51100000000E-03 0. -1.
         12    1    3    3    0    0  0.15343302769E+01 -0.44659356943E+01 -0.12374506745E+02  0.13244892155E+02  0.00000000000E+00 0. -1.
</event>
<event>
 7    1  0.1384886E-010  0.4778727E+02  0.7816164E-02  0.1312668E+00
        -11   -1    0    0    0    0  0.00000000000E+00  0.00000000000E+00  0.45593999997E+02  0.45594000000E+02  0.51100000000E-03 0.  1.
         11   -1    0    0    0    0 -0.00000000000E+00 -0.00000000000E+00 -0.45593999997E+02  0.45594000000E+02  0.51100000000E-03 0. -1.
    9900012    2    1    2    0    0 -0.74575839312E+01  0.38940479678E+02  0.17653516948E+02  0.47787272168E+02  0.20000005125E+02 0.  0.
         12    1    1    2    0    0  0.74575839312E+01 -0.38940479678E+02 -0.17653516948E+02  0.43400727832E+02  0.00000000000E+00 0. -1.
         11    1    3    3    0    0 -0.55882817268E+01  0.84505535092E+01  0.13278855907E+02  0.16702357969E+02  0.51100000000E-03 0. -1.
        -11    1    3    3    0    0  0.10797773730E+01  0.95771636819E+01  0.87822986358E+00  0.96777720225E+01  0.51100000000E-03 0.  1.
         12    1    3    3    0    0 -0.29490795774E+01  0.20912762487E+02  0.34964311773E+01  0.21407142177E+02  0.00000000000E+00 0. -1.
</event>
<event>
 7    1  0.1384886E-010  0.4778726E+02  0.7816164E-02  0.1312668E+00
        -11   -1    0    0    0    0  0.00000000000E+00  0.00000000000E+00  0.45593999997E+02  0.45594000000E+02  0.51100000000E-03 0.  1.
         11   -1    0    0    0    0 -0.00000000000E+00 -0.00000000000E+00 -0.45593999997E+02  0.45594000000E+02  0.51100000000E-03 0. -1.
    9900012    2    1    2    0    0  0.82025775621E+01  0.10796035803E+02  0.41228474821E+02  0.47787264940E+02  0.19999972166E+02 0.  0.
         12    1    1    2    0    0 -0.82025775621E+01 -0.10796035803E+02 -0.41228474821E+02  0.43400735060E+02  0.00000000000E+00 0. -1.
         11    1    3    3    0    0  0.59980901491E+01  0.12951060179E+01  0.35299551367E+01  0.70791926491E+01  0.51100000000E-03 0. -1.
        -11    1    3    3    0    0 -0.30936989542E+01 -0.10152532281E+01  0.12110651694E+02  0.12540717565E+02  0.51100000000E-03 0.  1.
         12    1    3    3    0    0  0.52981863672E+01  0.10516183013E+02  0.25587867990E+02  0.28167354725E+02  0.00000000000E+00 0. -1.
</event>
<event>
 7    1 -0.1384886E-010  0.4778728E+02  0.7816164E-02  0.1312668E+00
        -11   -1    0    0    0    0  0.00000000000E+00  0.00000000000E+00  0.45593999997E+02  0.45594000000E+02  0.51100000000E-03 0.  1.
         11   -1    0    0    0    0 -0.00000000000E+00 -0.00000000000E+00 -0.45593999997E+02  0.45594000000E+02  0.51100000000E-03 0. -1.
    9900012    2    1    2    0    0  0.70587652608E+01 -0.65795502747E+01  0.42314372663E+02  0.47787276703E+02  0.20000025798E+02 0.  0.
         12    1    1    2    0    0 -0.70587652608E+01  0.65795502747E+01 -0.42314372663E+02  0.43400723297E+02  0.00000000000E+00 0. -1.
         11    1    3    3    0    0  0.11271858896E+02 -0.11345930860E+01  0.18184020092E+02  0.21424301422E+02  0.51100000000E-03 0. -1.
        -11    1    3    3    0    0  0.91548674403E+00 -0.27999000622E+01  0.16685858315E+02  0.16943890471E+02  0.51100000000E-03 0.  1.
         12    1    3    3    0    0 -0.51285803797E+01 -0.26450571265E+01  0.74444942568E+01  0.94190848097E+01  0.00000000000E+00 0. -1.
</event>
<event>
 7    1  0.1384886E-010  0.4778727E+02  0.7816164E-02  0.1312668E+00
        -11   -1    0    0    0    0  0.00000000000E+00  0.00000000000E+00  0.45593999997E+02  0.45594000000E+02  0.51100000000E-03 0. -1.
         11   -1    0    0    0    0 -0.00000000000E+00 -0.00000000000E+00 -0.45593999997E+02  0.45594000000E+02  0.51100000000E-03 0.  1.
    9900012    2    1    2    0    0  0.25136804262E+02  0.15434401858E+02 -0.31836203037E+02  0.47787268289E+02  0.19999987435E+02 0.  0.
         12    1    1    2    0    0 -0.25136804262E+02 -0.15434401858E+02  0.31836203037E+02  0.43400731711E+02  0.00000000000E+00 0. -1.
         11    1    3    3    0    0  0.36109756184E+01  0.11083172207E+02 -0.46569553641E+01  0.12552413497E+02  0.51100000000E-03 0. -1.
        -11    1    3    3    0    0  0.31497158082E+01  0.21585714056E+01 -0.59696516884E+01  0.70863870715E+01  0.51100000000E-03 0.  1.
        -12    1    3    3    0    0  0.18376112836E+02  0.21926582460E+01 -0.21209595985E+02  0.28148467720E+02  0.00000000000E+00 0.  1.
</event>
<event>
 7    1  0.1384886E-010  0.4778727E+02  0.7816164E-02  0.1312668E+00
        -11   -1    0    0    0    0  0.00000000000E+00  0.00000000000E+00  0.45593999997E+02  0.45594000000E+02  0.51100000000E-03 0. -1.
         11   -1    0    0    0    0 -0.00000000000E+00 -0.00000000000E+00 -0.45593999997E+02  0.45594000000E+02  0.51100000000E-03 0.  1.
    9900012    2    1    2    0    0  0.22140475949E+01  0.36131975828E+02 -0.23941623656E+02  0.47787273885E+02  0.20000012953E+02 0.  0.
         12    1    1    2    0    0 -0.22140475949E+01 -0.36131975828E+02  0.23941623656E+02  0.43400726115E+02  0.00000000000E+00 0. -1.
         11    1    3    3    0    0 -0.40890131686E+01  0.70949907986E+01  0.48491761876E+00  0.82032961962E+01  0.51100000000E-03 0. -1.
        -11    1    3    3    0    0  0.16725825909E+01  0.20146346384E+02 -0.11608103346E+02  0.23311389248E+02  0.51100000000E-03 0.  1.
         12    1    3    3    0    0  0.46304781726E+01  0.88906386461E+01 -0.12818437928E+02  0.16272588441E+02  0.00000000000E+00 0. -1.
</event>
<event>
 7    1  0.1384886E-010  0.4778727E+02  0.7816164E-02  0.1312668E+00
        -11   -1    0    0    0    0  0.00000000000E+00  0.00000000000E+00  0.45593999997E+02  0.45594000000E+02  0.51100000000E-03 0.  1.
         11   -1    0    0    0    0 -0.00000000000E+00 -0.00000000000E+00 -0.45593999997E+02  0.45594000000E+02  0.51100000000E-03 0. -1.
    9900012    2    1    2    0    0  0.16082931806E+02 -0.38288029599E+02  0.12609086400E+02  0.47787274592E+02  0.20000016177E+02 0.  0.
         12    1    1    2    0    0 -0.16082931806E+02  0.38288029599E+02 -0.12609086400E+02  0.43400725408E+02  0.00000000000E+00 0. -1.
         11    1    3    3    0    0  0.96202022809E+01 -0.85123577136E+01  0.32265173065E+01  0.13244581532E+02  0.51100000000E-03 0. -1.
        -11    1    3    3    0    0  0.45315005632E+01 -0.30559139018E+02  0.76347640263E+01  0.31822713537E+02  0.51100000000E-03 0.  1.
        -12    1    3    3    0    0  0.19312289624E+01  0.78346713269E+00  0.17478050669E+01  0.27199795229E+01  0.00000000000E+00 0.  1.
</event>
<event>
 7    1  0.2550983E-010  0.4778727E+02  0.7816164E-02  0.1312668E+00
        -11   -1    0    0    0    0  0.00000000000E+00  0.00000000000E+00  0.45593999997E+02  0.45594000000E+02  0.51100000000E-03 0. -1.
         11   -1    0    0    0    0 -0.00000000000E+00 -0.00000000000E+00 -0.45593999997E+02  0.45594000000E+02  0.51100000000E-03 0.  1.
    9900012    2    1    2    0    0 -0.10238241008E+02  0.90036207177E+01 -0.41203594956E+02  0.47787274174E+02  0.20000014267E+02 0.  0.
         12    1    1    2    0    0  0.10238241008E+02 -0.90036207177E+01  0.41203594956E+02  0.43400725826E+02  0.00000000000E+00 0. -1.
         11    1    3    3    0    0 -0.84386844721E-02  0.21198660817E+01  0.30191744950E+00  0.21412748126E+01  0.51100000000E-03 0. -1.
        -11    1    3    3    0    0 -0.12615333899E+02  0.89677233920E+01 -0.30629733170E+02  0.34318322607E+02  0.51100000000E-03 0.  1.
        -12    1    3    3    0    0  0.23855315754E+01 -0.20839687560E+01 -0.10875779236E+02  0.11327676755E+02  0.00000000000E+00 0.  1.
</event>
<event>
 7    1  0.1384886E-010  0.4778727E+02  0.7816164E-02  0.1312668E+00
        -11   -1    0    0    0    0  0.00000000000E+00  0.00000000000E+00  0.45593999997E+02  0.45594000000E+02  0.51100000000E-03 0. -1.
         11   -1    0    0    0    0 -0.00000000000E+00 -0.00000000000E+00 -0.45593999997E+02  0.45594000000E+02  0.51100000000E-03 0.  1.
    9900012    2    1    2    0    0  0.21591199997E+01  0.37227382090E+02 -0.22205481701E+02  0.47787271964E+02  0.20000004193E+02 0.  0.
         12    1    1    2    0    0 -0.21591199997E+01 -0.37227382090E+02  0.22205481701E+02  0.43400728036E+02  0.00000000000E+00 0. -1.
         11    1    3    3    0    0 -0.41567091370E+00  0.38374890190E+01 -0.58811466216E+01  0.70346990074E+01  0.51100000000E-03 0. -1.
        -11    1    3    3    0    0  0.21743990130E+01  0.18811628440E+02 -0.17932691351E+02  0.26080391005E+02  0.51100000000E-03 0.  1.
        -12    1    3    3    0    0  0.40039190042E+00  0.14578264631E+02  0.16083562708E+01  0.14672181952E+02  0.00000000000E+00 0.  1.
</event>
<event>
 7    1  0.1384886E-010  0.4778727E+02  0.7816164E-02  0.1312668E+00
        -11   -1    0    0    0    0  0.00000000000E+00  0.00000000000E+00  0.45593999997E+02  0.45594000000E+02  0.51100000000E-03 0.  1.
         11   -1    0    0    0    0 -0.00000000000E+00 -0.00000000000E+00 -0.45593999997E+02  0.45594000000E+02  0.51100000000E-03 0. -1.
    9900012    2    1    2    0    0 -0.17151638993E+02 -0.19148228157E+01  0.39821826969E+02  0.47787272244E+02  0.20000005471E+02 0.  0.
         12    1    1    2    0    0  0.17151638993E+02  0.19148228157E+01 -0.39821826969E+02  0.43400727756E+02  0.00000000000E+00 0. -1.
         11    1    3    3    0    0 -0.11785723219E+02 -0.36069879312E+01  0.17129593096E+02  0.21102999635E+02  0.51100000000E-03 0. -1.
        -11    1    3    3    0    0 -0.56852339841E+01 -0.45335580222E+01  0.15788368412E+02  0.17382393712E+02  0.51100000000E-03 0.  1.
         12    1    3    3    0    0  0.31931820926E+00  0.62257231377E+01  0.69038654611E+01  0.93018788968E+01  0.00000000000E+00 0. -1.
</event>
<event>
 7    1  0.1384886E-010  0.4778727E+02  0.7816164E-02  0.1312668E+00
        -11   -1    0    0    0    0  0.00000000000E+00  0.00000000000E+00  0.45593999997E+02  0.45594000000E+02  0.51100000000E-03 0.  1.
         11   -1    0    0    0    0 -0.00000000000E+00 -0.00000000000E+00 -0.45593999997E+02  0.45594000000E+02  0.51100000000E-03 0. -1.
    9900012    2    1    2    0    0 -0.50853628190E+01  0.34288147954E+02  0.26116762477E+02  0.47787270889E+02  0.19999999289E+02 0.  0.
         12    1    1    2    0    0  0.50853628190E+01 -0.34288147954E+02 -0.26116762477E+02  0.43400729111E+02  0.00000000000E+00 0. -1.
         11    1    3    3    0    0  0.30038868526E+01  0.96242088275E+01  0.10964207679E+01  0.10141541823E+02  0.51100000000E-03 0. -1.
        -11    1    3    3    0    0  0.62308991839E-01  0.12056342969E+02  0.16330542072E+02  0.20298913587E+02  0.51100000000E-03 0.  1.
        -12    1    3    3    0    0 -0.81515586635E+01  0.12607596158E+02  0.86897996373E+01  0.17346815479E+02  0.00000000000E+00 0.  1.
</event>
